Title t= 5840.00000 step= 2920000
46055
    1GLY      N    1   2.293   2.481   1.286
    1GLY    HT1    2   2.318   2.452   1.383
    1GLY    HT2    3   2.383   2.493   1.235
    1GLY    HT3    4   2.242   2.399   1.246
    1GLY     CA    5   2.208   2.605   1.287
    1GLY    HA1    6   2.133   2.603   1.365
    1GLY    HA2    7   2.167   2.603   1.188
    1GLY      C    8   2.297   2.723   1.297
    1GLY      O    9   2.415   2.712   1.260
    2PRO      N   10   2.257   2.841   1.338
    2PRO     CD   11   2.113   2.872   1.336
    2PRO    HD1   12   2.088   2.865   1.444
    2PRO    HD2   13   2.056   2.805   1.268
    2PRO     CA   14   2.346   2.960   1.353
    2PRO     HA   15   2.421   2.954   1.276
    2PRO     CB   16   2.239   3.073   1.358
    2PRO    HB1   17   2.271   3.171   1.316
    2PRO    HB2   18   2.215   3.096   1.464
    2PRO     CG   19   2.112   3.012   1.287
    2PRO    HG1   20   2.018   3.068   1.309
    2PRO    HG2   21   2.122   3.001   1.177
    2PRO      C   22   2.425   2.958   1.491
    2PRO      O   23   2.371   2.909   1.589
    3GLY      N   24   2.550   3.014   1.491
    3GLY     HN   25   2.583   3.041   1.400
    3GLY     CA   26   2.647   2.991   1.599
    3GLY    HA1   27   2.735   3.044   1.564
    3GLY    HA2   28   2.649   2.885   1.619
    3GLY      C   29   2.613   3.053   1.728
    3GLY      O   30   2.525   3.129   1.751
    4ALA      N   31   2.697   3.018   1.824
    4ALA     HN   32   2.786   2.974   1.813
    4ALA     CA   33   2.679   3.056   1.961
    4ALA     HA   34   2.574   3.078   1.969
    4ALA     CB   35   2.704   2.931   2.049
    4ALA    HB1   36   2.794   2.884   2.005
    4ALA    HB2   37   2.626   2.852   2.042
    4ALA    HB3   38   2.716   2.964   2.154
    4ALA      C   39   2.760   3.174   2.001
    4ALA      O   40   2.879   3.181   1.978
    5PRO      N   41   2.701   3.280   2.054
    5PRO     CD   42   2.562   3.292   2.105
    5PRO    HD1   43   2.531   3.205   2.166
    5PRO    HD2   44   2.489   3.302   2.021
    5PRO     CA   45   2.780   3.394   2.100
    5PRO     HA   46   2.850   3.435   2.029
    5PRO     CB   47   2.674   3.502   2.154
    5PRO    HB1   48   2.646   3.571   2.072
    5PRO    HB2   49   2.704   3.556   2.246
    5PRO     CG   50   2.555   3.413   2.195
    5PRO    HG1   51   2.561   3.378   2.301
    5PRO    HG2   52   2.458   3.464   2.176
    5PRO      C   53   2.871   3.355   2.218
    5PRO      O   54   2.845   3.262   2.294
    6GLY      N   55   2.977   3.430   2.241
    6GLY     HN   56   2.981   3.514   2.188
    6GLY     CA   57   3.086   3.404   2.339
    6GLY    HA1   58   3.161   3.463   2.288
    6GLY    HA2   59   3.119   3.302   2.346
    6GLY      C   60   3.054   3.454   2.479
    6GLY      O   61   2.937   3.486   2.512
    7PRO      N   62   3.158   3.462   2.566
    7PRO     CD   63   3.278   3.382   2.560
    7PRO    HD1   64   3.343   3.416   2.477
    7PRO    HD2   65   3.258   3.275   2.537
    7PRO     CA   66   3.153   3.543   2.693
    7PRO     HA   67   3.097   3.492   2.770
    7PRO     CB   68   3.306   3.552   2.721
    7PRO    HB1   69   3.325   3.589   2.824
    7PRO    HB2   70   3.353   3.619   2.646
    7PRO     CG   71   3.351   3.403   2.698
    7PRO    HG1   72   3.460   3.385   2.698
    7PRO    HG2   73   3.299   3.346   2.777
    7PRO      C   74   3.088   3.681   2.686
    7PRO      O   75   3.103   3.753   2.588
    8GLY      N   76   3.000   3.718   2.782
    8GLY     HN   77   2.987   3.655   2.857
    8GLY     CA   78   2.956   3.863   2.809
    8GLY    HA1   79   2.891   3.871   2.895
    8GLY    HA2   80   2.909   3.896   2.717
    8GLY      C   81   3.067   3.965   2.821
    8GLY      O   82   3.184   3.933   2.833
    9ALA      N   83   3.027   4.088   2.828
    9ALA     HN   84   2.938   4.116   2.795
    9ALA     CA   85   3.109   4.199   2.878
    9ALA     HA   86   3.202   4.194   2.822
    9ALA     CB   87   3.048   4.331   2.845
    9ALA    HB1   88   2.948   4.347   2.893
    9ALA    HB2   89   3.029   4.336   2.736
    9ALA    HB3   90   3.110   4.418   2.874
    9ALA      C   91   3.137   4.188   3.032
    9ALA      O   92   3.046   4.164   3.114
   10PRO      N   93   3.265   4.209   3.076
   10PRO     CD   94   3.383   4.210   2.991
   10PRO    HD1   95   3.393   4.317   2.964
   10PRO    HD2   96   3.381   4.137   2.907
   10PRO     CA   97   3.302   4.200   3.217
   10PRO     HA   98   3.289   4.101   3.258
   10PRO     CB   99   3.450   4.243   3.212
   10PRO    HB1  100   3.504   4.205   3.301
   10PRO    HB2  101   3.461   4.354   3.205
   10PRO     CG  102   3.500   4.184   3.083
   10PRO    HG1  103   3.594   4.232   3.050
   10PRO    HG2  104   3.515   4.074   3.096
   10PRO      C  105   3.222   4.278   3.312
   10PRO      O  106   3.218   4.399   3.306
   11GLY      N  107   3.153   4.218   3.405
   11GLY     HN  108   3.139   4.120   3.391
   11GLY     CA  109   3.083   4.279   3.513
   11GLY    HA1  110   3.041   4.201   3.575
   11GLY    HA2  111   3.002   4.327   3.460
   11GLY      C  112   3.148   4.385   3.604
   11GLY      O  113   3.272   4.384   3.613
   12PRO      N  114   3.074   4.471   3.679
   12PRO     CD  115   2.926   4.467   3.671
   12PRO    HD1  116   2.894   4.361   3.664
   12PRO    HD2  117   2.891   4.531   3.586
   12PRO     CA  118   3.121   4.572   3.779
   12PRO     HA  119   3.162   4.653   3.721
   12PRO     CB  120   2.985   4.619   3.847
   12PRO    HB1  121   2.960   4.718   3.804
   12PRO    HB2  122   2.997   4.623   3.957
   12PRO     CG  123   2.876   4.521   3.807
   12PRO    HG1  124   2.894   4.441   3.882
   12PRO    HG2  125   2.774   4.564   3.818
   12PRO      C  126   3.218   4.521   3.891
   12PRO      O  127   3.226   4.400   3.927
   13GLY      N  128   3.306   4.621   3.927
   13GLY     HN  129   3.290   4.715   3.896
   13GLY     CA  130   3.393   4.591   4.037
   13GLY    HA1  131   3.435   4.685   4.070
   13GLY    HA2  132   3.467   4.524   3.996
   13GLY      C  133   3.341   4.531   4.149
   13GLY      O  134   3.231   4.559   4.192
   14ALA      N  135   3.420   4.448   4.216
   14ALA     HN  136   3.507   4.411   4.184
   14ALA     CA  137   3.397   4.409   4.350
   14ALA     HA  138   3.297   4.369   4.357
   14ALA     CB  139   3.488   4.292   4.388
   14ALA    HB1  140   3.592   4.317   4.360
   14ALA    HB2  141   3.455   4.202   4.332
   14ALA    HB3  142   3.471   4.273   4.496
   14ALA      C  143   3.417   4.530   4.448
   14ALA      O  144   3.495   4.620   4.421
   15PRO      N  145   3.339   4.549   4.557
   15PRO     CD  146   3.217   4.475   4.583
   15PRO    HD1  147   3.245   4.380   4.634
   15PRO    HD2  148   3.150   4.450   4.498
   15PRO     CA  149   3.377   4.635   4.661
   15PRO     HA  150   3.390   4.737   4.628
   15PRO     CB  151   3.255   4.623   4.761
   15PRO    HB1  152   3.234   4.720   4.810
   15PRO    HB2  153   3.280   4.549   4.840
   15PRO     CG  154   3.139   4.566   4.677
   15PRO    HG1  155   3.053   4.522   4.732
   15PRO    HG2  156   3.091   4.640   4.609
   15PRO      C  157   3.502   4.582   4.731
   15PRO    OT1  158   3.535   4.464   4.740
   15PRO    OT2  159   3.584   4.671   4.774
   16LIT    LIT  160   5.184   5.043   2.466
   17LIT    LIT  161   2.484   5.023   4.240
   18LIT    LIT  162   5.830   5.143   6.595
   19LIT    LIT  163   5.537   5.723   2.025
   20LIT    LIT  164   2.899   5.941   3.167
   21LIT    LIT  165   8.072   4.664   2.795
   22LIT    LIT  166   0.126   7.147   3.741
   23LIT    LIT  167   6.765   4.705   4.290
   24LIT    LIT  168   5.385   6.287   2.731
   25LIT    LIT  169   4.543   0.275   6.771
   26LIT    LIT  170   6.865   3.003   3.329
   27LIT    LIT  171   6.878   3.673   1.384
   28LIT    LIT  172   0.116   5.688   5.116
   29LIT    LIT  173   4.566   2.289   2.698
   30LIT    LIT  174   3.805   4.224   1.875
   31LIT    LIT  175   6.190   3.040   5.625
   32LIT    LIT  176   1.572   4.284   4.609
   33LIT    LIT  177   4.902   7.741   2.535
   34LIT    LIT  178   1.000   5.471   0.905
   35LIT    LIT  179   8.329   0.721   5.109
   36LIT    LIT  180   7.654   6.161   6.259
   37LIT    LIT  181   1.428   5.386   1.872
   38LIT    LIT  182   0.106   6.222   1.946
   39LIT    LIT  183   4.739   0.766   4.785
   40LIT    LIT  184   0.298   6.845   5.273
   41LIT    LIT  185   2.251   1.892   4.818
   42LIT    LIT  186   7.063   4.975   0.996
   43LIT    LIT  187   8.325   7.008   1.109
   44LIT    LIT  188   4.718   7.514   0.697
   45LIT    LIT  189   7.688   6.185   2.863
   46LIT    LIT  190   0.114   4.245   2.525
   47LIT    LIT  191   1.369   0.557   0.529
   48LIT    LIT  192   0.957   6.051   2.454
   49LIT    LIT  193   0.525   0.387   6.672
   50LIT    LIT  194   3.906   5.413   2.362
   51LIT    LIT  195   3.628   7.702   0.975
   52LIT    LIT  196   7.057   1.885   5.236
   53LIT    LIT  197   4.989   6.815   4.206
   54LIT    LIT  198   4.207   2.335   5.347
   55LIT    LIT  199   3.214   0.716   3.690
   56LIT    LIT  200   7.062   5.481   2.457
   57LIT    LIT  201   6.021   7.210   6.621
   58LIT    LIT  202   3.721   4.515   4.750
   59CLA    CLA  203   3.600   4.913   1.110
   60CLA    CLA  204   3.180   5.947   3.776
   61CLA    CLA  205   4.713   6.452   2.285
   62CLA    CLA  206   3.320   7.836   4.056
   63CLA    CLA  207   1.788   6.586   2.757
   64CLA    CLA  208   3.420   5.823   5.196
   65CLA    CLA  209   0.675   3.991   6.584
   66CLA    CLA  210   1.716   5.734   0.454
   67CLA    CLA  211   6.198   5.276   4.162
   68CLA    CLA  212   7.197   4.855   2.610
   69CLA    CLA  213   5.717   7.113   5.098
   70CLA    CLA  214   5.002   0.937   0.677
   71CLA    CLA  215   8.160   3.319   2.417
   72CLA    CLA  216   7.638   5.764   5.895
   73CLA    CLA  217   8.291   5.634   5.102
   74CLA    CLA  218   5.176   7.869   1.919
   75CLA    CLA  219   5.726   5.632   5.400
   76CLA    CLA  220   0.292   3.410   1.163
   77CLA    CLA  221   4.686   2.771   3.961
   78CLA    CLA  222   7.914   1.245   5.514
   79CLA    CLA  223   6.625   5.289   0.412
   80CLA    CLA  224   7.782   5.486   1.318
   81CLA    CLA  225   1.321   2.589   1.656
   82CLA    CLA  226   4.331   4.311   2.774
   83CLA    CLA  227   7.494   6.922   3.603
   84CLA    CLA  228   8.047   5.796   2.595
   85CLA    CLA  229   8.374   6.415   2.343
   86CLA    CLA  230   1.981   7.753   0.722
   87CLA    CLA  231   2.056   0.400   5.809
   88CLA    CLA  232   6.064   5.304   2.095
   89CLA    CLA  233   4.413   3.675   0.937
   90CLA    CLA  234   4.523   6.539   0.702
   91CLA    CLA  235   2.442   4.607   6.636
   92CLA    CLA  236   5.572   5.250   1.100
   93CLA    CLA  237   4.718   2.018   5.031
   94CLA    CLA  238   6.414   7.290   5.615
   95CLA    CLA  239   2.924   1.136   1.841
   96CLA    CLA  240   6.540   2.130   3.710
   97CLA    CLA  241   1.575   2.439   3.811
   98CLA    CLA  242   5.544   4.090   6.497
   99CLA    CLA  243   0.916   4.437   2.410
  100CLA    CLA  244   0.447   4.901   0.959
  101CLA    CLA  245   1.356   0.642   0.316
  102TIP3   OH2  246   4.566   3.512   3.286
  102TIP3    H1  247   4.489   3.518   3.229
  102TIP3    H2  248   4.531   3.519   3.375
  103TIP3   OH2  249   7.779   5.689   4.895
  103TIP3    H1  250   7.840   5.761   4.878
  103TIP3    H2  251   7.829   5.610   4.873
  104TIP3   OH2  252   4.765   4.251   6.018
  104TIP3    H1  253   4.713   4.223   6.093
  104TIP3    H2  254   4.721   4.211   5.942
  105TIP3   OH2  255   6.543   2.413   0.137
  105TIP3    H1  256   6.448   2.399   0.130
  105TIP3    H2  257   6.554   2.466   0.216
  106TIP3   OH2  258   1.719   6.434   1.699
  106TIP3    H1  259   1.706   6.494   1.773
  106TIP3    H2  260   1.802   6.461   1.660
  107TIP3   OH2  261   5.926   5.874   6.004
  107TIP3    H1  262   5.879   5.946   6.046
  107TIP3    H2  263   6.004   5.914   5.967
  108TIP3   OH2  264   1.296   3.049   6.589
  108TIP3    H1  265   1.353   3.069   6.663
  108TIP3    H2  266   1.213   3.092   6.610
  109TIP3   OH2  267   5.820   6.459   4.158
  109TIP3    H1  268   5.750   6.407   4.118
  109TIP3    H2  269   5.841   6.526   4.093
  110TIP3   OH2  270   3.696   4.352   1.324
  110TIP3    H1  271   3.659   4.365   1.237
  110TIP3    H2  272   3.782   4.396   1.320
  111TIP3   OH2  273   4.106   2.443   5.785
  111TIP3    H1  274   4.148   2.428   5.870
  111TIP3    H2  275   4.032   2.500   5.805
  112TIP3   OH2  276   3.155   5.676   1.040
  112TIP3    H1  277   3.196   5.596   1.073
  112TIP3    H2  278   3.228   5.730   1.009
  113TIP3   OH2  279   3.988   6.837   1.464
  113TIP3    H1  280   3.995   6.921   1.509
  113TIP3    H2  281   4.077   6.818   1.436
  114TIP3   OH2  282   3.517   3.077   3.426
  114TIP3    H1  283   3.504   3.129   3.505
  114TIP3    H2  284   3.432   3.078   3.381
  115TIP3   OH2  285   7.874   1.320   6.256
  115TIP3    H1  286   7.920   1.403   6.247
  115TIP3    H2  287   7.933   1.255   6.217
  116TIP3   OH2  288   1.106   0.468   5.959
  116TIP3    H1  289   1.099   0.414   5.880
  116TIP3    H2  290   1.111   0.404   6.031
  117TIP3   OH2  291   3.997   2.515   6.406
  117TIP3    H1  292   4.017   2.422   6.409
  117TIP3    H2  293   4.068   2.556   6.456
  118TIP3   OH2  294   0.332   3.892   6.399
  118TIP3    H1  295   0.396   3.831   6.436
  118TIP3    H2  296   0.385   3.960   6.358
  119TIP3   OH2  297   6.035   5.008   4.812
  119TIP3    H1  298   6.073   4.922   4.793
  119TIP3    H2  299   6.014   5.044   4.727
  120TIP3   OH2  300   5.616   0.704   1.224
  120TIP3    H1  301   5.535   0.720   1.273
  120TIP3    H2  302   5.632   0.785   1.177
  121TIP3   OH2  303   1.424   6.422   4.402
  121TIP3    H1  304   1.439   6.339   4.357
  121TIP3    H2  305   1.443   6.489   4.336
  122TIP3   OH2  306   8.350   1.387   1.610
  122TIP3    H1  307   8.327   1.438   1.532
  122TIP3    H2  308   8.319   1.299   1.591
  123TIP3   OH2  309   6.280   7.685   2.829
  123TIP3    H1  310   6.241   7.739   2.898
  123TIP3    H2  311   6.205   7.655   2.777
  124TIP3   OH2  312   6.464   4.939   3.473
  124TIP3    H1  313   6.463   4.956   3.567
  124TIP3    H2  314   6.494   5.021   3.434
  125TIP3   OH2  315   1.808   2.044   0.665
  125TIP3    H1  316   1.803   1.999   0.749
  125TIP3    H2  317   1.867   2.118   0.681
  126TIP3   OH2  318   0.864   2.798   0.051
  126TIP3    H1  319   0.881   2.859   0.123
  126TIP3    H2  320   0.907   2.839  -0.025
  127TIP3   OH2  321   1.662   0.572   4.610
  127TIP3    H1  322   1.652   0.665   4.589
  127TIP3    H2  323   1.603   0.558   4.684
  128TIP3   OH2  324   7.835   3.324   5.597
  128TIP3    H1  325   7.822   3.229   5.592
  128TIP3    H2  326   7.853   3.351   5.507
  129TIP3   OH2  327   6.579   7.607   3.399
  129TIP3    H1  328   6.561   7.653   3.481
  129TIP3    H2  329   6.641   7.664   3.353
  130TIP3   OH2  330   4.255   0.536   6.353
  130TIP3    H1  331   4.285   0.607   6.409
  130TIP3    H2  332   4.227   0.468   6.414
  131TIP3   OH2  333   4.785   1.081   5.764
  131TIP3    H1  334   4.708   1.136   5.753
  131TIP3    H2  335   4.753   1.003   5.808
  132TIP3   OH2  336   7.050   2.419   3.443
  132TIP3    H1  337   7.065   2.386   3.355
  132TIP3    H2  338   6.969   2.376   3.472
  133TIP3   OH2  339   6.940   0.011   1.179
  133TIP3    H1  340   6.891  -0.014   1.101
  133TIP3    H2  341   6.985  -0.069   1.206
  134TIP3   OH2  342   7.391   2.662   6.666
  134TIP3    H1  343   7.295   2.664   6.659
  134TIP3    H2  344   7.408   2.686   6.757
  135TIP3   OH2  345   1.768   7.797   5.637
  135TIP3    H1  346   1.700   7.792   5.704
  135TIP3    H2  347   1.769   7.890   5.612
  136TIP3   OH2  348   3.691   5.470   6.379
  136TIP3    H1  349   3.769   5.509   6.418
  136TIP3    H2  350   3.678   5.388   6.427
  137TIP3   OH2  351   7.427   5.557   2.737
  137TIP3    H1  352   7.431   5.487   2.672
  137TIP3    H2  353   7.449   5.515   2.820
  138TIP3   OH2  354   7.190   6.242   0.507
  138TIP3    H1  355   7.228   6.229   0.593
  138TIP3    H2  356   7.155   6.331   0.509
  139TIP3   OH2  357   0.012   3.300   6.257
  139TIP3    H1  358   0.097   3.326   6.293
  139TIP3    H2  359   0.005   3.207   6.277
  140TIP3   OH2  360   5.997   0.467   1.136
  140TIP3    H1  361   6.051   0.396   1.171
  140TIP3    H2  362   5.938   0.491   1.207
  141TIP3   OH2  363   2.577   1.754   6.001
  141TIP3    H1  364   2.561   1.760   5.907
  141TIP3    H2  365   2.621   1.836   6.023
  142TIP3   OH2  366   1.955   6.453   4.097
  142TIP3    H1  367   2.031   6.511   4.093
  142TIP3    H2  368   1.881   6.507   4.071
  143TIP3   OH2  369   4.286   7.405   6.093
  143TIP3    H1  370   4.298   7.353   6.173
  143TIP3    H2  371   4.211   7.364   6.049
  144TIP3   OH2  372   7.369   7.604   5.133
  144TIP3    H1  373   7.415   7.681   5.167
  144TIP3    H2  374   7.432   7.533   5.142
  145TIP3   OH2  375   2.327   4.676   4.836
  145TIP3    H1  376   2.315   4.667   4.931
  145TIP3    H2  377   2.355   4.767   4.825
  146TIP3   OH2  378   2.052   3.110   6.036
  146TIP3    H1  379   2.142   3.076   6.038
  146TIP3    H2  380   2.031   3.118   5.943
  147TIP3   OH2  381   1.505   6.589   5.172
  147TIP3    H1  382   1.487   6.644   5.096
  147TIP3    H2  383   1.592   6.553   5.156
  148TIP3   OH2  384   4.946   6.141   2.163
  148TIP3    H1  385   5.017   6.188   2.120
  148TIP3    H2  386   4.905   6.206   2.220
  149TIP3   OH2  387   3.804   4.855   1.483
  149TIP3    H1  388   3.848   4.940   1.492
  149TIP3    H2  389   3.711   4.877   1.476
  150TIP3   OH2  390   6.619   3.406   5.356
  150TIP3    H1  391   6.604   3.405   5.262
  150TIP3    H2  392   6.602   3.316   5.384
  151TIP3   OH2  393   3.691   5.057   2.455
  151TIP3    H1  394   3.599   5.077   2.473
  151TIP3    H2  395   3.710   4.980   2.508
  152TIP3   OH2  396   0.447   2.908   5.725
  152TIP3    H1  397   0.488   2.823   5.710
  152TIP3    H2  398   0.520   2.968   5.743
  153TIP3   OH2  399   7.497   1.956   0.487
  153TIP3    H1  400   7.451   1.882   0.448
  153TIP3    H2  401   7.578   1.964   0.436
  154TIP3   OH2  402   5.738   3.695   4.572
  154TIP3    H1  403   5.703   3.732   4.491
  154TIP3    H2  404   5.662   3.661   4.618
  155TIP3   OH2  405   1.524   2.085   4.339
  155TIP3    H1  406   1.584   2.051   4.406
  155TIP3    H2  407   1.438   2.079   4.380
  156TIP3   OH2  408   8.033   7.777   5.322
  156TIP3    H1  409   8.003   7.857   5.279
  156TIP3    H2  410   7.954   7.738   5.359
  157TIP3   OH2  411   7.655   6.835   1.830
  157TIP3    H1  412   7.618   6.752   1.859
  157TIP3    H2  413   7.654   6.829   1.735
  158TIP3   OH2  414   1.710   3.312   0.129
  158TIP3    H1  415   1.685   3.375   0.196
  158TIP3    H2  416   1.627   3.281   0.093
  159TIP3   OH2  417   6.117   5.394   4.947
  159TIP3    H1  418   6.091   5.303   4.940
  159TIP3    H2  419   6.211   5.391   4.963
  160TIP3   OH2  420   0.569   4.650   4.651
  160TIP3    H1  421   0.578   4.723   4.591
  160TIP3    H2  422   0.647   4.596   4.636
  161TIP3   OH2  423   2.716   7.167   3.595
  161TIP3    H1  424   2.781   7.204   3.655
  161TIP3    H2  425   2.766   7.141   3.518
  162TIP3   OH2  426   5.498   4.065   3.296
  162TIP3    H1  427   5.562   4.007   3.254
  162TIP3    H2  428   5.503   4.043   3.389
  163TIP3   OH2  429   7.037   2.147   5.657
  163TIP3    H1  430   7.101   2.081   5.684
  163TIP3    H2  431   6.960   2.130   5.711
  164TIP3   OH2  432   0.685   0.422   0.324
  164TIP3    H1  433   0.747   0.394   0.391
  164TIP3    H2  434   0.626   0.481   0.370
  165TIP3   OH2  435   1.129   2.838   1.728
  165TIP3    H1  436   1.185   2.760   1.732
  165TIP3    H2  437   1.094   2.837   1.639
  166TIP3   OH2  438   3.691   3.307   5.367
  166TIP3    H1  439   3.751   3.352   5.426
  166TIP3    H2  440   3.635   3.255   5.425
  167TIP3   OH2  441   5.713   4.956   2.816
  167TIP3    H1  442   5.758   5.031   2.855
  167TIP3    H2  443   5.781   4.890   2.805
  168TIP3   OH2  444   4.063   4.093   2.214
  168TIP3    H1  445   4.139   4.144   2.186
  168TIP3    H2  446   4.099   4.011   2.247
  169TIP3   OH2  447   0.780   5.177   2.804
  169TIP3    H1  448   0.726   5.128   2.865
  169TIP3    H2  449   0.865   5.185   2.847
  170TIP3   OH2  450   6.197   0.612   5.189
  170TIP3    H1  451   6.290   0.630   5.205
  170TIP3    H2  452   6.196   0.549   5.118
  171TIP3   OH2  453   5.075   6.824   2.370
  171TIP3    H1  454   5.040   6.824   2.281
  171TIP3    H2  455   5.009   6.779   2.422
  172TIP3   OH2  456   6.778   4.573   2.775
  172TIP3    H1  457   6.835   4.616   2.712
  172TIP3    H2  458   6.694   4.565   2.730
  173TIP3   OH2  459   5.458   2.717   4.150
  173TIP3    H1  460   5.546   2.681   4.151
  173TIP3    H2  461   5.463   2.797   4.202
  174TIP3   OH2  462   1.803   0.048   6.443
  174TIP3    H1  463   1.765   0.059   6.530
  174TIP3    H2  464   1.790  -0.045   6.423
  175TIP3   OH2  465   0.489   2.328   0.949
  175TIP3    H1  466   0.474   2.288   0.864
  175TIP3    H2  467   0.510   2.419   0.930
  176TIP3   OH2  468   2.647   1.850   2.724
  176TIP3    H1  469   2.609   1.899   2.798
  176TIP3    H2  470   2.603   1.886   2.647
  177TIP3   OH2  471   2.565   7.797   5.157
  177TIP3    H1  472   2.583   7.704   5.140
  177TIP3    H2  473   2.566   7.837   5.070
  178TIP3   OH2  474   5.031   3.758   5.964
  178TIP3    H1  475   5.082   3.704   6.025
  178TIP3    H2  476   5.069   3.740   5.879
  179TIP3   OH2  477   8.236   5.326   6.824
  179TIP3    H1  478   8.144   5.330   6.800
  179TIP3    H2  479   8.280   5.294   6.745
  180TIP3   OH2  480   2.457   6.732   1.821
  180TIP3    H1  481   2.496   6.675   1.888
  180TIP3    H2  482   2.525   6.797   1.803
  181TIP3   OH2  483   0.203   1.722   5.853
  181TIP3    H1  484   0.160   1.661   5.793
  181TIP3    H2  485   0.131   1.760   5.904
  182TIP3   OH2  486   4.712   6.813   4.451
  182TIP3    H1  487   4.709   6.866   4.531
  182TIP3    H2  488   4.801   6.779   4.449
  183TIP3   OH2  489   1.828   6.149   1.393
  183TIP3    H1  490   1.811   6.236   1.357
  183TIP3    H2  491   1.743   6.104   1.388
  184TIP3   OH2  492   2.904   5.392   5.751
  184TIP3    H1  493   2.830   5.414   5.807
  184TIP3    H2  494   2.871   5.324   5.693
  185TIP3   OH2  495   3.189   5.006   0.798
  185TIP3    H1  496   3.263   4.961   0.756
  185TIP3    H2  497   3.125   4.937   0.815
  186TIP3   OH2  498   1.058   2.381   2.377
  186TIP3    H1  499   1.067   2.473   2.351
  186TIP3    H2  500   0.979   2.351   2.332
  187TIP3   OH2  501   8.131   6.550   6.762
  187TIP3    H1  502   8.046   6.515   6.788
  187TIP3    H2  503   8.111   6.634   6.721
  188TIP3   OH2  504   0.975   5.857   2.455
  188TIP3    H1  505   0.945   5.778   2.501
  188TIP3    H2  506   1.032   5.823   2.385
  189TIP3   OH2  507   4.258   5.425   3.822
  189TIP3    H1  508   4.196   5.353   3.824
  189TIP3    H2  509   4.228   5.484   3.891
  190TIP3   OH2  510   2.632   0.224   3.990
  190TIP3    H1  511   2.661   0.174   3.914
  190TIP3    H2  512   2.536   0.219   3.987
  191TIP3   OH2  513   3.073   2.807   4.440
  191TIP3    H1  514   3.132   2.856   4.383
  191TIP3    H2  515   2.985   2.827   4.407
  192TIP3   OH2  516   1.795   3.584   1.438
  192TIP3    H1  517   1.774   3.551   1.526
  192TIP3    H2  518   1.889   3.600   1.441
  193TIP3   OH2  519   3.763   6.285   3.333
  193TIP3    H1  520   3.759   6.217   3.401
  193TIP3    H2  521   3.837   6.260   3.278
  194TIP3   OH2  522   5.989   4.641   0.498
  194TIP3    H1  523   5.950   4.590   0.570
  194TIP3    H2  524   6.072   4.673   0.534
  195TIP3   OH2  525   1.554   1.711   2.990
  195TIP3    H1  526   1.499   1.785   2.964
  195TIP3    H2  527   1.636   1.724   2.943
  196TIP3   OH2  528   4.252   5.756   2.945
  196TIP3    H1  529   4.230   5.693   2.876
  196TIP3    H2  530   4.310   5.819   2.902
  197TIP3   OH2  531   2.976   2.658   2.778
  197TIP3    H1  532   3.006   2.646   2.688
  197TIP3    H2  533   2.923   2.738   2.775
  198TIP3   OH2  534   4.952   6.713   6.511
  198TIP3    H1  535   4.879   6.772   6.491
  198TIP3    H2  536   4.912   6.643   6.564
  199TIP3   OH2  537   7.222   5.121   0.081
  199TIP3    H1  538   7.163   5.061   0.126
  199TIP3    H2  539   7.224   5.089  -0.009
  200TIP3   OH2  540   3.791   0.758   4.220
  200TIP3    H1  541   3.783   0.830   4.159
  200TIP3    H2  542   3.847   0.791   4.290
  201TIP3   OH2  543   5.819   6.964   0.694
  201TIP3    H1  544   5.834   6.918   0.612
  201TIP3    H2  545   5.865   6.913   0.760
  202TIP3   OH2  546   5.994   6.220   5.762
  202TIP3    H1  547   5.919   6.163   5.782
  202TIP3    H2  548   5.969   6.306   5.795
  203TIP3   OH2  549   6.286   7.720   4.974
  203TIP3    H1  550   6.278   7.714   4.878
  203TIP3    H2  551   6.345   7.649   4.997
  204TIP3   OH2  552   1.487   1.193   4.205
  204TIP3    H1  553   1.482   1.255   4.132
  204TIP3    H2  554   1.395   1.173   4.226
  205TIP3   OH2  555   1.367   3.722   5.783
  205TIP3    H1  556   1.352   3.639   5.739
  205TIP3    H2  557   1.420   3.773   5.720
  206TIP3   OH2  558   4.175   7.128   4.281
  206TIP3    H1  559   4.171   7.064   4.352
  206TIP3    H2  560   4.092   7.176   4.288
  207TIP3   OH2  561   6.666   2.245   5.071
  207TIP3    H1  562   6.672   2.160   5.115
  207TIP3    H2  563   6.687   2.309   5.139
  208TIP3   OH2  564   2.954   5.217   6.147
  208TIP3    H1  565   3.030   5.261   6.110
  208TIP3    H2  566   2.988   5.171   6.224
  209TIP3   OH2  567   2.216   1.732   0.626
  209TIP3    H1  568   2.226   1.783   0.546
  209TIP3    H2  569   2.141   1.771   0.671
  210TIP3   OH2  570   4.998   0.341   1.725
  210TIP3    H1  571   5.011   0.285   1.649
  210TIP3    H2  572   5.019   0.286   1.800
  211TIP3   OH2  573   7.931   5.731   3.576
  211TIP3    H1  574   7.973   5.716   3.661
  211TIP3    H2  575   7.837   5.731   3.596
  212TIP3   OH2  576   0.279   4.800   4.926
  212TIP3    H1  577   0.279   4.756   5.011
  212TIP3    H2  578   0.351   4.863   4.932
  213TIP3   OH2  579   7.408   5.450   6.429
  213TIP3    H1  580   7.412   5.412   6.517
  213TIP3    H2  581   7.499   5.451   6.400
  214TIP3   OH2  582   1.899   4.545   2.910
  214TIP3    H1  583   1.915   4.491   2.833
  214TIP3    H2  584   1.944   4.628   2.891
  215TIP3   OH2  585   0.222   3.586   3.077
  215TIP3    H1  586   0.281   3.568   3.004
  215TIP3    H2  587   0.153   3.520   3.069
  216TIP3   OH2  588   6.915   1.486   4.402
  216TIP3    H1  589   6.900   1.474   4.496
  216TIP3    H2  590   6.971   1.563   4.396
  217TIP3   OH2  591   5.536   4.480   1.939
  217TIP3    H1  592   5.532   4.400   1.885
  217TIP3    H2  593   5.465   4.535   1.906
  218TIP3   OH2  594   4.413   0.380   0.349
  218TIP3    H1  595   4.458   0.416   0.425
  218TIP3    H2  596   4.424   0.285   0.357
  219TIP3   OH2  597   7.233   3.755   4.413
  219TIP3    H1  598   7.319   3.717   4.433
  219TIP3    H2  599   7.209   3.716   4.329
  220TIP3   OH2  600   2.083   1.253   3.136
  220TIP3    H1  601   2.042   1.198   3.203
  220TIP3    H2  602   2.177   1.238   3.147
  221TIP3   OH2  603   3.852   6.323   4.434
  221TIP3    H1  604   3.806   6.292   4.512
  221TIP3    H2  605   3.917   6.384   4.467
  222TIP3   OH2  606   7.987   6.020   3.041
  222TIP3    H1  607   8.066   6.005   2.990
  222TIP3    H2  608   8.005   6.100   3.091
  223TIP3   OH2  609   5.986   6.438   1.210
  223TIP3    H1  610   6.024   6.511   1.162
  223TIP3    H2  611   6.046   6.365   1.195
  224TIP3   OH2  612   4.219   2.665   4.796
  224TIP3    H1  613   4.236   2.649   4.889
  224TIP3    H2  614   4.276   2.739   4.774
  225TIP3   OH2  615   3.124   1.122   5.020
  225TIP3    H1  616   3.055   1.188   5.010
  225TIP3    H2  617   3.200   1.160   4.975
  226TIP3   OH2  618   2.321   6.516   4.353
  226TIP3    H1  619   2.256   6.573   4.395
  226TIP3    H2  620   2.281   6.429   4.355
  227TIP3   OH2  621   4.752   7.626   2.288
  227TIP3    H1  622   4.664   7.659   2.272
  227TIP3    H2  623   4.809   7.691   2.247
  228TIP3   OH2  624   4.528   1.402   1.630
  228TIP3    H1  625   4.437   1.390   1.657
  228TIP3    H2  626   4.560   1.314   1.614
  229TIP3   OH2  627   4.246   1.322   0.394
  229TIP3    H1  628   4.305   1.276   0.453
  229TIP3    H2  629   4.159   1.310   0.433
  230TIP3   OH2  630   2.433   4.420   0.618
  230TIP3    H1  631   2.523   4.449   0.607
  230TIP3    H2  632   2.397   4.478   0.686
  231TIP3   OH2  633   0.125   0.654   6.524
  231TIP3    H1  634   0.032   0.657   6.501
  231TIP3    H2  635   0.127   0.619   6.613
  232TIP3   OH2  636   7.926   7.465   4.825
  232TIP3    H1  637   7.959   7.480   4.736
  232TIP3    H2  638   7.932   7.551   4.867
  233TIP3   OH2  639   4.819   4.812   0.086
  233TIP3    H1  640   4.775   4.731   0.059
  233TIP3    H2  641   4.837   4.858   0.005
  234TIP3   OH2  642   4.028   3.028   0.254
  234TIP3    H1  643   3.976   3.079   0.191
  234TIP3    H2  644   3.962   2.979   0.304
  235TIP3   OH2  645   7.312   2.721   3.798
  235TIP3    H1  646   7.389   2.678   3.761
  235TIP3    H2  647   7.284   2.783   3.730
  236TIP3   OH2  648   6.186   3.372   3.389
  236TIP3    H1  649   6.262   3.361   3.446
  236TIP3    H2  650   6.111   3.367   3.448
  237TIP3   OH2  651   3.412   1.840   3.724
  237TIP3    H1  652   3.319   1.839   3.746
  237TIP3    H2  653   3.452   1.781   3.789
  238TIP3   OH2  654   2.434   7.609   1.839
  238TIP3    H1  655   2.489   7.548   1.889
  238TIP3    H2  656   2.363   7.631   1.898
  239TIP3   OH2  657   3.854   6.040   5.886
  239TIP3    H1  658   3.809   6.104   5.831
  239TIP3    H2  659   3.946   6.048   5.862
  240TIP3   OH2  660   4.671   2.619   4.430
  240TIP3    H1  661   4.667   2.534   4.474
  240TIP3    H2  662   4.651   2.599   4.338
  241TIP3   OH2  663   4.094   6.379   1.783
  241TIP3    H1  664   4.000   6.390   1.791
  241TIP3    H2  665   4.105   6.290   1.748
  242TIP3   OH2  666   5.548   3.014   3.103
  242TIP3    H1  667   5.609   3.001   3.031
  242TIP3    H2  668   5.600   3.059   3.170
  243TIP3   OH2  669   0.927   3.291   4.508
  243TIP3    H1  670   0.972   3.359   4.558
  243TIP3    H2  671   0.971   3.210   4.533
  244TIP3   OH2  672   3.883   1.475   3.558
  244TIP3    H1  673   3.939   1.528   3.502
  244TIP3    H2  674   3.882   1.388   3.516
  245TIP3   OH2  675   1.957   6.972   0.412
  245TIP3    H1  676   1.929   7.060   0.387
  245TIP3    H2  677   1.876   6.927   0.436
  246TIP3   OH2  678   3.274   0.007   5.102
  246TIP3    H1  679   3.291   0.087   5.052
  246TIP3    H2  680   3.304  -0.064   5.044
  247TIP3   OH2  681   6.275   4.063   1.725
  247TIP3    H1  682   6.341   3.996   1.706
  247TIP3    H2  683   6.253   4.100   1.640
  248TIP3   OH2  684   2.966   5.364   2.059
  248TIP3    H1  685   2.956   5.441   2.114
  248TIP3    H2  686   2.884   5.316   2.070
  249TIP3   OH2  687   4.986   7.787   3.930
  249TIP3    H1  688   4.932   7.830   3.996
  249TIP3    H2  689   5.073   7.784   3.969
  250TIP3   OH2  690   8.385   5.141   5.247
  250TIP3    H1  691   8.347   5.083   5.182
  250TIP3    H2  692   8.382   5.228   5.207
  251TIP3   OH2  693   4.274   1.791   5.462
  251TIP3    H1  694   4.272   1.865   5.401
  251TIP3    H2  695   4.192   1.744   5.446
  252TIP3   OH2  696   5.201   5.287   3.763
  252TIP3    H1  697   5.205   5.316   3.671
  252TIP3    H2  698   5.114   5.248   3.772
  253TIP3   OH2  699   5.127   1.177   1.937
  253TIP3    H1  700   5.218   1.146   1.945
  253TIP3    H2  701   5.090   1.122   1.868
  254TIP3   OH2  702   4.552   2.332   1.004
  254TIP3    H1  703   4.629   2.350   0.950
  254TIP3    H2  704   4.556   2.238   1.021
  255TIP3   OH2  705   4.988   1.356   4.677
  255TIP3    H1  706   5.080   1.384   4.682
  255TIP3    H2  707   4.939   1.433   4.707
  256TIP3   OH2  708   4.707   7.790   5.673
  256TIP3    H1  709   4.746   7.707   5.645
  256TIP3    H2  710   4.714   7.847   5.596
  257TIP3   OH2  711   0.437   2.421   3.133
  257TIP3    H1  712   0.499   2.361   3.091
  257TIP3    H2  713   0.390   2.462   3.060
  258TIP3   OH2  714   0.143   2.574   5.069
  258TIP3    H1  715   0.230   2.610   5.050
  258TIP3    H2  716   0.130   2.591   5.162
  259TIP3   OH2  717   3.797   5.097   4.623
  259TIP3    H1  718   3.755   5.119   4.540
  259TIP3    H2  719   3.724   5.083   4.684
  260TIP3   OH2  720   3.503   7.504   2.281
  260TIP3    H1  721   3.594   7.499   2.254
  260TIP3    H2  722   3.453   7.480   2.202
  261TIP3   OH2  723   3.815   1.301   5.203
  261TIP3    H1  724   3.865   1.236   5.252
  261TIP3    H2  725   3.871   1.324   5.129
  262TIP3   OH2  726   4.478   6.768   6.025
  262TIP3    H1  727   4.401   6.806   6.067
  262TIP3    H2  728   4.460   6.674   6.025
  263TIP3   OH2  729   6.521   4.121   2.942
  263TIP3    H1  730   6.554   4.148   2.856
  263TIP3    H2  731   6.600   4.110   2.995
  264TIP3   OH2  732   6.543   7.546   5.012
  264TIP3    H1  733   6.628   7.570   5.048
  264TIP3    H2  734   6.501   7.493   5.080
  265TIP3   OH2  735   6.630   2.561   2.723
  265TIP3    H1  736   6.712   2.537   2.766
  265TIP3    H2  737   6.576   2.482   2.725
  266TIP3   OH2  738   1.891   0.164   0.296
  266TIP3    H1  739   1.837   0.240   0.276
  266TIP3    H2  740   1.829   0.094   0.314
  267TIP3   OH2  741   1.640   0.780   3.944
  267TIP3    H1  742   1.627   0.834   3.866
  267TIP3    H2  743   1.680   0.700   3.912
  268TIP3   OH2  744   2.187   6.624   3.959
  268TIP3    H1  745   2.206   6.712   3.925
  268TIP3    H2  746   2.149   6.578   3.884
  269TIP3   OH2  747   3.695   3.627   5.918
  269TIP3    H1  748   3.723   3.688   5.850
  269TIP3    H2  749   3.606   3.602   5.893
  270TIP3   OH2  750   6.931   4.856   0.019
  270TIP3    H1  751   6.915   4.889  -0.070
  270TIP3    H2  752   6.862   4.792   0.034
  271TIP3   OH2  753   3.058   2.218   2.933
  271TIP3    H1  754   3.129   2.156   2.919
  271TIP3    H2  755   3.029   2.241   2.844
  272TIP3   OH2  756   3.074   3.613   1.786
  272TIP3    H1  757   3.031   3.527   1.792
  272TIP3    H2  758   3.163   3.597   1.816
  273TIP3   OH2  759   5.175   6.844   0.664
  273TIP3    H1  760   5.134   6.865   0.580
  273TIP3    H2  761   5.233   6.918   0.681
  274TIP3   OH2  762   5.910   4.092   0.047
  274TIP3    H1  763   5.942   4.002   0.037
  274TIP3    H2  764   5.982   4.147   0.017
  275TIP3   OH2  765   3.495   1.079   2.440
  275TIP3    H1  766   3.484   1.124   2.356
  275TIP3    H2  767   3.420   1.021   2.446
  276TIP3   OH2  768   0.536   7.507   2.582
  276TIP3    H1  769   0.587   7.435   2.545
  276TIP3    H2  770   0.524   7.483   2.674
  277TIP3   OH2  771   8.013   4.182   3.705
  277TIP3    H1  772   8.001   4.141   3.620
  277TIP3    H2  773   8.041   4.110   3.762
  278TIP3   OH2  774   7.025   4.565   3.743
  278TIP3    H1  775   7.030   4.660   3.741
  278TIP3    H2  776   6.937   4.546   3.774
  279TIP3   OH2  777   7.911   3.594   0.406
  279TIP3    H1  778   8.006   3.591   0.408
  279TIP3    H2  779   7.886   3.636   0.488
  280TIP3   OH2  780   7.568   3.940   3.994
  280TIP3    H1  781   7.651   3.987   3.987
  280TIP3    H2  782   7.588   3.864   4.050
  281TIP3   OH2  783   1.599   2.961   3.938
  281TIP3    H1  784   1.511   2.999   3.939
  281TIP3    H2  785   1.594   2.890   3.874
  282TIP3   OH2  786   6.840   0.806   3.991
  282TIP3    H1  787   6.859   0.723   3.947
  282TIP3    H2  788   6.778   0.850   3.933
  283TIP3   OH2  789   0.004   1.935   6.440
  283TIP3    H1  790   0.016   1.846   6.407
  283TIP3    H2  791   0.034   1.931   6.531
  284TIP3   OH2  792   8.346   0.450   4.826
  284TIP3    H1  793   8.304   0.367   4.845
  284TIP3    H2  794   8.325   0.505   4.902
  285TIP3   OH2  795   2.206   7.644   0.513
  285TIP3    H1  796   2.137   7.679   0.569
  285TIP3    H2  797   2.159   7.603   0.440
  286TIP3   OH2  798   2.330   4.530   6.153
  286TIP3    H1  799   2.263   4.570   6.209
  286TIP3    H2  800   2.400   4.505   6.213
  287TIP3   OH2  801   1.131   7.425   5.495
  287TIP3    H1  802   1.152   7.468   5.577
  287TIP3    H2  803   1.120   7.497   5.432
  288TIP3   OH2  804   8.153   5.374   5.073
  288TIP3    H1  805   8.215   5.447   5.068
  288TIP3    H2  806   8.207   5.296   5.062
  289TIP3   OH2  807   3.126   0.344   2.821
  289TIP3    H1  808   3.218   0.325   2.834
  289TIP3    H2  809   3.108   0.419   2.878
  290TIP3   OH2  810   3.427   3.307   3.230
  290TIP3    H1  811   3.495   3.356   3.183
  290TIP3    H2  812   3.410   3.358   3.309
  291TIP3   OH2  813   6.339   2.253   0.437
  291TIP3    H1  814   6.267   2.252   0.500
  291TIP3    H2  815   6.302   2.212   0.358
  292TIP3   OH2  816   4.432   6.428   2.435
  292TIP3    H1  817   4.371   6.441   2.363
  292TIP3    H2  818   4.518   6.426   2.393
  293TIP3   OH2  819   6.532   5.468   5.862
  293TIP3    H1  820   6.592   5.464   5.788
  293TIP3    H2  821   6.581   5.512   5.931
  294TIP3   OH2  822   2.241   1.469   0.562
  294TIP3    H1  823   2.220   1.456   0.469
  294TIP3    H2  824   2.214   1.559   0.580
  295TIP3   OH2  825   2.301   4.038   1.061
  295TIP3    H1  826   2.345   4.106   1.009
  295TIP3    H2  827   2.364   4.016   1.130
  296TIP3   OH2  828   0.498   1.197   4.636
  296TIP3    H1  829   0.429   1.234   4.691
  296TIP3    H2  830   0.551   1.144   4.696
  297TIP3   OH2  831   0.538   5.289   3.167
  297TIP3    H1  832   0.509   5.331   3.248
  297TIP3    H2  833   0.604   5.225   3.195
  298TIP3   OH2  834   5.865   2.306   6.154
  298TIP3    H1  835   5.808   2.253   6.208
  298TIP3    H2  836   5.952   2.293   6.191
  299TIP3   OH2  837   3.374   0.199   2.783
  299TIP3    H1  838   3.420   0.147   2.848
  299TIP3    H2  839   3.371   0.143   2.705
  300TIP3   OH2  840   5.226   0.364   0.147
  300TIP3    H1  841   5.174   0.308   0.205
  300TIP3    H2  842   5.275   0.420   0.207
  301TIP3   OH2  843   5.987   4.632   6.228
  301TIP3    H1  844   5.939   4.646   6.310
  301TIP3    H2  845   5.928   4.667   6.160
  302TIP3   OH2  846   0.828   4.812   6.701
  302TIP3    H1  847   0.840   4.907   6.701
  302TIP3    H2  848   0.916   4.777   6.689
  303TIP3   OH2  849   0.213   3.416   0.201
  303TIP3    H1  850   0.285   3.372   0.157
  303TIP3    H2  851   0.208   3.375   0.287
  304TIP3   OH2  852   2.091   6.408   2.154
  304TIP3    H1  853   2.138   6.490   2.136
  304TIP3    H2  854   2.066   6.376   2.067
  305TIP3   OH2  855   3.276   3.844   0.659
  305TIP3    H1  856   3.272   3.772   0.596
  305TIP3    H2  857   3.270   3.923   0.605
  306TIP3   OH2  858   4.576   2.755   4.888
  306TIP3    H1  859   4.650   2.695   4.902
  306TIP3    H2  860   4.603   2.808   4.813
  307TIP3   OH2  861   2.098   5.489   0.476
  307TIP3    H1  862   2.123   5.438   0.554
  307TIP3    H2  863   2.169   5.473   0.414
  308TIP3   OH2  864   1.223   2.588   1.360
  308TIP3    H1  865   1.281   2.632   1.298
  308TIP3    H2  866   1.266   2.599   1.445
  309TIP3   OH2  867   4.860   3.172   2.190
  309TIP3    H1  868   4.916   3.180   2.267
  309TIP3    H2  869   4.773   3.154   2.225
  310TIP3   OH2  870   7.061   1.009   1.761
  310TIP3    H1  871   7.097   0.920   1.753
  310TIP3    H2  872   7.133   1.066   1.733
  311TIP3   OH2  873   1.518   5.911   6.463
  311TIP3    H1  874   1.593   5.851   6.461
  311TIP3    H2  875   1.524   5.959   6.381
  312TIP3   OH2  876   7.109   2.125   2.717
  312TIP3    H1  877   7.110   2.059   2.648
  312TIP3    H2  878   7.021   2.120   2.754
  313TIP3   OH2  879   7.110   4.303   0.816
  313TIP3    H1  880   7.199   4.338   0.818
  313TIP3    H2  881   7.105   4.257   0.732
  314TIP3   OH2  882   4.289   3.420   6.577
  314TIP3    H1  883   4.260   3.478   6.506
  314TIP3    H2  884   4.320   3.341   6.532
  315TIP3   OH2  885   4.624   4.542   5.837
  315TIP3    H1  886   4.628   4.568   5.745
  315TIP3    H2  887   4.714   4.552   5.869
  316TIP3   OH2  888   5.522   5.284   5.246
  316TIP3    H1  889   5.588   5.216   5.232
  316TIP3    H2  890   5.554   5.333   5.321
  317TIP3   OH2  891   3.667   1.342   2.093
  317TIP3    H1  892   3.626   1.327   2.008
  317TIP3    H2  893   3.750   1.386   2.072
  318TIP3   OH2  894   2.405   2.146   6.448
  318TIP3    H1  895   2.407   2.222   6.506
  318TIP3    H2  896   2.314   2.115   6.452
  319TIP3   OH2  897   0.954   6.492   1.616
  319TIP3    H1  898   1.038   6.459   1.646
  319TIP3    H2  899   0.975   6.551   1.543
  320TIP3   OH2  900   1.273   6.304   1.819
  320TIP3    H1  901   1.191   6.307   1.869
  320TIP3    H2  902   1.298   6.212   1.820
  321TIP3   OH2  903   6.135   5.582   6.123
  321TIP3    H1  904   6.145   5.526   6.199
  321TIP3    H2  905   6.097   5.525   6.056
  322TIP3   OH2  906   5.772   3.760   2.174
  322TIP3    H1  907   5.741   3.679   2.134
  322TIP3    H2  908   5.724   3.829   2.128
  323TIP3   OH2  909   4.173   3.462   4.253
  323TIP3    H1  910   4.243   3.438   4.193
  323TIP3    H2  911   4.098   3.478   4.197
  324TIP3   OH2  912   2.441   2.404   2.002
  324TIP3    H1  913   2.534   2.427   2.005
  324TIP3    H2  914   2.441   2.312   1.976
  325TIP3   OH2  915   1.041   3.295   1.245
  325TIP3    H1  916   1.122   3.243   1.250
  325TIP3    H2  917   0.977   3.236   1.206
  326TIP3   OH2  918   1.066   0.354   5.704
  326TIP3    H1  919   1.136   0.290   5.713
  326TIP3    H2  920   0.988   0.303   5.684
  327TIP3   OH2  921   1.712   6.372   1.225
  327TIP3    H1  922   1.736   6.460   1.255
  327TIP3    H2  923   1.741   6.369   1.134
  328TIP3   OH2  924   3.011   4.795   6.425
  328TIP3    H1  925   3.070   4.765   6.494
  328TIP3    H2  926   2.933   4.741   6.434
  329TIP3   OH2  927   3.995   6.977   3.127
  329TIP3    H1  928   4.018   7.042   3.061
  329TIP3    H2  929   4.073   6.973   3.183
  330TIP3   OH2  930   8.035   5.998   5.715
  330TIP3    H1  931   8.039   5.911   5.756
  330TIP3    H2  932   7.942   6.015   5.704
  331TIP3   OH2  933   1.703   7.408   4.142
  331TIP3    H1  934   1.783   7.406   4.089
  331TIP3    H2  935   1.697   7.321   4.180
  332TIP3   OH2  936   2.231   7.685   6.630
  332TIP3    H1  937   2.163   7.618   6.630
  332TIP3    H2  938   2.230   7.720   6.541
  333TIP3   OH2  939   6.224   7.438   4.265
  333TIP3    H1  940   6.280   7.453   4.342
  333TIP3    H2  941   6.282   7.394   4.203
  334TIP3   OH2  942   0.618   4.488   2.558
  334TIP3    H1  943   0.705   4.451   2.538
  334TIP3    H2  944   0.637   4.572   2.599
  335TIP3   OH2  945   4.638   0.945   5.942
  335TIP3    H1  946   4.601   1.007   6.005
  335TIP3    H2  947   4.723   0.921   5.979
  336TIP3   OH2  948   5.591   1.427   2.525
  336TIP3    H1  949   5.586   1.450   2.618
  336TIP3    H2  950   5.523   1.481   2.484
  337TIP3   OH2  951   7.321   1.214   2.599
  337TIP3    H1  952   7.348   1.163   2.675
  337TIP3    H2  953   7.400   1.261   2.573
  338TIP3   OH2  954   4.602   3.222   0.519
  338TIP3    H1  955   4.621   3.166   0.594
  338TIP3    H2  956   4.659   3.299   0.531
  339TIP3   OH2  957   4.441   4.942   3.671
  339TIP3    H1  958   4.482   4.993   3.741
  339TIP3    H2  959   4.354   4.920   3.704
  340TIP3   OH2  960   7.046   6.183   5.313
  340TIP3    H1  961   6.989   6.196   5.389
  340TIP3    H2  962   7.129   6.153   5.351
  341TIP3   OH2  963   6.551   6.175   2.934
  341TIP3    H1  964   6.573   6.089   2.971
  341TIP3    H2  965   6.630   6.200   2.885
  342TIP3   OH2  966   4.401   6.660   3.793
  342TIP3    H1  967   4.458   6.671   3.716
  342TIP3    H2  968   4.459   6.676   3.868
  343TIP3   OH2  969   6.917   4.406   1.105
  343TIP3    H1  970   6.835   4.431   1.147
  343TIP3    H2  971   6.978   4.395   1.178
  344TIP3   OH2  972   2.520   3.802   1.926
  344TIP3    H1  973   2.605   3.805   1.882
  344TIP3    H2  974   2.467   3.867   1.881
  345TIP3   OH2  975   3.447   0.748   4.854
  345TIP3    H1  976   3.364   0.777   4.894
  345TIP3    H2  977   3.498   0.829   4.844
  346TIP3   OH2  978   5.774   5.205   5.930
  346TIP3    H1  979   5.808   5.130   5.978
  346TIP3    H2  980   5.689   5.223   5.970
  347TIP3   OH2  981   3.189   1.024   6.504
  347TIP3    H1  982   3.259   1.089   6.516
  347TIP3    H2  983   3.111   1.066   6.541
  348TIP3   OH2  984   2.411   7.497   5.389
  348TIP3    H1  985   2.464   7.575   5.408
  348TIP3    H2  986   2.431   7.437   5.462
  349TIP3   OH2  987   5.452   2.958   5.048
  349TIP3    H1  988   5.516   2.980   4.981
  349TIP3    H2  989   5.375   3.009   5.025
  350TIP3   OH2  990   2.942   2.646   5.454
  350TIP3    H1  991   3.001   2.596   5.510
  350TIP3    H2  992   2.916   2.583   5.386
  351TIP3   OH2  993   2.014   0.770   3.367
  351TIP3    H1  994   1.973   0.684   3.367
  351TIP3    H2  995   2.008   0.801   3.457
  352TIP3   OH2  996   4.179   6.387   2.967
  352TIP3    H1  997   4.165   6.379   2.872
  352TIP3    H2  998   4.091   6.394   3.003
  353TIP3   OH2  999   6.609   6.781   2.131
  353TIP3    H1 1000   6.699   6.814   2.130
  353TIP3    H2 1001   6.608   6.718   2.203
  354TIP3   OH2 1002   7.521   0.388   4.869
  354TIP3    H1 1003   7.585   0.412   4.935
  354TIP3    H2 1004   7.485   0.471   4.839
  355TIP3   OH2 1005   4.358   0.007   5.128
  355TIP3    H1 1006   4.300   0.066   5.176
  355TIP3    H2 1007   4.376   0.053   5.046
  356TIP3   OH2 1008   7.121   5.932   6.594
  356TIP3    H1 1009   7.047   5.917   6.654
  356TIP3    H2 1010   7.197   5.942   6.652
  357TIP3   OH2 1011   4.729   5.404   0.590
  357TIP3    H1 1012   4.651   5.364   0.629
  357TIP3    H2 1013   4.696   5.469   0.529
  358TIP3   OH2 1014   6.656   5.082   0.132
  358TIP3    H1 1015   6.737   5.126   0.108
  358TIP3    H2 1016   6.618   5.137   0.201
  359TIP3   OH2 1017   2.533   1.543   1.484
  359TIP3    H1 1018   2.500   1.629   1.510
  359TIP3    H2 1019   2.615   1.533   1.531
  360TIP3   OH2 1020   2.793   1.898   4.179
  360TIP3    H1 1021   2.849   1.955   4.126
  360TIP3    H2 1022   2.711   1.947   4.187
  361TIP3   OH2 1023   1.515   5.781   5.976
  361TIP3    H1 1024   1.494   5.724   5.902
  361TIP3    H2 1025   1.452   5.756   6.043
  362TIP3   OH2 1026   4.607   6.296   3.344
  362TIP3    H1 1027   4.596   6.343   3.261
  362TIP3    H2 1028   4.700   6.306   3.365
  363TIP3   OH2 1029   1.309   0.902   3.656
  363TIP3    H1 1030   1.341   0.833   3.714
  363TIP3    H2 1031   1.387   0.951   3.631
  364TIP3   OH2 1032   0.991   3.380   6.628
  364TIP3    H1 1033   1.073   3.414   6.594
  364TIP3    H2 1034   1.017   3.326   6.703
  365TIP3   OH2 1035   3.638   2.915   3.708
  365TIP3    H1 1036   3.549   2.951   3.716
  365TIP3    H2 1037   3.667   2.901   3.799
  366TIP3   OH2 1038   7.958   1.268   4.108
  366TIP3    H1 1039   7.896   1.231   4.045
  366TIP3    H2 1040   8.012   1.327   4.057
  367TIP3   OH2 1041   3.409   7.459   2.538
  367TIP3    H1 1042   3.406   7.538   2.485
  367TIP3    H2 1043   3.418   7.388   2.474
  368TIP3   OH2 1044   1.412   6.121   0.508
  368TIP3    H1 1045   1.428   6.112   0.414
  368TIP3    H2 1046   1.337   6.180   0.514
  369TIP3   OH2 1047   6.988   7.702   4.753
  369TIP3    H1 1048   7.012   7.667   4.838
  369TIP3    H2 1049   7.071   7.704   4.704
  370TIP3   OH2 1050   5.622   4.752   1.533
  370TIP3    H1 1051   5.610   4.838   1.575
  370TIP3    H2 1052   5.645   4.693   1.605
  371TIP3   OH2 1053   1.943   4.529   3.767
  371TIP3    H1 1054   1.980   4.552   3.683
  371TIP3    H2 1055   1.848   4.531   3.753
  372TIP3   OH2 1056   3.117   1.964   6.083
  372TIP3    H1 1057   3.150   2.026   6.149
  372TIP3    H2 1058   3.073   2.019   6.019
  373TIP3   OH2 1059   8.095   7.800   0.696
  373TIP3    H1 1060   8.169   7.745   0.670
  373TIP3    H2 1061   8.067   7.842   0.615
  374TIP3   OH2 1062   3.995   6.740   2.613
  374TIP3    H1 1063   3.966   6.823   2.574
  374TIP3    H2 1064   3.968   6.673   2.552
  375TIP3   OH2 1065   2.848   6.865   3.075
  375TIP3    H1 1066   2.788   6.910   3.016
  375TIP3    H2 1067   2.926   6.921   3.079
  376TIP3   OH2 1068   3.981   6.626   0.364
  376TIP3    H1 1069   4.014   6.621   0.453
  376TIP3    H2 1070   3.889   6.601   0.370
  377TIP3   OH2 1071   7.844   4.948   1.193
  377TIP3    H1 1072   7.813   5.024   1.242
  377TIP3    H2 1073   7.798   4.954   1.109
  378TIP3   OH2 1074   4.408   6.684   6.768
  378TIP3    H1 1075   4.345   6.665   6.699
  378TIP3    H2 1076   4.398   6.612   6.830
  379TIP3   OH2 1077   2.730   7.488   1.706
  379TIP3    H1 1078   2.665   7.469   1.775
  379TIP3    H2 1079   2.812   7.454   1.741
  380TIP3   OH2 1080   3.956   6.294   1.436
  380TIP3    H1 1081   4.021   6.237   1.476
  380TIP3    H2 1082   3.987   6.383   1.455
  381TIP3   OH2 1083   6.477   3.929   2.177
  381TIP3    H1 1084   6.476   4.025   2.178
  381TIP3    H2 1085   6.479   3.906   2.084
  382TIP3   OH2 1086   6.188   0.467   3.585
  382TIP3    H1 1087   6.165   0.421   3.667
  382TIP3    H2 1088   6.240   0.403   3.536
  383TIP3   OH2 1089   1.393   5.188   4.723
  383TIP3    H1 1090   1.409   5.281   4.736
  383TIP3    H2 1091   1.472   5.145   4.756
  384TIP3   OH2 1092   8.059   6.335   0.386
  384TIP3    H1 1093   8.016   6.373   0.463
  384TIP3    H2 1094   8.065   6.408   0.323
  385TIP3   OH2 1095   6.694   3.116   4.087
  385TIP3    H1 1096   6.671   3.051   4.153
  385TIP3    H2 1097   6.790   3.115   4.084
  386TIP3   OH2 1098   2.732   2.085   1.146
  386TIP3    H1 1099   2.797   2.141   1.103
  386TIP3    H2 1100   2.784   2.032   1.207
  387TIP3   OH2 1101   3.597   6.405   2.108
  387TIP3    H1 1102   3.559   6.332   2.157
  387TIP3    H2 1103   3.522   6.456   2.078
  388TIP3   OH2 1104   5.513   7.655   1.504
  388TIP3    H1 1105   5.525   7.698   1.419
  388TIP3    H2 1106   5.538   7.564   1.489
  389TIP3   OH2 1107   2.933   5.998   2.987
  389TIP3    H1 1108   2.957   5.947   2.910
  389TIP3    H2 1109   2.963   6.087   2.969
  390TIP3   OH2 1110   7.831   4.587   3.837
  390TIP3    H1 1111   7.799   4.587   3.747
  390TIP3    H2 1112   7.797   4.668   3.875
  391TIP3   OH2 1113   7.503   4.686   0.175
  391TIP3    H1 1114   7.417   4.646   0.171
  391TIP3    H2 1115   7.536   4.682   0.085
  392TIP3   OH2 1116   3.044   4.636   5.856
  392TIP3    H1 1117   3.085   4.639   5.770
  392TIP3    H2 1118   2.954   4.666   5.840
  393TIP3   OH2 1119   4.927   7.231   5.936
  393TIP3    H1 1120   5.013   7.274   5.933
  393TIP3    H2 1121   4.936   7.154   5.881
  394TIP3   OH2 1122   3.973   6.626   5.206
  394TIP3    H1 1123   4.064   6.619   5.235
  394TIP3    H2 1124   3.938   6.538   5.217
  395TIP3   OH2 1125   5.010   1.784   1.975
  395TIP3    H1 1126   4.970   1.736   1.902
  395TIP3    H2 1127   4.979   1.738   2.053
  396TIP3   OH2 1128   0.464   7.228   2.312
  396TIP3    H1 1129   0.454   7.299   2.248
  396TIP3    H2 1130   0.557   7.225   2.330
  397TIP3   OH2 1131   0.545   4.006   2.449
  397TIP3    H1 1132   0.635   3.999   2.417
  397TIP3    H2 1133   0.514   4.090   2.415
  398TIP3   OH2 1134   4.588   3.429   6.224
  398TIP3    H1 1135   4.499   3.410   6.193
  398TIP3    H2 1136   4.597   3.377   6.303
  399TIP3   OH2 1137   1.669   1.035   1.696
  399TIP3    H1 1138   1.656   0.954   1.647
  399TIP3    H2 1139   1.761   1.032   1.724
  400TIP3   OH2 1140   0.933   5.526   1.081
  400TIP3    H1 1141   0.896   5.471   1.150
  400TIP3    H2 1142   0.925   5.616   1.115
  401TIP3   OH2 1143   6.753   5.078   5.673
  401TIP3    H1 1144   6.793   5.090   5.758
  401TIP3    H2 1145   6.736   4.984   5.667
  402TIP3   OH2 1146   2.933   3.503   1.026
  402TIP3    H1 1147   3.006   3.466   0.976
  402TIP3    H2 1148   2.868   3.525   0.959
  403TIP3   OH2 1149   3.729   4.364   4.897
  403TIP3    H1 1150   3.744   4.323   4.982
  403TIP3    H2 1151   3.634   4.368   4.889
  404TIP3   OH2 1152   0.762   1.061   0.635
  404TIP3    H1 1153   0.804   1.147   0.636
  404TIP3    H2 1154   0.768   1.031   0.545
  405TIP3   OH2 1155   2.340   0.046   4.530
  405TIP3    H1 1156   2.324  -0.046   4.511
  405TIP3    H2 1157   2.269   0.093   4.486
  406TIP3   OH2 1158   3.528   2.849   1.335
  406TIP3    H1 1159   3.565   2.791   1.268
  406TIP3    H2 1160   3.600   2.907   1.359
  407TIP3   OH2 1161   2.036   2.403   2.296
  407TIP3    H1 1162   2.099   2.381   2.364
  407TIP3    H2 1163   1.982   2.324   2.287
  408TIP3   OH2 1164   5.699   1.805   4.993
  408TIP3    H1 1165   5.660   1.880   5.038
  408TIP3    H2 1166   5.628   1.741   4.989
  409TIP3   OH2 1167   6.349   1.281   0.984
  409TIP3    H1 1168   6.427   1.326   0.951
  409TIP3    H2 1169   6.377   1.245   1.068
  410TIP3   OH2 1170   3.918   6.347   5.295
  410TIP3    H1 1171   3.965   6.304   5.366
  410TIP3    H2 1172   3.826   6.340   5.319
  411TIP3   OH2 1173   1.148   1.809   0.529
  411TIP3    H1 1174   1.088   1.835   0.598
  411TIP3    H2 1175   1.116   1.855   0.451
  412TIP3   OH2 1176   7.292   0.434   1.636
  412TIP3    H1 1177   7.273   0.367   1.571
  412TIP3    H2 1178   7.369   0.480   1.603
  413TIP3   OH2 1179   6.669   6.823   1.856
  413TIP3    H1 1180   6.619   6.898   1.887
  413TIP3    H2 1181   6.635   6.748   1.905
  414TIP3   OH2 1182   3.494   5.159   0.348
  414TIP3    H1 1183   3.410   5.200   0.331
  414TIP3    H2 1184   3.473   5.067   0.367
  415TIP3   OH2 1185   8.313   5.833   3.552
  415TIP3    H1 1186   8.261   5.753   3.554
  415TIP3    H2 1187   8.252   5.900   3.521
  416TIP3   OH2 1188   8.020   2.064   3.109
  416TIP3    H1 1189   8.062   2.068   3.024
  416TIP3    H2 1190   7.937   2.110   3.097
  417TIP3   OH2 1191   2.487   1.985   6.707
  417TIP3    H1 1192   2.508   2.075   6.732
  417TIP3    H2 1193   2.514   1.979   6.615
  418TIP3   OH2 1194   6.373   3.394   4.431
  418TIP3    H1 1195   6.353   3.479   4.471
  418TIP3    H2 1196   6.463   3.375   4.458
  419TIP3   OH2 1197   2.240   4.053   1.562
  419TIP3    H1 1198   2.282   3.968   1.548
  419TIP3    H2 1199   2.182   4.064   1.487
  420TIP3   OH2 1200   0.255   5.209   4.130
  420TIP3    H1 1201   0.228   5.123   4.163
  420TIP3    H2 1202   0.222   5.271   4.195
  421TIP3   OH2 1203   2.251   0.908   1.149
  421TIP3    H1 1204   2.329   0.856   1.165
  421TIP3    H2 1205   2.284   0.997   1.136
  422TIP3   OH2 1206   5.175   3.872   6.632
  422TIP3    H1 1207   5.267   3.893   6.619
  422TIP3    H2 1208   5.176   3.794   6.688
  423TIP3   OH2 1209   0.883   5.765   4.221
  423TIP3    H1 1210   0.859   5.672   4.217
  423TIP3    H2 1211   0.909   5.786   4.132
  424TIP3   OH2 1212   2.643   2.018   2.191
  424TIP3    H1 1213   2.648   1.950   2.125
  424TIP3    H2 1214   2.652   1.972   2.275
  425TIP3   OH2 1215   0.753   4.482   6.759
  425TIP3    H1 1216   0.709   4.400   6.780
  425TIP3    H2 1217   0.706   4.516   6.682
  426TIP3   OH2 1218   6.040   4.279   0.536
  426TIP3    H1 1219   6.001   4.356   0.576
  426TIP3    H2 1220   6.034   4.296   0.442
  427TIP3   OH2 1221   0.351   0.901   0.356
  427TIP3    H1 1222   0.411   0.836   0.321
  427TIP3    H2 1223   0.378   0.983   0.315
  428TIP3   OH2 1224   5.610   0.502   0.495
  428TIP3    H1 1225   5.641   0.586   0.530
  428TIP3    H2 1226   5.689   0.449   0.487
  429TIP3   OH2 1227   6.194   2.084   0.882
  429TIP3    H1 1228   6.134   2.023   0.838
  429TIP3    H2 1229   6.270   2.031   0.904
  430TIP3   OH2 1230   3.844   5.429   5.003
  430TIP3    H1 1231   3.880   5.350   5.044
  430TIP3    H2 1232   3.873   5.424   4.912
  431TIP3   OH2 1233   7.680   5.644   0.404
  431TIP3    H1 1234   7.731   5.714   0.444
  431TIP3    H2 1235   7.591   5.678   0.401
  432TIP3   OH2 1236   8.365   6.008   2.296
  432TIP3    H1 1237   8.303   6.076   2.271
  432TIP3    H2 1238   8.317   5.926   2.285
  433TIP3   OH2 1239   6.847   5.824   6.528
  433TIP3    H1 1240   6.901   5.746   6.517
  433TIP3    H2 1241   6.778   5.796   6.589
  434TIP3   OH2 1242   1.020   4.856   0.994
  434TIP3    H1 1243   1.022   4.761   1.005
  434TIP3    H2 1244   0.932   4.881   1.022
  435TIP3   OH2 1245   2.068   5.808   1.789
  435TIP3    H1 1246   2.073   5.844   1.700
  435TIP3    H2 1247   1.996   5.855   1.830
  436TIP3   OH2 1248   7.940   0.632   3.129
  436TIP3    H1 1249   7.939   0.638   3.034
  436TIP3    H2 1250   7.848   0.637   3.155
  437TIP3   OH2 1251   4.361   3.926   0.367
  437TIP3    H1 1252   4.448   3.949   0.335
  437TIP3    H2 1253   4.350   3.834   0.342
  438TIP3   OH2 1254   5.526   5.719   1.832
  438TIP3    H1 1255   5.525   5.792   1.770
  438TIP3    H2 1256   5.527   5.641   1.777
  439TIP3   OH2 1257   2.709   6.737   3.986
  439TIP3    H1 1258   2.691   6.769   4.074
  439TIP3    H2 1259   2.662   6.798   3.928
  440TIP3   OH2 1260   3.924   0.452   4.558
  440TIP3    H1 1261   3.945   0.361   4.579
  440TIP3    H2 1262   3.903   0.451   4.465
  441TIP3   OH2 1263   5.051   6.005   0.657
  441TIP3    H1 1264   5.019   6.005   0.748
  441TIP3    H2 1265   5.146   6.009   0.665
  442TIP3   OH2 1266   2.962   4.562   2.622
  442TIP3    H1 1267   2.971   4.590   2.713
  442TIP3    H2 1268   2.893   4.617   2.586
  443TIP3   OH2 1269   2.133   7.919   5.904
  443TIP3    H1 1270   2.199   7.885   5.965
  443TIP3    H2 1271   2.108   7.843   5.851
  444TIP3   OH2 1272   5.327   5.168   3.160
  444TIP3    H1 1273   5.369   5.243   3.201
  444TIP3    H2 1274   5.233   5.182   3.175
  445TIP3   OH2 1275   5.282   0.739   6.847
  445TIP3    H1 1276   5.303   0.797   6.921
  445TIP3    H2 1277   5.278   0.798   6.772
  446TIP3   OH2 1278   2.161   0.218   0.394
  446TIP3    H1 1279   2.077   0.187   0.361
  446TIP3    H2 1280   2.139   0.295   0.447
  447TIP3   OH2 1281   5.791   2.870   0.549
  447TIP3    H1 1282   5.765   2.798   0.490
  447TIP3    H2 1283   5.802   2.945   0.491
  448TIP3   OH2 1284   7.021   1.134   3.672
  448TIP3    H1 1285   7.015   1.230   3.674
  448TIP3    H2 1286   7.008   1.107   3.762
  449TIP3   OH2 1287   0.096   1.883   6.686
  449TIP3    H1 1288   0.090   1.810   6.748
  449TIP3    H2 1289   0.178   1.927   6.709
  450TIP3   OH2 1290   3.936   3.534   4.098
  450TIP3    H1 1291   3.897   3.576   4.021
  450TIP3    H2 1292   3.871   3.469   4.125
  451TIP3   OH2 1293   2.068   2.015   1.113
  451TIP3    H1 1294   2.041   1.924   1.102
  451TIP3    H2 1295   2.154   2.020   1.072
  452TIP3   OH2 1296   7.954   5.789   3.995
  452TIP3    H1 1297   7.959   5.738   4.076
  452TIP3    H2 1298   7.863   5.818   3.990
  453TIP3   OH2 1299   6.625   2.782   0.498
  453TIP3    H1 1300   6.565   2.775   0.573
  453TIP3    H2 1301   6.705   2.738   0.528
  454TIP3   OH2 1302   4.859   7.225   5.643
  454TIP3    H1 1303   4.831   7.167   5.573
  454TIP3    H2 1304   4.950   7.200   5.660
  455TIP3   OH2 1305   6.431   0.363   5.128
  455TIP3    H1 1306   6.411   0.317   5.047
  455TIP3    H2 1307   6.426   0.295   5.196
  456TIP3   OH2 1308   1.863   7.674   3.865
  456TIP3    H1 1309   1.817   7.669   3.949
  456TIP3    H2 1310   1.926   7.602   3.868
  457TIP3   OH2 1311   7.877   0.777   2.134
  457TIP3    H1 1312   7.792   0.734   2.121
  457TIP3    H2 1313   7.919   0.773   2.048
  458TIP3   OH2 1314   8.241   1.125   5.199
  458TIP3    H1 1315   8.169   1.081   5.244
  458TIP3    H2 1316   8.202   1.205   5.163
  459TIP3   OH2 1317   6.079   5.346   2.553
  459TIP3    H1 1318   6.121   5.418   2.601
  459TIP3    H2 1319   6.006   5.319   2.608
  460TIP3   OH2 1320   7.140   2.656   5.699
  460TIP3    H1 1321   7.218   2.674   5.751
  460TIP3    H2 1322   7.155   2.568   5.664
  461TIP3   OH2 1323   4.840   1.803   0.472
  461TIP3    H1 1324   4.933   1.826   0.473
  461TIP3    H2 1325   4.839   1.713   0.439
  462TIP3   OH2 1326   1.574   7.273   6.449
  462TIP3    H1 1327   1.599   7.219   6.524
  462TIP3    H2 1328   1.480   7.259   6.440
  463TIP3   OH2 1329   3.715   1.236   3.540
  463TIP3    H1 1330   3.795   1.197   3.505
  463TIP3    H2 1331   3.644   1.183   3.503
  464TIP3   OH2 1332   0.815   1.720   6.558
  464TIP3    H1 1333   0.878   1.742   6.489
  464TIP3    H2 1334   0.868   1.692   6.632
  465TIP3   OH2 1335   7.975   1.037   3.742
  465TIP3    H1 1336   8.035   1.014   3.812
  465TIP3    H2 1337   7.909   1.092   3.784
  466TIP3   OH2 1338   4.495   0.360   1.271
  466TIP3    H1 1339   4.557   0.349   1.344
  466TIP3    H2 1340   4.550   0.357   1.193
  467TIP3   OH2 1341   6.770   7.483   1.246
  467TIP3    H1 1342   6.716   7.500   1.169
  467TIP3    H2 1343   6.841   7.427   1.214
  468TIP3   OH2 1344   6.998   3.260   1.441
  468TIP3    H1 1345   6.904   3.249   1.426
  468TIP3    H2 1346   7.038   3.243   1.356
  469TIP3   OH2 1347   4.332   3.814   5.133
  469TIP3    H1 1348   4.287   3.816   5.218
  469TIP3    H2 1349   4.394   3.887   5.137
  470TIP3   OH2 1350   8.119   4.945   0.974
  470TIP3    H1 1351   8.135   4.976   1.063
  470TIP3    H2 1352   8.206   4.921   0.941
  471TIP3   OH2 1353   7.491   5.992   1.440
  471TIP3    H1 1354   7.420   5.928   1.437
  471TIP3    H2 1355   7.447   6.075   1.459
  472TIP3   OH2 1356   2.244   0.772   2.667
  472TIP3    H1 1357   2.266   0.725   2.587
  472TIP3    H2 1358   2.310   0.841   2.673
  473TIP3   OH2 1359   6.604   6.381   4.176
  473TIP3    H1 1360   6.648   6.410   4.096
  473TIP3    H2 1361   6.643   6.435   4.245
  474TIP3   OH2 1362   4.146   2.943   1.603
  474TIP3    H1 1363   4.211   2.887   1.561
  474TIP3    H2 1364   4.091   2.882   1.652
  475TIP3   OH2 1365   5.534   0.967   6.044
  475TIP3    H1 1366   5.461   0.905   6.052
  475TIP3    H2 1367   5.605   0.927   6.093
  476TIP3   OH2 1368   2.325   6.461   6.742
  476TIP3    H1 1369   2.300   6.369   6.736
  476TIP3    H2 1370   2.386   6.473   6.669
  477TIP3   OH2 1371   5.431   6.248   4.572
  477TIP3    H1 1372   5.396   6.191   4.640
  477TIP3    H2 1373   5.525   6.248   4.586
  478TIP3   OH2 1374   6.842   1.843   6.190
  478TIP3    H1 1375   6.917   1.892   6.155
  478TIP3    H2 1376   6.769   1.905   6.187
  479TIP3   OH2 1377   1.470   0.142   1.484
  479TIP3    H1 1378   1.562   0.142   1.513
  479TIP3    H2 1379   1.470   0.087   1.406
  480TIP3   OH2 1380   2.797   2.916   4.584
  480TIP3    H1 1381   2.747   2.904   4.664
  480TIP3    H2 1382   2.741   2.971   4.529
  481TIP3   OH2 1383   7.177   4.359   5.399
  481TIP3    H1 1384   7.200   4.444   5.435
  481TIP3    H2 1385   7.083   4.350   5.418
  482TIP3   OH2 1386   4.445   4.310   6.442
  482TIP3    H1 1387   4.368   4.262   6.411
  482TIP3    H2 1388   4.416   4.349   6.524
  483TIP3   OH2 1389   4.945   1.046   4.196
  483TIP3    H1 1390   4.946   1.119   4.258
  483TIP3    H2 1391   4.870   0.993   4.222
  484TIP3   OH2 1392   3.280   4.487   6.796
  484TIP3    H1 1393   3.315   4.568   6.832
  484TIP3    H2 1394   3.337   4.418   6.830
  485TIP3   OH2 1395   7.284   6.744   1.074
  485TIP3    H1 1396   7.309   6.748   0.982
  485TIP3    H2 1397   7.353   6.691   1.116
  486TIP3   OH2 1398   6.663   1.730   0.306
  486TIP3    H1 1399   6.569   1.716   0.313
  486TIP3    H2 1400   6.699   1.694   0.387
  487TIP3   OH2 1401   5.331   7.741   2.370
  487TIP3    H1 1402   5.271   7.805   2.332
  487TIP3    H2 1403   5.323   7.664   2.313
  488TIP3   OH2 1404   0.549   4.582   3.067
  488TIP3    H1 1405   0.555   4.650   3.134
  488TIP3    H2 1406   0.591   4.506   3.106
  489TIP3   OH2 1407   8.099   6.702   5.925
  489TIP3    H1 1408   8.048   6.640   5.976
  489TIP3    H2 1409   8.112   6.777   5.983
  490TIP3   OH2 1410   1.282   5.383   6.324
  490TIP3    H1 1411   1.347   5.313   6.320
  490TIP3    H2 1412   1.233   5.376   6.242
  491TIP3   OH2 1413   4.473   0.277   6.316
  491TIP3    H1 1414   4.518   0.360   6.331
  491TIP3    H2 1415   4.541   0.210   6.328
  492TIP3   OH2 1416   5.576   3.727   3.893
  492TIP3    H1 1417   5.556   3.695   3.981
  492TIP3    H2 1418   5.514   3.681   3.836
  493TIP3   OH2 1419   0.655   6.113   1.015
  493TIP3    H1 1420   0.669   6.131   1.108
  493TIP3    H2 1421   0.627   6.021   1.012
  494TIP3   OH2 1422   0.934   1.359   4.825
  494TIP3    H1 1423   0.874   1.354   4.750
  494TIP3    H2 1424   0.900   1.432   4.878
  495TIP3   OH2 1425   3.955   7.509   6.589
  495TIP3    H1 1426   3.901   7.430   6.591
  495TIP3    H2 1427   3.929   7.557   6.667
  496TIP3   OH2 1428   4.503   0.069   4.430
  496TIP3    H1 1429   4.551  -0.013   4.437
  496TIP3    H2 1430   4.541   0.113   4.354
  497TIP3   OH2 1431   7.685   5.548   1.028
  497TIP3    H1 1432   7.739   5.494   0.970
  497TIP3    H2 1433   7.729   5.543   1.113
  498TIP3   OH2 1434   2.490   0.597   2.204
  498TIP3    H1 1435   2.430   0.599   2.279
  498TIP3    H2 1436   2.577   0.589   2.244
  499TIP3   OH2 1437   1.263   4.881   6.174
  499TIP3    H1 1438   1.183   4.920   6.138
  499TIP3    H2 1439   1.234   4.832   6.251
  500TIP3   OH2 1440   7.895   2.730   4.262
  500TIP3    H1 1441   7.896   2.726   4.357
  500TIP3    H2 1442   7.849   2.651   4.235
  501TIP3   OH2 1443   2.297   5.433   4.528
  501TIP3    H1 1444   2.286   5.528   4.517
  501TIP3    H2 1445   2.295   5.419   4.623
  502TIP3   OH2 1446   5.919   7.480   5.305
  502TIP3    H1 1447   6.014   7.483   5.294
  502TIP3    H2 1448   5.906   7.423   5.381
  503TIP3   OH2 1449   4.244   4.625   3.617
  503TIP3    H1 1450   4.296   4.702   3.642
  503TIP3    H2 1451   4.157   4.643   3.652
  504TIP3   OH2 1452   3.520   1.025   3.488
  504TIP3    H1 1453   3.487   0.951   3.437
  504TIP3    H2 1454   3.442   1.076   3.508
  505TIP3   OH2 1455   4.506   6.721   0.034
  505TIP3    H1 1456   4.467   6.773   0.104
  505TIP3    H2 1457   4.556   6.653   0.080
  506TIP3   OH2 1458   1.889   7.888   3.248
  506TIP3    H1 1459   1.972   7.910   3.204
  506TIP3    H2 1460   1.904   7.911   3.340
  507TIP3   OH2 1461   5.562   2.722   0.937
  507TIP3    H1 1462   5.570   2.818   0.936
  507TIP3    H2 1463   5.605   2.696   1.019
  508TIP3   OH2 1464   8.378   2.058   0.704
  508TIP3    H1 1465   8.417   2.058   0.617
  508TIP3    H2 1466   8.412   1.979   0.746
  509TIP3   OH2 1467   3.103   5.175   2.622
  509TIP3    H1 1468   3.187   5.188   2.666
  509TIP3    H2 1469   3.115   5.214   2.535
  510TIP3   OH2 1470   0.246   4.091   6.214
  510TIP3    H1 1471   0.208   4.178   6.223
  510TIP3    H2 1472   0.299   4.097   6.134
  511TIP3   OH2 1473   3.754   7.404   1.521
  511TIP3    H1 1474   3.826   7.340   1.524
  511TIP3    H2 1475   3.773   7.466   1.591
  512TIP3   OH2 1476   1.921   0.967   3.801
  512TIP3    H1 1477   1.826   0.982   3.800
  512TIP3    H2 1478   1.959   1.055   3.793
  513TIP3   OH2 1479   2.613   7.717   0.087
  513TIP3    H1 1480   2.633   7.630   0.052
  513TIP3    H2 1481   2.635   7.777   0.016
  514TIP3   OH2 1482   5.656   1.011   2.697
  514TIP3    H1 1483   5.688   0.922   2.710
  514TIP3    H2 1484   5.569   1.000   2.658
  515TIP3   OH2 1485   0.865   6.810   1.272
  515TIP3    H1 1486   0.779   6.831   1.310
  515TIP3    H2 1487   0.917   6.889   1.284
  516TIP3   OH2 1488   8.340   1.848   3.071
  516TIP3    H1 1489   8.343   1.783   3.002
  516TIP3    H2 1490   8.432   1.866   3.091
  517TIP3   OH2 1491   0.533   6.954   6.433
  517TIP3    H1 1492   0.611   6.900   6.443
  517TIP3    H2 1493   0.560   7.041   6.461
  518TIP3   OH2 1494   3.705   7.058   2.091
  518TIP3    H1 1495   3.679   6.973   2.056
  518TIP3    H2 1496   3.672   7.059   2.180
  519TIP3   OH2 1497   6.553   3.400   6.027
  519TIP3    H1 1498   6.606   3.385   6.106
  519TIP3    H2 1499   6.586   3.336   5.964
  520TIP3   OH2 1500   5.229   6.011   1.990
  520TIP3    H1 1501   5.182   6.095   1.990
  520TIP3    H2 1502   5.247   5.993   1.898
  521TIP3   OH2 1503   5.526   5.226   6.089
  521TIP3    H1 1504   5.449   5.214   6.034
  521TIP3    H2 1505   5.497   5.286   6.158
  522TIP3   OH2 1506   2.478   7.657   3.475
  522TIP3    H1 1507   2.508   7.629   3.388
  522TIP3    H2 1508   2.393   7.698   3.459
  523TIP3   OH2 1509   7.420   7.851   0.099
  523TIP3    H1 1510   7.371   7.912   0.154
  523TIP3    H2 1511   7.494   7.902   0.067
  524TIP3   OH2 1512   3.762   5.376   1.204
  524TIP3    H1 1513   3.748   5.326   1.124
  524TIP3    H2 1514   3.738   5.315   1.274
  525TIP3   OH2 1515   7.856   1.950   4.178
  525TIP3    H1 1516   7.902   2.031   4.158
  525TIP3    H2 1517   7.857   1.944   4.273
  526TIP3   OH2 1518   6.644   6.684   2.706
  526TIP3    H1 1519   6.632   6.739   2.628
  526TIP3    H2 1520   6.732   6.705   2.737
  527TIP3   OH2 1521   1.180   0.328   2.849
  527TIP3    H1 1522   1.141   0.348   2.935
  527TIP3    H2 1523   1.263   0.376   2.849
  528TIP3   OH2 1524   3.142   1.350   6.703
  528TIP3    H1 1525   3.188   1.378   6.782
  528TIP3    H2 1526   3.061   1.401   6.703
  529TIP3   OH2 1527   6.865   0.917   5.458
  529TIP3    H1 1528   6.823   0.841   5.500
  529TIP3    H2 1529   6.798   0.986   5.463
  530TIP3   OH2 1530   1.663   6.420   6.396
  530TIP3    H1 1531   1.709   6.374   6.466
  530TIP3    H2 1532   1.588   6.364   6.376
  531TIP3   OH2 1533   2.749   1.754   0.992
  531TIP3    H1 1534   2.783   1.757   0.903
  531TIP3    H2 1535   2.803   1.815   1.042
  532TIP3   OH2 1536   5.419   5.208   4.211
  532TIP3    H1 1537   5.402   5.282   4.269
  532TIP3    H2 1538   5.505   5.228   4.173
  533TIP3   OH2 1539   4.649   5.846   6.253
  533TIP3    H1 1540   4.611   5.759   6.263
  533TIP3    H2 1541   4.740   5.831   6.228
  534TIP3   OH2 1542   5.916   4.432   0.323
  534TIP3    H1 1543   5.855   4.470   0.260
  534TIP3    H2 1544   5.949   4.507   0.373
  535TIP3   OH2 1545   7.178   6.863   0.497
  535TIP3    H1 1546   7.256   6.919   0.500
  535TIP3    H2 1547   7.136   6.877   0.582
  536TIP3   OH2 1548   5.242   1.430   3.285
  536TIP3    H1 1549   5.180   1.358   3.292
  536TIP3    H2 1550   5.254   1.460   3.375
  537TIP3   OH2 1551   1.085   1.987   5.299
  537TIP3    H1 1552   1.054   2.023   5.382
  537TIP3    H2 1553   1.135   1.909   5.324
  538TIP3   OH2 1554   0.601   0.013   0.895
  538TIP3    H1 1555   0.525  -0.020   0.847
  538TIP3    H2 1556   0.568   0.090   0.942
  539TIP3   OH2 1557   4.227   2.293   2.380
  539TIP3    H1 1558   4.311   2.278   2.335
  539TIP3    H2 1559   4.161   2.273   2.314
  540TIP3   OH2 1560   0.285   0.946   5.703
  540TIP3    H1 1561   0.236   0.881   5.653
  540TIP3    H2 1562   0.375   0.913   5.703
  541TIP3   OH2 1563   2.874   7.861   5.504
  541TIP3    H1 1564   2.835   7.781   5.539
  541TIP3    H2 1565   2.896   7.840   5.414
  542TIP3   OH2 1566   5.660   2.436   6.067
  542TIP3    H1 1567   5.743   2.424   6.114
  542TIP3    H2 1568   5.667   2.379   5.991
  543TIP3   OH2 1569   6.280   5.048   2.864
  543TIP3    H1 1570   6.209   4.987   2.883
  543TIP3    H2 1571   6.286   5.049   2.769
  544TIP3   OH2 1572   6.068   0.299   0.145
  544TIP3    H1 1573   6.097   0.389   0.160
  544TIP3    H2 1574   6.123   0.245   0.202
  545TIP3   OH2 1575   8.113   6.784   3.919
  545TIP3    H1 1576   8.207   6.777   3.900
  545TIP3    H2 1577   8.096   6.878   3.918
  546TIP3   OH2 1578   0.847   5.839   4.846
  546TIP3    H1 1579   0.756   5.857   4.870
  546TIP3    H2 1580   0.846   5.749   4.814
  547TIP3   OH2 1581   4.640   0.669   4.652
  547TIP3    H1 1582   4.692   0.601   4.609
  547TIP3    H2 1583   4.565   0.682   4.595
  548TIP3   OH2 1584   6.169   1.490   4.897
  548TIP3    H1 1585   6.108   1.564   4.898
  548TIP3    H2 1586   6.220   1.500   4.977
  549TIP3   OH2 1587   2.070   5.948   5.494
  549TIP3    H1 1588   2.142   5.960   5.432
  549TIP3    H2 1589   2.111   5.957   5.580
  550TIP3   OH2 1590   2.060   4.750   2.514
  550TIP3    H1 1591   2.030   4.824   2.461
  550TIP3    H2 1592   2.014   4.760   2.597
  551TIP3   OH2 1593   8.173   5.212   4.529
  551TIP3    H1 1594   8.167   5.124   4.491
  551TIP3    H2 1595   8.254   5.248   4.493
  552TIP3   OH2 1596   4.644   3.943   3.315
  552TIP3    H1 1597   4.730   3.980   3.294
  552TIP3    H2 1598   4.582   4.010   3.288
  553TIP3   OH2 1599   1.953   6.474   1.578
  553TIP3    H1 1600   1.921   6.531   1.507
  553TIP3    H2 1601   2.045   6.498   1.589
  554TIP3   OH2 1602   1.017   4.268   3.748
  554TIP3    H1 1603   1.057   4.185   3.721
  554TIP3    H2 1604   1.091   4.328   3.754
  555TIP3   OH2 1605   0.211   1.716   5.253
  555TIP3    H1 1606   0.117   1.732   5.261
  555TIP3    H2 1607   0.244   1.725   5.342
  556TIP3   OH2 1608   7.250   1.110   3.342
  556TIP3    H1 1609   7.168   1.060   3.339
  556TIP3    H2 1610   7.226   1.195   3.377
  557TIP3   OH2 1611   2.571   3.319   3.380
  557TIP3    H1 1612   2.564   3.378   3.455
  557TIP3    H2 1613   2.603   3.237   3.417
  558TIP3   OH2 1614   6.630   4.806   0.069
  558TIP3    H1 1615   6.673   4.798  -0.016
  558TIP3    H2 1616   6.635   4.899   0.090
  559TIP3   OH2 1617   8.081   6.343   6.178
  559TIP3    H1 1618   8.021   6.405   6.220
  559TIP3    H2 1619   8.032   6.308   6.104
  560TIP3   OH2 1620   6.617   7.168   0.213
  560TIP3    H1 1621   6.583   7.246   0.168
  560TIP3    H2 1622   6.539   7.120   0.240
  561TIP3   OH2 1623   2.121   1.488   3.555
  561TIP3    H1 1624   2.119   1.402   3.597
  561TIP3    H2 1625   2.034   1.497   3.516
  562TIP3   OH2 1626   4.981   3.681   4.218
  562TIP3    H1 1627   4.915   3.750   4.213
  562TIP3    H2 1628   5.013   3.672   4.128
  563TIP3   OH2 1629   8.151   1.263   0.235
  563TIP3    H1 1630   8.065   1.276   0.196
  563TIP3    H2 1631   8.173   1.172   0.215
  564TIP3   OH2 1632   0.420   5.435   3.388
  564TIP3    H1 1633   0.437   5.497   3.459
  564TIP3    H2 1634   0.325   5.425   3.386
  565TIP3   OH2 1635   2.051   5.366   6.863
  565TIP3    H1 1636   2.086   5.425   6.796
  565TIP3    H2 1637   2.005   5.298   6.814
  566TIP3   OH2 1638   1.491   7.854   3.854
  566TIP3    H1 1639   1.519   7.762   3.853
  566TIP3    H2 1640   1.570   7.902   3.877
  567TIP3   OH2 1641   5.798   3.502   0.345
  567TIP3    H1 1642   5.736   3.571   0.321
  567TIP3    H2 1643   5.749   3.446   0.406
  568TIP3   OH2 1644   5.971   6.473   2.506
  568TIP3    H1 1645   5.971   6.552   2.453
  568TIP3    H2 1646   6.015   6.499   2.587
  569TIP3   OH2 1647   8.389   4.457   6.479
  569TIP3    H1 1648   8.368   4.391   6.413
  569TIP3    H2 1649   8.402   4.407   6.560
  570TIP3   OH2 1650   2.646   0.973   5.871
  570TIP3    H1 1651   2.719   0.937   5.820
  570TIP3    H2 1652   2.586   1.009   5.805
  571TIP3   OH2 1653   6.271   0.427   0.473
  571TIP3    H1 1654   6.323   0.477   0.411
  571TIP3    H2 1655   6.183   0.463   0.466
  572TIP3   OH2 1656   7.907   4.017   0.921
  572TIP3    H1 1657   7.841   4.063   0.869
  572TIP3    H2 1658   7.875   4.023   1.011
  573TIP3   OH2 1659   5.585   2.280   6.639
  573TIP3    H1 1660   5.510   2.310   6.587
  573TIP3    H2 1661   5.623   2.360   6.674
  574TIP3   OH2 1662   3.213   3.161   6.638
  574TIP3    H1 1663   3.245   3.246   6.606
  574TIP3    H2 1664   3.293   3.111   6.655
  575TIP3   OH2 1665   5.835   2.293   2.199
  575TIP3    H1 1666   5.911   2.343   2.172
  575TIP3    H2 1667   5.802   2.253   2.118
  576TIP3   OH2 1668   7.181   6.693   5.610
  576TIP3    H1 1669   7.198   6.769   5.665
  576TIP3    H2 1670   7.125   6.727   5.540
  577TIP3   OH2 1671   5.772   7.509   0.089
  577TIP3    H1 1672   5.801   7.478   0.002
  577TIP3    H2 1673   5.735   7.431   0.130
  578TIP3   OH2 1674   0.131   1.910   3.555
  578TIP3    H1 1675   0.059   1.897   3.616
  578TIP3    H2 1676   0.089   1.912   3.469
  579TIP3   OH2 1677   7.241   1.209   6.370
  579TIP3    H1 1678   7.181   1.283   6.363
  579TIP3    H2 1679   7.187   1.137   6.405
  580TIP3   OH2 1680   6.882   2.037   2.340
  580TIP3    H1 1681   6.888   1.946   2.368
  580TIP3    H2 1682   6.796   2.066   2.369
  581TIP3   OH2 1683   6.681   5.001   1.657
  581TIP3    H1 1684   6.675   5.055   1.579
  581TIP3    H2 1685   6.714   5.060   1.725
  582TIP3   OH2 1686   2.253   3.562   2.704
  582TIP3    H1 1687   2.204   3.485   2.733
  582TIP3    H2 1688   2.315   3.528   2.640
  583TIP3   OH2 1689   0.212   4.987   1.217
  583TIP3    H1 1690   0.229   5.079   1.196
  583TIP3    H2 1691   0.273   4.938   1.162
  584TIP3   OH2 1692   7.017   0.459   1.045
  584TIP3    H1 1693   6.965   0.462   0.965
  584TIP3    H2 1694   7.107   0.476   1.016
  585TIP3   OH2 1695   7.210   7.818   2.213
  585TIP3    H1 1696   7.270   7.885   2.245
  585TIP3    H2 1697   7.159   7.863   2.146
  586TIP3   OH2 1698   5.538   7.442   6.258
  586TIP3    H1 1699   5.575   7.464   6.173
  586TIP3    H2 1700   5.516   7.349   6.251
  587TIP3   OH2 1701   4.345   1.920   1.873
  587TIP3    H1 1702   4.413   1.901   1.938
  587TIP3    H2 1703   4.394   1.944   1.794
  588TIP3   OH2 1704   7.441   0.055   6.647
  588TIP3    H1 1705   7.476   0.121   6.707
  588TIP3    H2 1706   7.457   0.091   6.560
  589TIP3   OH2 1707   6.897   4.121   0.197
  589TIP3    H1 1708   6.960   4.057   0.230
  589TIP3    H2 1709   6.878   4.177   0.271
  590TIP3   OH2 1710   6.725   2.410   1.393
  590TIP3    H1 1711   6.767   2.426   1.477
  590TIP3    H2 1712   6.798   2.403   1.331
  591TIP3   OH2 1713   5.772   3.484   4.994
  591TIP3    H1 1714   5.791   3.395   5.024
  591TIP3    H2 1715   5.709   3.472   4.922
  592TIP3   OH2 1716   1.710   4.401   1.013
  592TIP3    H1 1717   1.737   4.466   1.078
  592TIP3    H2 1718   1.662   4.452   0.947
  593TIP3   OH2 1719   4.282   7.789   5.383
  593TIP3    H1 1720   4.310   7.870   5.427
  593TIP3    H2 1721   4.344   7.723   5.413
  594TIP3   OH2 1722   5.520   3.594   4.152
  594TIP3    H1 1723   5.583   3.522   4.146
  594TIP3    H2 1724   5.448   3.559   4.204
  595TIP3   OH2 1725   2.636   3.927   1.517
  595TIP3    H1 1726   2.695   3.854   1.537
  595TIP3    H2 1727   2.548   3.888   1.522
  596TIP3   OH2 1728   2.505   5.390   2.376
  596TIP3    H1 1729   2.439   5.343   2.326
  596TIP3    H2 1730   2.468   5.397   2.464
  597TIP3   OH2 1731   6.871   6.561   5.648
  597TIP3    H1 1732   6.897   6.589   5.736
  597TIP3    H2 1733   6.776   6.555   5.651
  598TIP3   OH2 1734   1.929   0.584   4.682
  598TIP3    H1 1735   1.961   0.600   4.593
  598TIP3    H2 1736   1.839   0.555   4.670
  599TIP3   OH2 1737   8.266   5.097   5.630
  599TIP3    H1 1738   8.334   5.061   5.687
  599TIP3    H2 1739   8.193   5.035   5.639
  600TIP3   OH2 1740   7.010   3.004   1.727
  600TIP3    H1 1741   6.915   3.007   1.722
  600TIP3    H2 1742   7.032   3.068   1.795
  601TIP3   OH2 1743   2.323   7.808   4.335
  601TIP3    H1 1744   2.388   7.738   4.339
  601TIP3    H2 1745   2.285   7.809   4.423
  602TIP3   OH2 1746   2.926   7.191   0.593
  602TIP3    H1 1747   2.843   7.147   0.579
  602TIP3    H2 1748   2.904   7.270   0.642
  603TIP3   OH2 1749   1.773   2.211   6.342
  603TIP3    H1 1750   1.836   2.257   6.398
  603TIP3    H2 1751   1.726   2.152   6.401
  604TIP3   OH2 1752   3.536   5.141   3.491
  604TIP3    H1 1753   3.628   5.157   3.514
  604TIP3    H2 1754   3.491   5.133   3.574
  605TIP3   OH2 1755   1.920   3.202   2.983
  605TIP3    H1 1756   1.905   3.144   2.909
  605TIP3    H2 1757   1.833   3.213   3.022
  606TIP3   OH2 1758   0.907   6.159   3.914
  606TIP3    H1 1759   0.883   6.247   3.943
  606TIP3    H2 1760   0.923   6.168   3.820
  607TIP3   OH2 1761   7.612   4.907   4.462
  607TIP3    H1 1762   7.707   4.894   4.464
  607TIP3    H2 1763   7.586   4.900   4.554
  608TIP3   OH2 1764   1.078   2.344   3.298
  608TIP3    H1 1765   1.031   2.356   3.380
  608TIP3    H2 1766   1.099   2.433   3.270
  609TIP3   OH2 1767   2.783   5.790   3.167
  609TIP3    H1 1768   2.707   5.754   3.122
  609TIP3    H2 1769   2.805   5.726   3.234
  610TIP3   OH2 1770   5.245   4.140   6.547
  610TIP3    H1 1771   5.259   4.137   6.642
  610TIP3    H2 1772   5.332   4.125   6.510
  611TIP3   OH2 1773   0.357   0.295   6.659
  611TIP3    H1 1774   0.263   0.310   6.675
  611TIP3    H2 1775   0.364   0.200   6.648
  612TIP3   OH2 1776   5.144   2.487   0.481
  612TIP3    H1 1777   5.084   2.428   0.526
  612TIP3    H2 1778   5.144   2.566   0.535
  613TIP3   OH2 1779   3.370   1.895   1.417
  613TIP3    H1 1780   3.421   1.890   1.498
  613TIP3    H2 1781   3.434   1.878   1.348
  614TIP3   OH2 1782   4.544   0.268   3.405
  614TIP3    H1 1783   4.577   0.257   3.316
  614TIP3    H2 1784   4.563   0.184   3.448
  615TIP3   OH2 1785   6.630   5.154   1.452
  615TIP3    H1 1786   6.555   5.144   1.392
  615TIP3    H2 1787   6.629   5.247   1.475
  616TIP3   OH2 1788   5.581   3.348   0.482
  616TIP3    H1 1789   5.500   3.327   0.435
  616TIP3    H2 1790   5.551   3.371   0.570
  617TIP3   OH2 1791   5.487   0.004   6.814
  617TIP3    H1 1792   5.568  -0.005   6.864
  617TIP3    H2 1793   5.426   0.045   6.875
  618TIP3   OH2 1794   1.609   7.539   3.480
  618TIP3    H1 1795   1.566   7.605   3.425
  618TIP3    H2 1796   1.546   7.467   3.482
  619TIP3   OH2 1797   3.848   5.703   5.112
  619TIP3    H1 1798   3.936   5.740   5.119
  619TIP3    H2 1799   3.862   5.612   5.085
  620TIP3   OH2 1800   3.934   6.700   4.406
  620TIP3    H1 1801   3.973   6.615   4.425
  620TIP3    H2 1802   3.870   6.713   4.476
  621TIP3   OH2 1803   5.533   6.324   1.539
  621TIP3    H1 1804   5.576   6.405   1.567
  621TIP3    H2 1805   5.585   6.255   1.581
  622TIP3   OH2 1806   4.011   5.800   4.851
  622TIP3    H1 1807   4.026   5.796   4.946
  622TIP3    H2 1808   3.964   5.882   4.838
  623TIP3   OH2 1809   5.337   1.405   4.913
  623TIP3    H1 1810   5.387   1.361   4.844
  623TIP3    H2 1811   5.246   1.397   4.886
  624TIP3   OH2 1812   4.070   1.399   2.452
  624TIP3    H1 1813   3.996   1.409   2.513
  624TIP3    H2 1814   4.047   1.455   2.378
  625TIP3   OH2 1815   8.191   6.389   6.538
  625TIP3    H1 1816   8.189   6.429   6.624
  625TIP3    H2 1817   8.247   6.446   6.485
  626TIP3   OH2 1818   2.406   0.682   5.905
  626TIP3    H1 1819   2.472   0.710   5.968
  626TIP3    H2 1820   2.389   0.590   5.927
  627TIP3   OH2 1821   7.762   3.987   6.126
  627TIP3    H1 1822   7.749   3.953   6.215
  627TIP3    H2 1823   7.705   3.932   6.072
  628TIP3   OH2 1824   6.981   4.340   6.067
  628TIP3    H1 1825   6.979   4.436   6.058
  628TIP3    H2 1826   6.952   4.307   5.982
  629TIP3   OH2 1827   2.085   4.808   4.489
  629TIP3    H1 1828   2.025   4.790   4.562
  629TIP3    H2 1829   2.158   4.855   4.529
  630TIP3   OH2 1830   1.605   0.128   5.910
  630TIP3    H1 1831   1.555   0.116   5.990
  630TIP3    H2 1832   1.673   0.061   5.914
  631TIP3   OH2 1833   2.672   4.939   6.753
  631TIP3    H1 1834   2.672   4.929   6.848
  631TIP3    H2 1835   2.711   4.857   6.720
  632TIP3   OH2 1836   2.201   2.381   4.041
  632TIP3    H1 1837   2.158   2.400   3.957
  632TIP3    H2 1838   2.181   2.289   4.059
  633TIP3   OH2 1839   5.327   4.937   1.388
  633TIP3    H1 1840   5.247   4.971   1.347
  633TIP3    H2 1841   5.389   4.929   1.316
  634TIP3   OH2 1842   3.440   7.292   1.852
  634TIP3    H1 1843   3.413   7.330   1.769
  634TIP3    H2 1844   3.534   7.308   1.858
  635TIP3   OH2 1845   4.916   7.456   2.018
  635TIP3    H1 1846   4.879   7.544   2.022
  635TIP3    H2 1847   4.970   7.456   1.939
  636TIP3   OH2 1848   6.668   3.911   6.266
  636TIP3    H1 1849   6.603   3.905   6.196
  636TIP3    H2 1850   6.716   3.829   6.262
  637TIP3   OH2 1851   2.863   7.493   5.976
  637TIP3    H1 1852   2.914   7.444   5.911
  637TIP3    H2 1853   2.881   7.585   5.956
  638TIP3   OH2 1854   4.953   0.869   2.070
  638TIP3    H1 1855   4.921   0.937   2.129
  638TIP3    H2 1856   4.890   0.869   1.998
  639TIP3   OH2 1857   8.294   2.334   3.735
  639TIP3    H1 1858   8.238   2.402   3.696
  639TIP3    H2 1859   8.365   2.382   3.776
  640TIP3   OH2 1860   4.044   1.406   4.502
  640TIP3    H1 1861   3.957   1.413   4.464
  640TIP3    H2 1862   4.103   1.399   4.427
  641TIP3   OH2 1863   6.148   4.786   3.112
  641TIP3    H1 1864   6.238   4.764   3.135
  641TIP3    H2 1865   6.151   4.808   3.018
  642TIP3   OH2 1866   0.299   1.315   2.894
  642TIP3    H1 1867   0.240   1.377   2.937
  642TIP3    H2 1868   0.360   1.371   2.845
  643TIP3   OH2 1869   5.702   6.817   5.197
  643TIP3    H1 1870   5.709   6.908   5.171
  643TIP3    H2 1871   5.735   6.767   5.122
  644TIP3   OH2 1872   7.724   7.779   4.666
  644TIP3    H1 1873   7.750   7.865   4.698
  644TIP3    H2 1874   7.686   7.736   4.742
  645TIP3   OH2 1875   0.877   1.793   3.755
  645TIP3    H1 1876   0.905   1.841   3.833
  645TIP3    H2 1877   0.954   1.794   3.697
  646TIP3   OH2 1878   8.087   1.762   0.475
  646TIP3    H1 1879   8.071   1.734   0.565
  646TIP3    H2 1880   8.171   1.722   0.452
  647TIP3   OH2 1881   3.394   0.474   3.942
  647TIP3    H1 1882   3.473   0.528   3.934
  647TIP3    H2 1883   3.384   0.461   4.036
  648TIP3   OH2 1884   7.234   5.473   0.333
  648TIP3    H1 1885   7.280   5.394   0.305
  648TIP3    H2 1886   7.299   5.543   0.320
  649TIP3   OH2 1887   5.965   0.074   4.444
  649TIP3    H1 1888   5.928   0.018   4.513
  649TIP3    H2 1889   5.890   0.124   4.412
  650TIP3   OH2 1890   0.209   1.676   5.538
  650TIP3    H1 1891   0.248   1.598   5.499
  650TIP3    H2 1892   0.282   1.719   5.582
  651TIP3   OH2 1893   6.322   0.025   5.116
  651TIP3    H1 1894   6.309   0.089   5.046
  651TIP3    H2 1895   6.356   0.076   5.189
  652TIP3   OH2 1896   4.075   1.545   4.242
  652TIP3    H1 1897   4.130   1.620   4.218
  652TIP3    H2 1898   3.992   1.560   4.197
  653TIP3   OH2 1899   1.563   3.362   5.119
  653TIP3    H1 1900   1.602   3.344   5.205
  653TIP3    H2 1901   1.475   3.326   5.124
  654TIP3   OH2 1902   2.441   7.540   0.571
  654TIP3    H1 1903   2.359   7.579   0.540
  654TIP3    H2 1904   2.507   7.572   0.510
  655TIP3   OH2 1905   5.671   4.559   3.854
  655TIP3    H1 1906   5.670   4.516   3.768
  655TIP3    H2 1907   5.637   4.493   3.914
  656TIP3   OH2 1908   0.278   6.795   3.916
  656TIP3    H1 1909   0.366   6.776   3.951
  656TIP3    H2 1910   0.290   6.799   3.821
  657TIP3   OH2 1911   1.554   1.882   2.609
  657TIP3    H1 1912   1.615   1.955   2.619
  657TIP3    H2 1913   1.556   1.861   2.516
  658TIP3   OH2 1914   5.796   2.866   3.928
  658TIP3    H1 1915   5.782   2.781   3.887
  658TIP3    H2 1916   5.881   2.858   3.972
  659TIP3   OH2 1917   7.814   1.433   4.451
  659TIP3    H1 1918   7.839   1.341   4.441
  659TIP3    H2 1919   7.718   1.432   4.448
  660TIP3   OH2 1920   1.565   2.984   6.739
  660TIP3    H1 1921   1.609   2.983   6.653
  660TIP3    H2 1922   1.601   2.907   6.784
  661TIP3   OH2 1923   8.074   0.913   0.745
  661TIP3    H1 1924   8.156   0.901   0.697
  661TIP3    H2 1925   8.033   0.988   0.703
  662TIP3   OH2 1926   3.708   5.972   3.238
  662TIP3    H1 1927   3.741   5.899   3.186
  662TIP3    H2 1928   3.776   5.987   3.304
  663TIP3   OH2 1929   2.029   5.538   4.654
  663TIP3    H1 1930   2.047   5.555   4.561
  663TIP3    H2 1931   1.960   5.600   4.677
  664TIP3   OH2 1932   3.665   5.286   1.709
  664TIP3    H1 1933   3.620   5.369   1.695
  664TIP3    H2 1934   3.613   5.242   1.777
  665TIP3   OH2 1935   6.428   1.378   2.524
  665TIP3    H1 1936   6.334   1.360   2.523
  665TIP3    H2 1937   6.446   1.405   2.614
  666TIP3   OH2 1938   7.145   1.621   4.879
  666TIP3    H1 1939   7.155   1.554   4.812
  666TIP3    H2 1940   7.225   1.616   4.931
  667TIP3   OH2 1941   6.471   7.275   6.370
  667TIP3    H1 1942   6.436   7.243   6.286
  667TIP3    H2 1943   6.394   7.301   6.420
  668TIP3   OH2 1944   6.344   4.404   6.124
  668TIP3    H1 1945   6.387   4.399   6.039
  668TIP3    H2 1946   6.251   4.398   6.105
  669TIP3   OH2 1947   6.712   0.516   6.646
  669TIP3    H1 1948   6.667   0.447   6.695
  669TIP3    H2 1949   6.716   0.590   6.707
  670TIP3   OH2 1950   3.119   6.181   1.569
  670TIP3    H1 1951   3.196   6.145   1.526
  670TIP3    H2 1952   3.049   6.172   1.504
  671TIP3   OH2 1953   2.884   0.865   0.107
  671TIP3    H1 1954   2.970   0.890   0.143
  671TIP3    H2 1955   2.873   0.774   0.132
  672TIP3   OH2 1956   7.123   4.484   5.751
  672TIP3    H1 1957   7.066   4.409   5.736
  672TIP3    H2 1958   7.104   4.513   5.840
  673TIP3   OH2 1959   0.461   7.802   6.819
  673TIP3    H1 1960   0.477   7.867   6.751
  673TIP3    H2 1961   0.546   7.761   6.834
  674TIP3   OH2 1962   5.255   0.312   1.279
  674TIP3    H1 1963   5.173   0.322   1.327
  674TIP3    H2 1964   5.244   0.366   1.201
  675TIP3   OH2 1965   3.117   1.267   1.617
  675TIP3    H1 1966   3.116   1.214   1.537
  675TIP3    H2 1967   3.073   1.214   1.682
  676TIP3   OH2 1968   1.642   5.439   4.075
  676TIP3    H1 1969   1.592   5.448   4.156
  676TIP3    H2 1970   1.733   5.433   4.104
  677TIP3   OH2 1971   7.311   3.098   0.141
  677TIP3    H1 1972   7.380   3.090   0.076
  677TIP3    H2 1973   7.353   3.137   0.217
  678TIP3   OH2 1974   5.176   0.059   3.342
  678TIP3    H1 1975   5.097   0.012   3.314
  678TIP3    H2 1976   5.179   0.136   3.286
  679TIP3   OH2 1977   2.126   6.436   5.820
  679TIP3    H1 1978   2.147   6.399   5.734
  679TIP3    H2 1979   2.067   6.509   5.800
  680TIP3   OH2 1980   3.700   6.294   6.696
  680TIP3    H1 1981   3.640   6.290   6.770
  680TIP3    H2 1982   3.750   6.375   6.709
  681TIP3   OH2 1983   6.526   0.674   3.986
  681TIP3    H1 1984   6.574   0.713   4.059
  681TIP3    H2 1985   6.559   0.584   3.982
  682TIP3   OH2 1986   6.231   4.464   2.890
  682TIP3    H1 1987   6.266   4.546   2.924
  682TIP3    H2 1988   6.259   4.461   2.799
  683TIP3   OH2 1989   1.247   6.784   5.304
  683TIP3    H1 1990   1.202   6.822   5.380
  683TIP3    H2 1991   1.315   6.848   5.282
  684TIP3   OH2 1992   0.634   0.590   1.355
  684TIP3    H1 1993   0.715   0.624   1.315
  684TIP3    H2 1994   0.599   0.528   1.291
  685TIP3   OH2 1995   7.016   2.995   5.676
  685TIP3    H1 1996   7.112   2.990   5.676
  685TIP3    H2 1997   6.997   3.077   5.721
  686TIP3   OH2 1998   7.808   2.049   2.392
  686TIP3    H1 1999   7.866   1.974   2.406
  686TIP3    H2 2000   7.825   2.106   2.467
  687TIP3   OH2 2001   0.042   3.986   6.387
  687TIP3    H1 2002   0.117   3.978   6.329
  687TIP3    H2 2003   0.013   4.077   6.376
  688TIP3   OH2 2004   6.210   4.980   6.801
  688TIP3    H1 2005   6.209   4.938   6.887
  688TIP3    H2 2006   6.154   4.925   6.747
  689TIP3   OH2 2007   7.478   4.817   5.102
  689TIP3    H1 2008   7.572   4.806   5.105
  689TIP3    H2 2009   7.463   4.906   5.134
  690TIP3   OH2 2010   2.959   1.190   4.731
  690TIP3    H1 2011   2.999   1.104   4.737
  690TIP3    H2 2012   2.875   1.175   4.689
  691TIP3   OH2 2013   6.144   4.154   2.513
  691TIP3    H1 2014   6.188   4.112   2.587
  691TIP3    H2 2015   6.213   4.201   2.467
  692TIP3   OH2 2016   1.083   1.387   6.601
  692TIP3    H1 2017   1.109   1.432   6.520
  692TIP3    H2 2018   1.103   1.450   6.670
  693TIP3   OH2 2019   0.794   1.161   1.174
  693TIP3    H1 2020   0.765   1.220   1.105
  693TIP3    H2 2021   0.864   1.208   1.219
  694TIP3   OH2 2022   4.152   6.070   5.020
  694TIP3    H1 2023   4.168   6.053   4.927
  694TIP3    H2 2024   4.064   6.036   5.036
  695TIP3   OH2 2025   5.401   0.855   2.872
  695TIP3    H1 2026   5.427   0.922   2.934
  695TIP3    H2 2027   5.439   0.774   2.906
  696TIP3   OH2 2028   3.843   2.415   2.508
  696TIP3    H1 2029   3.765   2.389   2.458
  696TIP3    H2 2030   3.894   2.469   2.448
  697TIP3   OH2 2031   7.922   4.371   3.126
  697TIP3    H1 2032   7.970   4.360   3.044
  697TIP3    H2 2033   7.834   4.337   3.107
  698TIP3   OH2 2034   0.421   7.289   1.792
  698TIP3    H1 2035   0.332   7.322   1.808
  698TIP3    H2 2036   0.451   7.337   1.715
  699TIP3   OH2 2037   6.218   0.150   2.715
  699TIP3    H1 2038   6.205   0.055   2.713
  699TIP3    H2 2039   6.158   0.183   2.648
  700TIP3   OH2 2040   6.590   3.233   1.874
  700TIP3    H1 2041   6.651   3.245   1.947
  700TIP3    H2 2042   6.522   3.176   1.910
  701TIP3   OH2 2043   3.693   3.039   2.533
  701TIP3    H1 2044   3.688   3.096   2.456
  701TIP3    H2 2045   3.766   3.074   2.584
  702TIP3   OH2 2046   6.598   5.578   0.813
  702TIP3    H1 2047   6.562   5.510   0.756
  702TIP3    H2 2048   6.577   5.660   0.768
  703TIP3   OH2 2049   0.589   6.733   3.938
  703TIP3    H1 2050   0.574   6.826   3.955
  703TIP3    H2 2051   0.642   6.731   3.858
  704TIP3   OH2 2052   7.090   4.700   6.526
  704TIP3    H1 2053   7.167   4.756   6.517
  704TIP3    H2 2054   7.017   4.757   6.499
  705TIP3   OH2 2055   8.334   3.556   4.596
  705TIP3    H1 2056   8.282   3.486   4.636
  705TIP3    H2 2057   8.423   3.521   4.594
  706TIP3   OH2 2058   1.324   0.261   5.809
  706TIP3    H1 2059   1.353   0.288   5.896
  706TIP3    H2 2060   1.391   0.200   5.779
  707TIP3   OH2 2061   7.545   0.911   2.199
  707TIP3    H1 2062   7.560   0.920   2.293
  707TIP3    H2 2063   7.574   0.994   2.162
  708TIP3   OH2 2064   3.294   0.149   6.687
  708TIP3    H1 2065   3.388   0.139   6.704
  708TIP3    H2 2066   3.287   0.155   6.592
  709TIP3   OH2 2067   2.713   1.996   6.026
  709TIP3    H1 2068   2.695   2.072   6.081
  709TIP3    H2 2069   2.747   2.033   5.944
  710TIP3   OH2 2070   4.406   0.328   0.624
  710TIP3    H1 2071   4.394   0.235   0.605
  710TIP3    H2 2072   4.324   0.354   0.665
  711TIP3   OH2 2073   0.120   3.256   0.467
  711TIP3    H1 2074   0.110   3.213   0.552
  711TIP3    H2 2075   0.061   3.331   0.471
  712TIP3   OH2 2076   4.017   5.396   6.246
  712TIP3    H1 2077   3.994   5.478   6.291
  712TIP3    H2 2078   4.068   5.348   6.310
  713TIP3   OH2 2079   2.166   0.246   5.014
  713TIP3    H1 2080   2.207   0.320   4.969
  713TIP3    H2 2081   2.113   0.286   5.082
  714TIP3   OH2 2082   7.737   0.558   4.162
  714TIP3    H1 2083   7.759   0.561   4.255
  714TIP3    H2 2084   7.807   0.506   4.123
  715TIP3   OH2 2085   2.245   5.279   3.449
  715TIP3    H1 2086   2.281   5.366   3.464
  715TIP3    H2 2087   2.214   5.281   3.358
  716TIP3   OH2 2088   2.428   3.869   2.823
  716TIP3    H1 2089   2.350   3.815   2.835
  716TIP3    H2 2090   2.501   3.808   2.828
  717TIP3   OH2 2091   7.128   5.929   6.018
  717TIP3    H1 2092   7.148   5.977   5.937
  717TIP3    H2 2093   7.212   5.896   6.048
  718TIP3   OH2 2094   3.725   6.089   6.320
  718TIP3    H1 2095   3.654   6.043   6.364
  718TIP3    H2 2096   3.791   6.022   6.303
  719TIP3   OH2 2097   7.535   6.569   5.120
  719TIP3    H1 2098   7.445   6.537   5.123
  719TIP3    H2 2099   7.526   6.664   5.111
  720TIP3   OH2 2100   3.052   7.233   4.121
  720TIP3    H1 2101   2.981   7.277   4.168
  720TIP3    H2 2102   3.040   7.140   4.139
  721TIP3   OH2 2103   3.773   1.013   6.328
  721TIP3    H1 2104   3.793   1.085   6.388
  721TIP3    H2 2105   3.820   1.035   6.247
  722TIP3   OH2 2106   6.128   3.462   1.301
  722TIP3    H1 2107   6.151   3.400   1.231
  722TIP3    H2 2108   6.127   3.409   1.381
  723TIP3   OH2 2109   4.203   5.524   0.977
  723TIP3    H1 2110   4.141   5.455   1.001
  723TIP3    H2 2111   4.215   5.513   0.883
  724TIP3   OH2 2112   0.072   0.542   1.484
  724TIP3    H1 2113   0.162   0.508   1.485
  724TIP3    H2 2114   0.018   0.463   1.480
  725TIP3   OH2 2115   5.784   3.229   5.122
  725TIP3    H1 2116   5.844   3.174   5.071
  725TIP3    H2 2117   5.763   3.176   5.199
  726TIP3   OH2 2118   2.997   3.282   6.781
  726TIP3    H1 2119   2.919   3.264   6.728
  726TIP3    H2 2120   3.070   3.251   6.728
  727TIP3   OH2 2121   3.850   0.216   3.381
  727TIP3    H1 2122   3.858   0.139   3.437
  727TIP3    H2 2123   3.936   0.257   3.385
  728TIP3   OH2 2124   1.152   7.818   0.921
  728TIP3    H1 2125   1.176   7.882   0.854
  728TIP3    H2 2126   1.229   7.814   0.979
  729TIP3   OH2 2127   7.500   1.174   2.082
  729TIP3    H1 2128   7.416   1.127   2.085
  729TIP3    H2 2129   7.479   1.262   2.112
  730TIP3   OH2 2130   2.271   4.947   3.727
  730TIP3    H1 2131   2.255   4.933   3.820
  730TIP3    H2 2132   2.277   4.858   3.690
  731TIP3   OH2 2133   2.111   6.257   3.948
  731TIP3    H1 2134   2.091   6.165   3.961
  731TIP3    H2 2135   2.049   6.304   4.004
  732TIP3   OH2 2136   7.842   0.087   6.659
  732TIP3    H1 2137   7.932   0.054   6.657
  732TIP3    H2 2138   7.803   0.055   6.577
  733TIP3   OH2 2139   6.914   0.699   5.033
  733TIP3    H1 2140   6.828   0.667   5.060
  733TIP3    H2 2141   6.938   0.763   5.100
  734TIP3   OH2 2142   6.202   1.172   3.106
  734TIP3    H1 2143   6.229   1.161   3.015
  734TIP3    H2 2144   6.106   1.166   3.103
  735TIP3   OH2 2145   2.396   7.786   6.830
  735TIP3    H1 2146   2.353   7.731   6.764
  735TIP3    H2 2147   2.489   7.786   6.804
  736TIP3   OH2 2148   6.110   5.514   5.721
  736TIP3    H1 2149   6.137   5.493   5.632
  736TIP3    H2 2150   6.165   5.588   5.747
  737TIP3   OH2 2151   4.839   4.728   3.035
  737TIP3    H1 2152   4.877   4.651   2.994
  737TIP3    H2 2153   4.745   4.721   3.016
  738TIP3   OH2 2154   0.710   2.924   5.001
  738TIP3    H1 2155   0.635   2.983   4.991
  738TIP3    H2 2156   0.757   2.957   5.078
  739TIP3   OH2 2157   7.564   1.004   3.979
  739TIP3    H1 2158   7.477   0.994   4.017
  739TIP3    H2 2159   7.602   0.916   3.981
  740TIP3   OH2 2160   1.054   1.743   5.780
  740TIP3    H1 2161   1.092   1.748   5.867
  740TIP3    H2 2162   0.994   1.817   5.775
  741TIP3   OH2 2163   6.330   1.547   4.669
  741TIP3    H1 2164   6.284   1.506   4.743
  741TIP3    H2 2165   6.416   1.507   4.670
  742TIP3   OH2 2166   0.470   5.893   6.479
  742TIP3    H1 2167   0.501   5.907   6.390
  742TIP3    H2 2168   0.379   5.923   6.478
  743TIP3   OH2 2169   0.394   4.583   1.115
  743TIP3    H1 2170   0.402   4.551   1.026
  743TIP3    H2 2171   0.374   4.676   1.106
  744TIP3   OH2 2172   7.469   3.821   3.757
  744TIP3    H1 2173   7.408   3.760   3.799
  744TIP3    H2 2174   7.518   3.859   3.829
  745TIP3   OH2 2175   4.053   2.353   1.494
  745TIP3    H1 2176   4.035   2.310   1.578
  745TIP3    H2 2177   4.149   2.355   1.489
  746TIP3   OH2 2178   0.739   3.923   2.700
  746TIP3    H1 2179   0.700   3.931   2.612
  746TIP3    H2 2180   0.725   3.831   2.723
  747TIP3   OH2 2181   3.669   4.674   3.799
  747TIP3    H1 2182   3.646   4.585   3.828
  747TIP3    H2 2183   3.709   4.661   3.713
  748TIP3   OH2 2184   6.888   0.723   2.635
  748TIP3    H1 2185   6.960   0.679   2.679
  748TIP3    H2 2186   6.809   0.686   2.675
  749TIP3   OH2 2187   1.713   3.987   0.617
  749TIP3    H1 2188   1.784   3.981   0.682
  749TIP3    H2 2189   1.751   4.041   0.546
  750TIP3   OH2 2190   2.609   6.327   6.318
  750TIP3    H1 2191   2.548   6.302   6.248
  750TIP3    H2 2192   2.670   6.388   6.276
  751TIP3   OH2 2193   2.743   7.177   3.300
  751TIP3    H1 2194   2.715   7.265   3.324
  751TIP3    H2 2195   2.803   7.190   3.226
  752TIP3   OH2 2196   7.410   0.140   1.191
  752TIP3    H1 2197   7.395   0.120   1.284
  752TIP3    H2 2198   7.337   0.098   1.146
  753TIP3   OH2 2199   6.589   2.453   2.204
  753TIP3    H1 2200   6.556   2.542   2.211
  753TIP3    H2 2201   6.638   2.438   2.285
  754TIP3   OH2 2202   1.134   7.892   5.581
  754TIP3    H1 2203   1.128   7.980   5.543
  754TIP3    H2 2204   1.202   7.900   5.648
  755TIP3   OH2 2205   0.559   4.854   4.449
  755TIP3    H1 2206   0.651   4.877   4.456
  755TIP3    H2 2207   0.522   4.918   4.388
  756TIP3   OH2 2208   5.948   7.822   2.891
  756TIP3    H1 2209   5.901   7.757   2.944
  756TIP3    H2 2210   5.880   7.864   2.839
  757TIP3   OH2 2211   3.376   5.706   3.619
  757TIP3    H1 2212   3.387   5.714   3.524
  757TIP3    H2 2213   3.306   5.767   3.641
  758TIP3   OH2 2214   0.281   0.640   2.859
  758TIP3    H1 2215   0.228   0.619   2.782
  758TIP3    H2 2216   0.223   0.690   2.916
  759TIP3   OH2 2217   2.336   1.069   1.607
  759TIP3    H1 2218   2.389   1.124   1.665
  759TIP3    H2 2219   2.282   1.131   1.558
  760TIP3   OH2 2220   6.870   6.813   2.760
  760TIP3    H1 2221   6.919   6.851   2.833
  760TIP3    H2 2222   6.932   6.815   2.687
  761TIP3   OH2 2223   7.326   5.882   5.410
  761TIP3    H1 2224   7.303   5.860   5.501
  761TIP3    H2 2225   7.412   5.843   5.397
  762TIP3   OH2 2226   4.160   2.628   6.645
  762TIP3    H1 2227   4.103   2.705   6.645
  762TIP3    H2 2228   4.120   2.568   6.707
  763TIP3   OH2 2229   3.318   2.525   0.497
  763TIP3    H1 2230   3.374   2.588   0.453
  763TIP3    H2 2231   3.376   2.450   0.515
  764TIP3   OH2 2232   1.683   3.367   5.389
  764TIP3    H1 2233   1.722   3.336   5.471
  764TIP3    H2 2234   1.732   3.323   5.320
  765TIP3   OH2 2235   3.930   4.657   6.215
  765TIP3    H1 2236   3.936   4.751   6.201
  765TIP3    H2 2237   3.849   4.645   6.265
  766TIP3   OH2 2238   3.524   6.075   2.997
  766TIP3    H1 2239   3.618   6.091   3.006
  766TIP3    H2 2240   3.497   6.037   3.081
  767TIP3   OH2 2241   7.643   3.137   3.748
  767TIP3    H1 2242   7.714   3.148   3.811
  767TIP3    H2 2243   7.645   3.216   3.695
  768TIP3   OH2 2244   2.327   7.396   4.940
  768TIP3    H1 2245   2.275   7.338   4.995
  768TIP3    H2 2246   2.262   7.441   4.886
  769TIP3   OH2 2247   2.712   1.646   6.465
  769TIP3    H1 2248   2.738   1.566   6.420
  769TIP3    H2 2249   2.633   1.623   6.512
  770TIP3   OH2 2250   4.508   3.094   5.546
  770TIP3    H1 2251   4.569   3.167   5.532
  770TIP3    H2 2252   4.562   3.015   5.534
  771TIP3   OH2 2253   8.361   2.701   6.707
  771TIP3    H1 2254   8.277   2.694   6.662
  771TIP3    H2 2255   8.426   2.685   6.638
  772TIP3   OH2 2256   0.190   0.154   0.348
  772TIP3    H1 2257   0.278   0.191   0.343
  772TIP3    H2 2258   0.133   0.229   0.364
  773TIP3   OH2 2259   7.314   6.802   2.420
  773TIP3    H1 2260   7.345   6.728   2.368
  773TIP3    H2 2261   7.371   6.803   2.497
  774TIP3   OH2 2262   5.869   6.432   4.654
  774TIP3    H1 2263   5.801   6.375   4.619
  774TIP3    H2 2264   5.921   6.375   4.710
  775TIP3   OH2 2265   1.214   4.848   2.622
  775TIP3    H1 2266   1.277   4.859   2.550
  775TIP3    H2 2267   1.221   4.929   2.672
  776TIP3   OH2 2268   1.150   0.452   0.869
  776TIP3    H1 2269   1.123   0.363   0.847
  776TIP3    H2 2270   1.178   0.446   0.961
  777TIP3   OH2 2271   7.278   5.681   0.726
  777TIP3    H1 2272   7.233   5.619   0.783
  777TIP3    H2 2273   7.309   5.629   0.652
  778TIP3   OH2 2274   2.206   4.392   1.281
  778TIP3    H1 2275   2.178   4.339   1.206
  778TIP3    H2 2276   2.135   4.382   1.345
  779TIP3   OH2 2277   0.815   0.478   4.753
  779TIP3    H1 2278   0.739   0.535   4.760
  779TIP3    H2 2279   0.788   0.398   4.798
  780TIP3   OH2 2280   5.025   5.608   0.310
  780TIP3    H1 2281   5.120   5.595   0.309
  780TIP3    H2 2282   5.004   5.637   0.221
  781TIP3   OH2 2283   6.299   7.562   4.606
  781TIP3    H1 2284   6.262   7.475   4.618
  781TIP3    H2 2285   6.386   7.546   4.568
  782TIP3   OH2 2286   7.728   0.668   4.822
  782TIP3    H1 2287   7.761   0.622   4.899
  782TIP3    H2 2288   7.746   0.609   4.749
  783TIP3   OH2 2289   1.684   7.314   1.446
  783TIP3    H1 2290   1.778   7.333   1.448
  783TIP3    H2 2291   1.644   7.393   1.410
  784TIP3   OH2 2292   8.155   7.096   5.120
  784TIP3    H1 2293   8.093   7.131   5.184
  784TIP3    H2 2294   8.142   7.149   5.042
  785TIP3   OH2 2295   8.382   2.491   0.906
  785TIP3    H1 2296   8.350   2.480   0.817
  785TIP3    H2 2297   8.447   2.422   0.917
  786TIP3   OH2 2298   6.136   6.625   3.308
  786TIP3    H1 2299   6.231   6.615   3.307
  786TIP3    H2 2300   6.103   6.544   3.267
  787TIP3   OH2 2301   1.953   2.485   1.901
  787TIP3    H1 2302   1.874   2.528   1.934
  787TIP3    H2 2303   2.016   2.490   1.973
  788TIP3   OH2 2304   6.827   5.669   6.300
  788TIP3    H1 2305   6.877   5.621   6.367
  788TIP3    H2 2306   6.810   5.754   6.340
  789TIP3   OH2 2307   3.337   1.269   5.563
  789TIP3    H1 2308   3.377   1.189   5.598
  789TIP3    H2 2309   3.409   1.331   5.558
  790TIP3   OH2 2310   3.623   4.969   6.026
  790TIP3    H1 2311   3.612   5.061   6.048
  790TIP3    H2 2312   3.572   4.957   5.946
  791TIP3   OH2 2313   5.552   5.043   1.647
  791TIP3    H1 2314   5.570   5.054   1.553
  791TIP3    H2 2315   5.550   5.132   1.681
  792TIP3   OH2 2316   5.594   6.001   2.409
  792TIP3    H1 2317   5.670   6.058   2.420
  792TIP3    H2 2318   5.542   6.042   2.340
  793TIP3   OH2 2319   1.188   2.649   4.172
  793TIP3    H1 2320   1.228   2.619   4.091
  793TIP3    H2 2321   1.136   2.575   4.203
  794TIP3   OH2 2322   1.120   2.895   3.839
  794TIP3    H1 2323   1.071   2.938   3.769
  794TIP3    H2 2324   1.189   2.846   3.794
  795TIP3   OH2 2325   7.105   3.282   0.166
  795TIP3    H1 2326   7.048   3.302   0.091
  795TIP3    H2 2327   7.154   3.205   0.137
  796TIP3   OH2 2328   1.791   1.865   4.919
  796TIP3    H1 2329   1.829   1.882   5.005
  796TIP3    H2 2330   1.717   1.925   4.913
  797TIP3   OH2 2331   1.523   7.429   2.048
  797TIP3    H1 2332   1.610   7.413   2.011
  797TIP3    H2 2333   1.533   7.410   2.141
  798TIP3   OH2 2334   7.387   5.724   5.074
  798TIP3    H1 2335   7.454   5.765   5.129
  798TIP3    H2 2336   7.324   5.795   5.058
  799TIP3   OH2 2337   1.498   2.191   0.744
  799TIP3    H1 2338   1.516   2.100   0.767
  799TIP3    H2 2339   1.559   2.211   0.673
  800TIP3   OH2 2340   4.182   1.084   6.225
  800TIP3    H1 2341   4.181   1.079   6.129
  800TIP3    H2 2342   4.142   1.168   6.245
  801TIP3   OH2 2343   0.629   0.624   0.499
  801TIP3    H1 2344   0.539   0.592   0.497
  801TIP3    H2 2345   0.639   0.663   0.585
  802TIP3   OH2 2346   3.943   7.884   4.987
  802TIP3    H1 2347   3.882   7.834   4.933
  802TIP3    H2 2348   3.963   7.826   5.061
  803TIP3   OH2 2349   2.511   6.995   1.190
  803TIP3    H1 2350   2.542   7.027   1.106
  803TIP3    H2 2351   2.582   6.941   1.224
  804TIP3   OH2 2352   7.650   2.387   0.184
  804TIP3    H1 2353   7.680   2.301   0.153
  804TIP3    H2 2354   7.625   2.372   0.275
  805TIP3   OH2 2355   4.098   7.380   2.442
  805TIP3    H1 2356   4.066   7.366   2.531
  805TIP3    H2 2357   4.055   7.311   2.390
  806TIP3   OH2 2358   7.744   7.716   1.056
  806TIP3    H1 2359   7.685   7.684   0.987
  806TIP3    H2 2360   7.832   7.701   1.021
  807TIP3   OH2 2361   6.926   7.765   0.979
  807TIP3    H1 2362   6.984   7.689   0.977
  807TIP3    H2 2363   6.844   7.733   0.941
  808TIP3   OH2 2364   6.992   4.166   6.568
  808TIP3    H1 2365   7.030   4.159   6.481
  808TIP3    H2 2366   6.960   4.078   6.588
  809TIP3   OH2 2367   6.286   5.665   4.356
  809TIP3    H1 2368   6.209   5.664   4.412
  809TIP3    H2 2369   6.329   5.749   4.374
  810TIP3   OH2 2370   6.847   5.007   6.149
  810TIP3    H1 2371   6.810   4.982   6.233
  810TIP3    H2 2372   6.789   4.968   6.084
  811TIP3   OH2 2373   6.752   2.965   3.833
  811TIP3    H1 2374   6.768   2.911   3.757
  811TIP3    H2 2375   6.765   3.055   3.802
  812TIP3   OH2 2376   6.178   4.838   0.821
  812TIP3    H1 2377   6.266   4.812   0.793
  812TIP3    H2 2378   6.186   4.850   0.916
  813TIP3   OH2 2379   2.330   2.475   3.165
  813TIP3    H1 2380   2.410   2.525   3.147
  813TIP3    H2 2381   2.311   2.430   3.083
  814TIP3   OH2 2382   3.863   2.736   0.172
  814TIP3    H1 2383   3.926   2.716   0.241
  814TIP3    H2 2384   3.910   2.720   0.090
  815TIP3   OH2 2385   3.309   7.119   4.241
  815TIP3    H1 2386   3.362   7.040   4.245
  815TIP3    H2 2387   3.219   7.087   4.239
  816TIP3   OH2 2388   6.477   5.033   3.062
  816TIP3    H1 2389   6.409   5.041   2.994
  816TIP3    H2 2390   6.460   4.948   3.102
  817TIP3   OH2 2391   0.326   5.137   6.213
  817TIP3    H1 2392   0.326   5.046   6.244
  817TIP3    H2 2393   0.410   5.148   6.169
  818TIP3   OH2 2394   7.564   3.769   4.726
  818TIP3    H1 2395   7.590   3.836   4.662
  818TIP3    H2 2396   7.482   3.802   4.763
  819TIP3   OH2 2397   4.729   1.640   5.930
  819TIP3    H1 2398   4.689   1.553   5.939
  819TIP3    H2 2399   4.657   1.695   5.899
  820TIP3   OH2 2400   5.386   3.920   2.425
  820TIP3    H1 2401   5.314   3.898   2.366
  820TIP3    H2 2402   5.458   3.944   2.367
  821TIP3   OH2 2403   0.867   5.160   6.386
  821TIP3    H1 2404   0.915   5.096   6.438
  821TIP3    H2 2405   0.915   5.242   6.398
  822TIP3   OH2 2406   1.041   2.699   6.237
  822TIP3    H1 2407   1.122   2.654   6.213
  822TIP3    H2 2408   1.069   2.772   6.291
  823TIP3   OH2 2409   0.332   4.199   5.961
  823TIP3    H1 2410   0.406   4.181   6.018
  823TIP3    H2 2411   0.324   4.121   5.906
  824TIP3   OH2 2412   5.338   7.354   4.651
  824TIP3    H1 2413   5.268   7.345   4.716
  824TIP3    H2 2414   5.298   7.408   4.582
  825TIP3   OH2 2415   0.442   7.688   3.197
  825TIP3    H1 2416   0.472   7.736   3.120
  825TIP3    H2 2417   0.507   7.710   3.265
  826TIP3   OH2 2418   8.372   0.608   2.447
  826TIP3    H1 2419   8.380   0.598   2.352
  826TIP3    H2 2420   8.279   0.599   2.465
  827TIP3   OH2 2421   7.809   1.960   4.479
  827TIP3    H1 2422   7.756   1.996   4.550
  827TIP3    H2 2423   7.807   1.865   4.493
  828TIP3   OH2 2424   3.431   0.155   5.630
  828TIP3    H1 2425   3.405   0.110   5.711
  828TIP3    H2 2426   3.349   0.180   5.589
  829TIP3   OH2 2427   4.908   3.440   2.575
  829TIP3    H1 2428   4.948   3.460   2.659
  829TIP3    H2 2429   4.874   3.524   2.543
  830TIP3   OH2 2430   1.511   2.100   4.068
  830TIP3    H1 2431   1.530   2.112   4.161
  830TIP3    H2 2432   1.427   2.054   4.067
  831TIP3   OH2 2433   4.414   6.850   1.679
  831TIP3    H1 2434   4.374   6.820   1.760
  831TIP3    H2 2435   4.476   6.781   1.656
  832TIP3   OH2 2436   6.287   3.439   5.963
  832TIP3    H1 2437   6.380   3.437   5.987
  832TIP3    H2 2438   6.241   3.441   6.048
  833TIP3   OH2 2439   3.941   3.073   6.274
  833TIP3    H1 2440   3.884   3.028   6.336
  833TIP3    H2 2441   3.880   3.114   6.212
  834TIP3   OH2 2442   1.187   0.659   2.152
  834TIP3    H1 2443   1.162   0.567   2.156
  834TIP3    H2 2444   1.269   0.659   2.103
  835TIP3   OH2 2445   4.200   4.174   4.491
  835TIP3    H1 2446   4.216   4.165   4.397
  835TIP3    H2 2447   4.277   4.221   4.523
  836TIP3   OH2 2448   0.069   7.265   2.555
  836TIP3    H1 2449   0.072   7.209   2.478
  836TIP3    H2 2450   0.160   7.292   2.570
  837TIP3   OH2 2451   5.671   0.763   0.613
  837TIP3    H1 2452   5.737   0.717   0.665
  837TIP3    H2 2453   5.653   0.843   0.661
  838TIP3   OH2 2454   4.797   1.864   0.765
  838TIP3    H1 2455   4.821   1.818   0.845
  838TIP3    H2 2456   4.779   1.795   0.702
  839TIP3   OH2 2457   6.904   1.856   1.215
  839TIP3    H1 2458   6.982   1.843   1.161
  839TIP3    H2 2459   6.904   1.950   1.234
  840TIP3   OH2 2460   0.293   4.710   5.180
  840TIP3    H1 2461   0.306   4.707   5.275
  840TIP3    H2 2462   0.274   4.619   5.156
  841TIP3   OH2 2463   6.605   3.476   5.620
  841TIP3    H1 2464   6.514   3.502   5.631
  841TIP3    H2 2465   6.611   3.448   5.528
  842TIP3   OH2 2466   4.869   3.417   4.538
  842TIP3    H1 2467   4.777   3.443   4.540
  842TIP3    H2 2468   4.875   3.359   4.462
  843TIP3   OH2 2469   2.072   4.861   0.583
  843TIP3    H1 2470   2.166   4.858   0.604
  843TIP3    H2 2471   2.051   4.772   0.556
  844TIP3   OH2 2472   4.881   4.242   0.068
  844TIP3    H1 2473   4.959   4.236   0.122
  844TIP3    H2 2474   4.905   4.301  -0.004
  845TIP3   OH2 2475   5.066   5.271   1.681
  845TIP3    H1 2476   5.119   5.196   1.707
  845TIP3    H2 2477   5.127   5.330   1.638
  846TIP3   OH2 2478   1.379   7.307   6.739
  846TIP3    H1 2479   1.428   7.228   6.716
  846TIP3    H2 2480   1.290   7.290   6.707
  847TIP3   OH2 2481   1.062   4.344   1.824
  847TIP3    H1 2482   1.008   4.266   1.834
  847TIP3    H2 2483   1.063   4.385   1.910
  848TIP3   OH2 2484   4.631   1.228   5.005
  848TIP3    H1 2485   4.629   1.299   4.941
  848TIP3    H2 2486   4.722   1.200   5.008
  849TIP3   OH2 2487   5.952   1.677   4.880
  849TIP3    H1 2488   5.890   1.710   4.944
  849TIP3    H2 2489   5.899   1.654   4.804
  850TIP3   OH2 2490   0.237   5.211   3.858
  850TIP3    H1 2491   0.245   5.240   3.949
  850TIP3    H2 2492   0.326   5.189   3.832
  851TIP3   OH2 2493   1.747   6.425   5.125
  851TIP3    H1 2494   1.767   6.460   5.212
  851TIP3    H2 2495   1.821   6.368   5.104
  852TIP3   OH2 2496   4.347   7.439   4.063
  852TIP3    H1 2497   4.283   7.394   4.008
  852TIP3    H2 2498   4.405   7.482   4.001
  853TIP3   OH2 2499   3.311   5.503   1.914
  853TIP3    H1 2500   3.339   5.559   1.842
  853TIP3    H2 2501   3.238   5.550   1.954
  854TIP3   OH2 2502   2.552   7.722   3.732
  854TIP3    H1 2503   2.533   7.718   3.638
  854TIP3    H2 2504   2.643   7.693   3.739
  855TIP3   OH2 2505   4.181   7.402   2.837
  855TIP3    H1 2506   4.236   7.445   2.902
  855TIP3    H2 2507   4.106   7.461   2.825
  856TIP3   OH2 2508   6.355   6.276   6.070
  856TIP3    H1 2509   6.443   6.238   6.074
  856TIP3    H2 2510   6.319   6.245   5.987
  857TIP3   OH2 2511   2.803   5.138   0.224
  857TIP3    H1 2512   2.766   5.190   0.153
  857TIP3    H2 2513   2.794   5.048   0.194
  858TIP3   OH2 2514   1.439   1.877   3.282
  858TIP3    H1 2515   1.482   1.962   3.277
  858TIP3    H2 2516   1.381   1.874   3.206
  859TIP3   OH2 2517   6.628   6.576   2.325
  859TIP3    H1 2518   6.568   6.532   2.385
  859TIP3    H2 2519   6.705   6.596   2.378
  860TIP3   OH2 2520   6.497   4.258   2.678
  860TIP3    H1 2521   6.419   4.206   2.696
  860TIP3    H2 2522   6.465   4.336   2.634
  861TIP3   OH2 2523   1.817   2.764   1.813
  861TIP3    H1 2524   1.815   2.811   1.729
  861TIP3    H2 2525   1.882   2.812   1.865
  862TIP3   OH2 2526   2.522   5.646   5.615
  862TIP3    H1 2527   2.445   5.597   5.643
  862TIP3    H2 2528   2.546   5.607   5.531
  863TIP3   OH2 2529   6.596   6.155   6.047
  863TIP3    H1 2530   6.620   6.191   6.132
  863TIP3    H2 2531   6.679   6.141   6.002
  864TIP3   OH2 2532   0.686   1.442   5.574
  864TIP3    H1 2533   0.700   1.514   5.636
  864TIP3    H2 2534   0.662   1.484   5.492
  865TIP3   OH2 2535   4.863   2.134   0.779
  865TIP3    H1 2536   4.929   2.095   0.838
  865TIP3    H2 2537   4.798   2.064   0.767
  866TIP3   OH2 2538   6.309   7.434   6.516
  866TIP3    H1 2539   6.220   7.467   6.524
  866TIP3    H2 2540   6.363   7.500   6.559
  867TIP3   OH2 2541   4.273   0.166   3.095
  867TIP3    H1 2542   4.348   0.188   3.039
  867TIP3    H2 2543   4.215   0.116   3.038
  868TIP3   OH2 2544   2.041   3.265   4.431
  868TIP3    H1 2545   1.961   3.306   4.464
  868TIP3    H2 2546   2.108   3.332   4.439
  869TIP3   OH2 2547   1.048   4.280   0.698
  869TIP3    H1 2548   1.009   4.332   0.627
  869TIP3    H2 2549   1.137   4.313   0.705
  870TIP3   OH2 2550   5.789   3.182   0.155
  870TIP3    H1 2551   5.869   3.234   0.153
  870TIP3    H2 2552   5.816   3.096   0.123
  871TIP3   OH2 2553   6.131   6.372   3.509
  871TIP3    H1 2554   6.051   6.320   3.512
  871TIP3    H2 2555   6.105   6.458   3.540
  872TIP3   OH2 2556   6.595   5.890   3.756
  872TIP3    H1 2557   6.603   5.798   3.781
  872TIP3    H2 2558   6.666   5.904   3.693
  873TIP3   OH2 2559   6.240   6.137   1.488
  873TIP3    H1 2560   6.152   6.122   1.455
  873TIP3    H2 2561   6.228   6.196   1.563
  874TIP3   OH2 2562   1.757   6.149   2.463
  874TIP3    H1 2563   1.832   6.195   2.425
  874TIP3    H2 2564   1.715   6.215   2.518
  875TIP3   OH2 2565   0.801   7.614   3.147
  875TIP3    H1 2566   0.734   7.669   3.106
  875TIP3    H2 2567   0.768   7.525   3.135
  876TIP3   OH2 2568   3.684   6.567   4.996
  876TIP3    H1 2569   3.709   6.498   4.934
  876TIP3    H2 2570   3.592   6.551   5.014
  877TIP3   OH2 2571   2.807   4.832   3.102
  877TIP3    H1 2572   2.826   4.881   3.183
  877TIP3    H2 2573   2.892   4.820   3.061
  878TIP3   OH2 2574   7.068   3.861   6.735
  878TIP3    H1 2575   6.976   3.864   6.708
  878TIP3    H2 2576   7.065   3.850   6.830
  879TIP3   OH2 2577   1.084   0.194   2.585
  879TIP3    H1 2578   1.081   0.201   2.680
  879TIP3    H2 2579   1.140   0.118   2.568
  880TIP3   OH2 2580   0.242   1.886   1.088
  880TIP3    H1 2581   0.230   1.799   1.126
  880TIP3    H2 2582   0.275   1.940   1.161
  881TIP3   OH2 2583   2.655   6.531   5.734
  881TIP3    H1 2584   2.685   6.514   5.645
  881TIP3    H2 2585   2.621   6.620   5.731
  882TIP3   OH2 2586   4.565   0.879   0.202
  882TIP3    H1 2587   4.658   0.868   0.225
  882TIP3    H2 2588   4.555   0.831   0.120
  883TIP3   OH2 2589   4.291   1.554   2.555
  883TIP3    H1 2590   4.225   1.489   2.532
  883TIP3    H2 2591   4.359   1.545   2.487
  884TIP3   OH2 2592   0.522   1.879   1.354
  884TIP3    H1 2593   0.544   1.928   1.433
  884TIP3    H2 2594   0.445   1.924   1.319
  885TIP3   OH2 2595   7.800   5.459   3.743
  885TIP3    H1 2596   7.737   5.513   3.697
  885TIP3    H2 2597   7.750   5.383   3.773
  886TIP3   OH2 2598   5.016   2.739   0.412
  886TIP3    H1 2599   5.055   2.671   0.357
  886TIP3    H2 2600   4.922   2.730   0.397
  887TIP3   OH2 2601   3.349   0.295   5.047
  887TIP3    H1 2602   3.262   0.336   5.045
  887TIP3    H2 2603   3.401   0.346   4.984
  888TIP3   OH2 2604   1.731   5.562   4.965
  888TIP3    H1 2605   1.652   5.605   4.999
  888TIP3    H2 2606   1.803   5.609   5.006
  889TIP3   OH2 2607   2.060   4.542   5.971
  889TIP3    H1 2608   2.137   4.509   6.017
  889TIP3    H2 2609   1.999   4.566   6.040
  890TIP3   OH2 2610   1.499   2.639   4.943
  890TIP3    H1 2611   1.450   2.707   4.989
  890TIP3    H2 2612   1.442   2.562   4.947
  891TIP3   OH2 2613   3.197   4.014   5.877
  891TIP3    H1 2614   3.153   3.950   5.821
  891TIP3    H2 2615   3.143   4.093   5.871
  892TIP3   OH2 2616   2.265   4.534   3.787
  892TIP3    H1 2617   2.345   4.568   3.747
  892TIP3    H2 2618   2.217   4.493   3.714
  893TIP3   OH2 2619   0.034   7.343   5.401
  893TIP3    H1 2620   0.061   7.393   5.478
  893TIP3    H2 2621  -0.034   7.284   5.434
  894TIP3   OH2 2622   8.364   1.148   0.571
  894TIP3    H1 2623   8.411   1.191   0.499
  894TIP3    H2 2624   8.291   1.206   0.590
  895TIP3   OH2 2625   4.195   6.118   6.109
  895TIP3    H1 2626   4.200   6.213   6.093
  895TIP3    H2 2627   4.286   6.091   6.120
  896TIP3   OH2 2628   0.830   5.355   1.260
  896TIP3    H1 2629   0.810   5.312   1.177
  896TIP3    H2 2630   0.763   5.323   1.320
  897TIP3   OH2 2631   8.050   5.863   3.368
  897TIP3    H1 2632   8.046   5.796   3.299
  897TIP3    H2 2633   8.002   5.824   3.441
  898TIP3   OH2 2634   6.529   1.267   4.816
  898TIP3    H1 2635   6.574   1.346   4.787
  898TIP3    H2 2636   6.516   1.280   4.910
  899TIP3   OH2 2637   7.913   2.213   2.572
  899TIP3    H1 2638   7.929   2.177   2.660
  899TIP3    H2 2639   8.000   2.234   2.539
  900TIP3   OH2 2640   6.491   2.499   3.013
  900TIP3    H1 2641   6.486   2.447   2.932
  900TIP3    H2 2642   6.499   2.434   3.082
  901TIP3   OH2 2643   4.934   0.129   2.788
  901TIP3    H1 2644   4.874   0.107   2.718
  901TIP3    H2 2645   4.954   0.222   2.774
  902TIP3   OH2 2646   4.669   3.462   4.909
  902TIP3    H1 2647   4.591   3.407   4.897
  902TIP3    H2 2648   4.740   3.411   4.871
  903TIP3   OH2 2649   1.844   0.038   2.331
  903TIP3    H1 2650   1.879   0.058   2.418
  903TIP3    H2 2651   1.842   0.122   2.286
  904TIP3   OH2 2652   6.178   2.686   6.009
  904TIP3    H1 2653   6.151   2.635   6.085
  904TIP3    H2 2654   6.190   2.775   6.043
  905TIP3   OH2 2655   6.467   6.155   4.236
  905TIP3    H1 2656   6.510   6.098   4.172
  905TIP3    H2 2657   6.503   6.242   4.218
  906TIP3   OH2 2658   1.364   4.501   0.129
  906TIP3    H1 2659   1.359   4.595   0.117
  906TIP3    H2 2660   1.401   4.468   0.048
  907TIP3   OH2 2661   1.774   6.168   0.819
  907TIP3    H1 2662   1.842   6.103   0.838
  907TIP3    H2 2663   1.719   6.126   0.753
  908TIP3   OH2 2664   5.542   7.645   1.177
  908TIP3    H1 2665   5.608   7.600   1.125
  908TIP3    H2 2666   5.545   7.736   1.147
  909TIP3   OH2 2667   3.007   4.209   1.239
  909TIP3    H1 2668   2.930   4.218   1.183
  909TIP3    H2 2669   3.081   4.203   1.179
  910TIP3   OH2 2670   4.103   3.529   5.321
  910TIP3    H1 2671   4.178   3.490   5.276
  910TIP3    H2 2672   4.059   3.580   5.253
  911TIP3   OH2 2673   2.541   3.618   4.549
  911TIP3    H1 2674   2.457   3.646   4.584
  911TIP3    H2 2675   2.541   3.523   4.558
  912TIP3   OH2 2676   2.000   1.054   0.454
  912TIP3    H1 2677   1.923   1.055   0.511
  912TIP3    H2 2678   2.022   1.146   0.441
  913TIP3   OH2 2679   0.354   3.114   0.375
  913TIP3    H1 2680   0.275   3.152   0.412
  913TIP3    H2 2681   0.423   3.135   0.438
  914TIP3   OH2 2682   6.174   7.573   5.164
  914TIP3    H1 2683   6.182   7.635   5.091
  914TIP3    H2 2684   6.195   7.624   5.242
  915TIP3   OH2 2685   3.447   2.049   1.047
  915TIP3    H1 2686   3.489   2.132   1.071
  915TIP3    H2 2687   3.489   1.983   1.101
  916TIP3   OH2 2688   5.434   6.070   3.579
  916TIP3    H1 2689   5.486   6.017   3.520
  916TIP3    H2 2690   5.425   6.154   3.535
  917TIP3   OH2 2691   8.007   3.222   6.107
  917TIP3    H1 2692   8.012   3.134   6.144
  917TIP3    H2 2693   8.058   3.276   6.168
  918TIP3   OH2 2694   4.930   7.421   5.384
  918TIP3    H1 2695   4.986   7.405   5.460
  918TIP3    H2 2696   4.844   7.391   5.410
  919TIP3   OH2 2697   4.756   7.582   5.242
  919TIP3    H1 2698   4.820   7.526   5.287
  919TIP3    H2 2699   4.799   7.668   5.239
  920TIP3   OH2 2700   7.005   0.867   5.836
  920TIP3    H1 2701   6.948   0.938   5.807
  920TIP3    H2 2702   7.054   0.842   5.758
  921TIP3   OH2 2703   5.113   0.564   3.355
  921TIP3    H1 2704   5.202   0.591   3.379
  921TIP3    H2 2705   5.089   0.623   3.284
  922TIP3   OH2 2706   0.579   2.361   6.016
  922TIP3    H1 2707   0.516   2.351   6.087
  922TIP3    H2 2708   0.526   2.365   5.936
  923TIP3   OH2 2709   2.885   1.717   0.760
  923TIP3    H1 2710   2.921   1.654   0.822
  923TIP3    H2 2711   2.829   1.664   0.702
  924TIP3   OH2 2712   3.023   4.716   1.888
  924TIP3    H1 2713   3.020   4.638   1.832
  924TIP3    H2 2714   2.933   4.750   1.888
  925TIP3   OH2 2715   3.099   7.559   3.297
  925TIP3    H1 2716   3.107   7.472   3.259
  925TIP3    H2 2717   3.006   7.567   3.320
  926TIP3   OH2 2718   1.281   7.604   3.785
  926TIP3    H1 2719   1.284   7.691   3.746
  926TIP3    H2 2720   1.241   7.616   3.870
  927TIP3   OH2 2721   7.244   0.004   4.306
  927TIP3    H1 2722   7.274   0.079   4.254
  927TIP3    H2 2723   7.178  -0.038   4.251
  928TIP3   OH2 2724   5.462   1.737   3.694
  928TIP3    H1 2725   5.462   1.664   3.756
  928TIP3    H2 2726   5.401   1.710   3.625
  929TIP3   OH2 2727   8.276   4.156   5.646
  929TIP3    H1 2728   8.219   4.093   5.600
  929TIP3    H2 2729   8.360   4.110   5.654
  930TIP3   OH2 2730   5.875   4.724   3.836
  930TIP3    H1 2731   5.787   4.686   3.841
  930TIP3    H2 2732   5.903   4.731   3.928
  931TIP3   OH2 2733   1.015   5.082   2.075
  931TIP3    H1 2734   0.981   5.002   2.115
  931TIP3    H2 2735   1.105   5.089   2.109
  932TIP3   OH2 2736   1.959   7.171   5.837
  932TIP3    H1 2737   2.029   7.157   5.901
  932TIP3    H2 2738   1.963   7.264   5.817
  933TIP3   OH2 2739   5.594   4.789   3.541
  933TIP3    H1 2740   5.506   4.764   3.566
  933TIP3    H2 2741   5.599   4.883   3.558
  934TIP3   OH2 2742   1.758   5.886   0.954
  934TIP3    H1 2743   1.766   5.821   1.024
  934TIP3    H2 2744   1.777   5.837   0.874
  935TIP3   OH2 2745   0.796   3.686   4.750
  935TIP3    H1 2746   0.817   3.657   4.661
  935TIP3    H2 2747   0.831   3.616   4.806
  936TIP3   OH2 2748   3.237   3.740   3.130
  936TIP3    H1 2749   3.166   3.790   3.090
  936TIP3    H2 2750   3.216   3.649   3.109
  937TIP3   OH2 2751   6.741   1.700   0.793
  937TIP3    H1 2752   6.725   1.767   0.859
  937TIP3    H2 2753   6.783   1.745   0.721
  938TIP3   OH2 2754   7.914   0.337   2.270
  938TIP3    H1 2755   7.824   0.323   2.239
  938TIP3    H2 2756   7.959   0.375   2.195
  939TIP3   OH2 2757   2.036   4.270   4.723
  939TIP3    H1 2758   1.951   4.230   4.740
  939TIP3    H2 2759   2.027   4.308   4.636
  940TIP3   OH2 2760   5.510   3.117   6.658
  940TIP3    H1 2761   5.452   3.108   6.734
  940TIP3    H2 2762   5.503   3.209   6.633
  941TIP3   OH2 2763   3.944   0.606   1.925
  941TIP3    H1 2764   3.923   0.621   2.018
  941TIP3    H2 2765   4.032   0.570   1.926
  942TIP3   OH2 2766   0.821   7.534   2.808
  942TIP3    H1 2767   0.744   7.481   2.827
  942TIP3    H2 2768   0.817   7.605   2.872
  943TIP3   OH2 2769   1.917   5.976   2.627
  943TIP3    H1 2770   1.884   6.019   2.548
  943TIP3    H2 2771   1.845   5.918   2.654
  944TIP3   OH2 2772   6.270   6.331   4.523
  944TIP3    H1 2773   6.225   6.406   4.560
  944TIP3    H2 2774   6.347   6.368   4.479
  945TIP3   OH2 2775   4.662   5.969   6.510
  945TIP3    H1 2776   4.721   6.031   6.467
  945TIP3    H2 2777   4.606   5.936   6.440
  946TIP3   OH2 2778   6.218   4.224   0.223
  946TIP3    H1 2779   6.169   4.256   0.147
  946TIP3    H2 2780   6.253   4.140   0.194
  947TIP3   OH2 2781   6.860   6.012   2.039
  947TIP3    H1 2782   6.811   6.062   2.105
  947TIP3    H2 2783   6.851   6.063   1.959
  948TIP3   OH2 2784   2.714   0.160   0.074
  948TIP3    H1 2785   2.743   0.247   0.045
  948TIP3    H2 2786   2.771   0.099   0.026
  949TIP3   OH2 2787   8.167   0.311   6.708
  949TIP3    H1 2788   8.124   0.231   6.679
  949TIP3    H2 2789   8.108   0.381   6.679
  950TIP3   OH2 2790   3.653   7.770   1.832
  950TIP3    H1 2791   3.648   7.685   1.789
  950TIP3    H2 2792   3.706   7.753   1.911
  951TIP3   OH2 2793   1.863   3.795   6.364
  951TIP3    H1 2794   1.871   3.786   6.459
  951TIP3    H2 2795   1.949   3.773   6.330
  952TIP3   OH2 2796   7.405   5.092   2.698
  952TIP3    H1 2797   7.347   5.028   2.656
  952TIP3    H2 2798   7.484   5.043   2.718
  953TIP3   OH2 2799   7.882   2.698   1.155
  953TIP3    H1 2800   7.816   2.714   1.223
  953TIP3    H2 2801   7.833   2.656   1.084
  954TIP3   OH2 2802   5.751   3.586   6.134
  954TIP3    H1 2803   5.807   3.648   6.088
  954TIP3    H2 2804   5.682   3.564   6.071
  955TIP3   OH2 2805   3.770   1.728   6.364
  955TIP3    H1 2806   3.797   1.674   6.438
  955TIP3    H2 2807   3.783   1.672   6.288
  956TIP3   OH2 2808   5.416   4.007   5.040
  956TIP3    H1 2809   5.412   4.027   4.946
  956TIP3    H2 2810   5.469   4.077   5.078
  957TIP3   OH2 2811   5.227   7.741   4.845
  957TIP3    H1 2812   5.198   7.653   4.868
  957TIP3    H2 2813   5.146   7.790   4.830
  958TIP3   OH2 2814   8.018   5.489   5.295
  958TIP3    H1 2815   8.066   5.407   5.292
  958TIP3    H2 2816   8.019   5.520   5.204
  959TIP3   OH2 2817   5.208   3.257   0.767
  959TIP3    H1 2818   5.114   3.243   0.760
  959TIP3    H2 2819   5.217   3.333   0.824
  960TIP3   OH2 2820   3.737   6.636   6.295
  960TIP3    H1 2821   3.669   6.637   6.228
  960TIP3    H2 2822   3.692   6.607   6.374
  961TIP3   OH2 2823   8.063   4.755   5.346
  961TIP3    H1 2824   8.000   4.711   5.289
  961TIP3    H2 2825   8.038   4.848   5.341
  962TIP3   OH2 2826   4.969   1.619   4.759
  962TIP3    H1 2827   4.903   1.682   4.788
  962TIP3    H2 2828   5.017   1.664   4.690
  963TIP3   OH2 2829   2.353   2.091   5.348
  963TIP3    H1 2830   2.362   2.093   5.253
  963TIP3    H2 2831   2.312   2.007   5.367
  964TIP3   OH2 2832   6.630   2.942   4.989
  964TIP3    H1 2833   6.706   2.998   4.996
  964TIP3    H2 2834   6.646   2.887   4.912
  965TIP3   OH2 2835   3.221   0.972   5.878
  965TIP3    H1 2836   3.237   1.031   5.804
  965TIP3    H2 2837   3.285   0.999   5.944
  966TIP3   OH2 2838   2.428   7.507   1.076
  966TIP3    H1 2839   2.435   7.419   1.115
  966TIP3    H2 2840   2.454   7.566   1.146
  967TIP3   OH2 2841   3.388   0.613   3.633
  967TIP3    H1 2842   3.458   0.675   3.614
  967TIP3    H2 2843   3.424   0.528   3.609
  968TIP3   OH2 2844   5.522   7.353   1.879
  968TIP3    H1 2845   5.514   7.448   1.878
  968TIP3    H2 2846   5.433   7.320   1.883
  969TIP3   OH2 2847   2.137   0.908   3.137
  969TIP3    H1 2848   2.088   0.892   3.055
  969TIP3    H2 2849   2.085   0.863   3.204
  970TIP3   OH2 2850   3.697   7.676   3.086
  970TIP3    H1 2851   3.720   7.713   3.172
  970TIP3    H2 2852   3.694   7.752   3.028
  971TIP3   OH2 2853   3.728   7.429   5.797
  971TIP3    H1 2854   3.648   7.461   5.838
  971TIP3    H2 2855   3.771   7.507   5.762
  972TIP3   OH2 2856   8.285   2.959   5.627
  972TIP3    H1 2857   8.280   2.935   5.720
  972TIP3    H2 2858   8.379   2.956   5.607
  973TIP3   OH2 2859   1.869   7.020   2.597
  973TIP3    H1 2860   1.871   7.114   2.582
  973TIP3    H2 2861   1.922   7.007   2.675
  974TIP3   OH2 2862   0.546   5.981   2.613
  974TIP3    H1 2863   0.520   5.894   2.580
  974TIP3    H2 2864   0.494   5.993   2.692
  975TIP3   OH2 2865   8.040   7.785   3.341
  975TIP3    H1 2866   8.072   7.716   3.283
  975TIP3    H2 2867   8.068   7.867   3.299
  976TIP3   OH2 2868   4.878   0.443   4.936
  976TIP3    H1 2869   4.891   0.359   4.980
  976TIP3    H2 2870   4.961   0.489   4.946
  977TIP3   OH2 2871   2.559   3.957   5.071
  977TIP3    H1 2872   2.501   3.887   5.042
  977TIP3    H2 2873   2.515   3.996   5.147
  978TIP3   OH2 2874   3.782   1.793   4.830
  978TIP3    H1 2875   3.867   1.808   4.871
  978TIP3    H2 2876   3.779   1.854   4.756
  979TIP3   OH2 2877   4.040   0.411   5.895
  979TIP3    H1 2878   4.104   0.343   5.916
  979TIP3    H2 2879   4.092   0.491   5.884
  980TIP3   OH2 2880   7.117   5.172   1.893
  980TIP3    H1 2881   7.202   5.133   1.914
  980TIP3    H2 2882   7.059   5.141   1.963
  981TIP3   OH2 2883   2.575   3.249   1.216
  981TIP3    H1 2884   2.658   3.295   1.231
  981TIP3    H2 2885   2.591   3.197   1.136
  982TIP3   OH2 2886   1.691   4.155   4.523
  982TIP3    H1 2887   1.785   4.139   4.535
  982TIP3    H2 2888   1.665   4.094   4.454
  983TIP3   OH2 2889   4.634   2.850   5.505
  983TIP3    H1 2890   4.722   2.879   5.529
  983TIP3    H2 2891   4.638   2.754   5.511
  984TIP3   OH2 2892   6.477   2.355   6.709
  984TIP3    H1 2893   6.408   2.419   6.695
  984TIP3    H2 2894   6.469   2.294   6.636
  985TIP3   OH2 2895   7.318   7.748   3.276
  985TIP3    H1 2896   7.298   7.801   3.354
  985TIP3    H2 2897   7.250   7.771   3.213
  986TIP3   OH2 2898   5.030   3.282   3.122
  986TIP3    H1 2899   5.013   3.374   3.141
  986TIP3    H2 2900   5.096   3.255   3.185
  987TIP3   OH2 2901   7.072   4.321   6.347
  987TIP3    H1 2902   7.150   4.376   6.357
  987TIP3    H2 2903   7.048   4.331   6.255
  988TIP3   OH2 2904   3.135   4.257   0.157
  988TIP3    H1 2905   3.087   4.175   0.166
  988TIP3    H2 2906   3.111   4.307   0.235
  989TIP3   OH2 2907   3.516   2.791   2.288
  989TIP3    H1 2908   3.444   2.833   2.335
  989TIP3    H2 2909   3.533   2.850   2.214
  990TIP3   OH2 2910   2.209   2.008   6.852
  990TIP3    H1 2911   2.244   2.078   6.907
  990TIP3    H2 2912   2.233   2.032   6.763
  991TIP3   OH2 2913   1.078   2.716   5.298
  991TIP3    H1 2914   1.119   2.662   5.231
  991TIP3    H2 2915   1.150   2.746   5.353
  992TIP3   OH2 2916   7.435   2.104   1.854
  992TIP3    H1 2917   7.385   2.134   1.779
  992TIP3    H2 2918   7.460   2.184   1.900
  993TIP3   OH2 2919   3.967   3.664   5.082
  993TIP3    H1 2920   4.054   3.669   5.043
  993TIP3    H2 2921   3.908   3.646   5.008
  994TIP3   OH2 2922   4.768   0.346   0.162
  994TIP3    H1 2923   4.857   0.334   0.128
  994TIP3    H2 2924   4.778   0.340   0.257
  995TIP3   OH2 2925   2.068   7.005   3.637
  995TIP3    H1 2926   2.108   7.091   3.654
  995TIP3    H2 2927   2.080   6.992   3.543
  996TIP3   OH2 2928   7.828   0.488   3.640
  996TIP3    H1 2929   7.901   0.496   3.701
  996TIP3    H2 2930   7.761   0.440   3.688
  997TIP3   OH2 2931   3.960   7.419   4.543
  997TIP3    H1 2932   3.939   7.487   4.479
  997TIP3    H2 2933   4.054   7.427   4.557
  998TIP3   OH2 2934   4.451   2.783   1.053
  998TIP3    H1 2935   4.448   2.742   0.967
  998TIP3    H2 2936   4.532   2.752   1.092
  999TIP3   OH2 2937   0.861   0.091   4.495
  999TIP3    H1 2938   0.916   0.061   4.567
  999TIP3    H2 2939   0.791   0.026   4.490
 1000TIP3   OH2 2940   7.096   6.166   5.640
 1000TIP3    H1 2941   7.164   6.177   5.574
 1000TIP3    H2 2942   7.108   6.077   5.673
 1001TIP3   OH2 2943   0.516   0.897   1.916
 1001TIP3    H1 2944   0.444   0.956   1.940
 1001TIP3    H2 2945   0.590   0.956   1.902
 1002TIP3   OH2 2946   3.062   3.837   5.739
 1002TIP3    H1 2947   3.092   3.748   5.721
 1002TIP3    H2 2948   2.976   3.827   5.780
 1003TIP3   OH2 2949   8.000   0.031   4.211
 1003TIP3    H1 2950   8.089   0.033   4.248
 1003TIP3    H2 2951   7.997  -0.051   4.161
 1004TIP3   OH2 2952   6.649   4.228   3.877
 1004TIP3    H1 2953   6.571   4.237   3.822
 1004TIP3    H2 2954   6.707   4.172   3.826
 1005TIP3   OH2 2955   1.998   5.854   4.374
 1005TIP3    H1 2956   1.974   5.849   4.282
 1005TIP3    H2 2957   2.065   5.922   4.378
 1006TIP3   OH2 2958   1.282   0.172   6.332
 1006TIP3    H1 2959   1.252   0.085   6.308
 1006TIP3    H2 2960   1.362   0.158   6.382
 1007TIP3   OH2 2961   3.843   7.025   1.609
 1007TIP3    H1 2962   3.887   7.009   1.693
 1007TIP3    H2 2963   3.754   6.992   1.623
 1008TIP3   OH2 2964   5.707   2.726   0.322
 1008TIP3    H1 2965   5.621   2.757   0.295
 1008TIP3    H2 2966   5.727   2.654   0.263
 1009TIP3   OH2 2967   4.348   6.030   5.445
 1009TIP3    H1 2968   4.432   6.019   5.400
 1009TIP3    H2 2969   4.353   5.971   5.520
 1010TIP3   OH2 2970   8.207   1.331   5.518
 1010TIP3    H1 2971   8.241   1.305   5.603
 1010TIP3    H2 2972   8.116   1.303   5.518
 1011TIP3   OH2 2973   4.245   5.388   3.085
 1011TIP3    H1 2974   4.163   5.413   3.042
 1011TIP3    H2 2975   4.229   5.403   3.178
 1012TIP3   OH2 2976   0.326   1.857   3.942
 1012TIP3    H1 2977   0.420   1.870   3.955
 1012TIP3    H2 2978   0.289   1.945   3.950
 1013TIP3   OH2 2979   0.310   3.966   3.189
 1013TIP3    H1 2980   0.282   3.977   3.098
 1013TIP3    H2 2981   0.336   3.874   3.195
 1014TIP3   OH2 2982   3.241   7.421   5.086
 1014TIP3    H1 2983   3.195   7.496   5.123
 1014TIP3    H2 2984   3.191   7.399   5.008
 1015TIP3   OH2 2985   1.923   2.888   6.796
 1015TIP3    H1 2986   1.861   2.815   6.803
 1015TIP3    H2 2987   1.881   2.960   6.842
 1016TIP3   OH2 2988   3.158   6.490   6.480
 1016TIP3    H1 2989   3.073   6.449   6.463
 1016TIP3    H2 2990   3.167   6.556   6.411
 1017TIP3   OH2 2991   4.864   3.277   5.745
 1017TIP3    H1 2992   4.915   3.319   5.814
 1017TIP3    H2 2993   4.901   3.311   5.664
 1018TIP3   OH2 2994   3.216   4.140   6.205
 1018TIP3    H1 2995   3.269   4.215   6.179
 1018TIP3    H2 2996   3.271   4.064   6.186
 1019TIP3   OH2 2997   0.821   4.299   2.737
 1019TIP3    H1 2998   0.846   4.264   2.651
 1019TIP3    H2 2999   0.800   4.221   2.789
 1020TIP3   OH2 3000   0.619   7.268   3.583
 1020TIP3    H1 3001   0.572   7.190   3.610
 1020TIP3    H2 3002   0.712   7.245   3.592
 1021TIP3   OH2 3003   1.146   3.477   0.086
 1021TIP3    H1 3004   1.153   3.572   0.097
 1021TIP3    H2 3005   1.199   3.441   0.157
 1022TIP3   OH2 3006   7.344   6.133   6.809
 1022TIP3    H1 3007   7.316   6.224   6.822
 1022TIP3    H2 3008   7.434   6.140   6.779
 1023TIP3   OH2 3009   2.205   5.705   4.462
 1023TIP3    H1 3010   2.120   5.746   4.444
 1023TIP3    H2 3011   2.242   5.689   4.375
 1024TIP3   OH2 3012   6.089   1.021   3.585
 1024TIP3    H1 3013   6.183   1.005   3.594
 1024TIP3    H2 3014   6.076   1.107   3.624
 1025TIP3   OH2 3015   6.031   3.281   3.167
 1025TIP3    H1 3016   6.100   3.347   3.170
 1025TIP3    H2 3017   5.970   3.307   3.236
 1026TIP3   OH2 3018   7.241   1.195   1.677
 1026TIP3    H1 3019   7.312   1.226   1.733
 1026TIP3    H2 3020   7.219   1.270   1.622
 1027TIP3   OH2 3021   0.080   4.391   1.423
 1027TIP3    H1 3022   0.023   4.410   1.348
 1027TIP3    H2 3023   0.157   4.446   1.409
 1028TIP3   OH2 3024   4.794   5.988   0.341
 1028TIP3    H1 3025   4.714   6.020   0.384
 1028TIP3    H2 3026   4.814   5.906   0.387
 1029TIP3   OH2 3027   8.177   0.132   1.534
 1029TIP3    H1 3028   8.165   0.046   1.494
 1029TIP3    H2 3029   8.100   0.144   1.590
 1030TIP3   OH2 3030   7.397   5.805   6.094
 1030TIP3    H1 3031   7.452   5.799   6.172
 1030TIP3    H2 3032   7.447   5.760   6.026
 1031TIP3   OH2 3033   7.431   2.587   1.932
 1031TIP3    H1 3034   7.501   2.650   1.914
 1031TIP3    H2 3035   7.477   2.505   1.950
 1032TIP3   OH2 3036   0.697   2.109   6.195
 1032TIP3    H1 3037   0.607   2.086   6.220
 1032TIP3    H2 3038   0.687   2.181   6.133
 1033TIP3   OH2 3039   4.417   7.342   5.844
 1033TIP3    H1 3040   4.343   7.330   5.903
 1033TIP3    H2 3041   4.484   7.282   5.876
 1034TIP3   OH2 3042   7.252   2.631   2.144
 1034TIP3    H1 3043   7.305   2.620   2.065
 1034TIP3    H2 3044   7.193   2.555   2.144
 1035TIP3   OH2 3045   1.376   0.835   1.708
 1035TIP3    H1 3046   1.391   0.878   1.792
 1035TIP3    H2 3047   1.461   0.795   1.687
 1036TIP3   OH2 3048   5.477   0.518   3.447
 1036TIP3    H1 3049   5.437   0.588   3.395
 1036TIP3    H2 3050   5.567   0.514   3.417
 1037TIP3   OH2 3051   2.629   2.255   4.826
 1037TIP3    H1 3052   2.539   2.288   4.823
 1037TIP3    H2 3053   2.626   2.174   4.776
 1038TIP3   OH2 3054   4.112   0.213   2.006
 1038TIP3    H1 3055   4.126   0.141   1.945
 1038TIP3    H2 3056   4.017   0.217   2.017
 1039TIP3   OH2 3057   0.939   5.657   0.561
 1039TIP3    H1 3058   0.961   5.629   0.472
 1039TIP3    H2 3059   1.023   5.661   0.606
 1040TIP3   OH2 3060   4.485   3.437   2.431
 1040TIP3    H1 3061   4.391   3.448   2.413
 1040TIP3    H2 3062   4.525   3.434   2.344
 1041TIP3   OH2 3063   4.136   6.895   4.443
 1041TIP3    H1 3064   4.089   6.844   4.377
 1041TIP3    H2 3065   4.071   6.910   4.512
 1042TIP3   OH2 3066   4.818   2.081   5.967
 1042TIP3    H1 3067   4.847   2.081   6.058
 1042TIP3    H2 3068   4.884   2.030   5.920
 1043TIP3   OH2 3069   7.778   4.266   6.826
 1043TIP3    H1 3070   7.817   4.353   6.838
 1043TIP3    H2 3071   7.739   4.269   6.739
 1044TIP3   OH2 3072   0.076   0.883   2.479
 1044TIP3    H1 3073   0.046   0.940   2.408
 1044TIP3    H2 3074   0.074   0.795   2.442
 1045TIP3   OH2 3075   4.287   3.655   1.601
 1045TIP3    H1 3076   4.357   3.618   1.655
 1045TIP3    H2 3077   4.310   3.747   1.591
 1046TIP3   OH2 3078   1.751   5.546   2.624
 1046TIP3    H1 3079   1.795   5.534   2.708
 1046TIP3    H2 3080   1.777   5.634   2.596
 1047TIP3   OH2 3081   7.818   1.863   1.221
 1047TIP3    H1 3082   7.773   1.841   1.140
 1047TIP3    H2 3083   7.779   1.806   1.288
 1048TIP3   OH2 3084   3.908   0.641   2.215
 1048TIP3    H1 3085   3.963   0.718   2.224
 1048TIP3    H2 3086   3.818   0.674   2.220
 1049TIP3   OH2 3087   5.939   4.795   2.214
 1049TIP3    H1 3088   5.851   4.770   2.183
 1049TIP3    H2 3089   5.951   4.884   2.184
 1050TIP3   OH2 3090   0.762   0.645   0.129
 1050TIP3    H1 3091   0.841   0.666   0.178
 1050TIP3    H2 3092   0.721   0.574   0.178
 1051TIP3   OH2 3093   1.471   1.795   6.827
 1051TIP3    H1 3094   1.474   1.818   6.920
 1051TIP3    H2 3095   1.554   1.751   6.810
 1052TIP3   OH2 3096   1.077   3.931   2.800
 1052TIP3    H1 3097   1.137   3.927   2.725
 1052TIP3    H2 3098   0.990   3.922   2.762
 1053TIP3   OH2 3099   5.711   5.578   2.403
 1053TIP3    H1 3100   5.784   5.625   2.445
 1053TIP3    H2 3101   5.754   5.520   2.340
 1054TIP3   OH2 3102   1.752   6.653   5.300
 1054TIP3    H1 3103   1.667   6.687   5.329
 1054TIP3    H2 3104   1.806   6.652   5.379
 1055TIP3   OH2 3105   5.288   7.414   2.959
 1055TIP3    H1 3106   5.217   7.402   2.896
 1055TIP3    H2 3107   5.360   7.450   2.907
 1056TIP3   OH2 3108   0.030   3.665   1.664
 1056TIP3    H1 3109   0.046   3.628   1.751
 1056TIP3    H2 3110   0.046   3.592   1.604
 1057TIP3   OH2 3111   6.885   2.573   5.046
 1057TIP3    H1 3112   6.813   2.577   4.984
 1057TIP3    H2 3113   6.858   2.508   5.111
 1058TIP3   OH2 3114   5.685   1.453   2.204
 1058TIP3    H1 3115   5.708   1.376   2.256
 1058TIP3    H2 3116   5.742   1.522   2.237
 1059TIP3   OH2 3117   4.739   1.289   3.384
 1059TIP3    H1 3118   4.645   1.285   3.367
 1059TIP3    H2 3119   4.745   1.325   3.473
 1060TIP3   OH2 3120   6.725   1.520   0.120
 1060TIP3    H1 3121   6.706   1.606   0.158
 1060TIP3    H2 3122   6.675   1.459   0.175
 1061TIP3   OH2 3123   2.033   4.429   4.490
 1061TIP3    H1 3124   2.052   4.521   4.509
 1061TIP3    H2 3125   1.985   4.431   4.408
 1062TIP3   OH2 3126   6.386   4.006   0.159
 1062TIP3    H1 3127   6.470   3.970   0.185
 1062TIP3    H2 3128   6.322   3.957   0.210
 1063TIP3   OH2 3129   3.385   2.808   5.106
 1063TIP3    H1 3130   3.443   2.790   5.032
 1063TIP3    H2 3131   3.342   2.724   5.123
 1064TIP3   OH2 3132   8.158   1.594   5.184
 1064TIP3    H1 3133   8.181   1.687   5.187
 1064TIP3    H2 3134   8.074   1.592   5.139
 1065TIP3   OH2 3135   5.895   4.547   6.685
 1065TIP3    H1 3136   5.920   4.477   6.625
 1065TIP3    H2 3137   5.799   4.541   6.691
 1066TIP3   OH2 3138   3.977   5.346   4.404
 1066TIP3    H1 3139   4.019   5.364   4.321
 1066TIP3    H2 3140   3.975   5.250   4.410
 1067TIP3   OH2 3141   0.800   5.386   5.860
 1067TIP3    H1 3142   0.805   5.474   5.822
 1067TIP3    H2 3143   0.709   5.360   5.847
 1068TIP3   OH2 3144   7.864   1.133   0.320
 1068TIP3    H1 3145   7.889   1.088   0.401
 1068TIP3    H2 3146   7.860   1.065   0.254
 1069TIP3   OH2 3147   5.536   1.094   5.793
 1069TIP3    H1 3148   5.505   1.179   5.826
 1069TIP3    H2 3149   5.547   1.041   5.872
 1070TIP3   OH2 3150   3.102   6.226   2.783
 1070TIP3    H1 3151   3.056   6.309   2.780
 1070TIP3    H2 3152   3.072   6.179   2.705
 1071TIP3   OH2 3153   1.370   6.079   4.096
 1071TIP3    H1 3154   1.308   6.137   4.053
 1071TIP3    H2 3155   1.416   6.035   4.024
 1072TIP3   OH2 3156   4.206   3.663   4.948
 1072TIP3    H1 3157   4.248   3.578   4.932
 1072TIP3    H2 3158   4.268   3.711   5.002
 1073TIP3   OH2 3159   1.585   3.413   3.581
 1073TIP3    H1 3160   1.549   3.494   3.616
 1073TIP3    H2 3161   1.672   3.407   3.620
 1074TIP3   OH2 3162   4.940   7.068   2.570
 1074TIP3    H1 3163   4.903   7.076   2.658
 1074TIP3    H2 3164   4.956   7.158   2.543
 1075TIP3   OH2 3165   0.455   4.299   4.800
 1075TIP3    H1 3166   0.411   4.380   4.778
 1075TIP3    H2 3167   0.538   4.303   4.751
 1076TIP3   OH2 3168   2.279   0.345   3.543
 1076TIP3    H1 3169   2.244   0.326   3.456
 1076TIP3    H2 3170   2.237   0.428   3.568
 1077TIP3   OH2 3171   0.006   6.647   0.916
 1077TIP3    H1 3172  -0.047   6.568   0.924
 1077TIP3    H2 3173  -0.037   6.698   0.848
 1078TIP3   OH2 3174   1.445   0.826   6.757
 1078TIP3    H1 3175   1.355   0.819   6.726
 1078TIP3    H2 3176   1.489   0.750   6.720
 1079TIP3   OH2 3177   3.061   7.495   6.685
 1079TIP3    H1 3178   3.112   7.568   6.650
 1079TIP3    H2 3179   3.125   7.424   6.694
 1080TIP3   OH2 3180   1.694   4.830   6.378
 1080TIP3    H1 3181   1.764   4.806   6.439
 1080TIP3    H2 3182   1.740   4.867   6.302
 1081TIP3   OH2 3183   7.899   1.110   2.279
 1081TIP3    H1 3184   7.988   1.094   2.249
 1081TIP3    H2 3185   7.859   1.024   2.284
 1082TIP3   OH2 3186   5.234   4.408   5.707
 1082TIP3    H1 3187   5.141   4.429   5.714
 1082TIP3    H2 3188   5.277   4.473   5.763
 1083TIP3   OH2 3189   7.807   3.645   2.441
 1083TIP3    H1 3190   7.866   3.648   2.366
 1083TIP3    H2 3191   7.751   3.722   2.431
 1084TIP3   OH2 3192   7.171   0.280   0.274
 1084TIP3    H1 3193   7.132   0.221   0.209
 1084TIP3    H2 3194   7.265   0.266   0.265
 1085TIP3   OH2 3195   1.536   5.124   5.201
 1085TIP3    H1 3196   1.625   5.121   5.235
 1085TIP3    H2 3197   1.522   5.216   5.178
 1086TIP3   OH2 3198   6.701   3.402   4.237
 1086TIP3    H1 3199   6.667   3.313   4.249
 1086TIP3    H2 3200   6.703   3.439   4.325
 1087TIP3   OH2 3201   0.659   1.442   0.730
 1087TIP3    H1 3202   0.644   1.502   0.803
 1087TIP3    H2 3203   0.587   1.460   0.669
 1088TIP3   OH2 3204   8.010   2.189   1.345
 1088TIP3    H1 3205   7.935   2.146   1.387
 1088TIP3    H2 3206   7.986   2.282   1.344
 1089TIP3   OH2 3207   4.091   4.810   3.397
 1089TIP3    H1 3208   4.050   4.833   3.314
 1089TIP3    H2 3209   4.171   4.764   3.372
 1090TIP3   OH2 3210   3.580   4.455   2.821
 1090TIP3    H1 3211   3.652   4.413   2.772
 1090TIP3    H2 3212   3.501   4.411   2.789
 1091TIP3   OH2 3213   3.929   0.005   0.208
 1091TIP3    H1 3214   3.968   0.085   0.245
 1091TIP3    H2 3215   3.842   0.032   0.180
 1092TIP3   OH2 3216   3.124   2.225   0.711
 1092TIP3    H1 3217   3.197   2.187   0.663
 1092TIP3    H2 3218   3.088   2.153   0.762
 1093TIP3   OH2 3219   1.488   1.075   3.542
 1093TIP3    H1 3220   1.490   1.170   3.553
 1093TIP3    H2 3221   1.572   1.054   3.501
 1094TIP3   OH2 3222   7.374   7.638   4.848
 1094TIP3    H1 3223   7.298   7.615   4.794
 1094TIP3    H2 3224   7.343   7.626   4.938
 1095TIP3   OH2 3225   2.676   0.846   4.671
 1095TIP3    H1 3226   2.746   0.820   4.731
 1095TIP3    H2 3227   2.721   0.870   4.590
 1096TIP3   OH2 3228   1.764   3.034   4.491
 1096TIP3    H1 3229   1.773   2.953   4.541
 1096TIP3    H2 3230   1.811   3.018   4.410
 1097TIP3   OH2 3231   8.011   0.972   5.281
 1097TIP3    H1 3232   7.972   1.040   5.336
 1097TIP3    H2 3233   7.956   0.970   5.203
 1098TIP3   OH2 3234   0.424   6.602   4.848
 1098TIP3    H1 3235   0.471   6.550   4.783
 1098TIP3    H2 3236   0.479   6.679   4.862
 1099TIP3   OH2 3237   2.453   1.132   4.068
 1099TIP3    H1 3238   2.439   1.225   4.084
 1099TIP3    H2 3239   2.393   1.088   4.128
 1100TIP3   OH2 3240   6.668   0.583   2.779
 1100TIP3    H1 3241   6.692   0.588   2.871
 1100TIP3    H2 3242   6.580   0.621   2.774
 1101TIP3   OH2 3243   5.548   4.333   0.488
 1101TIP3    H1 3244   5.545   4.291   0.574
 1101TIP3    H2 3245   5.571   4.262   0.428
 1102TIP3   OH2 3246   0.399   4.900   3.356
 1102TIP3    H1 3247   0.380   4.903   3.450
 1102TIP3    H2 3248   0.341   4.966   3.318
 1103TIP3   OH2 3249   0.714   3.157   6.425
 1103TIP3    H1 3250   0.692   3.065   6.439
 1103TIP3    H2 3251   0.684   3.175   6.336
 1104TIP3   OH2 3252   2.064   2.850   1.948
 1104TIP3    H1 3253   2.049   2.944   1.958
 1104TIP3    H2 3254   2.156   2.838   1.972
 1105TIP3   OH2 3255   4.062   2.420   3.709
 1105TIP3    H1 3256   4.134   2.357   3.715
 1105TIP3    H2 3257   3.995   2.385   3.768
 1106TIP3   OH2 3258   0.354   4.078   2.931
 1106TIP3    H1 3259   0.396   4.160   2.905
 1106TIP3    H2 3260   0.423   4.030   2.977
 1107TIP3   OH2 3261   2.860   7.529   0.319
 1107TIP3    H1 3262   2.934   7.570   0.275
 1107TIP3    H2 3263   2.879   7.435   0.318
 1108TIP3   OH2 3264   4.499   5.145   5.649
 1108TIP3    H1 3265   4.487   5.151   5.554
 1108TIP3    H2 3266   4.420   5.100   5.680
 1109TIP3   OH2 3267   3.545   0.517   1.100
 1109TIP3    H1 3268   3.489   0.572   1.155
 1109TIP3    H2 3269   3.512   0.529   1.011
 1110TIP3   OH2 3270   0.691   1.672   5.704
 1110TIP3    H1 3271   0.597   1.665   5.724
 1110TIP3    H2 3272   0.733   1.678   5.790
 1111TIP3   OH2 3273   3.973   4.727   3.639
 1111TIP3    H1 3274   3.998   4.778   3.562
 1111TIP3    H2 3275   3.900   4.673   3.610
 1112TIP3   OH2 3276   2.600   4.298   1.622
 1112TIP3    H1 3277   2.651   4.356   1.679
 1112TIP3    H2 3278   2.655   4.220   1.611
 1113TIP3   OH2 3279   2.787   3.251   4.527
 1113TIP3    H1 3280   2.875   3.219   4.508
 1113TIP3    H2 3281   2.780   3.247   4.622
 1114TIP3   OH2 3282   3.582   6.691   6.053
 1114TIP3    H1 3283   3.507   6.723   6.002
 1114TIP3    H2 3284   3.657   6.706   5.996
 1115TIP3   OH2 3285   5.112   3.936   1.520
 1115TIP3    H1 3286   5.147   3.855   1.558
 1115TIP3    H2 3287   5.107   3.919   1.426
 1116TIP3   OH2 3288   0.050   7.747   0.383
 1116TIP3    H1 3289   0.145   7.753   0.375
 1116TIP3    H2 3290   0.018   7.828   0.342
 1117TIP3   OH2 3291   3.375   1.573   3.954
 1117TIP3    H1 3292   3.326   1.535   3.882
 1117TIP3    H2 3293   3.310   1.618   4.007
 1118TIP3   OH2 3294   2.402   1.514   5.330
 1118TIP3    H1 3295   2.342   1.472   5.392
 1118TIP3    H2 3296   2.420   1.446   5.265
 1119TIP3   OH2 3297   2.350   2.489   3.739
 1119TIP3    H1 3298   2.270   2.489   3.790
 1119TIP3    H2 3299   2.337   2.421   3.673
 1120TIP3   OH2 3300   3.836   0.384   4.871
 1120TIP3    H1 3301   3.806   0.302   4.831
 1120TIP3    H2 3302   3.777   0.451   4.836
 1121TIP3   OH2 3303   6.508   7.593   1.446
 1121TIP3    H1 3304   6.528   7.503   1.418
 1121TIP3    H2 3305   6.593   7.637   1.448
 1122TIP3   OH2 3306   6.702   0.299   0.500
 1122TIP3    H1 3307   6.670   0.384   0.471
 1122TIP3    H2 3308   6.628   0.262   0.549
 1123TIP3   OH2 3309   5.184   0.550   2.651
 1123TIP3    H1 3310   5.132   0.629   2.658
 1123TIP3    H2 3311   5.273   0.581   2.631
 1124TIP3   OH2 3312   1.106   6.884   5.524
 1124TIP3    H1 3313   1.036   6.896   5.588
 1124TIP3    H2 3314   1.182   6.857   5.576
 1125TIP3   OH2 3315   2.698   2.506   2.013
 1125TIP3    H1 3316   2.743   2.587   1.990
 1125TIP3    H2 3317   2.765   2.452   2.054
 1126TIP3   OH2 3318   2.493   2.126   3.765
 1126TIP3    H1 3319   2.460   2.161   3.683
 1126TIP3    H2 3320   2.588   2.140   3.762
 1127TIP3   OH2 3321   3.816   5.322   5.893
 1127TIP3    H1 3322   3.722   5.340   5.894
 1127TIP3    H2 3323   3.841   5.318   5.985
 1128TIP3   OH2 3324   7.001   4.592   2.579
 1128TIP3    H1 3325   6.933   4.608   2.513
 1128TIP3    H2 3326   7.043   4.677   2.590
 1129TIP3   OH2 3327   2.412   7.673   0.812
 1129TIP3    H1 3328   2.396   7.633   0.897
 1129TIP3    H2 3329   2.420   7.599   0.752
 1130TIP3   OH2 3330   6.442   6.104   0.495
 1130TIP3    H1 3331   6.515   6.142   0.447
 1130TIP3    H2 3332   6.371   6.100   0.431
 1131TIP3   OH2 3333   7.627   6.049   4.922
 1131TIP3    H1 3334   7.577   5.975   4.888
 1131TIP3    H2 3335   7.570   6.125   4.907
 1132TIP3   OH2 3336   0.994   1.337   2.949
 1132TIP3    H1 3337   0.984   1.398   2.876
 1132TIP3    H2 3338   0.958   1.254   2.917
 1133TIP3   OH2 3339   7.295   6.056   0.311
 1133TIP3    H1 3340   7.271   6.111   0.386
 1133TIP3    H2 3341   7.390   6.047   0.317
 1134TIP3   OH2 3342   6.987   1.946   4.327
 1134TIP3    H1 3343   7.042   1.989   4.262
 1134TIP3    H2 3344   6.965   1.861   4.287
 1135TIP3   OH2 3345   0.315   7.469   5.488
 1135TIP3    H1 3346   0.392   7.443   5.539
 1135TIP3    H2 3347   0.331   7.434   5.401
 1136TIP3   OH2 3348   5.160   6.292   2.102
 1136TIP3    H1 3349   5.193   6.379   2.076
 1136TIP3    H2 3350   5.210   6.270   2.181
 1137TIP3   OH2 3351   5.161   6.629   0.832
 1137TIP3    H1 3352   5.162   6.704   0.773
 1137TIP3    H2 3353   5.160   6.668   0.920
 1138TIP3   OH2 3354   4.533   2.129   5.858
 1138TIP3    H1 3355   4.515   2.217   5.890
 1138TIP3    H2 3356   4.628   2.123   5.857
 1139TIP3   OH2 3357   6.894   5.231   0.059
 1139TIP3    H1 3358   6.936   5.283   0.128
 1139TIP3    H2 3359   6.897   5.287  -0.018
 1140TIP3   OH2 3360   6.585   3.144   5.218
 1140TIP3    H1 3361   6.656   3.081   5.226
 1140TIP3    H2 3362   6.623   3.218   5.171
 1141TIP3   OH2 3363   2.684   1.283   6.822
 1141TIP3    H1 3364   2.669   1.273   6.916
 1141TIP3    H2 3365   2.779   1.280   6.813
 1142TIP3   OH2 3366   1.252   5.607   4.002
 1142TIP3    H1 3367   1.340   5.643   4.006
 1142TIP3    H2 3368   1.210   5.636   4.083
 1143TIP3   OH2 3369   2.387   4.177   0.510
 1143TIP3    H1 3370   2.389   4.267   0.478
 1143TIP3    H2 3371   2.476   4.162   0.542
 1144TIP3   OH2 3372   5.489   0.722   5.790
 1144TIP3    H1 3373   5.428   0.722   5.864
 1144TIP3    H2 3374   5.520   0.632   5.784
 1145TIP3   OH2 3375   8.158   5.913   3.846
 1145TIP3    H1 3376   8.093   5.863   3.894
 1145TIP3    H2 3377   8.232   5.922   3.906
 1146TIP3   OH2 3378   6.059   0.244   1.943
 1146TIP3    H1 3379   6.002   0.236   1.867
 1146TIP3    H2 3380   6.127   0.306   1.916
 1147TIP3   OH2 3381   3.875   5.331   2.186
 1147TIP3    H1 3382   3.784   5.310   2.168
 1147TIP3    H2 3383   3.925   5.265   2.137
 1148TIP3   OH2 3384   3.617   3.310   4.910
 1148TIP3    H1 3385   3.656   3.392   4.942
 1148TIP3    H2 3386   3.613   3.254   4.987
 1149TIP3   OH2 3387   8.000   1.620   0.753
 1149TIP3    H1 3388   7.907   1.601   0.738
 1149TIP3    H2 3389   8.047   1.550   0.709
 1150TIP3   OH2 3390   7.845   6.162   4.848
 1150TIP3    H1 3391   7.767   6.112   4.871
 1150TIP3    H2 3392   7.823   6.253   4.872
 1151TIP3   OH2 3393   7.917   7.127   2.999
 1151TIP3    H1 3394   7.872   7.146   3.081
 1151TIP3    H2 3395   8.002   7.091   3.026
 1152TIP3   OH2 3396   1.654   5.249   2.169
 1152TIP3    H1 3397   1.747   5.268   2.183
 1152TIP3    H2 3398   1.651   5.154   2.160
 1153TIP3   OH2 3399   7.971   0.762   6.315
 1153TIP3    H1 3400   8.043   0.802   6.264
 1153TIP3    H2 3401   7.943   0.687   6.262
 1154TIP3   OH2 3402   2.948   1.586   0.301
 1154TIP3    H1 3403   2.905   1.525   0.241
 1154TIP3    H2 3404   3.041   1.580   0.279
 1155TIP3   OH2 3405   3.739   2.139   0.829
 1155TIP3    H1 3406   3.737   2.171   0.919
 1155TIP3    H2 3407   3.767   2.215   0.777
 1156TIP3   OH2 3408   3.947   7.345   6.325
 1156TIP3    H1 3409   3.982   7.368   6.412
 1156TIP3    H2 3410   3.854   7.328   6.341
 1157TIP3   OH2 3411   4.568   5.564   0.976
 1157TIP3    H1 3412   4.546   5.524   1.061
 1157TIP3    H2 3413   4.625   5.638   0.999
 1158TIP3   OH2 3414   6.241   2.706   5.192
 1158TIP3    H1 3415   6.274   2.716   5.102
 1158TIP3    H2 3416   6.267   2.618   5.218
 1159TIP3   OH2 3417   0.575   2.207   2.710
 1159TIP3    H1 3418   0.668   2.205   2.731
 1159TIP3    H2 3419   0.570   2.181   2.618
 1160TIP3   OH2 3420   6.709   1.788   2.396
 1160TIP3    H1 3421   6.673   1.779   2.308
 1160TIP3    H2 3422   6.725   1.698   2.425
 1161TIP3   OH2 3423   4.181   3.969   1.265
 1161TIP3    H1 3424   4.105   4.008   1.221
 1161TIP3    H2 3425   4.229   4.043   1.301
 1162TIP3   OH2 3426   3.273   0.122   5.878
 1162TIP3    H1 3427   3.286   0.051   5.940
 1162TIP3    H2 3428   3.191   0.164   5.906
 1163TIP3   OH2 3429   4.900   1.538   0.565
 1163TIP3    H1 3430   4.985   1.555   0.524
 1163TIP3    H2 3431   4.918   1.474   0.633
 1164TIP3   OH2 3432   1.249   3.345   4.802
 1164TIP3    H1 3433   1.338   3.310   4.804
 1164TIP3    H2 3434   1.244   3.403   4.877
 1165TIP3   OH2 3435   3.187   5.870   3.459
 1165TIP3    H1 3436   3.142   5.841   3.538
 1165TIP3    H2 3437   3.237   5.947   3.486
 1166TIP3   OH2 3438   1.459   2.268   1.003
 1166TIP3    H1 3439   1.457   2.192   1.061
 1166TIP3    H2 3440   1.463   2.231   0.914
 1167TIP3   OH2 3441   5.609   6.724   6.453
 1167TIP3    H1 3442   5.547   6.657   6.426
 1167TIP3    H2 3443   5.555   6.794   6.490
 1168TIP3   OH2 3444   1.692   2.611   1.995
 1168TIP3    H1 3445   1.767   2.618   2.055
 1168TIP3    H2 3446   1.727   2.640   1.910
 1169TIP3   OH2 3447   4.248   2.075   6.028
 1169TIP3    H1 3448   4.153   2.079   6.021
 1169TIP3    H2 3449   4.279   2.079   5.937
 1170TIP3   OH2 3450   7.875   2.977   1.376
 1170TIP3    H1 3451   7.936   2.955   1.305
 1170TIP3    H2 3452   7.804   2.914   1.367
 1171TIP3   OH2 3453   8.344   4.362   1.949
 1171TIP3    H1 3454   8.360   4.353   1.855
 1171TIP3    H2 3455   8.303   4.448   1.958
 1172TIP3   OH2 3456   0.144   0.963   1.226
 1172TIP3    H1 3457   0.198   1.038   1.201
 1172TIP3    H2 3458   0.189   0.888   1.189
 1173TIP3   OH2 3459   2.481   5.047   4.431
 1173TIP3    H1 3460   2.493   4.967   4.482
 1173TIP3    H2 3461   2.536   5.112   4.475
 1174TIP3   OH2 3462   5.484   5.430   5.468
 1174TIP3    H1 3463   5.505   5.432   5.561
 1174TIP3    H2 3464   5.529   5.507   5.432
 1175TIP3   OH2 3465   1.977   7.165   2.328
 1175TIP3    H1 3466   2.024   7.091   2.291
 1175TIP3    H2 3467   2.045   7.222   2.364
 1176TIP3   OH2 3468   0.050   4.281   2.330
 1176TIP3    H1 3469   0.101   4.272   2.250
 1176TIP3    H2 3470  -0.041   4.283   2.300
 1177TIP3   OH2 3471   7.522   3.797   1.835
 1177TIP3    H1 3472   7.451   3.733   1.830
 1177TIP3    H2 3473   7.480   3.878   1.863
 1178TIP3   OH2 3474   1.670   4.003   2.380
 1178TIP3    H1 3475   1.744   3.992   2.320
 1178TIP3    H2 3476   1.710   4.003   2.467
 1179TIP3   OH2 3477   0.457   3.169   4.733
 1179TIP3    H1 3478   0.378   3.117   4.744
 1179TIP3    H2 3479   0.497   3.135   4.652
 1180TIP3   OH2 3480   5.095   2.807   1.192
 1180TIP3    H1 3481   5.147   2.840   1.119
 1180TIP3    H2 3482   5.006   2.801   1.158
 1181TIP3   OH2 3483   3.186   3.422   4.680
 1181TIP3    H1 3484   3.221   3.504   4.646
 1181TIP3    H2 3485   3.259   3.382   4.728
 1182TIP3   OH2 3486   4.962   1.363   1.741
 1182TIP3    H1 3487   4.980   1.318   1.824
 1182TIP3    H2 3488   4.936   1.451   1.767
 1183TIP3   OH2 3489   4.044   2.239   0.385
 1183TIP3    H1 3490   4.115   2.293   0.420
 1183TIP3    H2 3491   4.019   2.281   0.303
 1184TIP3   OH2 3492   7.962   1.655   0.107
 1184TIP3    H1 3493   7.981   1.563   0.124
 1184TIP3    H2 3494   7.874   1.669   0.144
 1185TIP3   OH2 3495   7.281   6.606   1.945
 1185TIP3    H1 3496   7.357   6.564   1.906
 1185TIP3    H2 3497   7.251   6.669   1.879
 1186TIP3   OH2 3498   5.544   1.673   6.205
 1186TIP3    H1 3499   5.639   1.686   6.202
 1186TIP3    H2 3500   5.529   1.626   6.287
 1187TIP3   OH2 3501   5.196   1.758   3.425
 1187TIP3    H1 3502   5.229   1.821   3.489
 1187TIP3    H2 3503   5.147   1.695   3.477
 1188TIP3   OH2 3504   2.159   7.279   3.697
 1188TIP3    H1 3505   2.077   7.328   3.693
 1188TIP3    H2 3506   2.203   7.298   3.615
 1189TIP3   OH2 3507   2.302   1.075   3.017
 1189TIP3    H1 3508   2.246   1.036   3.084
 1189TIP3    H2 3509   2.389   1.038   3.034
 1190TIP3   OH2 3510   0.805   3.166   1.106
 1190TIP3    H1 3511   0.726   3.221   1.113
 1190TIP3    H2 3512   0.783   3.099   1.041
 1191TIP3   OH2 3513   4.206   0.761   0.750
 1191TIP3    H1 3514   4.144   0.724   0.687
 1191TIP3    H2 3515   4.159   0.835   0.789
 1192TIP3   OH2 3516   1.213   2.479   2.600
 1192TIP3    H1 3517   1.176   2.439   2.522
 1192TIP3    H2 3518   1.193   2.418   2.671
 1193TIP3   OH2 3519   5.183   4.416   6.286
 1193TIP3    H1 3520   5.120   4.349   6.314
 1193TIP3    H2 3521   5.215   4.384   6.201
 1194TIP3   OH2 3522   2.138   6.996   4.883
 1194TIP3    H1 3523   2.083   6.922   4.857
 1194TIP3    H2 3524   2.087   7.042   4.950
 1195TIP3   OH2 3525   0.677   4.946   2.938
 1195TIP3    H1 3526   0.590   4.936   2.901
 1195TIP3    H2 3527   0.665   4.933   3.032
 1196TIP3   OH2 3528   5.668   6.507   1.819
 1196TIP3    H1 3529   5.704   6.484   1.904
 1196TIP3    H2 3530   5.575   6.520   1.835
 1197TIP3   OH2 3531   2.783   2.764   4.933
 1197TIP3    H1 3532   2.722   2.746   5.004
 1197TIP3    H2 3533   2.757   2.850   4.900
 1198TIP3   OH2 3534   2.178   2.248   3.251
 1198TIP3    H1 3535   2.134   2.205   3.178
 1198TIP3    H2 3536   2.225   2.321   3.211
 1199TIP3   OH2 3537   4.791   1.028   6.844
 1199TIP3    H1 3538   4.877   0.989   6.825
 1199TIP3    H2 3539   4.734   0.994   6.775
 1200TIP3   OH2 3540   5.051   3.279   2.397
 1200TIP3    H1 3541   5.121   3.241   2.451
 1200TIP3    H2 3542   4.994   3.324   2.461
 1201TIP3   OH2 3543   8.329   6.097   5.158
 1201TIP3    H1 3544   8.248   6.148   5.151
 1201TIP3    H2 3545   8.309   6.027   5.220
 1202TIP3   OH2 3546   2.405   3.434   6.532
 1202TIP3    H1 3547   2.431   3.355   6.485
 1202TIP3    H2 3548   2.368   3.491   6.465
 1203TIP3   OH2 3549   7.088   5.242   4.325
 1203TIP3    H1 3550   7.086   5.320   4.271
 1203TIP3    H2 3551   7.074   5.274   4.414
 1204TIP3   OH2 3552   6.733   3.958   5.412
 1204TIP3    H1 3553   6.752   3.959   5.506
 1204TIP3    H2 3554   6.738   3.866   5.387
 1205TIP3   OH2 3555   3.972   2.947   5.636
 1205TIP3    H1 3556   4.058   2.976   5.605
 1205TIP3    H2 3557   3.954   3.003   5.712
 1206TIP3   OH2 3558   6.044   2.175   0.074
 1206TIP3    H1 3559   6.055   2.099   0.017
 1206TIP3    H2 3560   6.044   2.250   0.013
 1207TIP3   OH2 3561   2.571   2.450   1.277
 1207TIP3    H1 3562   2.667   2.454   1.280
 1207TIP3    H2 3563   2.549   2.361   1.304
 1208TIP3   OH2 3564   5.110   5.768   2.080
 1208TIP3    H1 3565   5.038   5.775   2.143
 1208TIP3    H2 3566   5.133   5.859   2.060
 1209TIP3   OH2 3567   0.950   1.521   3.171
 1209TIP3    H1 3568   1.041   1.497   3.152
 1209TIP3    H2 3569   0.912   1.541   3.085
 1210TIP3   OH2 3570   3.617   7.073   6.836
 1210TIP3    H1 3571   3.702   7.060   6.795
 1210TIP3    H2 3572   3.626   7.155   6.884
 1211TIP3   OH2 3573   0.188   5.175   4.502
 1211TIP3    H1 3574   0.147   5.207   4.583
 1211TIP3    H2 3575   0.172   5.245   4.438
 1212TIP3   OH2 3576   0.997   6.674   6.077
 1212TIP3    H1 3577   0.999   6.580   6.060
 1212TIP3    H2 3578   0.907   6.700   6.058
 1213TIP3   OH2 3579   7.933   7.743   4.890
 1213TIP3    H1 3580   7.852   7.732   4.939
 1213TIP3    H2 3581   7.907   7.781   4.806
 1214TIP3   OH2 3582   1.522   6.042   2.365
 1214TIP3    H1 3583   1.584   6.080   2.426
 1214TIP3    H2 3584   1.563   5.961   2.335
 1215TIP3   OH2 3585   1.552   1.153   5.960
 1215TIP3    H1 3586   1.509   1.068   5.948
 1215TIP3    H2 3587   1.504   1.194   6.032
 1216TIP3   OH2 3588   0.191   6.831   1.927
 1216TIP3    H1 3589   0.172   6.883   1.850
 1216TIP3    H2 3590   0.284   6.847   1.945
 1217TIP3   OH2 3591   5.140   1.662   5.961
 1217TIP3    H1 3592   5.070   1.629   6.018
 1217TIP3    H2 3593   5.187   1.583   5.933
 1218TIP3   OH2 3594   5.692   1.237   2.377
 1218TIP3    H1 3595   5.667   1.145   2.371
 1218TIP3    H2 3596   5.637   1.273   2.446
 1219TIP3   OH2 3597   3.973   7.364   0.345
 1219TIP3    H1 3598   3.927   7.421   0.285
 1219TIP3    H2 3599   4.054   7.340   0.298
 1220TIP3   OH2 3600   8.112   6.825   5.506
 1220TIP3    H1 3601   8.094   6.765   5.434
 1220TIP3    H2 3602   8.037   6.817   5.564
 1221TIP3   OH2 3603   0.432   0.198   2.198
 1221TIP3    H1 3604   0.528   0.195   2.193
 1221TIP3    H2 3605   0.414   0.223   2.289
 1222TIP3   OH2 3606   2.503   7.541   2.627
 1222TIP3    H1 3607   2.516   7.460   2.677
 1222TIP3    H2 3608   2.537   7.609   2.684
 1223TIP3   OH2 3609   6.356   0.168   6.131
 1223TIP3    H1 3610   6.308   0.227   6.189
 1223TIP3    H2 3611   6.312   0.177   6.047
 1224TIP3   OH2 3612   1.821   2.418   3.470
 1224TIP3    H1 3613   1.909   2.378   3.469
 1224TIP3    H2 3614   1.779   2.385   3.391
 1225TIP3   OH2 3615   6.001   0.469   4.974
 1225TIP3    H1 3616   5.995   0.429   4.887
 1225TIP3    H2 3617   5.952   0.409   5.031
 1226TIP3   OH2 3618   4.055   3.043   1.862
 1226TIP3    H1 3619   4.045   2.960   1.909
 1226TIP3    H2 3620   4.104   3.020   1.783
 1227TIP3   OH2 3621   4.738   0.744   1.277
 1227TIP3    H1 3622   4.781   0.767   1.196
 1227TIP3    H2 3623   4.644   0.751   1.258
 1228TIP3   OH2 3624   2.343   4.764   1.680
 1228TIP3    H1 3625   2.309   4.824   1.746
 1228TIP3    H2 3626   2.322   4.805   1.596
 1229TIP3   OH2 3627   8.379   7.859   1.410
 1229TIP3    H1 3628   8.356   7.768   1.394
 1229TIP3    H2 3629   8.431   7.885   1.335
 1230TIP3   OH2 3630   0.097   2.579   5.558
 1230TIP3    H1 3631   0.163   2.630   5.604
 1230TIP3    H2 3632   0.027   2.565   5.623
 1231TIP3   OH2 3633   5.270   5.048   5.063
 1231TIP3    H1 3634   5.299   5.010   5.145
 1231TIP3    H2 3635   5.174   5.041   5.065
 1232TIP3   OH2 3636   7.335   6.051   5.772
 1232TIP3    H1 3637   7.349   5.960   5.798
 1232TIP3    H2 3638   7.385   6.060   5.691
 1233TIP3   OH2 3639   6.314   7.569   1.105
 1233TIP3    H1 3640   6.352   7.523   1.180
 1233TIP3    H2 3641   6.240   7.617   1.143
 1234TIP3   OH2 3642   0.912   1.373   2.269
 1234TIP3    H1 3643   0.926   1.286   2.232
 1234TIP3    H2 3644   0.882   1.426   2.195
 1235TIP3   OH2 3645   1.285   6.222   3.493
 1235TIP3    H1 3646   1.309   6.271   3.572
 1235TIP3    H2 3647   1.317   6.133   3.511
 1236TIP3   OH2 3648   6.648   1.740   4.928
 1236TIP3    H1 3649   6.728   1.688   4.928
 1236TIP3    H2 3650   6.673   1.821   4.884
 1237TIP3   OH2 3651   1.719   0.117   1.551
 1237TIP3    H1 3652   1.741   0.024   1.554
 1237TIP3    H2 3653   1.760   0.149   1.471
 1238TIP3   OH2 3654   1.427   1.900   0.542
 1238TIP3    H1 3655   1.445   1.984   0.498
 1238TIP3    H2 3656   1.332   1.889   0.534
 1239TIP3   OH2 3657   2.524   1.779   3.956
 1239TIP3    H1 3658   2.618   1.765   3.960
 1239TIP3    H2 3659   2.498   1.746   3.870
 1240TIP3   OH2 3660   7.974   6.527   5.457
 1240TIP3    H1 3661   7.953   6.435   5.470
 1240TIP3    H2 3662   7.899   6.562   5.409
 1241TIP3   OH2 3663   6.788   7.637   6.785
 1241TIP3    H1 3664   6.773   7.697   6.712
 1241TIP3    H2 3665   6.866   7.588   6.760
 1242TIP3   OH2 3666   7.508   3.629   2.296
 1242TIP3    H1 3667   7.555   3.709   2.320
 1242TIP3    H2 3668   7.480   3.591   2.379
 1243TIP3   OH2 3669   2.254   4.389   6.821
 1243TIP3    H1 3670   2.299   4.424   6.744
 1243TIP3    H2 3671   2.324   4.370   6.883
 1244TIP3   OH2 3672   7.408   1.018   5.504
 1244TIP3    H1 3673   7.382   1.106   5.530
 1244TIP3    H2 3674   7.484   1.031   5.447
 1245TIP3   OH2 3675   4.970   4.264   2.576
 1245TIP3    H1 3676   4.929   4.225   2.653
 1245TIP3    H2 3677   5.053   4.217   2.567
 1246TIP3   OH2 3678   5.849   6.418   6.126
 1246TIP3    H1 3679   5.821   6.385   6.041
 1246TIP3    H2 3680   5.774   6.405   6.183
 1247TIP3   OH2 3681   4.874   5.624   5.056
 1247TIP3    H1 3682   4.836   5.558   4.999
 1247TIP3    H2 3683   4.967   5.599   5.063
 1248TIP3   OH2 3684   3.809   7.548   5.516
 1248TIP3    H1 3685   3.871   7.616   5.490
 1248TIP3    H2 3686   3.735   7.560   5.456
 1249TIP3   OH2 3687   7.691   5.234   5.292
 1249TIP3    H1 3688   7.769   5.188   5.260
 1249TIP3    H2 3689   7.676   5.303   5.227
 1250TIP3   OH2 3690   1.674   2.605   2.280
 1250TIP3    H1 3691   1.761   2.617   2.244
 1250TIP3    H2 3692   1.671   2.512   2.305
 1251TIP3   OH2 3693   2.987   1.848   4.772
 1251TIP3    H1 3694   3.075   1.842   4.735
 1251TIP3    H2 3695   2.977   1.770   4.825
 1252TIP3   OH2 3696   6.838   5.727   5.760
 1252TIP3    H1 3697   6.844   5.638   5.724
 1252TIP3    H2 3698   6.876   5.719   5.847
 1253TIP3   OH2 3699   5.647   0.481   6.565
 1253TIP3    H1 3700   5.718   0.439   6.517
 1253TIP3    H2 3701   5.572   0.423   6.554
 1254TIP3   OH2 3702   0.141   3.185   1.514
 1254TIP3    H1 3703   0.200   3.142   1.452
 1254TIP3    H2 3704   0.122   3.270   1.474
 1255TIP3   OH2 3705   2.312   7.722   2.148
 1255TIP3    H1 3706   2.377   7.767   2.093
 1255TIP3    H2 3707   2.229   7.764   2.126
 1256TIP3   OH2 3708   4.882   1.074   1.775
 1256TIP3    H1 3709   4.879   0.978   1.773
 1256TIP3    H2 3710   4.917   1.099   1.689
 1257TIP3   OH2 3711   7.324   4.990   6.194
 1257TIP3    H1 3712   7.247   4.955   6.239
 1257TIP3    H2 3713   7.319   5.084   6.209
 1258TIP3   OH2 3714   7.455   0.743   1.466
 1258TIP3    H1 3715   7.491   0.661   1.500
 1258TIP3    H2 3716   7.430   0.792   1.544
 1259TIP3   OH2 3717   8.261   3.148   1.365
 1259TIP3    H1 3718   8.311   3.110   1.293
 1259TIP3    H2 3719   8.326   3.189   1.421
 1260TIP3   OH2 3720   3.759   5.336   2.464
 1260TIP3    H1 3721   3.735   5.260   2.517
 1260TIP3    H2 3722   3.675   5.377   2.441
 1261TIP3   OH2 3723   7.088   6.759   4.273
 1261TIP3    H1 3724   7.044   6.824   4.216
 1261TIP3    H2 3725   7.181   6.777   4.262
 1262TIP3   OH2 3726   3.477   1.283   1.885
 1262TIP3    H1 3727   3.402   1.242   1.842
 1262TIP3    H2 3728   3.521   1.331   1.816
 1263TIP3   OH2 3729   7.681   6.812   4.866
 1263TIP3    H1 3730   7.657   6.734   4.814
 1263TIP3    H2 3731   7.621   6.810   4.941
 1264TIP3   OH2 3732   1.643   4.801   3.561
 1264TIP3    H1 3733   1.577   4.758   3.615
 1264TIP3    H2 3734   1.703   4.841   3.624
 1265TIP3   OH2 3735   6.042   5.391   3.355
 1265TIP3    H1 3736   6.024   5.383   3.448
 1265TIP3    H2 3737   6.118   5.448   3.349
 1266TIP3   OH2 3738   7.562   5.162   6.299
 1266TIP3    H1 3739   7.640   5.112   6.323
 1266TIP3    H2 3740   7.563   5.165   6.204
 1267TIP3   OH2 3741   5.415   1.998   3.575
 1267TIP3    H1 3742   5.374   2.071   3.621
 1267TIP3    H2 3743   5.407   1.924   3.635
 1268TIP3   OH2 3744   4.883   3.391   4.084
 1268TIP3    H1 3745   4.956   3.440   4.122
 1268TIP3    H2 3746   4.917   3.361   3.999
 1269TIP3   OH2 3747   1.105   1.209   6.838
 1269TIP3    H1 3748   1.197   1.214   6.864
 1269TIP3    H2 3749   1.099   1.264   6.760
 1270TIP3   OH2 3750   7.953   0.143   0.823
 1270TIP3    H1 3751   7.943   0.207   0.753
 1270TIP3    H2 3752   7.939   0.192   0.904
 1271TIP3   OH2 3753   3.164   7.133   5.160
 1271TIP3    H1 3754   3.216   7.099   5.087
 1271TIP3    H2 3755   3.179   7.227   5.158
 1272TIP3   OH2 3756   0.486   5.193   6.702
 1272TIP3    H1 3757   0.489   5.101   6.726
 1272TIP3    H2 3758   0.540   5.199   6.623
 1273TIP3   OH2 3759   7.319   0.723   1.217
 1273TIP3    H1 3760   7.369   0.703   1.297
 1273TIP3    H2 3761   7.313   0.818   1.216
 1274TIP3   OH2 3762   1.969   1.712   4.300
 1274TIP3    H1 3763   1.947   1.787   4.355
 1274TIP3    H2 3764   2.023   1.748   4.230
 1275TIP3   OH2 3765   6.719   1.856   5.495
 1275TIP3    H1 3766   6.638   1.857   5.546
 1275TIP3    H2 3767   6.728   1.765   5.466
 1276TIP3   OH2 3768   0.143   3.904   0.974
 1276TIP3    H1 3769   0.114   3.974   1.032
 1276TIP3    H2 3770   0.225   3.874   1.012
 1277TIP3   OH2 3771   5.102   7.410   5.605
 1277TIP3    H1 3772   5.113   7.349   5.678
 1277TIP3    H2 3773   5.190   7.420   5.568
 1278TIP3   OH2 3774   6.126   6.844   1.556
 1278TIP3    H1 3775   6.167   6.926   1.528
 1278TIP3    H2 3776   6.105   6.859   1.649
 1279TIP3   OH2 3777   6.742   7.578   0.791
 1279TIP3    H1 3778   6.732   7.510   0.724
 1279TIP3    H2 3779   6.740   7.531   0.874
 1280TIP3   OH2 3780   0.788   0.480   3.417
 1280TIP3    H1 3781   0.817   0.392   3.441
 1280TIP3    H2 3782   0.809   0.534   3.494
 1281TIP3   OH2 3783   6.259   3.250   0.468
 1281TIP3    H1 3784   6.185   3.192   0.451
 1281TIP3    H2 3785   6.228   3.309   0.537
 1282TIP3   OH2 3786   5.369   4.635   1.500
 1282TIP3    H1 3787   5.449   4.686   1.497
 1282TIP3    H2 3788   5.302   4.693   1.462
 1283TIP3   OH2 3789   6.351   7.706   0.875
 1283TIP3    H1 3790   6.343   7.649   0.951
 1283TIP3    H2 3791   6.277   7.766   0.882
 1284TIP3   OH2 3792   3.032   7.863   4.660
 1284TIP3    H1 3793   2.950   7.824   4.629
 1284TIP3    H2 3794   3.038   7.835   4.752
 1285TIP3   OH2 3795   3.829   0.079   6.051
 1285TIP3    H1 3796   3.847   0.124   6.133
 1285TIP3    H2 3797   3.855   0.141   5.983
 1286TIP3   OH2 3798   7.610   3.389   3.675
 1286TIP3    H1 3799   7.523   3.418   3.702
 1286TIP3    H2 3800   7.605   3.386   3.580
 1287TIP3   OH2 3801   7.680   2.805   3.192
 1287TIP3    H1 3802   7.769   2.769   3.200
 1287TIP3    H2 3803   7.682   2.884   3.247
 1288TIP3   OH2 3804   4.867   2.817   3.143
 1288TIP3    H1 3805   4.849   2.902   3.183
 1288TIP3    H2 3806   4.890   2.837   3.053
 1289TIP3   OH2 3807   7.257   5.929   4.924
 1289TIP3    H1 3808   7.309   5.982   4.864
 1289TIP3    H2 3809   7.186   5.987   4.952
 1290TIP3   OH2 3810   2.572   3.353   0.379
 1290TIP3    H1 3811   2.498   3.357   0.439
 1290TIP3    H2 3812   2.607   3.442   0.377
 1291TIP3   OH2 3813   4.518   2.972   0.380
 1291TIP3    H1 3814   4.456   2.996   0.311
 1291TIP3    H2 3815   4.518   3.048   0.439
 1292TIP3   OH2 3816   0.657   5.102   5.511
 1292TIP3    H1 3817   0.701   5.149   5.440
 1292TIP3    H2 3818   0.564   5.122   5.500
 1293TIP3   OH2 3819   4.050   3.287   3.332
 1293TIP3    H1 3820   4.016   3.376   3.336
 1293TIP3    H2 3821   3.972   3.233   3.317
 1294TIP3   OH2 3822   6.874   5.535   0.932
 1294TIP3    H1 3823   6.821   5.560   0.857
 1294TIP3    H2 3824   6.842   5.590   1.003
 1295TIP3   OH2 3825   5.134   2.960   3.698
 1295TIP3    H1 3826   5.135   3.054   3.680
 1295TIP3    H2 3827   5.227   2.935   3.695
 1296TIP3   OH2 3828   8.289   6.627   3.664
 1296TIP3    H1 3829   8.357   6.622   3.598
 1296TIP3    H2 3830   8.334   6.658   3.743
 1297TIP3   OH2 3831   1.420   7.813   0.701
 1297TIP3    H1 3832   1.383   7.839   0.616
 1297TIP3    H2 3833   1.362   7.743   0.732
 1298TIP3   OH2 3834   5.355   4.593   5.853
 1298TIP3    H1 3835   5.439   4.639   5.842
 1298TIP3    H2 3836   5.298   4.656   5.895
 1299TIP3   OH2 3837   6.213   7.582   0.646
 1299TIP3    H1 3838   6.269   7.505   0.656
 1299TIP3    H2 3839   6.236   7.639   0.719
 1300TIP3   OH2 3840   1.327   2.964   3.497
 1300TIP3    H1 3841   1.277   3.045   3.502
 1300TIP3    H2 3842   1.418   2.990   3.510
 1301TIP3   OH2 3843   0.403   4.143   6.730
 1301TIP3    H1 3844   0.422   4.201   6.804
 1301TIP3    H2 3845   0.489   4.116   6.697
 1302TIP3   OH2 3846   4.051   3.921   3.115
 1302TIP3    H1 3847   4.077   3.832   3.089
 1302TIP3    H2 3848   4.094   3.978   3.051
 1303TIP3   OH2 3849   0.545   6.360   4.209
 1303TIP3    H1 3850   0.591   6.442   4.194
 1303TIP3    H2 3851   0.486   6.351   4.134
 1304TIP3   OH2 3852   7.753   2.501   3.814
 1304TIP3    H1 3853   7.831   2.449   3.794
 1304TIP3    H2 3854   7.709   2.453   3.884
 1305TIP3   OH2 3855   4.655   4.430   3.475
 1305TIP3    H1 3856   4.747   4.425   3.503
 1305TIP3    H2 3857   4.656   4.402   3.384
 1306TIP3   OH2 3858   5.848   2.147   0.267
 1306TIP3    H1 3859   5.928   2.173   0.222
 1306TIP3    H2 3860   5.781   2.146   0.199
 1307TIP3   OH2 3861   6.007   4.117   3.892
 1307TIP3    H1 3862   5.925   4.137   3.846
 1307TIP3    H2 3863   5.998   4.161   3.976
 1308TIP3   OH2 3864   4.923   0.721   4.704
 1308TIP3    H1 3865   4.901   0.776   4.629
 1308TIP3    H2 3866   4.996   0.667   4.674
 1309TIP3   OH2 3867   3.744   7.099   3.515
 1309TIP3    H1 3868   3.781   7.011   3.517
 1309TIP3    H2 3869   3.763   7.135   3.602
 1310TIP3   OH2 3870   5.426   0.627   4.327
 1310TIP3    H1 3871   5.521   0.624   4.338
 1310TIP3    H2 3872   5.395   0.679   4.402
 1311TIP3   OH2 3873   8.140   1.316   2.355
 1311TIP3    H1 3874   8.140   1.235   2.304
 1311TIP3    H2 3875   8.129   1.287   2.445
 1312TIP3   OH2 3876   4.151   7.361   1.978
 1312TIP3    H1 3877   4.121   7.292   2.036
 1312TIP3    H2 3878   4.225   7.323   1.931
 1313TIP3   OH2 3879   1.075   1.740   1.207
 1313TIP3    H1 3880   1.128   1.703   1.136
 1313TIP3    H2 3881   1.070   1.670   1.272
 1314TIP3   OH2 3882   1.655   0.972   0.273
 1314TIP3    H1 3883   1.641   0.925   0.191
 1314TIP3    H2 3884   1.712   0.914   0.324
 1315TIP3   OH2 3885   6.407   4.304   4.025
 1315TIP3    H1 3886   6.489   4.286   3.979
 1315TIP3    H2 3887   6.350   4.231   4.001
 1316TIP3   OH2 3888   2.638   7.546   1.421
 1316TIP3    H1 3889   2.676   7.484   1.358
 1316TIP3    H2 3890   2.671   7.517   1.506
 1317TIP3   OH2 3891   3.119   2.319   5.082
 1317TIP3    H1 3892   3.030   2.285   5.067
 1317TIP3    H2 3893   3.126   2.395   5.025
 1318TIP3   OH2 3894   3.913   5.556   1.611
 1318TIP3    H1 3895   3.934   5.647   1.627
 1318TIP3    H2 3896   3.918   5.514   1.697
 1319TIP3   OH2 3897   3.600   2.078   3.660
 1319TIP3    H1 3898   3.516   2.036   3.679
 1319TIP3    H2 3899   3.656   2.053   3.733
 1320TIP3   OH2 3900   3.963   1.946   6.420
 1320TIP3    H1 3901   4.022   1.891   6.472
 1320TIP3    H2 3902   3.923   1.886   6.357
 1321TIP3   OH2 3903   6.135   2.064   3.381
 1321TIP3    H1 3904   6.183   2.144   3.360
 1321TIP3    H2 3905   6.124   2.068   3.476
 1322TIP3   OH2 3906   8.365   2.462   6.841
 1322TIP3    H1 3907   8.328   2.404   6.774
 1322TIP3    H2 3908   8.346   2.550   6.810
 1323TIP3   OH2 3909   3.135   2.731   2.461
 1323TIP3    H1 3910   3.175   2.748   2.376
 1323TIP3    H2 3911   3.098   2.815   2.487
 1324TIP3   OH2 3912   2.865   4.176   6.450
 1324TIP3    H1 3913   2.855   4.098   6.397
 1324TIP3    H2 3914   2.819   4.157   6.532
 1325TIP3   OH2 3915   5.450   3.297   2.069
 1325TIP3    H1 3916   5.365   3.340   2.073
 1325TIP3    H2 3917   5.496   3.328   2.147
 1326TIP3   OH2 3918   5.983   4.493   1.704
 1326TIP3    H1 3919   5.975   4.398   1.694
 1326TIP3    H2 3920   5.900   4.520   1.744
 1327TIP3   OH2 3921   8.140   6.402   3.673
 1327TIP3    H1 3922   8.179   6.489   3.659
 1327TIP3    H2 3923   8.055   6.420   3.714
 1328TIP3   OH2 3924   1.013   2.205   4.943
 1328TIP3    H1 3925   1.018   2.299   4.956
 1328TIP3    H2 3926   1.012   2.194   4.848
 1329TIP3   OH2 3927   2.963   0.401   0.092
 1329TIP3    H1 3928   2.899   0.365   0.030
 1329TIP3    H2 3929   2.919   0.477   0.130
 1330TIP3   OH2 3930   4.859   3.218   4.337
 1330TIP3    H1 3931   4.878   3.254   4.250
 1330TIP3    H2 3932   4.770   3.186   4.331
 1331TIP3   OH2 3933   5.641   7.245   5.647
 1331TIP3    H1 3934   5.561   7.206   5.613
 1331TIP3    H2 3935   5.702   7.171   5.655
 1332TIP3   OH2 3936   2.405   5.945   1.664
 1332TIP3    H1 3937   2.387   5.879   1.597
 1332TIP3    H2 3938   2.360   5.913   1.742
 1333TIP3   OH2 3939   4.720   7.365   3.340
 1333TIP3    H1 3940   4.786   7.309   3.382
 1333TIP3    H2 3941   4.704   7.324   3.255
 1334TIP3   OH2 3942   1.842   2.989   0.119
 1334TIP3    H1 3943   1.915   3.007   0.178
 1334TIP3    H2 3944   1.765   3.019   0.167
 1335TIP3   OH2 3945   6.916   2.140   1.251
 1335TIP3    H1 3946   6.952   2.221   1.286
 1335TIP3    H2 3947   6.829   2.164   1.219
 1336TIP3   OH2 3948   1.623   4.663   1.810
 1336TIP3    H1 3949   1.637   4.720   1.886
 1336TIP3    H2 3950   1.672   4.704   1.739
 1337TIP3   OH2 3951   6.281   5.210   4.739
 1337TIP3    H1 3952   6.307   5.268   4.811
 1337TIP3    H2 3953   6.296   5.261   4.660
 1338TIP3   OH2 3954   1.552   2.839   5.807
 1338TIP3    H1 3955   1.579   2.905   5.869
 1338TIP3    H2 3956   1.539   2.887   5.725
 1339TIP3   OH2 3957   0.381   7.506   4.276
 1339TIP3    H1 3958   0.325   7.460   4.214
 1339TIP3    H2 3959   0.321   7.565   4.322
 1340TIP3   OH2 3960   5.281   3.835   3.273
 1340TIP3    H1 3961   5.318   3.777   3.206
 1340TIP3    H2 3962   5.343   3.907   3.277
 1341TIP3   OH2 3963   7.733   7.623   4.099
 1341TIP3    H1 3964   7.653   7.666   4.067
 1341TIP3    H2 3965   7.762   7.677   4.172
 1342TIP3   OH2 3966   1.927   5.493   6.182
 1342TIP3    H1 3967   1.986   5.567   6.190
 1342TIP3    H2 3968   1.984   5.416   6.185
 1343TIP3   OH2 3969   2.967   4.946   4.970
 1343TIP3    H1 3970   3.059   4.923   4.968
 1343TIP3    H2 3971   2.957   5.015   4.905
 1344TIP3   OH2 3972   2.519   6.750   0.154
 1344TIP3    H1 3973   2.479   6.670   0.187
 1344TIP3    H2 3974   2.445   6.807   0.132
 1345TIP3   OH2 3975   1.732   2.798   0.356
 1345TIP3    H1 3976   1.731   2.893   0.342
 1345TIP3    H2 3977   1.823   2.772   0.342
 1346TIP3   OH2 3978   2.445   1.371   2.964
 1346TIP3    H1 3979   2.415   1.315   3.036
 1346TIP3    H2 3980   2.447   1.313   2.888
 1347TIP3   OH2 3981   4.497   0.809   6.733
 1347TIP3    H1 3982   4.474   0.900   6.719
 1347TIP3    H2 3983   4.439   0.760   6.674
 1348TIP3   OH2 3984   1.207   5.749   1.880
 1348TIP3    H1 3985   1.208   5.814   1.949
 1348TIP3    H2 3986   1.132   5.693   1.900
 1349TIP3   OH2 3987   1.348   3.644   2.805
 1349TIP3    H1 3988   1.394   3.691   2.735
 1349TIP3    H2 3989   1.282   3.592   2.759
 1350TIP3   OH2 3990   6.267   5.396   5.202
 1350TIP3    H1 3991   6.360   5.385   5.222
 1350TIP3    H2 3992   6.235   5.307   5.188
 1351TIP3   OH2 3993   7.201   0.796   6.318
 1351TIP3    H1 3994   7.117   0.833   6.345
 1351TIP3    H2 3995   7.234   0.857   6.252
 1352TIP3   OH2 3996   8.235   2.253   6.037
 1352TIP3    H1 3997   8.220   2.345   6.019
 1352TIP3    H2 3998   8.311   2.252   6.095
 1353TIP3   OH2 3999   6.491   2.350   0.797
 1353TIP3    H1 4000   6.496   2.257   0.774
 1353TIP3    H2 4001   6.397   2.368   0.799
 1354TIP3   OH2 4002   2.528   0.739   4.421
 1354TIP3    H1 4003   2.551   0.647   4.408
 1354TIP3    H2 4004   2.566   0.762   4.506
 1355TIP3   OH2 4005   2.493   5.946   4.444
 1355TIP3    H1 4006   2.504   5.855   4.417
 1355TIP3    H2 4007   2.538   5.953   4.528
 1356TIP3   OH2 4008   0.274   0.375   0.129
 1356TIP3    H1 4009   0.343   0.327   0.175
 1356TIP3    H2 4010   0.248   0.317   0.057
 1357TIP3   OH2 4011   2.018   7.085   6.553
 1357TIP3    H1 4012   1.976   7.168   6.572
 1357TIP3    H2 4013   1.971   7.021   6.606
 1358TIP3   OH2 4014   2.162   4.468   6.545
 1358TIP3    H1 4015   2.251   4.502   6.530
 1358TIP3    H2 4016   2.107   4.547   6.550
 1359TIP3   OH2 4017   6.816   1.126   1.231
 1359TIP3    H1 4018   6.898   1.149   1.188
 1359TIP3    H2 4019   6.778   1.211   1.256
 1360TIP3   OH2 4020   4.982   2.230   5.757
 1360TIP3    H1 4021   5.065   2.184   5.773
 1360TIP3    H2 4022   4.984   2.305   5.817
 1361TIP3   OH2 4023   5.985   6.518   5.837
 1361TIP3    H1 4024   5.894   6.510   5.863
 1361TIP3    H2 4025   5.982   6.566   5.754
 1362TIP3   OH2 4026   4.391   2.525   6.818
 1362TIP3    H1 4027   4.356   2.548   6.732
 1362TIP3    H2 4028   4.419   2.608   6.855
 1363TIP3   OH2 4029   1.241   4.518   6.754
 1363TIP3    H1 4030   1.166   4.474   6.792
 1363TIP3    H2 4031   1.271   4.460   6.684
 1364TIP3   OH2 4032   0.094   5.176   5.975
 1364TIP3    H1 4033   0.052   5.261   5.962
 1364TIP3    H2 4034   0.040   5.115   5.925
 1365TIP3   OH2 4035   5.519   3.358   5.161
 1365TIP3    H1 4036   5.495   3.273   5.199
 1365TIP3    H2 4037   5.593   3.337   5.104
 1366TIP3   OH2 4038   1.852   4.472   4.896
 1366TIP3    H1 4039   1.849   4.519   4.979
 1366TIP3    H2 4040   1.944   4.473   4.871
 1367TIP3   OH2 4041   3.867   0.339   5.668
 1367TIP3    H1 4042   3.808   0.275   5.707
 1367TIP3    H2 4043   3.938   0.348   5.731
 1368TIP3   OH2 4044   7.584   1.158   4.947
 1368TIP3    H1 4045   7.549   1.081   4.990
 1368TIP3    H2 4046   7.626   1.208   5.017
 1369TIP3   OH2 4047   1.141   1.537   0.429
 1369TIP3    H1 4048   1.046   1.523   0.427
 1369TIP3    H2 4049   1.152   1.618   0.478
 1370TIP3   OH2 4050   2.083   3.357   1.162
 1370TIP3    H1 4051   2.014   3.303   1.123
 1370TIP3    H2 4052   2.165   3.313   1.136
 1371TIP3   OH2 4053   0.238   6.074   4.288
 1371TIP3    H1 4054   0.317   6.102   4.335
 1371TIP3    H2 4055   0.215   6.150   4.234
 1372TIP3   OH2 4056   2.689   1.102   0.063
 1372TIP3    H1 4057   2.625   1.031   0.064
 1372TIP3    H2 4058   2.733   1.096   0.148
 1373TIP3   OH2 4059   0.867   2.219   5.200
 1373TIP3    H1 4060   0.772   2.224   5.186
 1373TIP3    H2 4061   0.905   2.231   5.113
 1374TIP3   OH2 4062   6.372   1.962   6.350
 1374TIP3    H1 4063   6.340   2.021   6.282
 1374TIP3    H2 4064   6.436   1.907   6.305
 1375TIP3   OH2 4065   6.030   3.105   3.785
 1375TIP3    H1 4066   6.090   3.066   3.849
 1375TIP3    H2 4067   6.012   3.193   3.820
 1376TIP3   OH2 4068   7.745   7.080   1.937
 1376TIP3    H1 4069   7.721   6.988   1.946
 1376TIP3    H2 4070   7.775   7.105   2.024
 1377TIP3   OH2 4071   2.484   3.118   3.583
 1377TIP3    H1 4072   2.395   3.155   3.583
 1377TIP3    H2 4073   2.509   3.115   3.675
 1378TIP3   OH2 4074   0.574   5.754   1.636
 1378TIP3    H1 4075   0.534   5.827   1.683
 1378TIP3    H2 4076   0.500   5.703   1.603
 1379TIP3   OH2 4077   6.344   1.521   0.162
 1379TIP3    H1 4078   6.418   1.465   0.140
 1379TIP3    H2 4079   6.371   1.565   0.243
 1380TIP3   OH2 4080   8.331   1.742   2.450
 1380TIP3    H1 4081   8.426   1.742   2.453
 1380TIP3    H2 4082   8.308   1.664   2.399
 1381TIP3   OH2 4083   3.055   0.704   3.593
 1381TIP3    H1 4084   3.023   0.771   3.533
 1381TIP3    H2 4085   2.988   0.636   3.591
 1382TIP3   OH2 4086   2.037   2.005   4.484
 1382TIP3    H1 4087   2.068   2.025   4.396
 1382TIP3    H2 4088   2.040   2.088   4.531
 1383TIP3   OH2 4089   5.508   4.386   1.426
 1383TIP3    H1 4090   5.484   4.311   1.373
 1383TIP3    H2 4091   5.437   4.449   1.410
 1384TIP3   OH2 4092   0.014   4.808   5.371
 1384TIP3    H1 4093  -0.002   4.824   5.278
 1384TIP3    H2 4094  -0.033   4.727   5.389
 1385TIP3   OH2 4095   2.630   4.536   4.010
 1385TIP3    H1 4096   2.615   4.563   4.100
 1385TIP3    H2 4097   2.627   4.440   4.013
 1386TIP3   OH2 4098   2.133   4.174   0.423
 1386TIP3    H1 4099   2.120   4.267   0.443
 1386TIP3    H2 4100   2.214   4.152   0.467
 1387TIP3   OH2 4101   6.083   1.288   1.166
 1387TIP3    H1 4102   6.174   1.259   1.179
 1387TIP3    H2 4103   6.042   1.279   1.252
 1388TIP3   OH2 4104   6.955   4.973   6.518
 1388TIP3    H1 4105   7.025   5.038   6.520
 1388TIP3    H2 4106   6.877   5.019   6.549
 1389TIP3   OH2 4107   7.735   1.314   3.423
 1389TIP3    H1 4108   7.658   1.263   3.401
 1389TIP3    H2 4109   7.802   1.248   3.444
 1390TIP3   OH2 4110   2.711   4.558   1.425
 1390TIP3    H1 4111   2.638   4.616   1.447
 1390TIP3    H2 4112   2.776   4.575   1.493
 1391TIP3   OH2 4113   4.700   1.601   0.874
 1391TIP3    H1 4114   4.723   1.509   0.888
 1391TIP3    H2 4115   4.783   1.648   0.883
 1392TIP3   OH2 4116   3.492   7.655   0.830
 1392TIP3    H1 4117   3.468   7.564   0.816
 1392TIP3    H2 4118   3.416   7.705   0.800
 1393TIP3   OH2 4119   7.549   3.951   2.757
 1393TIP3    H1 4120   7.622   3.892   2.778
 1393TIP3    H2 4121   7.472   3.907   2.792
 1394TIP3   OH2 4122   7.767   1.470   0.743
 1394TIP3    H1 4123   7.733   1.394   0.695
 1394TIP3    H2 4124   7.723   1.468   0.827
 1395TIP3   OH2 4125   1.069   0.782   2.948
 1395TIP3    H1 4126   1.018   0.767   3.028
 1395TIP3    H2 4127   1.152   0.817   2.980
 1396TIP3   OH2 4128   6.864   2.641   1.078
 1396TIP3    H1 4129   6.770   2.653   1.072
 1396TIP3    H2 4130   6.894   2.710   1.136
 1397TIP3   OH2 4131   0.584   1.851   6.544
 1397TIP3    H1 4132   0.532   1.817   6.471
 1397TIP3    H2 4133   0.661   1.794   6.547
 1398TIP3   OH2 4134   1.892   5.845   5.854
 1398TIP3    H1 4135   1.870   5.933   5.883
 1398TIP3    H2 4136   1.986   5.847   5.838
 1399TIP3   OH2 4137   7.777   0.262   2.530
 1399TIP3    H1 4138   7.694   0.246   2.485
 1399TIP3    H2 4139   7.833   0.302   2.464
 1400TIP3   OH2 4140   0.137   2.829   6.095
 1400TIP3    H1 4141   0.133   2.914   6.052
 1400TIP3    H2 4142   0.106   2.846   6.184
 1401TIP3   OH2 4143   4.873   5.975   2.946
 1401TIP3    H1 4144   4.884   5.990   3.040
 1401TIP3    H2 4145   4.962   5.977   2.911
 1402TIP3   OH2 4146   1.023   6.710   0.564
 1402TIP3    H1 4147   1.008   6.643   0.630
 1402TIP3    H2 4148   0.966   6.783   0.589
 1403TIP3   OH2 4149   0.839   3.661   0.502
 1403TIP3    H1 4150   0.917   3.710   0.528
 1403TIP3    H2 4151   0.872   3.591   0.445
 1404TIP3   OH2 4152   8.149   7.874   2.735
 1404TIP3    H1 4153   8.134   7.795   2.788
 1404TIP3    H2 4154   8.236   7.904   2.763
 1405TIP3   OH2 4155   7.816   6.922   2.289
 1405TIP3    H1 4156   7.727   6.952   2.307
 1405TIP3    H2 4157   7.805   6.845   2.234
 1406TIP3   OH2 4158   6.179   3.315   0.186
 1406TIP3    H1 4159   6.231   3.304   0.266
 1406TIP3    H2 4160   6.235   3.280   0.116
 1407TIP3   OH2 4161   5.724   7.555   5.032
 1407TIP3    H1 4162   5.677   7.555   4.948
 1407TIP3    H2 4163   5.667   7.507   5.091
 1408TIP3   OH2 4164   4.003   3.389   1.453
 1408TIP3    H1 4165   4.042   3.332   1.518
 1408TIP3    H2 4166   4.076   3.418   1.398
 1409TIP3   OH2 4167   7.156   6.311   2.982
 1409TIP3    H1 4168   7.183   6.402   2.994
 1409TIP3    H2 4169   7.118   6.310   2.894
 1410TIP3   OH2 4170   5.159   5.803   1.247
 1410TIP3    H1 4171   5.233   5.752   1.280
 1410TIP3    H2 4172   5.106   5.740   1.198
 1411TIP3   OH2 4173   3.983   5.960   1.294
 1411TIP3    H1 4174   4.030   6.023   1.238
 1411TIP3    H2 4175   4.051   5.916   1.344
 1412TIP3   OH2 4176   2.022   2.258   4.608
 1412TIP3    H1 4177   1.956   2.275   4.675
 1412TIP3    H2 4178   2.027   2.340   4.558
 1413TIP3   OH2 4179   7.024   5.782   4.895
 1413TIP3    H1 4180   7.115   5.812   4.895
 1413TIP3    H2 4181   6.973   5.860   4.917
 1414TIP3   OH2 4182   6.265   2.001   2.123
 1414TIP3    H1 4183   6.312   1.952   2.056
 1414TIP3    H2 4184   6.285   2.093   2.104
 1415TIP3   OH2 4185   0.360   0.794   1.235
 1415TIP3    H1 4186   0.394   0.860   1.174
 1415TIP3    H2 4187   0.358   0.713   1.183
 1416TIP3   OH2 4188   2.497   6.019   5.065
 1416TIP3    H1 4189   2.439   6.015   4.989
 1416TIP3    H2 4190   2.474   5.942   5.117
 1417TIP3   OH2 4191   0.359   0.019   6.649
 1417TIP3    H1 4192   0.264   0.028   6.639
 1417TIP3    H2 4193   0.387  -0.026   6.569
 1418TIP3   OH2 4194   3.857   6.419   4.188
 1418TIP3    H1 4195   3.923   6.363   4.147
 1418TIP3    H2 4196   3.845   6.382   4.275
 1419TIP3   OH2 4197   7.389   1.214   0.244
 1419TIP3    H1 4198   7.300   1.216   0.210
 1419TIP3    H2 4199   7.424   1.129   0.217
 1420TIP3   OH2 4200   8.098   2.448   1.058
 1420TIP3    H1 4201   8.010   2.420   1.085
 1420TIP3    H2 4202   8.086   2.476   0.967
 1421TIP3   OH2 4203   2.065   6.423   6.559
 1421TIP3    H1 4204   2.080   6.515   6.541
 1421TIP3    H2 4205   2.132   6.376   6.510
 1422TIP3   OH2 4206   2.248   6.041   5.327
 1422TIP3    H1 4207   2.325   6.095   5.348
 1422TIP3    H2 4208   2.246   6.039   5.232
 1423TIP3   OH2 4209   4.190   3.883   4.561
 1423TIP3    H1 4210   4.127   3.888   4.488
 1423TIP3    H2 4211   4.194   3.973   4.595
 1424TIP3   OH2 4212   3.364   2.164   6.617
 1424TIP3    H1 4213   3.385   2.094   6.679
 1424TIP3    H2 4214   3.403   2.135   6.535
 1425TIP3   OH2 4215   3.125   6.293   4.478
 1425TIP3    H1 4216   3.117   6.286   4.383
 1425TIP3    H2 4217   3.125   6.202   4.509
 1426TIP3   OH2 4218   3.109   7.654   2.262
 1426TIP3    H1 4219   3.186   7.706   2.285
 1426TIP3    H2 4220   3.053   7.715   2.214
 1427TIP3   OH2 4221   5.641   3.132   1.399
 1427TIP3    H1 4222   5.705   3.200   1.421
 1427TIP3    H2 4223   5.629   3.083   1.481
 1428TIP3   OH2 4224   6.413   5.770   3.431
 1428TIP3    H1 4225   6.470   5.846   3.423
 1428TIP3    H2 4226   6.472   5.696   3.443
 1429TIP3   OH2 4227   6.796   5.302   6.187
 1429TIP3    H1 4228   6.794   5.211   6.157
 1429TIP3    H2 4229   6.839   5.350   6.116
 1430TIP3   OH2 4230   4.584   5.754   5.957
 1430TIP3    H1 4231   4.583   5.672   6.008
 1430TIP3    H2 4232   4.552   5.728   5.871
 1431TIP3   OH2 4233   2.851   1.537   5.200
 1431TIP3    H1 4234   2.915   1.476   5.236
 1431TIP3    H2 4235   2.784   1.546   5.268
 1432TIP3   OH2 4236   3.487   5.586   6.556
 1432TIP3    H1 4237   3.451   5.519   6.614
 1432TIP3    H2 4238   3.581   5.569   6.556
 1433TIP3   OH2 4239   1.747   7.231   2.168
 1433TIP3    H1 4240   1.674   7.261   2.222
 1433TIP3    H2 4241   1.821   7.224   2.228
 1434TIP3   OH2 4242   3.293   3.311   0.284
 1434TIP3    H1 4243   3.367   3.296   0.225
 1434TIP3    H2 4244   3.241   3.230   0.279
 1435TIP3   OH2 4245   0.206   6.480   4.482
 1435TIP3    H1 4246   0.180   6.512   4.395
 1435TIP3    H2 4247   0.124   6.471   4.530
 1436TIP3   OH2 4248   4.064   7.825   0.660
 1436TIP3    H1 4249   4.034   7.767   0.591
 1436TIP3    H2 4250   4.038   7.782   0.742
 1437TIP3   OH2 4251   2.855   4.655   4.882
 1437TIP3    H1 4252   2.920   4.725   4.887
 1437TIP3    H2 4253   2.818   4.662   4.794
 1438TIP3   OH2 4254   0.505   5.727   2.503
 1438TIP3    H1 4255   0.586   5.714   2.453
 1438TIP3    H2 4256   0.436   5.701   2.443
 1439TIP3   OH2 4257   5.928   4.828   1.496
 1439TIP3    H1 4258   5.835   4.827   1.522
 1439TIP3    H2 4259   5.949   4.920   1.485
 1440TIP3   OH2 4260   8.057   3.611   0.980
 1440TIP3    H1 4261   7.992   3.560   1.028
 1440TIP3    H2 4262   8.056   3.697   1.023
 1441TIP3   OH2 4263   6.817   5.368   4.035
 1441TIP3    H1 4264   6.804   5.400   4.125
 1441TIP3    H2 4265   6.731   5.376   3.994
 1442TIP3   OH2 4266   1.532   3.317   5.796
 1442TIP3    H1 4267   1.444   3.315   5.758
 1442TIP3    H2 4268   1.590   3.313   5.720
 1443TIP3   OH2 4269   0.930   6.171   0.094
 1443TIP3    H1 4270   0.860   6.189   0.158
 1443TIP3    H2 4271   0.890   6.189   0.009
 1444TIP3   OH2 4272   7.678   6.025   2.999
 1444TIP3    H1 4273   7.615   5.954   2.997
 1444TIP3    H2 4274   7.757   5.986   3.038
 1445TIP3   OH2 4275  -0.004   4.934   0.898
 1445TIP3    H1 4276   0.064   4.876   0.933
 1445TIP3    H2 4277   0.036   4.972   0.820
 1446TIP3   OH2 4278   0.812   4.161   2.201
 1446TIP3    H1 4279   0.805   4.238   2.257
 1446TIP3    H2 4280   0.794   4.087   2.259
 1447TIP3   OH2 4281   6.123   5.250   0.721
 1447TIP3    H1 4282   6.116   5.188   0.648
 1447TIP3    H2 4283   6.067   5.214   0.789
 1448TIP3   OH2 4284   4.131   2.695   1.780
 1448TIP3    H1 4285   4.182   2.745   1.844
 1448TIP3    H2 4286   4.190   2.626   1.751
 1449TIP3   OH2 4287   5.915   7.740   3.443
 1449TIP3    H1 4288   5.821   7.743   3.427
 1449TIP3    H2 4289   5.926   7.772   3.532
 1450TIP3   OH2 4290   2.300   2.118   5.758
 1450TIP3    H1 4291   2.304   2.106   5.853
 1450TIP3    H2 4292   2.367   2.184   5.739
 1451TIP3   OH2 4293   7.534   5.531   1.926
 1451TIP3    H1 4294   7.623   5.504   1.952
 1451TIP3    H2 4295   7.481   5.519   2.004
 1452TIP3   OH2 4296   2.101   1.129   6.486
 1452TIP3    H1 4297   2.191   1.144   6.456
 1452TIP3    H2 4298   2.053   1.207   6.458
 1453TIP3   OH2 4299   4.547   7.347   0.313
 1453TIP3    H1 4300   4.576   7.316   0.228
 1453TIP3    H2 4301   4.588   7.433   0.323
 1454TIP3   OH2 4302   3.644   3.607   0.791
 1454TIP3    H1 4303   3.659   3.528   0.740
 1454TIP3    H2 4304   3.726   3.656   0.785
 1455TIP3   OH2 4305   4.314   5.754   4.297
 1455TIP3    H1 4306   4.323   5.676   4.351
 1455TIP3    H2 4307   4.246   5.806   4.340
 1456TIP3   OH2 4308   4.683   5.310   5.760
 1456TIP3    H1 4309   4.639   5.227   5.738
 1456TIP3    H2 4310   4.699   5.352   5.675
 1457TIP3   OH2 4311   5.158   2.338   0.798
 1457TIP3    H1 4312   5.088   2.389   0.838
 1457TIP3    H2 4313   5.229   2.401   0.782
 1458TIP3   OH2 4314   0.231   3.484   0.683
 1458TIP3    H1 4315   0.233   3.574   0.717
 1458TIP3    H2 4316   0.189   3.492   0.597
 1459TIP3   OH2 4317   0.937   1.025   4.191
 1459TIP3    H1 4318   0.935   0.963   4.119
 1459TIP3    H2 4319   0.911   0.975   4.268
 1460TIP3   OH2 4320   8.347   7.525   2.741
 1460TIP3    H1 4321   8.254   7.545   2.746
 1460TIP3    H2 4322   8.380   7.540   2.830
 1461TIP3   OH2 4323   5.019   4.867   4.258
 1461TIP3    H1 4324   5.062   4.952   4.244
 1461TIP3    H2 4325   5.039   4.817   4.179
 1462TIP3   OH2 4326   4.184   4.085   2.952
 1462TIP3    H1 4327   4.217   4.163   2.907
 1462TIP3    H2 4328   4.230   4.012   2.909
 1463TIP3   OH2 4329   2.998   2.136   5.896
 1463TIP3    H1 4330   2.911   2.139   5.856
 1463TIP3    H2 4331   3.014   2.226   5.924
 1464TIP3   OH2 4332   2.715   7.423   2.269
 1464TIP3    H1 4333   2.748   7.512   2.272
 1464TIP3    H2 4334   2.709   7.396   2.360
 1465TIP3   OH2 4335   6.940   2.048   2.033
 1465TIP3    H1 4336   6.999   1.973   2.024
 1465TIP3    H2 4337   6.868   2.014   2.086
 1466TIP3   OH2 4338   5.863   4.386   5.748
 1466TIP3    H1 4339   5.848   4.394   5.654
 1466TIP3    H2 4340   5.792   4.329   5.778
 1467TIP3   OH2 4341   2.643   3.351   0.028
 1467TIP3    H1 4342   2.649   3.327   0.120
 1467TIP3    H2 4343   2.598   3.435   0.028
 1468TIP3   OH2 4344   6.818   3.598   0.954
 1468TIP3    H1 4345   6.832   3.628   0.865
 1468TIP3    H2 4346   6.723   3.585   0.960
 1469TIP3   OH2 4347   8.359   5.340   2.632
 1469TIP3    H1 4348   8.277   5.385   2.611
 1469TIP3    H2 4349   8.350   5.254   2.592
 1470TIP3   OH2 4350   6.050   3.732   1.339
 1470TIP3    H1 4351   6.081   3.787   1.267
 1470TIP3    H2 4352   6.109   3.656   1.337
 1471TIP3   OH2 4353   7.868   5.613   5.517
 1471TIP3    H1 4354   7.898   5.561   5.442
 1471TIP3    H2 4355   7.801   5.671   5.481
 1472TIP3   OH2 4356   5.062   5.171   0.493
 1472TIP3    H1 4357   5.078   5.263   0.476
 1472TIP3    H2 4358   4.968   5.159   0.479
 1473TIP3   OH2 4359   7.282   2.171   1.628
 1473TIP3    H1 4360   7.250   2.155   1.539
 1473TIP3    H2 4361   7.202   2.182   1.681
 1474TIP3   OH2 4362   7.750   3.973   6.764
 1474TIP3    H1 4363   7.767   4.048   6.822
 1474TIP3    H2 4364   7.830   3.920   6.769
 1475TIP3   OH2 4365   5.996   0.645   0.367
 1475TIP3    H1 4366   6.017   0.718   0.424
 1475TIP3    H2 4367   5.977   0.685   0.282
 1476TIP3   OH2 4368   2.044   1.953   6.218
 1476TIP3    H1 4369   2.110   1.910   6.273
 1476TIP3    H2 4370   1.960   1.933   6.261
 1477TIP3   OH2 4371   5.813   5.652   5.902
 1477TIP3    H1 4372   5.870   5.595   5.955
 1477TIP3    H2 4373   5.838   5.741   5.927
 1478TIP3   OH2 4374   0.440   2.913   0.827
 1478TIP3    H1 4375   0.432   2.857   0.904
 1478TIP3    H2 4376   0.400   2.996   0.853
 1479TIP3   OH2 4377   7.399   6.837   6.588
 1479TIP3    H1 4378   7.389   6.803   6.499
 1479TIP3    H2 4379   7.400   6.758   6.643
 1480TIP3   OH2 4380   6.300   5.440   2.739
 1480TIP3    H1 4381   6.370   5.501   2.762
 1480TIP3    H2 4382   6.264   5.412   2.823
 1481TIP3   OH2 4383   1.288   1.239   5.854
 1481TIP3    H1 4384   1.344   1.219   5.779
 1481TIP3    H2 4385   1.340   1.215   5.930
 1482TIP3   OH2 4386   4.524   0.353   2.482
 1482TIP3    H1 4387   4.434   0.349   2.517
 1482TIP3    H2 4388   4.530   0.441   2.443
 1483TIP3   OH2 4389   6.443   4.279   3.695
 1483TIP3    H1 4390   6.390   4.200   3.707
 1483TIP3    H2 4391   6.444   4.293   3.600
 1484TIP3   OH2 4392   0.251   6.759   1.261
 1484TIP3    H1 4393   0.302   6.837   1.239
 1484TIP3    H2 4394   0.305   6.714   1.326
 1485TIP3   OH2 4395   2.600   6.874   0.384
 1485TIP3    H1 4396   2.590   6.810   0.314
 1485TIP3    H2 4397   2.611   6.958   0.338
 1486TIP3   OH2 4398   3.056   1.557   5.743
 1486TIP3    H1 4399   3.079   1.642   5.782
 1486TIP3    H2 4400   2.969   1.538   5.778
 1487TIP3   OH2 4401   3.575   0.550   0.503
 1487TIP3    H1 4402   3.543   0.471   0.547
 1487TIP3    H2 4403   3.509   0.569   0.436
 1488TIP3   OH2 4404   4.916   0.014   1.668
 1488TIP3    H1 4405   4.925  -0.058   1.605
 1488TIP3    H2 4406   4.850   0.072   1.629
 1489TIP3   OH2 4407   3.571   2.343   5.951
 1489TIP3    H1 4408   3.559   2.436   5.972
 1489TIP3    H2 4409   3.509   2.327   5.879
 1490TIP3   OH2 4410   8.194   5.355   2.053
 1490TIP3    H1 4411   8.143   5.418   2.003
 1490TIP3    H2 4412   8.187   5.274   2.003
 1491TIP3   OH2 4413   8.385   4.352   0.492
 1491TIP3    H1 4414   8.302   4.337   0.447
 1491TIP3    H2 4415   8.359   4.380   0.580
 1492TIP3   OH2 4416   0.477   4.969   4.214
 1492TIP3    H1 4417   0.403   5.024   4.188
 1492TIP3    H2 4418   0.447   4.879   4.199
 1493TIP3   OH2 4419   3.321   2.497   3.238
 1493TIP3    H1 4420   3.238   2.503   3.190
 1493TIP3    H2 4421   3.295   2.470   3.326
 1494TIP3   OH2 4422   5.898   3.310   5.915
 1494TIP3    H1 4423   5.892   3.280   5.824
 1494TIP3    H2 4424   5.812   3.290   5.952
 1495TIP3   OH2 4425   4.643   5.727   5.120
 1495TIP3    H1 4426   4.734   5.699   5.112
 1495TIP3    H2 4427   4.606   5.713   5.033
 1496TIP3   OH2 4428   7.616   5.610   1.579
 1496TIP3    H1 4429   7.593   5.533   1.630
 1496TIP3    H2 4430   7.651   5.576   1.497
 1497TIP3   OH2 4431   5.619   7.907   2.426
 1497TIP3    H1 4432   5.554   7.886   2.359
 1497TIP3    H2 4433   5.581   7.981   2.474
 1498TIP3   OH2 4434   6.607   5.286   3.256
 1498TIP3    H1 4435   6.607   5.327   3.170
 1498TIP3    H2 4436   6.659   5.207   3.246
 1499TIP3   OH2 4437   6.378   0.927   2.233
 1499TIP3    H1 4438   6.392   1.021   2.225
 1499TIP3    H2 4439   6.323   0.917   2.311
 1500TIP3   OH2 4440   5.391   4.521   3.479
 1500TIP3    H1 4441   5.364   4.607   3.509
 1500TIP3    H2 4442   5.359   4.460   3.545
 1501TIP3   OH2 4443   3.939   7.500   0.043
 1501TIP3    H1 4444   3.856   7.529   0.006
 1501TIP3    H2 4445   3.950   7.411   0.010
 1502TIP3   OH2 4446   7.340   3.864   4.843
 1502TIP3    H1 4447   7.346   3.952   4.879
 1502TIP3    H2 4448   7.254   3.832   4.870
 1503TIP3   OH2 4449   6.333   1.165   4.650
 1503TIP3    H1 4450   6.407   1.180   4.709
 1503TIP3    H2 4451   6.368   1.108   4.582
 1504TIP3   OH2 4452   5.219   6.081   6.251
 1504TIP3    H1 4453   5.244   6.059   6.162
 1504TIP3    H2 4454   5.134   6.040   6.264
 1505TIP3   OH2 4455   7.645   5.204   2.450
 1505TIP3    H1 4456   7.696   5.123   2.451
 1505TIP3    H2 4457   7.670   5.249   2.530
 1506TIP3   OH2 4458   4.063   2.208   5.310
 1506TIP3    H1 4459   3.980   2.249   5.287
 1506TIP3    H2 4460   4.038   2.121   5.341
 1507TIP3   OH2 4461   3.145   6.646   0.983
 1507TIP3    H1 4462   3.228   6.632   1.028
 1507TIP3    H2 4463   3.080   6.648   1.053
 1508TIP3   OH2 4464   4.206   0.566   6.710
 1508TIP3    H1 4465   4.256   0.624   6.653
 1508TIP3    H2 4466   4.127   0.616   6.732
 1509TIP3   OH2 4467   1.972   5.034   6.456
 1509TIP3    H1 4468   2.023   5.032   6.374
 1509TIP3    H2 4469   1.972   4.944   6.486
 1510TIP3   OH2 4470   2.811   1.323   3.954
 1510TIP3    H1 4471   2.735   1.287   3.909
 1510TIP3    H2 4472   2.778   1.352   4.039
 1511TIP3   OH2 4473   5.148   5.120   6.475
 1511TIP3    H1 4474   5.192   5.093   6.556
 1511TIP3    H2 4475   5.185   5.063   6.408
 1512TIP3   OH2 4476   4.281   3.631   3.369
 1512TIP3    H1 4477   4.236   3.715   3.379
 1512TIP3    H2 4478   4.242   3.574   3.435
 1513TIP3   OH2 4479   5.197   6.080   5.060
 1513TIP3    H1 4480   5.168   5.991   5.042
 1513TIP3    H2 4481   5.120   6.134   5.041
 1514TIP3   OH2 4482   3.448   1.114   2.139
 1514TIP3    H1 4483   3.467   1.042   2.078
 1514TIP3    H2 4484   3.507   1.184   2.112
 1515TIP3   OH2 4485   4.137   3.582   0.843
 1515TIP3    H1 4486   4.158   3.581   0.749
 1515TIP3    H2 4487   4.221   3.592   0.887
 1516TIP3   OH2 4488   0.967   4.552   2.714
 1516TIP3    H1 4489   0.900   4.486   2.734
 1516TIP3    H2 4490   1.005   4.523   2.631
 1517TIP3   OH2 4491   6.853   6.440   3.580
 1517TIP3    H1 4492   6.848   6.522   3.531
 1517TIP3    H2 4493   6.859   6.467   3.671
 1518TIP3   OH2 4494   4.102   4.511   2.735
 1518TIP3    H1 4495   4.070   4.499   2.825
 1518TIP3    H2 4496   4.189   4.471   2.735
 1519TIP3   OH2 4497   7.873   5.784   1.305
 1519TIP3    H1 4498   7.831   5.698   1.313
 1519TIP3    H2 4499   7.951   5.777   1.361
 1520TIP3   OH2 4500   7.013   7.750   0.480
 1520TIP3    H1 4501   6.929   7.778   0.516
 1520TIP3    H2 4502   6.994   7.668   0.435
 1521TIP3   OH2 4503   4.408   1.067   6.658
 1521TIP3    H1 4504   4.339   1.105   6.604
 1521TIP3    H2 4505   4.489   1.093   6.614
 1522TIP3   OH2 4506   5.649   1.502   4.448
 1522TIP3    H1 4507   5.720   1.566   4.455
 1522TIP3    H2 4508   5.588   1.543   4.386
 1523TIP3   OH2 4509   2.771   2.842   0.835
 1523TIP3    H1 4510   2.762   2.782   0.910
 1523TIP3    H2 4511   2.855   2.885   0.849
 1524TIP3   OH2 4512   7.370   3.057   2.127
 1524TIP3    H1 4513   7.395   3.069   2.035
 1524TIP3    H2 4514   7.453   3.051   2.174
 1525TIP3   OH2 4515   2.507   1.690   5.600
 1525TIP3    H1 4516   2.416   1.681   5.574
 1525TIP3    H2 4517   2.508   1.764   5.660
 1526TIP3   OH2 4518   0.226   4.444   5.411
 1526TIP3    H1 4519   0.240   4.445   5.506
 1526TIP3    H2 4520   0.251   4.355   5.384
 1527TIP3   OH2 4521   5.411   5.869   2.737
 1527TIP3    H1 4522   5.482   5.815   2.704
 1527TIP3    H2 4523   5.421   5.866   2.832
 1528TIP3   OH2 4524   6.821   7.473   2.501
 1528TIP3    H1 4525   6.804   7.485   2.408
 1528TIP3    H2 4526   6.819   7.378   2.514
 1529TIP3   OH2 4527   2.452   1.871   5.781
 1529TIP3    H1 4528   2.415   1.958   5.791
 1529TIP3    H2 4529   2.377   1.812   5.784
 1530TIP3   OH2 4530   7.301   7.426   0.403
 1530TIP3    H1 4531   7.312   7.463   0.491
 1530TIP3    H2 4532   7.293   7.502   0.345
 1531TIP3   OH2 4533   1.548   7.870   5.436
 1531TIP3    H1 4534   1.631   7.830   5.459
 1531TIP3    H2 4535   1.515   7.817   5.363
 1532TIP3   OH2 4536   6.573   5.055   4.589
 1532TIP3    H1 4537   6.547   5.061   4.497
 1532TIP3    H2 4538   6.581   5.146   4.618
 1533TIP3   OH2 4539   2.187   7.677   3.522
 1533TIP3    H1 4540   2.216   7.662   3.612
 1533TIP3    H2 4541   2.124   7.749   3.529
 1534TIP3   OH2 4542   3.621   1.012   1.180
 1534TIP3    H1 4543   3.608   1.002   1.086
 1534TIP3    H2 4544   3.660   0.930   1.208
 1535TIP3   OH2 4545   6.507   7.370   4.383
 1535TIP3    H1 4546   6.582   7.348   4.328
 1535TIP3    H2 4547   6.528   7.456   4.420
 1536TIP3   OH2 4548   1.289   5.091   2.135
 1536TIP3    H1 4549   1.335   5.070   2.054
 1536TIP3    H2 4550   1.296   5.012   2.188
 1537TIP3   OH2 4551   2.166   0.850   5.057
 1537TIP3    H1 4552   2.129   0.918   5.114
 1537TIP3    H2 4553   2.108   0.848   4.981
 1538TIP3   OH2 4554   6.849   6.869   2.345
 1538TIP3    H1 4555   6.889   6.870   2.257
 1538TIP3    H2 4556   6.836   6.777   2.365
 1539TIP3   OH2 4557   7.057   4.413   0.101
 1539TIP3    H1 4558   7.041   4.419   0.007
 1539TIP3    H2 4559   6.982   4.455   0.142
 1540TIP3   OH2 4560   1.038   1.538   3.940
 1540TIP3    H1 4561   0.979   1.583   4.001
 1540TIP3    H2 4562   1.047   1.450   3.977
 1541TIP3   OH2 4563   7.214   1.381   3.447
 1541TIP3    H1 4564   7.137   1.397   3.393
 1541TIP3    H2 4565   7.182   1.385   3.537
 1542TIP3   OH2 4566   5.602   4.717   1.245
 1542TIP3    H1 4567   5.625   4.722   1.338
 1542TIP3    H2 4568   5.619   4.805   1.211
 1543TIP3   OH2 4569   2.079   0.243   0.001
 1543TIP3    H1 4570   2.112   0.180  -0.063
 1543TIP3    H2 4571   2.095   0.202   0.086
 1544TIP3   OH2 4572   0.883   3.125   4.887
 1544TIP3    H1 4573   0.966   3.115   4.839
 1544TIP3    H2 4574   0.835   3.044   4.869
 1545TIP3   OH2 4575   6.771   2.722   4.264
 1545TIP3    H1 4576   6.798   2.781   4.194
 1545TIP3    H2 4577   6.713   2.659   4.221
 1546TIP3   OH2 4578   1.054   2.138   6.632
 1546TIP3    H1 4579   1.021   2.176   6.714
 1546TIP3    H2 4580   0.996   2.064   6.615
 1547TIP3   OH2 4581   6.648   3.252   0.478
 1547TIP3    H1 4582   6.700   3.235   0.399
 1547TIP3    H2 4583   6.599   3.171   0.492
 1548TIP3   OH2 4584   5.041   5.367   3.522
 1548TIP3    H1 4585   4.978   5.415   3.575
 1548TIP3    H2 4586   5.006   5.278   3.517
 1549TIP3   OH2 4587   6.265   5.633   0.170
 1549TIP3    H1 4588   6.180   5.675   0.174
 1549TIP3    H2 4589   6.325   5.696   0.212
 1550TIP3   OH2 4590   1.652   6.528   0.227
 1550TIP3    H1 4591   1.600   6.535   0.147
 1550TIP3    H2 4592   1.676   6.618   0.249
 1551TIP3   OH2 4593   4.093   2.775   2.336
 1551TIP3    H1 4594   4.121   2.865   2.321
 1551TIP3    H2 4595   4.098   2.764   2.431
 1552TIP3   OH2 4596   0.125   0.352   0.595
 1552TIP3    H1 4597   0.061   0.399   0.649
 1552TIP3    H2 4598   0.086   0.351   0.508
 1553TIP3   OH2 4599   6.271   5.073   5.007
 1553TIP3    H1 4600   6.215   5.080   4.930
 1553TIP3    H2 4601   6.215   5.098   5.081
 1554TIP3   OH2 4602   6.198   0.540   5.834
 1554TIP3    H1 4603   6.224   0.582   5.752
 1554TIP3    H2 4604   6.231   0.450   5.826
 1555TIP3   OH2 4605   4.551   5.277   0.129
 1555TIP3    H1 4606   4.596   5.193   0.129
 1555TIP3    H2 4607   4.622   5.342   0.139
 1556TIP3   OH2 4608   5.599   7.370   1.454
 1556TIP3    H1 4609   5.692   7.375   1.432
 1556TIP3    H2 4610   5.593   7.301   1.519
 1557TIP3   OH2 4611   5.461   6.519   4.436
 1557TIP3    H1 4612   5.445   6.426   4.454
 1557TIP3    H2 4613   5.547   6.536   4.472
 1558TIP3   OH2 4614   4.914   1.679   2.219
 1558TIP3    H1 4615   4.857   1.604   2.200
 1558TIP3    H2 4616   4.971   1.648   2.289
 1559TIP3   OH2 4617   2.684   1.286   2.365
 1559TIP3    H1 4618   2.630   1.317   2.293
 1559TIP3    H2 4619   2.769   1.269   2.325
 1560TIP3   OH2 4620   8.254   4.758   0.731
 1560TIP3    H1 4621   8.238   4.696   0.802
 1560TIP3    H2 4622   8.314   4.823   0.768
 1561TIP3   OH2 4623   0.196   7.066   3.031
 1561TIP3    H1 4624   0.268   7.097   2.977
 1561TIP3    H2 4625   0.122   7.122   3.006
 1562TIP3   OH2 4626   2.401   2.527   2.519
 1562TIP3    H1 4627   2.319   2.525   2.568
 1562TIP3    H2 4628   2.380   2.481   2.437
 1563TIP3   OH2 4629   1.840   3.237   5.626
 1563TIP3    H1 4630   1.896   3.276   5.692
 1563TIP3    H2 4631   1.817   3.151   5.660
 1564TIP3   OH2 4632   6.989   2.286   2.302
 1564TIP3    H1 4633   6.951   2.199   2.287
 1564TIP3    H2 4634   7.070   2.268   2.349
 1565TIP3   OH2 4635   0.986   0.164   5.473
 1565TIP3    H1 4636   0.919   0.114   5.426
 1565TIP3    H2 4637   0.941   0.244   5.500
 1566TIP3   OH2 4638   6.534   4.306   5.223
 1566TIP3    H1 4639   6.613   4.270   5.264
 1566TIP3    H2 4640   6.533   4.268   5.135
 1567TIP3   OH2 4641   1.463   2.859   0.101
 1567TIP3    H1 4642   1.509   2.819   0.028
 1567TIP3    H2 4643   1.497   2.814   0.179
 1568TIP3   OH2 4644   7.395   1.292   5.942
 1568TIP3    H1 4645   7.470   1.272   5.998
 1568TIP3    H2 4646   7.363   1.376   5.975
 1569TIP3   OH2 4647   3.166   2.538   2.200
 1569TIP3    H1 4648   3.138   2.476   2.268
 1569TIP3    H2 4649   3.085   2.565   2.157
 1570TIP3   OH2 4650   7.582   7.807   2.951
 1570TIP3    H1 4651   7.549   7.769   2.869
 1570TIP3    H2 4652   7.540   7.893   2.957
 1571TIP3   OH2 4653   3.074   6.003   0.563
 1571TIP3    H1 4654   3.141   5.936   0.575
 1571TIP3    H2 4655   3.113   6.083   0.597
 1572TIP3   OH2 4656   3.479   5.663   0.143
 1572TIP3    H1 4657   3.525   5.584   0.114
 1572TIP3    H2 4658   3.386   5.641   0.135
 1573TIP3   OH2 4659   1.470   6.759   4.968
 1573TIP3    H1 4660   1.384   6.729   4.937
 1573TIP3    H2 4661   1.465   6.855   4.962
 1574TIP3   OH2 4662   2.340   5.759   1.903
 1574TIP3    H1 4663   2.244   5.764   1.906
 1574TIP3    H2 4664   2.358   5.680   1.853
 1575TIP3   OH2 4665   2.998   6.724   1.217
 1575TIP3    H1 4666   3.055   6.678   1.280
 1575TIP3    H2 4667   2.974   6.804   1.262
 1576TIP3   OH2 4668   6.046   0.711   4.634
 1576TIP3    H1 4669   6.070   0.672   4.718
 1576TIP3    H2 4670   6.102   0.788   4.626
 1577TIP3   OH2 4671   0.567   2.104   1.055
 1577TIP3    H1 4672   0.585   2.181   1.001
 1577TIP3    H2 4673   0.515   2.137   1.128
 1578TIP3   OH2 4674   1.449   7.689   0.450
 1578TIP3    H1 4675   1.511   7.677   0.522
 1578TIP3    H2 4676   1.363   7.691   0.493
 1579TIP3   OH2 4677   5.897   4.807   3.197
 1579TIP3    H1 4678   5.865   4.737   3.255
 1579TIP3    H2 4679   5.992   4.804   3.207
 1580TIP3   OH2 4680   1.138   7.210   2.839
 1580TIP3    H1 4681   1.166   7.212   2.747
 1580TIP3    H2 4682   1.044   7.193   2.835
 1581TIP3   OH2 4683   2.490   7.117   0.671
 1581TIP3    H1 4684   2.445   7.178   0.613
 1581TIP3    H2 4685   2.573   7.098   0.626
 1582TIP3   OH2 4686   8.228   3.138   0.354
 1582TIP3    H1 4687   8.281   3.064   0.386
 1582TIP3    H2 4688   8.276   3.215   0.384
 1583TIP3   OH2 4689   4.488   6.882   1.058
 1583TIP3    H1 4690   4.548   6.811   1.034
 1583TIP3    H2 4691   4.530   6.961   1.023
 1584TIP3   OH2 4692   3.263   2.692   2.971
 1584TIP3    H1 4693   3.272   2.718   2.879
 1584TIP3    H2 4694   3.176   2.654   2.977
 1585TIP3   OH2 4695   0.798   6.661   3.217
 1585TIP3    H1 4696   0.713   6.686   3.181
 1585TIP3    H2 4697   0.861   6.687   3.148
 1586TIP3   OH2 4698   0.697   0.481   3.873
 1586TIP3    H1 4699   0.651   0.471   3.956
 1586TIP3    H2 4700   0.783   0.514   3.898
 1587TIP3   OH2 4701   4.648   7.285   6.566
 1587TIP3    H1 4702   4.624   7.203   6.607
 1587TIP3    H2 4703   4.570   7.340   6.573
 1588TIP3   OH2 4704   1.870   7.287   2.608
 1588TIP3    H1 4705   1.936   7.355   2.622
 1588TIP3    H2 4706   1.797   7.314   2.664
 1589TIP3   OH2 4707   5.081   5.816   5.916
 1589TIP3    H1 4708   5.032   5.760   5.856
 1589TIP3    H2 4709   5.082   5.902   5.872
 1590TIP3   OH2 4710   7.620   5.232   0.156
 1590TIP3    H1 4711   7.707   5.262   0.181
 1590TIP3    H2 4712   7.637   5.166   0.088
 1591TIP3   OH2 4713   4.507   7.851   2.810
 1591TIP3    H1 4714   4.538   7.929   2.856
 1591TIP3    H2 4715   4.570   7.839   2.739
 1592TIP3   OH2 4716   3.922   4.625   1.578
 1592TIP3    H1 4717   3.883   4.709   1.553
 1592TIP3    H2 4718   3.983   4.646   1.648
 1593TIP3   OH2 4719   3.972   2.097   6.094
 1593TIP3    H1 4720   3.918   2.019   6.104
 1593TIP3    H2 4721   3.965   2.142   6.178
 1594TIP3   OH2 4722   7.537   2.646   3.693
 1594TIP3    H1 4723   7.576   2.713   3.637
 1594TIP3    H2 4724   7.612   2.603   3.735
 1595TIP3   OH2 4725   0.701   5.265   0.644
 1595TIP3    H1 4726   0.740   5.181   0.665
 1595TIP3    H2 4727   0.671   5.256   0.553
 1596TIP3   OH2 4728   2.718   3.681   2.511
 1596TIP3    H1 4729   2.774   3.755   2.488
 1596TIP3    H2 4730   2.770   3.604   2.489
 1597TIP3   OH2 4731   0.183   2.163   6.340
 1597TIP3    H1 4732   0.114   2.099   6.360
 1597TIP3    H2 4733   0.141   2.226   6.281
 1598TIP3   OH2 4734   5.718   2.294   5.245
 1598TIP3    H1 4735   5.758   2.362   5.299
 1598TIP3    H2 4736   5.760   2.303   5.159
 1599TIP3   OH2 4737   6.770   4.646   6.167
 1599TIP3    H1 4738   6.759   4.664   6.260
 1599TIP3    H2 4739   6.766   4.732   6.125
 1600TIP3   OH2 4740   4.069   6.195   3.613
 1600TIP3    H1 4741   4.133   6.229   3.675
 1600TIP3    H2 4742   4.099   6.227   3.527
 1601TIP3   OH2 4743   4.883   0.925   5.995
 1601TIP3    H1 4744   4.942   0.891   6.062
 1601TIP3    H2 4745   4.919   1.011   5.973
 1602TIP3   OH2 4746   6.264   0.895   4.033
 1602TIP3    H1 4747   6.277   0.814   3.983
 1602TIP3    H2 4748   6.250   0.865   4.123
 1603TIP3   OH2 4749   7.304   0.253   4.202
 1603TIP3    H1 4750   7.320   0.219   4.114
 1603TIP3    H2 4751   7.390   0.279   4.234
 1604TIP3   OH2 4752   6.178   3.873   0.323
 1604TIP3    H1 4753   6.201   3.782   0.303
 1604TIP3    H2 4754   6.144   3.870   0.413
 1605TIP3   OH2 4755   2.141   5.972   3.344
 1605TIP3    H1 4756   2.180   6.058   3.332
 1605TIP3    H2 4757   2.094   5.955   3.262
 1606TIP3   OH2 4758   8.355   5.055   1.453
 1606TIP3    H1 4759   8.371   4.967   1.418
 1606TIP3    H2 4760   8.260   5.061   1.461
 1607TIP3   OH2 4761   6.944   5.337   2.518
 1607TIP3    H1 4762   6.929   5.245   2.494
 1607TIP3    H2 4763   6.907   5.345   2.605
 1608TIP3   OH2 4764   3.228   6.666   5.398
 1608TIP3    H1 4765   3.252   6.639   5.487
 1608TIP3    H2 4766   3.134   6.682   5.403
 1609TIP3   OH2 4767   2.260   2.741   3.883
 1609TIP3    H1 4768   2.280   2.744   3.789
 1609TIP3    H2 4769   2.247   2.833   3.908
 1610TIP3   OH2 4770   6.951   3.512   3.461
 1610TIP3    H1 4771   7.025   3.571   3.443
 1610TIP3    H2 4772   6.952   3.501   3.556
 1611TIP3   OH2 4773   2.425   0.210   6.535
 1611TIP3    H1 4774   2.433   0.283   6.596
 1611TIP3    H2 4775   2.334   0.181   6.545
 1612TIP3   OH2 4776   4.662   1.498   3.120
 1612TIP3    H1 4777   4.574   1.512   3.156
 1612TIP3    H2 4778   4.721   1.530   3.188
 1613TIP3   OH2 4779   2.110   6.397   5.317
 1613TIP3    H1 4780   2.190   6.368   5.273
 1613TIP3    H2 4781   2.108   6.492   5.303
 1614TIP3   OH2 4782   0.521   7.074   5.448
 1614TIP3    H1 4783   0.586   7.007   5.430
 1614TIP3    H2 4784   0.509   7.072   5.543
 1615TIP3   OH2 4785   6.008   3.391   3.909
 1615TIP3    H1 4786   6.104   3.392   3.905
 1615TIP3    H2 4787   5.988   3.410   4.000
 1616TIP3   OH2 4788   4.542   4.252   1.880
 1616TIP3    H1 4789   4.573   4.251   1.970
 1616TIP3    H2 4790   4.617   4.286   1.830
 1617TIP3   OH2 4791   6.123   4.396   3.863
 1617TIP3    H1 4792   6.055   4.345   3.908
 1617TIP3    H2 4793   6.204   4.374   3.910
 1618TIP3   OH2 4794   5.368   2.587   3.920
 1618TIP3    H1 4795   5.404   2.646   3.986
 1618TIP3    H2 4796   5.301   2.638   3.875
 1619TIP3   OH2 4797   2.434   2.816   3.073
 1619TIP3    H1 4798   2.393   2.874   3.137
 1619TIP3    H2 4799   2.369   2.808   3.003
 1620TIP3   OH2 4800   5.772   4.149   0.846
 1620TIP3    H1 4801   5.718   4.132   0.769
 1620TIP3    H2 4802   5.816   4.232   0.827
 1621TIP3   OH2 4803   0.274   5.837   2.805
 1621TIP3    H1 4804   0.333   5.768   2.836
 1621TIP3    H2 4805   0.216   5.793   2.743
 1622TIP3   OH2 4806   5.459   5.850   4.182
 1622TIP3    H1 4807   5.428   5.903   4.255
 1622TIP3    H2 4808   5.462   5.910   4.107
 1623TIP3   OH2 4809   5.542   0.024   1.551
 1623TIP3    H1 4810   5.634   0.003   1.537
 1623TIP3    H2 4811   5.512  -0.042   1.613
 1624TIP3   OH2 4812   2.440   0.444   6.237
 1624TIP3    H1 4813   2.516   0.496   6.264
 1624TIP3    H2 4814   2.440   0.449   6.141
 1625TIP3   OH2 4815   0.450   1.428   5.110
 1625TIP3    H1 4816   0.358   1.404   5.102
 1625TIP3    H2 4817   0.489   1.359   5.163
 1626TIP3   OH2 4818   7.462   4.264   0.065
 1626TIP3    H1 4819   7.473   4.224   0.151
 1626TIP3    H2 4820   7.543   4.313   0.051
 1627TIP3   OH2 4821   3.638   5.933   6.023
 1627TIP3    H1 4822   3.590   6.011   6.050
 1627TIP3    H2 4823   3.714   5.967   5.975
 1628TIP3   OH2 4824   6.199   0.746   6.658
 1628TIP3    H1 4825   6.233   0.836   6.664
 1628TIP3    H2 4826   6.241   0.700   6.731
 1629TIP3   OH2 4827   7.207   1.088   5.862
 1629TIP3    H1 4828   7.256   1.170   5.874
 1629TIP3    H2 4829   7.156   1.103   5.782
 1630TIP3   OH2 4830   0.715   2.957   3.531
 1630TIP3    H1 4831   0.621   2.946   3.549
 1630TIP3    H2 4832   0.730   2.910   3.450
 1631TIP3   OH2 4833   6.878   7.407   6.395
 1631TIP3    H1 4834   6.783   7.400   6.394
 1631TIP3    H2 4835   6.910   7.324   6.360
 1632TIP3   OH2 4836   3.364   2.782   1.996
 1632TIP3    H1 4837   3.328   2.801   2.083
 1632TIP3    H2 4838   3.452   2.821   1.997
 1633TIP3   OH2 4839   0.988   1.448   0.121
 1633TIP3    H1 4840   1.017   1.455   0.030
 1633TIP3    H2 4841   0.907   1.497   0.125
 1634TIP3   OH2 4842   3.900   5.189   5.207
 1634TIP3    H1 4843   3.919   5.253   5.276
 1634TIP3    H2 4844   3.950   5.111   5.231
 1635TIP3   OH2 4845   2.542   4.609   5.736
 1635TIP3    H1 4846   2.550   4.554   5.814
 1635TIP3    H2 4847   2.448   4.612   5.719
 1636TIP3   OH2 4848   3.437   4.274   5.752
 1636TIP3    H1 4849   3.382   4.211   5.706
 1636TIP3    H2 4850   3.510   4.291   5.692
 1637TIP3   OH2 4851   3.043   0.104   2.182
 1637TIP3    H1 4852   3.078   0.016   2.199
 1637TIP3    H2 4853   2.948   0.091   2.177
 1638TIP3   OH2 4854   5.535   5.876   5.464
 1638TIP3    H1 4855   5.496   5.912   5.384
 1638TIP3    H2 4856   5.607   5.822   5.434
 1639TIP3   OH2 4857   5.106   5.002   3.230
 1639TIP3    H1 4858   5.184   4.966   3.272
 1639TIP3    H2 4859   5.102   5.093   3.260
 1640TIP3   OH2 4860   2.604   6.947   2.603
 1640TIP3    H1 4861   2.611   6.959   2.508
 1640TIP3    H2 4862   2.667   7.010   2.639
 1641TIP3   OH2 4863   8.263   0.421   2.670
 1641TIP3    H1 4864   8.185   0.447   2.620
 1641TIP3    H2 4865   8.230   0.401   2.757
 1642TIP3   OH2 4866   2.160   3.072   2.162
 1642TIP3    H1 4867   2.219   3.039   2.093
 1642TIP3    H2 4868   2.150   3.165   2.142
 1643TIP3   OH2 4869   3.397   3.100   0.836
 1643TIP3    H1 4870   3.453   3.078   0.762
 1643TIP3    H2 4871   3.404   3.024   0.895
 1644TIP3   OH2 4872   5.074   4.840   3.007
 1644TIP3    H1 4873   5.076   4.895   3.086
 1644TIP3    H2 4874   4.981   4.833   2.986
 1645TIP3   OH2 4875   8.228   2.526   6.001
 1645TIP3    H1 4876   8.170   2.520   5.925
 1645TIP3    H2 4877   8.168   2.542   6.074
 1646TIP3   OH2 4878   0.984   4.743   3.450
 1646TIP3    H1 4879   1.016   4.808   3.387
 1646TIP3    H2 4880   0.917   4.789   3.500
 1647TIP3   OH2 4881   7.742   2.627   0.929
 1647TIP3    H1 4882   7.743   2.711   0.882
 1647TIP3    H2 4883   7.649   2.607   0.939
 1648TIP3   OH2 4884   0.299   1.356   4.791
 1648TIP3    H1 4885   0.372   1.413   4.766
 1648TIP3    H2 4886   0.232   1.373   4.724
 1649TIP3   OH2 4887   4.750   7.731   6.413
 1649TIP3    H1 4888   4.679   7.789   6.438
 1649TIP3    H2 4889   4.762   7.672   6.488
 1650TIP3   OH2 4890   5.219   4.844   2.450
 1650TIP3    H1 4891   5.172   4.760   2.447
 1650TIP3    H2 4892   5.294   4.828   2.507
 1651TIP3   OH2 4893   7.195   4.404   0.373
 1651TIP3    H1 4894   7.156   4.419   0.287
 1651TIP3    H2 4895   7.231   4.315   0.368
 1652TIP3   OH2 4896   1.990   4.431   1.507
 1652TIP3    H1 4897   1.999   4.379   1.587
 1652TIP3    H2 4898   1.966   4.368   1.440
 1653TIP3   OH2 4899   3.180   5.982   6.597
 1653TIP3    H1 4900   3.257   5.939   6.562
 1653TIP3    H2 4901   3.211   6.066   6.630
 1654TIP3   OH2 4902   2.944   0.648   1.897
 1654TIP3    H1 4903   2.931   0.723   1.956
 1654TIP3    H2 4904   2.883   0.664   1.825
 1655TIP3   OH2 4905   2.339   0.681   5.187
 1655TIP3    H1 4906   2.271   0.727   5.139
 1655TIP3    H2 4907   2.414   0.681   5.127
 1656TIP3   OH2 4908   0.592   3.325   1.132
 1656TIP3    H1 4909   0.503   3.350   1.106
 1656TIP3    H2 4910   0.620   3.394   1.192
 1657TIP3   OH2 4911   2.628   6.781   1.342
 1657TIP3    H1 4912   2.651   6.786   1.435
 1657TIP3    H2 4913   2.689   6.718   1.305
 1658TIP3   OH2 4914   7.427   3.242   3.306
 1658TIP3    H1 4915   7.333   3.259   3.305
 1658TIP3    H2 4916   7.446   3.208   3.218
 1659TIP3   OH2 4917   4.110   5.211   4.952
 1659TIP3    H1 4918   4.053   5.273   4.907
 1659TIP3    H2 4919   4.090   5.127   4.911
 1660TIP3   OH2 4920   4.742   4.130   4.299
 1660TIP3    H1 4921   4.779   4.085   4.375
 1660TIP3    H2 4922   4.651   4.099   4.294
 1661TIP3   OH2 4923   5.624   3.924   6.759
 1661TIP3    H1 4924   5.716   3.903   6.771
 1661TIP3    H2 4925   5.618   3.958   6.670
 1662TIP3   OH2 4926   3.763   0.630   3.269
 1662TIP3    H1 4927   3.789   0.662   3.183
 1662TIP3    H2 4928   3.726   0.543   3.252
 1663TIP3   OH2 4929   0.356   0.638   4.613
 1663TIP3    H1 4930   0.367   0.683   4.529
 1663TIP3    H2 4931   0.286   0.685   4.657
 1664TIP3   OH2 4932   6.492   3.709   0.959
 1664TIP3    H1 4933   6.454   3.717   1.047
 1664TIP3    H2 4934   6.530   3.620   0.958
 1665TIP3   OH2 4935   7.485   7.124   1.248
 1665TIP3    H1 4936   7.535   7.205   1.239
 1665TIP3    H2 4937   7.443   7.113   1.163
 1666TIP3   OH2 4938   7.188   2.588   4.839
 1666TIP3    H1 4939   7.211   2.507   4.886
 1666TIP3    H2 4940   7.116   2.563   4.782
 1667TIP3   OH2 4941   2.866   4.433   5.026
 1667TIP3    H1 4942   2.857   4.364   4.961
 1667TIP3    H2 4943   2.867   4.514   4.976
 1668TIP3   OH2 4944   5.742   0.740   2.650
 1668TIP3    H1 4945   5.775   0.738   2.560
 1668TIP3    H2 4946   5.721   0.648   2.669
 1669TIP3   OH2 4947   6.327   3.053   5.798
 1669TIP3    H1 4948   6.365   2.966   5.808
 1669TIP3    H2 4949   6.354   3.099   5.878
 1670TIP3   OH2 4950   3.159   7.756   4.909
 1670TIP3    H1 4951   3.143   7.730   5.000
 1670TIP3    H2 4952   3.183   7.848   4.914
 1671TIP3   OH2 4953   3.624   2.281   3.471
 1671TIP3    H1 4954   3.625   2.370   3.506
 1671TIP3    H2 4955   3.638   2.225   3.548
 1672TIP3   OH2 4956   4.809   0.247   5.881
 1672TIP3    H1 4957   4.806   0.247   5.785
 1672TIP3    H2 4958   4.880   0.186   5.902
 1673TIP3   OH2 4959   7.821   1.161   1.332
 1673TIP3    H1 4960   7.752   1.140   1.395
 1673TIP3    H2 4961   7.775   1.171   1.248
 1674TIP3   OH2 4962   0.678   3.305   2.324
 1674TIP3    H1 4963   0.587   3.308   2.295
 1674TIP3    H2 4964   0.708   3.396   2.321
 1675TIP3   OH2 4965   6.617   5.968   6.366
 1675TIP3    H1 4966   6.554   5.909   6.408
 1675TIP3    H2 4967   6.619   5.940   6.275
 1676TIP3   OH2 4968   5.016   3.201   6.493
 1676TIP3    H1 4969   4.971   3.285   6.492
 1676TIP3    H2 4970   5.083   3.210   6.561
 1677TIP3   OH2 4971   3.454   5.104   6.817
 1677TIP3    H1 4972   3.482   5.032   6.760
 1677TIP3    H2 4973   3.463   5.183   6.764
 1678TIP3   OH2 4974   0.008   4.871   4.001
 1678TIP3    H1 4975   0.029   4.951   3.954
 1678TIP3    H2 4976   0.040   4.801   3.944
 1679TIP3   OH2 4977   3.300   5.354   2.830
 1679TIP3    H1 4978   3.272   5.405   2.906
 1679TIP3    H2 4979   3.326   5.269   2.867
 1680TIP3   OH2 4980   5.195   4.765   5.175
 1680TIP3    H1 4981   5.287   4.783   5.197
 1680TIP3    H2 4982   5.161   4.722   5.253
 1681TIP3   OH2 4983   3.150   3.394   3.688
 1681TIP3    H1 4984   3.070   3.376   3.638
 1681TIP3    H2 4985   3.166   3.314   3.737
 1682TIP3   OH2 4986   6.627   1.058   4.212
 1682TIP3    H1 4987   6.618   0.990   4.146
 1682TIP3    H2 4988   6.665   1.133   4.165
 1683TIP3   OH2 4989   0.170   3.108   6.020
 1683TIP3    H1 4990   0.202   3.134   6.106
 1683TIP3    H2 4991   0.223   3.158   5.958
 1684TIP3   OH2 4992   0.180   7.451   6.790
 1684TIP3    H1 4993   0.261   7.437   6.839
 1684TIP3    H2 4994   0.179   7.545   6.771
 1685TIP3   OH2 4995   5.208   1.976   1.830
 1685TIP3    H1 4996   5.156   1.898   1.807
 1685TIP3    H2 4997   5.143   2.045   1.839
 1686TIP3   OH2 4998   7.986   7.027   3.892
 1686TIP3    H1 4999   7.992   7.118   3.922
 1686TIP3    H2 5000   7.918   7.028   3.825
 1687TIP3   OH2 5001   0.819   3.030   6.004
 1687TIP3    H1 5002   0.786   2.982   6.080
 1687TIP3    H2 5003   0.852   3.112   6.041
 1688TIP3   OH2 5004   5.007   5.308   3.216
 1688TIP3    H1 5005   4.916   5.334   3.224
 1688TIP3    H2 5006   5.044   5.369   3.152
 1689TIP3   OH2 5007   2.812   7.229   0.926
 1689TIP3    H1 5008   2.881   7.225   0.993
 1689TIP3    H2 5009   2.761   7.149   0.940
 1690TIP3   OH2 5010   6.254   7.356   0.937
 1690TIP3    H1 5011   6.280   7.334   0.848
 1690TIP3    H2 5012   6.284   7.446   0.950
 1691TIP3   OH2 5013   6.627   6.940   6.586
 1691TIP3    H1 5014   6.570   6.904   6.518
 1691TIP3    H2 5015   6.574   6.938   6.665
 1692TIP3   OH2 5016   5.979   0.316   6.125
 1692TIP3    H1 5017   6.027   0.391   6.089
 1692TIP3    H2 5018   5.987   0.248   6.058
 1693TIP3   OH2 5019   2.628   4.417   2.521
 1693TIP3    H1 5020   2.635   4.457   2.607
 1693TIP3    H2 5021   2.546   4.451   2.485
 1694TIP3   OH2 5022   5.406   0.029   3.494
 1694TIP3    H1 5023   5.332   0.015   3.435
 1694TIP3    H2 5024   5.393   0.118   3.528
 1695TIP3   OH2 5025   1.528   1.095   3.814
 1695TIP3    H1 5026   1.514   1.068   3.724
 1695TIP3    H2 5027   1.501   1.187   3.816
 1696TIP3   OH2 5028   4.099   7.714   0.031
 1696TIP3    H1 5029   4.043   7.639   0.052
 1696TIP3    H2 5030   4.040   7.780  -0.004
 1697TIP3   OH2 5031   6.084   3.555   2.123
 1697TIP3    H1 5032   6.069   3.603   2.205
 1697TIP3    H2 5033   6.010   3.495   2.116
 1698TIP3   OH2 5034   4.805   5.592   2.109
 1698TIP3    H1 5035   4.827   5.678   2.145
 1698TIP3    H2 5036   4.718   5.572   2.144
 1699TIP3   OH2 5037   0.340   1.651   6.071
 1699TIP3    H1 5038   0.289   1.586   6.119
 1699TIP3    H2 5039   0.290   1.666   5.991
 1700TIP3   OH2 5040   2.424   7.508   4.064
 1700TIP3    H1 5041   2.334   7.488   4.092
 1700TIP3    H2 5042   2.446   7.439   4.002
 1701TIP3   OH2 5043   0.697   2.921   6.797
 1701TIP3    H1 5044   0.714   2.996   6.741
 1701TIP3    H2 5045   0.762   2.929   6.868
 1702TIP3   OH2 5046   4.005   4.937   1.778
 1702TIP3    H1 5047   4.048   4.912   1.696
 1702TIP3    H2 5048   4.067   4.913   1.846
 1703TIP3   OH2 5049   2.183   1.506   2.674
 1703TIP3    H1 5050   2.113   1.540   2.730
 1703TIP3    H2 5051   2.216   1.429   2.720
 1704TIP3   OH2 5052   0.871   0.217   3.987
 1704TIP3    H1 5053   0.781   0.192   4.008
 1704TIP3    H2 5054   0.873   0.219   3.891
 1705TIP3   OH2 5055   6.351   1.944   1.661
 1705TIP3    H1 5056   6.386   1.933   1.572
 1705TIP3    H2 5057   6.272   1.997   1.649
 1706TIP3   OH2 5058   6.651   7.352   4.851
 1706TIP3    H1 5059   6.597   7.414   4.898
 1706TIP3    H2 5060   6.716   7.323   4.915
 1707TIP3   OH2 5061   8.021   2.118   5.511
 1707TIP3    H1 5062   8.076   2.171   5.570
 1707TIP3    H2 5063   8.075   2.041   5.492
 1708TIP3   OH2 5064   4.494   1.558   4.399
 1708TIP3    H1 5065   4.487   1.649   4.429
 1708TIP3    H2 5066   4.410   1.540   4.357
 1709TIP3   OH2 5067   1.700   1.338   4.775
 1709TIP3    H1 5068   1.713   1.413   4.834
 1709TIP3    H2 5069   1.623   1.293   4.810
 1710TIP3   OH2 5070   0.217   3.669   5.665
 1710TIP3    H1 5071   0.139   3.690   5.613
 1710TIP3    H2 5072   0.282   3.733   5.637
 1711TIP3   OH2 5073   0.287   0.213   4.965
 1711TIP3    H1 5074   0.341   0.137   4.944
 1711TIP3    H2 5075   0.316   0.281   4.903
 1712TIP3   OH2 5076   7.299   2.474   0.124
 1712TIP3    H1 5077   7.217   2.521   0.139
 1712TIP3    H2 5078   7.356   2.538   0.081
 1713TIP3   OH2 5079   6.537   6.428   4.864
 1713TIP3    H1 5080   6.449   6.429   4.903
 1713TIP3    H2 5081   6.537   6.351   4.807
 1714TIP3   OH2 5082   3.903   4.019   3.880
 1714TIP3    H1 5083   3.823   4.070   3.870
 1714TIP3    H2 5084   3.891   3.943   3.823
 1715TIP3   OH2 5085   6.155   0.682   1.088
 1715TIP3    H1 5086   6.108   0.605   1.120
 1715TIP3    H2 5087   6.246   0.655   1.084
 1716TIP3   OH2 5088   7.612   0.161   6.159
 1716TIP3    H1 5089   7.542   0.166   6.094
 1716TIP3    H2 5090   7.656   0.078   6.142
 1717TIP3   OH2 5091   1.430   2.295   2.437
 1717TIP3    H1 5092   1.361   2.231   2.455
 1717TIP3    H2 5093   1.390   2.359   2.379
 1718TIP3   OH2 5094   5.403   5.948   5.226
 1718TIP3    H1 5095   5.343   6.016   5.195
 1718TIP3    H2 5096   5.378   5.870   5.176
 1719TIP3   OH2 5097   6.058   7.234   6.441
 1719TIP3    H1 5098   6.049   7.320   6.400
 1719TIP3    H2 5099   6.061   7.173   6.367
 1720TIP3   OH2 5100   5.256   5.317   2.603
 1720TIP3    H1 5101   5.284   5.274   2.684
 1720TIP3    H2 5102   5.177   5.269   2.577
 1721TIP3   OH2 5103   7.279   5.042   0.692
 1721TIP3    H1 5104   7.321   5.001   0.767
 1721TIP3    H2 5105   7.350   5.053   0.628
 1722TIP3   OH2 5106   6.941   4.604   3.432
 1722TIP3    H1 5107   6.913   4.695   3.443
 1722TIP3    H2 5108   7.036   4.608   3.428
 1723TIP3   OH2 5109   5.969   3.992   0.603
 1723TIP3    H1 5110   6.003   4.069   0.557
 1723TIP3    H2 5111   5.874   3.998   0.592
 1724TIP3   OH2 5112   6.607   7.328   3.411
 1724TIP3    H1 5113   6.586   7.420   3.427
 1724TIP3    H2 5114   6.693   7.330   3.369
 1725TIP3   OH2 5115   7.508   1.132   3.441
 1725TIP3    H1 5116   7.443   1.085   3.388
 1725TIP3    H2 5117   7.457   1.176   3.508
 1726TIP3   OH2 5118   1.837   3.106   0.575
 1726TIP3    H1 5119   1.778   3.091   0.649
 1726TIP3    H2 5120   1.925   3.093   0.612
 1727TIP3   OH2 5121   6.716   3.033   2.389
 1727TIP3    H1 5122   6.767   3.111   2.411
 1727TIP3    H2 5123   6.782   2.964   2.378
 1728TIP3   OH2 5124   6.021   2.335   2.421
 1728TIP3    H1 5125   5.973   2.324   2.503
 1728TIP3    H2 5126   5.962   2.299   2.354
 1729TIP3   OH2 5127   2.388   3.214   0.034
 1729TIP3    H1 5128   2.329   3.149  -0.004
 1729TIP3    H2 5129   2.474   3.192  -0.001
 1730TIP3   OH2 5130   1.552   2.753   3.369
 1730TIP3    H1 5131   1.500   2.703   3.432
 1730TIP3    H2 5132   1.548   2.843   3.401
 1731TIP3   OH2 5133   5.992   1.142   0.326
 1731TIP3    H1 5134   5.914   1.152   0.272
 1731TIP3    H2 5135   5.973   1.069   0.385
 1732TIP3   OH2 5136   5.189   0.626   4.618
 1732TIP3    H1 5137   5.272   0.664   4.590
 1732TIP3    H2 5138   5.208   0.589   4.705
 1733TIP3   OH2 5139   8.351   2.765   1.003
 1733TIP3    H1 5140   8.354   2.674   0.974
 1733TIP3    H2 5141   8.267   2.797   0.971
 1734TIP3   OH2 5142   4.385   0.463   3.197
 1734TIP3    H1 5143   4.344   0.392   3.246
 1734TIP3    H2 5144   4.388   0.431   3.107
 1735TIP3   OH2 5145   0.292   0.145   3.837
 1735TIP3    H1 5146   0.300   0.223   3.783
 1735TIP3    H2 5147   0.372   0.142   3.889
 1736TIP3   OH2 5148   5.982   1.418   5.386
 1736TIP3    H1 5149   6.068   1.379   5.372
 1736TIP3    H2 5150   5.920   1.348   5.366
 1737TIP3   OH2 5151   1.141   5.169   0.013
 1737TIP3    H1 5152   1.073   5.224   0.052
 1737TIP3    H2 5153   1.222   5.216   0.028
 1738TIP3   OH2 5154   4.791   7.045   5.457
 1738TIP3    H1 5155   4.833   6.960   5.472
 1738TIP3    H2 5156   4.773   7.046   5.363
 1739TIP3   OH2 5157   1.506   4.000   1.985
 1739TIP3    H1 5158   1.425   3.983   2.034
 1739TIP3    H2 5159   1.477   4.047   1.907
 1740TIP3   OH2 5160   2.892   6.692   4.777
 1740TIP3    H1 5161   2.953   6.642   4.723
 1740TIP3    H2 5162   2.905   6.783   4.751
 1741TIP3   OH2 5163   0.353   6.718   0.471
 1741TIP3    H1 5164   0.312   6.802   0.493
 1741TIP3    H2 5165   0.362   6.720   0.375
 1742TIP3   OH2 5166   5.997   1.478   1.648
 1742TIP3    H1 5167   5.978   1.416   1.577
 1742TIP3    H2 5168   6.027   1.557   1.604
 1743TIP3   OH2 5169   8.177   3.940   5.477
 1743TIP3    H1 5170   8.125   3.861   5.490
 1743TIP3    H2 5171   8.151   3.972   5.391
 1744TIP3   OH2 5172   3.671   1.952   6.558
 1744TIP3    H1 5173   3.718   1.954   6.475
 1744TIP3    H2 5174   3.585   1.916   6.536
 1745TIP3   OH2 5175   3.888   0.876   0.415
 1745TIP3    H1 5176   3.957   0.875   0.349
 1745TIP3    H2 5177   3.888   0.966   0.449
 1746TIP3   OH2 5178   1.493   0.419   4.251
 1746TIP3    H1 5179   1.409   0.386   4.285
 1746TIP3    H2 5180   1.478   0.428   4.157
 1747TIP3   OH2 5181   3.633   7.181   5.631
 1747TIP3    H1 5182   3.590   7.136   5.703
 1747TIP3    H2 5183   3.624   7.274   5.651
 1748TIP3   OH2 5184   5.278   4.232   6.804
 1748TIP3    H1 5185   5.347   4.198   6.860
 1748TIP3    H2 5186   5.294   4.327   6.801
 1749TIP3   OH2 5187   5.110   7.297   0.660
 1749TIP3    H1 5188   5.044   7.281   0.592
 1749TIP3    H2 5189   5.191   7.312   0.611
 1750TIP3   OH2 5190   6.142   7.118   1.028
 1750TIP3    H1 5191   6.053   7.148   1.046
 1750TIP3    H2 5192   6.189   7.196   1.000
 1751TIP3   OH2 5193   7.252   6.586   3.010
 1751TIP3    H1 5194   7.335   6.574   2.963
 1751TIP3    H2 5195   7.261   6.671   3.052
 1752TIP3   OH2 5196   4.540   7.242   4.932
 1752TIP3    H1 5197   4.531   7.150   4.909
 1752TIP3    H2 5198   4.452   7.271   4.954
 1753TIP3   OH2 5199   1.918   1.202   4.836
 1753TIP3    H1 5200   1.906   1.204   4.931
 1753TIP3    H2 5201   1.843   1.250   4.800
 1754TIP3   OH2 5202   1.658   3.216   2.442
 1754TIP3    H1 5203   1.602   3.225   2.519
 1754TIP3    H2 5204   1.734   3.270   2.461
 1755TIP3   OH2 5205   7.946   0.092   5.280
 1755TIP3    H1 5206   8.023   0.144   5.303
 1755TIP3    H2 5207   7.944   0.094   5.184
 1756TIP3   OH2 5208   3.575   4.755   6.194
 1756TIP3    H1 5209   3.605   4.808   6.121
 1756TIP3    H2 5210   3.551   4.671   6.155
 1757TIP3   OH2 5211   7.856   4.408   2.424
 1757TIP3    H1 5212   7.787   4.456   2.379
 1757TIP3    H2 5213   7.846   4.432   2.516
 1758TIP3   OH2 5214   4.326   2.524   1.697
 1758TIP3    H1 5215   4.334   2.435   1.664
 1758TIP3    H2 5216   4.407   2.540   1.745
 1759TIP3   OH2 5217   0.863   4.541   5.789
 1759TIP3    H1 5218   0.801   4.606   5.824
 1759TIP3    H2 5219   0.810   4.463   5.775
 1760TIP3   OH2 5220   2.695   0.821   1.382
 1760TIP3    H1 5221   2.722   0.734   1.412
 1760TIP3    H2 5222   2.777   0.865   1.358
 1761TIP3   OH2 5223   2.369   5.740   3.754
 1761TIP3    H1 5224   2.296   5.728   3.692
 1761TIP3    H2 5225   2.445   5.759   3.699
 1762TIP3   OH2 5226   2.473   0.617   4.895
 1762TIP3    H1 5227   2.441   0.707   4.884
 1762TIP3    H2 5228   2.447   0.571   4.816
 1763TIP3   OH2 5229   6.325   7.100   0.398
 1763TIP3    H1 5230   6.261   7.037   0.433
 1763TIP3    H2 5231   6.290   7.124   0.312
 1764TIP3   OH2 5232   0.613   4.860   3.191
 1764TIP3    H1 5233   0.672   4.880   3.264
 1764TIP3    H2 5234   0.526   4.874   3.227
 1765TIP3   OH2 5235   6.691   7.017   2.767
 1765TIP3    H1 5236   6.717   7.034   2.857
 1765TIP3    H2 5237   6.748   6.946   2.738
 1766TIP3   OH2 5238   1.868   4.114   4.931
 1766TIP3    H1 5239   1.819   4.050   4.982
 1766TIP3    H2 5240   1.954   4.116   4.973
 1767TIP3   OH2 5241   4.459   5.107   1.529
 1767TIP3    H1 5242   4.520   5.072   1.463
 1767TIP3    H2 5243   4.372   5.085   1.495
 1768TIP3   OH2 5244   3.225   1.609   0.707
 1768TIP3    H1 5245   3.165   1.649   0.769
 1768TIP3    H2 5246   3.168   1.563   0.644
 1769TIP3   OH2 5247   8.340   6.283   4.261
 1769TIP3    H1 5248   8.326   6.249   4.349
 1769TIP3    H2 5249   8.393   6.216   4.217
 1770TIP3   OH2 5250   3.984   5.781   5.644
 1770TIP3    H1 5251   3.922   5.738   5.703
 1770TIP3    H2 5252   3.995   5.719   5.572
 1771TIP3   OH2 5253   3.734   3.961   0.770
 1771TIP3    H1 5254   3.794   3.893   0.801
 1771TIP3    H2 5255   3.648   3.936   0.804
 1772TIP3   OH2 5256   3.540   6.101   1.727
 1772TIP3    H1 5257   3.564   6.174   1.669
 1772TIP3    H2 5258   3.504   6.144   1.805
 1773TIP3   OH2 5259   2.387   4.529   1.527
 1773TIP3    H1 5260   2.365   4.591   1.597
 1773TIP3    H2 5261   2.371   4.443   1.565
 1774TIP3   OH2 5262   6.510   0.592   5.248
 1774TIP3    H1 5263   6.605   0.589   5.233
 1774TIP3    H2 5264   6.478   0.513   5.204
 1775TIP3   OH2 5265   6.068   6.997   3.805
 1775TIP3    H1 5266   6.113   6.913   3.820
 1775TIP3    H2 5267   6.124   7.043   3.742
 1776TIP3   OH2 5268   6.707   0.185   1.227
 1776TIP3    H1 5269   6.763   0.121   1.182
 1776TIP3    H2 5270   6.747   0.270   1.208
 1777TIP3   OH2 5271   1.191   7.126   3.809
 1777TIP3    H1 5272   1.150   7.212   3.794
 1777TIP3    H2 5273   1.141   7.066   3.754
 1778TIP3   OH2 5274   4.395   6.277   0.617
 1778TIP3    H1 5275   4.369   6.224   0.693
 1778TIP3    H2 5276   4.441   6.352   0.654
 1779TIP3   OH2 5277   1.082   6.327   2.237
 1779TIP3    H1 5278   1.018   6.392   2.266
 1779TIP3    H2 5279   1.166   6.372   2.244
 1780TIP3   OH2 5280   3.840   4.680   2.009
 1780TIP3    H1 5281   3.920   4.727   2.032
 1780TIP3    H2 5282   3.819   4.711   1.921
 1781TIP3   OH2 5283   3.225   7.333   4.618
 1781TIP3    H1 5284   3.254   7.393   4.687
 1781TIP3    H2 5285   3.246   7.246   4.651
 1782TIP3   OH2 5286   4.686   0.959   4.814
 1782TIP3    H1 5287   4.724   1.033   4.768
 1782TIP3    H2 5288   4.614   0.996   4.864
 1783TIP3   OH2 5289   2.389   6.829   0.555
 1783TIP3    H1 5290   2.470   6.845   0.507
 1783TIP3    H2 5291   2.324   6.883   0.511
 1784TIP3   OH2 5292   6.183   6.090   4.269
 1784TIP3    H1 5293   6.126   6.157   4.305
 1784TIP3    H2 5294   6.270   6.112   4.301
 1785TIP3   OH2 5295   0.715   4.695   2.707
 1785TIP3    H1 5296   0.722   4.786   2.678
 1785TIP3    H2 5297   0.805   4.670   2.729
 1786TIP3   OH2 5298   6.071   3.211   1.403
 1786TIP3    H1 5299   6.090   3.180   1.315
 1786TIP3    H2 5300   6.128   3.160   1.460
 1787TIP3   OH2 5301   3.880   6.148   6.532
 1787TIP3    H1 5302   3.824   6.202   6.588
 1787TIP3    H2 5303   3.830   6.140   6.450
 1788TIP3   OH2 5304   1.547   3.416   6.355
 1788TIP3    H1 5305   1.580   3.506   6.367
 1788TIP3    H2 5306   1.576   3.392   6.267
 1789TIP3   OH2 5307   5.854   4.585   5.187
 1789TIP3    H1 5308   5.901   4.596   5.104
 1789TIP3    H2 5309   5.761   4.587   5.162
 1790TIP3   OH2 5310   3.092   4.741   2.165
 1790TIP3    H1 5311   3.014   4.778   2.208
 1790TIP3    H2 5312   3.076   4.755   2.072
 1791TIP3   OH2 5313   3.579   4.155   0.534
 1791TIP3    H1 5314   3.551   4.084   0.476
 1791TIP3    H2 5315   3.675   4.154   0.529
 1792TIP3   OH2 5316   6.589   3.913   3.829
 1792TIP3    H1 5317   6.673   3.956   3.815
 1792TIP3    H2 5318   6.594   3.831   3.779
 1793TIP3   OH2 5319   7.487   7.551   0.036
 1793TIP3    H1 5320   7.402   7.516   0.010
 1793TIP3    H2 5321   7.505   7.621  -0.027
 1794TIP3   OH2 5322   3.799   3.603   0.101
 1794TIP3    H1 5323   3.798   3.662   0.177
 1794TIP3    H2 5324   3.886   3.616   0.062
 1795TIP3   OH2 5325   3.324   7.332   1.618
 1795TIP3    H1 5326   3.247   7.388   1.631
 1795TIP3    H2 5327   3.287   7.246   1.600
 1796TIP3   OH2 5328   1.268   1.919   2.083
 1796TIP3    H1 5329   1.239   1.983   2.148
 1796TIP3    H2 5330   1.190   1.869   2.061
 1797TIP3   OH2 5331   5.125   1.120   2.380
 1797TIP3    H1 5332   5.189   1.070   2.329
 1797TIP3    H2 5333   5.040   1.081   2.357
 1798TIP3   OH2 5334   4.982   3.756   2.974
 1798TIP3    H1 5335   5.048   3.826   2.979
 1798TIP3    H2 5336   4.898   3.803   2.970
 1799TIP3   OH2 5337   1.103   6.970   3.370
 1799TIP3    H1 5338   1.131   6.904   3.307
 1799TIP3    H2 5339   1.090   7.049   3.319
 1800TIP3   OH2 5340   6.128   4.089   2.987
 1800TIP3    H1 5341   6.033   4.087   2.973
 1800TIP3    H2 5342   6.146   4.012   3.041
 1801TIP3   OH2 5343   0.692   0.284   6.654
 1801TIP3    H1 5344   0.741   0.251   6.579
 1801TIP3    H2 5345   0.759   0.315   6.715
 1802TIP3   OH2 5346   5.143   3.154   5.109
 1802TIP3    H1 5347   5.121   3.224   5.172
 1802TIP3    H2 5348   5.070   3.093   5.116
 1803TIP3   OH2 5349   5.551   3.353   4.812
 1803TIP3    H1 5350   5.479   3.291   4.821
 1803TIP3    H2 5351   5.509   3.437   4.795
 1804TIP3   OH2 5352   0.400   1.751   3.577
 1804TIP3    H1 5353   0.469   1.752   3.643
 1804TIP3    H2 5354   0.322   1.782   3.624
 1805TIP3   OH2 5355   2.503   3.190   5.322
 1805TIP3    H1 5356   2.543   3.277   5.328
 1805TIP3    H2 5357   2.444   3.196   5.246
 1806TIP3   OH2 5358   5.043   4.721   3.719
 1806TIP3    H1 5359   4.998   4.793   3.674
 1806TIP3    H2 5360   5.013   4.728   3.810
 1807TIP3   OH2 5361   2.626   7.773   1.735
 1807TIP3    H1 5362   2.565   7.749   1.804
 1807TIP3    H2 5363   2.683   7.698   1.725
 1808TIP3   OH2 5364   7.966   3.188   5.093
 1808TIP3    H1 5365   7.947   3.149   5.178
 1808TIP3    H2 5366   8.047   3.237   5.106
 1809TIP3   OH2 5367   5.117   6.485   1.837
 1809TIP3    H1 5368   5.063   6.505   1.913
 1809TIP3    H2 5369   5.054   6.473   1.766
 1810TIP3   OH2 5370   6.008   7.821   6.399
 1810TIP3    H1 5371   6.023   7.894   6.339
 1810TIP3    H2 5372   5.970   7.752   6.344
 1811TIP3   OH2 5373   6.076   1.602   6.561
 1811TIP3    H1 5374   5.991   1.559   6.571
 1811TIP3    H2 5375   6.081   1.662   6.636
 1812TIP3   OH2 5376   1.905   2.201   3.093
 1812TIP3    H1 5377   1.890   2.182   3.186
 1812TIP3    H2 5378   1.902   2.297   3.088
 1813TIP3   OH2 5379   0.441   4.456   0.670
 1813TIP3    H1 5380   0.477   4.392   0.731
 1813TIP3    H2 5381   0.511   4.471   0.607
 1814TIP3   OH2 5382   1.257   3.904   6.306
 1814TIP3    H1 5383   1.302   3.988   6.311
 1814TIP3    H2 5384   1.276   3.872   6.217
 1815TIP3   OH2 5385   3.677   0.432   6.253
 1815TIP3    H1 5386   3.669   0.486   6.174
 1815TIP3    H2 5387   3.759   0.460   6.292
 1816TIP3   OH2 5388   7.035   1.040   2.071
 1816TIP3    H1 5389   7.041   0.945   2.084
 1816TIP3    H2 5390   6.944   1.054   2.044
 1817TIP3   OH2 5391   0.915   7.414   6.495
 1817TIP3    H1 5392   0.830   7.400   6.451
 1817TIP3    H2 5393   0.979   7.405   6.425
 1818TIP3   OH2 5394   0.361   7.832   3.445
 1818TIP3    H1 5395   0.366   7.900   3.378
 1818TIP3    H2 5396   0.291   7.861   3.503
 1819TIP3   OH2 5397   3.458   6.640   4.164
 1819TIP3    H1 5398   3.428   6.649   4.074
 1819TIP3    H2 5399   3.443   6.725   4.204
 1820TIP3   OH2 5400   3.401   6.484   0.392
 1820TIP3    H1 5401   3.427   6.568   0.430
 1820TIP3    H2 5402   3.413   6.421   0.463
 1821TIP3   OH2 5403   1.905   6.746   0.041
 1821TIP3    H1 5404   1.953   6.668   0.069
 1821TIP3    H2 5405   1.962   6.819   0.065
 1822TIP3   OH2 5406   6.440   3.999   4.094
 1822TIP3    H1 5407   6.517   3.978   4.041
 1822TIP3    H2 5408   6.372   4.022   4.031
 1823TIP3   OH2 5409   2.736   5.236   2.592
 1823TIP3    H1 5410   2.697   5.188   2.520
 1823TIP3    H2 5411   2.807   5.181   2.623
 1824TIP3   OH2 5412   5.689   6.000   5.133
 1824TIP3    H1 5413   5.608   5.979   5.180
 1824TIP3    H2 5414   5.744   5.923   5.145
 1825TIP3   OH2 5415   7.332   5.007   1.482
 1825TIP3    H1 5416   7.275   4.931   1.471
 1825TIP3    H2 5417   7.278   5.082   1.458
 1826TIP3   OH2 5418   2.877   2.494   5.214
 1826TIP3    H1 5419   2.803   2.454   5.170
 1826TIP3    H2 5420   2.909   2.560   5.152
 1827TIP3   OH2 5421   2.612   3.469   6.798
 1827TIP3    H1 5422   2.589   3.552   6.756
 1827TIP3    H2 5423   2.623   3.491   6.891
 1828TIP3   OH2 5424   1.927   1.229   3.607
 1828TIP3    H1 5425   2.018   1.210   3.630
 1828TIP3    H2 5426   1.890   1.269   3.686
 1829TIP3   OH2 5427   1.974   4.316   6.706
 1829TIP3    H1 5428   2.043   4.266   6.751
 1829TIP3    H2 5429   2.022   4.379   6.652
 1830TIP3   OH2 5430   6.110   2.921   6.422
 1830TIP3    H1 5431   6.139   2.875   6.500
 1830TIP3    H2 5432   6.190   2.934   6.371
 1831TIP3   OH2 5433   4.755   7.717   1.962
 1831TIP3    H1 5434   4.751   7.670   1.879
 1831TIP3    H2 5435   4.671   7.764   1.968
 1832TIP3   OH2 5436   4.158   2.686   0.896
 1832TIP3    H1 5437   4.207   2.622   0.947
 1832TIP3    H2 5438   4.091   2.718   0.957
 1833TIP3   OH2 5439   2.742   4.503   3.040
 1833TIP3    H1 5440   2.820   4.515   3.093
 1833TIP3    H2 5441   2.691   4.437   3.086
 1834TIP3   OH2 5442   3.706   4.452   6.472
 1834TIP3    H1 5443   3.798   4.477   6.473
 1834TIP3    H2 5444   3.704   4.363   6.506
 1835TIP3   OH2 5445   1.512   0.365   5.556
 1835TIP3    H1 5446   1.447   0.419   5.600
 1835TIP3    H2 5447   1.595   0.389   5.598
 1836TIP3   OH2 5448   8.380   6.640   1.919
 1836TIP3    H1 5449   8.383   6.584   1.842
 1836TIP3    H2 5450   8.463   6.688   1.917
 1837TIP3   OH2 5451   8.373   3.501   6.550
 1837TIP3    H1 5452   8.304   3.525   6.488
 1837TIP3    H2 5453   8.452   3.544   6.517
 1838TIP3   OH2 5454   6.373   6.040   3.873
 1838TIP3    H1 5455   6.443   6.003   3.818
 1838TIP3    H2 5456   6.368   6.132   3.847
 1839TIP3   OH2 5457   3.993   3.909   3.476
 1839TIP3    H1 5458   4.005   3.995   3.515
 1839TIP3    H2 5459   4.078   3.887   3.438
 1840TIP3   OH2 5460   2.927   2.516   1.783
 1840TIP3    H1 5461   2.855   2.466   1.744
 1840TIP3    H2 5462   2.968   2.454   1.844
 1841TIP3   OH2 5463   7.003   4.188   5.035
 1841TIP3    H1 5464   6.928   4.196   5.094
 1841TIP3    H2 5465   7.000   4.098   5.003
 1842TIP3   OH2 5466   4.280   3.469   1.369
 1842TIP3    H1 5467   4.279   3.498   1.460
 1842TIP3    H2 5468   4.284   3.550   1.318
 1843TIP3   OH2 5469   0.728   0.936   3.619
 1843TIP3    H1 5470   0.755   1.023   3.590
 1843TIP3    H2 5471   0.642   0.924   3.578
 1844TIP3   OH2 5472   7.486   2.232   0.441
 1844TIP3    H1 5473   7.410   2.224   0.383
 1844TIP3    H2 5474   7.502   2.143   0.472
 1845TIP3   OH2 5475   3.509   6.420   1.388
 1845TIP3    H1 5476   3.573   6.359   1.425
 1845TIP3    H2 5477   3.454   6.366   1.331
 1846TIP3   OH2 5478   7.767   5.590   6.816
 1846TIP3    H1 5479   7.824   5.642   6.760
 1846TIP3    H2 5480   7.815   5.508   6.829
 1847TIP3   OH2 5481   3.503   0.940   2.933
 1847TIP3    H1 5482   3.562   0.876   2.894
 1847TIP3    H2 5483   3.499   1.012   2.869
 1848TIP3   OH2 5484   8.361   5.837   2.615
 1848TIP3    H1 5485   8.270   5.836   2.585
 1848TIP3    H2 5486   8.397   5.754   2.584
 1849TIP3   OH2 5487   2.624   2.052   1.785
 1849TIP3    H1 5488   2.635   2.144   1.764
 1849TIP3    H2 5489   2.637   2.006   1.703
 1850TIP3   OH2 5490   5.527   0.150   2.462
 1850TIP3    H1 5491   5.566   0.145   2.549
 1850TIP3    H2 5492   5.506   0.059   2.440
 1851TIP3   OH2 5493   4.045   2.224   2.205
 1851TIP3    H1 5494   4.075   2.155   2.145
 1851TIP3    H2 5495   3.975   2.183   2.256
 1852TIP3   OH2 5496   1.865   7.905   6.154
 1852TIP3    H1 5497   1.818   7.942   6.080
 1852TIP3    H2 5498   1.812   7.829   6.181
 1853TIP3   OH2 5499   6.948   6.588   2.952
 1853TIP3    H1 5500   6.943   6.683   2.962
 1853TIP3    H2 5501   7.037   6.565   2.978
 1854TIP3   OH2 5502   3.186   6.628   6.735
 1854TIP3    H1 5503   3.197   6.580   6.653
 1854TIP3    H2 5504   3.132   6.703   6.713
 1855TIP3   OH2 5505   5.018   3.756   3.363
 1855TIP3    H1 5506   4.985   3.672   3.330
 1855TIP3    H2 5507   5.099   3.770   3.314
 1856TIP3   OH2 5508   8.215   0.602   1.955
 1856TIP3    H1 5509   8.254   0.679   1.998
 1856TIP3    H2 5510   8.199   0.631   1.866
 1857TIP3   OH2 5511   8.365   5.577   4.648
 1857TIP3    H1 5512   8.283   5.598   4.694
 1857TIP3    H2 5513   8.423   5.651   4.668
 1858TIP3   OH2 5514   1.129   6.711   4.565
 1858TIP3    H1 5515   1.037   6.733   4.577
 1858TIP3    H2 5516   1.139   6.626   4.606
 1859TIP3   OH2 5517   2.266   4.567   0.369
 1859TIP3    H1 5518   2.248   4.511   0.293
 1859TIP3    H2 5519   2.179   4.588   0.404
 1860TIP3   OH2 5520   8.191   5.597   3.607
 1860TIP3    H1 5521   8.163   5.517   3.563
 1860TIP3    H2 5522   8.151   5.592   3.694
 1861TIP3   OH2 5523   0.817   7.475   1.799
 1861TIP3    H1 5524   0.797   7.395   1.847
 1861TIP3    H2 5525   0.753   7.476   1.728
 1862TIP3   OH2 5526   4.016   5.305   5.420
 1862TIP3    H1 5527   4.096   5.346   5.386
 1862TIP3    H2 5528   4.005   5.343   5.507
 1863TIP3   OH2 5529   3.500   5.253   0.798
 1863TIP3    H1 5530   3.448   5.261   0.718
 1863TIP3    H2 5531   3.498   5.160   0.819
 1864TIP3   OH2 5532   0.383   6.411   5.459
 1864TIP3    H1 5533   0.440   6.410   5.536
 1864TIP3    H2 5534   0.295   6.421   5.495
 1865TIP3   OH2 5535   4.877   2.817   4.212
 1865TIP3    H1 5536   4.843   2.831   4.124
 1865TIP3    H2 5537   4.892   2.722   4.218
 1866TIP3   OH2 5538   5.467   0.809   0.142
 1866TIP3    H1 5539   5.414   0.735   0.171
 1866TIP3    H2 5540   5.524   0.828   0.217
 1867TIP3   OH2 5541   7.526   2.668   4.906
 1867TIP3    H1 5542   7.474   2.748   4.900
 1867TIP3    H2 5543   7.498   2.628   4.988
 1868TIP3   OH2 5544   7.427   0.842   0.422
 1868TIP3    H1 5545   7.390   0.831   0.510
 1868TIP3    H2 5546   7.479   0.762   0.409
 1869TIP3   OH2 5547   6.498   6.532   5.318
 1869TIP3    H1 5548   6.504   6.627   5.328
 1869TIP3    H2 5549   6.408   6.518   5.287
 1870TIP3   OH2 5550   1.976   2.559   0.211
 1870TIP3    H1 5551   2.025   2.506   0.149
 1870TIP3    H2 5552   1.963   2.643   0.167
 1871TIP3   OH2 5553   1.532   7.588   3.957
 1871TIP3    H1 5554   1.565   7.518   4.012
 1871TIP3    H2 5555   1.470   7.545   3.898
 1872TIP3   OH2 5556   2.142   7.625   4.899
 1872TIP3    H1 5557   2.056   7.602   4.934
 1872TIP3    H2 5558   2.167   7.704   4.947
 1873TIP3   OH2 5559   1.121   1.711   1.935
 1873TIP3    H1 5560   1.149   1.620   1.931
 1873TIP3    H2 5561   1.176   1.756   1.871
 1874TIP3   OH2 5562   1.399   7.788   2.845
 1874TIP3    H1 5563   1.322   7.827   2.805
 1874TIP3    H2 5564   1.473   7.837   2.809
 1875TIP3   OH2 5565   2.339   5.376   3.782
 1875TIP3    H1 5566   2.378   5.384   3.695
 1875TIP3    H2 5567   2.262   5.321   3.769
 1876TIP3   OH2 5568   5.357   4.906   3.066
 1876TIP3    H1 5569   5.355   4.972   3.135
 1876TIP3    H2 5570   5.266   4.876   3.059
 1877TIP3   OH2 5571   7.742   5.381   5.619
 1877TIP3    H1 5572   7.687   5.411   5.692
 1877TIP3    H2 5573   7.791   5.458   5.592
 1878TIP3   OH2 5574   7.902   6.822   5.665
 1878TIP3    H1 5575   7.920   6.852   5.754
 1878TIP3    H2 5576   7.863   6.898   5.622
 1879TIP3   OH2 5577   4.253   7.671   1.269
 1879TIP3    H1 5578   4.332   7.622   1.292
 1879TIP3    H2 5579   4.202   7.674   1.350
 1880TIP3   OH2 5580   7.190   2.210   2.455
 1880TIP3    H1 5581   7.272   2.253   2.429
 1880TIP3    H2 5582   7.211   2.117   2.454
 1881TIP3   OH2 5583   8.087   6.232   5.087
 1881TIP3    H1 5584   7.995   6.210   5.078
 1881TIP3    H2 5585   8.091   6.327   5.075
 1882TIP3   OH2 5586   3.828   4.664   6.721
 1882TIP3    H1 5587   3.754   4.724   6.728
 1882TIP3    H2 5588   3.896   4.704   6.774
 1883TIP3   OH2 5589   2.860   1.161   0.321
 1883TIP3    H1 5590   2.860   1.066   0.335
 1883TIP3    H2 5591   2.814   1.196   0.397
 1884TIP3   OH2 5592   5.824   6.491   0.502
 1884TIP3    H1 5593   5.812   6.524   0.591
 1884TIP3    H2 5594   5.735   6.475   0.470
 1885TIP3   OH2 5595   5.446   0.601   2.671
 1885TIP3    H1 5596   5.525   0.546   2.662
 1885TIP3    H2 5597   5.472   0.686   2.634
 1886TIP3   OH2 5598   0.655   5.689   4.571
 1886TIP3    H1 5599   0.736   5.649   4.602
 1886TIP3    H2 5600   0.598   5.615   4.549
 1887TIP3   OH2 5601   7.292   6.725   0.041
 1887TIP3    H1 5602   7.299   6.761  -0.048
 1887TIP3    H2 5603   7.339   6.788   0.096
 1888TIP3   OH2 5604   0.532   0.880   1.470
 1888TIP3    H1 5605   0.543   0.944   1.400
 1888TIP3    H2 5606   0.520   0.797   1.424
 1889TIP3   OH2 5607   6.776   4.546   3.872
 1889TIP3    H1 5608   6.773   4.500   3.956
 1889TIP3    H2 5609   6.703   4.510   3.822
 1890TIP3   OH2 5610   5.176   2.962   5.382
 1890TIP3    H1 5611   5.099   2.983   5.330
 1890TIP3    H2 5612   5.227   2.903   5.327
 1891TIP3   OH2 5613   5.485   2.676   1.702
 1891TIP3    H1 5614   5.537   2.630   1.768
 1891TIP3    H2 5615   5.542   2.678   1.625
 1892TIP3   OH2 5616   1.881   1.007   6.373
 1892TIP3    H1 5617   1.955   1.053   6.413
 1892TIP3    H2 5618   1.916   0.972   6.291
 1893TIP3   OH2 5619   3.471   6.640   1.502
 1893TIP3    H1 5620   3.554   6.682   1.477
 1893TIP3    H2 5621   3.475   6.554   1.459
 1894TIP3   OH2 5622   4.847   7.684   4.610
 1894TIP3    H1 5623   4.854   7.707   4.517
 1894TIP3    H2 5624   4.763   7.722   4.637
 1895TIP3   OH2 5625   2.729   6.341   4.524
 1895TIP3    H1 5626   2.669   6.302   4.461
 1895TIP3    H2 5627   2.771   6.266   4.566
 1896TIP3   OH2 5628   0.750   5.728   1.915
 1896TIP3    H1 5629   0.766   5.782   1.838
 1896TIP3    H2 5630   0.749   5.791   1.988
 1897TIP3   OH2 5631   6.340   0.435   4.101
 1897TIP3    H1 5632   6.427   0.405   4.129
 1897TIP3    H2 5633   6.304   0.361   4.051
 1898TIP3   OH2 5634   3.057   0.653   0.258
 1898TIP3    H1 5635   3.092   0.728   0.306
 1898TIP3    H2 5636   3.127   0.628   0.197
 1899TIP3   OH2 5637   6.831   2.631   3.272
 1899TIP3    H1 5638   6.887   2.707   3.256
 1899TIP3    H2 5639   6.748   2.654   3.231
 1900TIP3   OH2 5640   1.160   4.958   5.923
 1900TIP3    H1 5641   1.104   5.036   5.921
 1900TIP3    H2 5642   1.237   4.982   5.870
 1901TIP3   OH2 5643   4.078   5.370   4.158
 1901TIP3    H1 5644   4.156   5.425   4.152
 1901TIP3    H2 5645   4.010   5.419   4.112
 1902TIP3   OH2 5646   0.054   5.340   5.040
 1902TIP3    H1 5647   0.034   5.433   5.033
 1902TIP3    H2 5648   0.138   5.330   4.996
 1903TIP3   OH2 5649   7.612   6.929   4.348
 1903TIP3    H1 5650   7.582   6.995   4.285
 1903TIP3    H2 5651   7.589   6.966   4.434
 1904TIP3   OH2 5652   1.714   5.816   2.746
 1904TIP3    H1 5653   1.678   5.739   2.789
 1904TIP3    H2 5654   1.667   5.890   2.784
 1905TIP3   OH2 5655   3.946   7.230   1.479
 1905TIP3    H1 5656   3.923   7.149   1.524
 1905TIP3    H2 5657   3.882   7.238   1.409
 1906TIP3   OH2 5658   7.157   0.759   2.081
 1906TIP3    H1 5659   7.233   0.706   2.106
 1906TIP3    H2 5660   7.194   0.830   2.029
 1907TIP3   OH2 5661   7.410   4.748   1.815
 1907TIP3    H1 5662   7.491   4.793   1.794
 1907TIP3    H2 5663   7.396   4.765   1.908
 1908TIP3   OH2 5664   6.781   2.678   5.374
 1908TIP3    H1 5665   6.805   2.770   5.364
 1908TIP3    H2 5666   6.825   2.652   5.455
 1909TIP3   OH2 5667   4.459   2.451   5.888
 1909TIP3    H1 5668   4.412   2.408   5.958
 1909TIP3    H2 5669   4.541   2.480   5.928
 1910TIP3   OH2 5670   4.584   3.485   4.478
 1910TIP3    H1 5671   4.607   3.479   4.386
 1910TIP3    H2 5672   4.507   3.429   4.488
 1911TIP3   OH2 5673   5.482   4.942   0.214
 1911TIP3    H1 5674   5.396   4.976   0.238
 1911TIP3    H2 5675   5.540   4.973   0.283
 1912TIP3   OH2 5676   4.040   1.694   5.348
 1912TIP3    H1 5677   3.985   1.735   5.281
 1912TIP3    H2 5678   4.087   1.624   5.302
 1913TIP3   OH2 5679   5.716   4.197   2.149
 1913TIP3    H1 5680   5.789   4.244   2.109
 1913TIP3    H2 5681   5.708   4.116   2.098
 1914TIP3   OH2 5682   3.766   7.608   6.775
 1914TIP3    H1 5683   3.778   7.611   6.870
 1914TIP3    H2 5684   3.672   7.627   6.763
 1915TIP3   OH2 5685   3.809   3.001   4.218
 1915TIP3    H1 5686   3.721   3.036   4.205
 1915TIP3    H2 5687   3.795   2.912   4.251
 1916TIP3   OH2 5688   7.430   0.287   0.725
 1916TIP3    H1 5689   7.409   0.302   0.817
 1916TIP3    H2 5690   7.385   0.357   0.678
 1917TIP3   OH2 5691   3.156   7.486   3.549
 1917TIP3    H1 5692   3.108   7.481   3.466
 1917TIP3    H2 5693   3.238   7.530   3.526
 1918TIP3   OH2 5694   7.974   3.788   3.252
 1918TIP3    H1 5695   8.051   3.770   3.306
 1918TIP3    H2 5696   8.008   3.800   3.164
 1919TIP3   OH2 5697   8.071   4.755   2.079
 1919TIP3    H1 5698   7.986   4.735   2.039
 1919TIP3    H2 5699   8.120   4.800   2.011
 1920TIP3   OH2 5700   0.506   6.578   1.659
 1920TIP3    H1 5701   0.548   6.645   1.713
 1920TIP3    H2 5702   0.520   6.496   1.707
 1921TIP3   OH2 5703   6.487   0.976   3.918
 1921TIP3    H1 5704   6.509   1.066   3.945
 1921TIP3    H2 5705   6.411   0.953   3.972
 1922TIP3   OH2 5706   7.092   4.906   5.271
 1922TIP3    H1 5707   7.155   4.882   5.339
 1922TIP3    H2 5708   7.021   4.949   5.319
 1923TIP3   OH2 5709   1.238   6.530   0.030
 1923TIP3    H1 5710   1.203   6.616   0.052
 1923TIP3    H2 5711   1.211   6.517  -0.061
 1924TIP3   OH2 5712   6.721   2.992   3.197
 1924TIP3    H1 5713   6.633   3.027   3.212
 1924TIP3    H2 5714   6.720   2.967   3.104
 1925TIP3   OH2 5715   5.960   1.783   3.108
 1925TIP3    H1 5716   5.880   1.730   3.117
 1925TIP3    H2 5717   6.026   1.736   3.159
 1926TIP3   OH2 5718   4.626   5.640   4.832
 1926TIP3    H1 5719   4.574   5.562   4.816
 1926TIP3    H2 5720   4.716   5.613   4.815
 1927TIP3   OH2 5721   4.069   1.230   0.063
 1927TIP3    H1 5722   4.048   1.249  -0.028
 1927TIP3    H2 5723   4.164   1.224   0.065
 1928TIP3   OH2 5724   5.935   4.347   2.075
 1928TIP3    H1 5725   5.977   4.432   2.090
 1928TIP3    H2 5726   6.001   4.296   2.027
 1929TIP3   OH2 5727   6.812   7.875   0.603
 1929TIP3    H1 5728   6.795   7.936   0.675
 1929TIP3    H2 5729   6.726   7.838   0.582
 1930TIP3   OH2 5730   3.297   1.070   0.483
 1930TIP3    H1 5731   3.280   1.125   0.406
 1930TIP3    H2 5732   3.385   1.095   0.511
 1931TIP3   OH2 5733   4.961   3.385   1.796
 1931TIP3    H1 5734   4.879   3.346   1.825
 1931TIP3    H2 5735   4.950   3.478   1.812
 1932TIP3   OH2 5736   7.411   4.227   3.711
 1932TIP3    H1 5737   7.322   4.223   3.675
 1932TIP3    H2 5738   7.412   4.160   3.779
 1933TIP3   OH2 5739   2.001   2.727   3.545
 1933TIP3    H1 5740   2.014   2.669   3.470
 1933TIP3    H2 5741   1.940   2.680   3.602
 1934TIP3   OH2 5742   1.644   3.041   6.089
 1934TIP3    H1 5743   1.639   2.984   6.166
 1934TIP3    H2 5744   1.683   2.987   6.021
 1935TIP3   OH2 5745   1.649   3.769   0.104
 1935TIP3    H1 5746   1.725   3.760   0.046
 1935TIP3    H2 5747   1.590   3.827   0.056
 1936TIP3   OH2 5748   7.483   2.137   0.051
 1936TIP3    H1 5749   7.441   2.178  -0.025
 1936TIP3    H2 5750   7.421   2.151   0.123
 1937TIP3   OH2 5751   6.612   3.710   2.648
 1937TIP3    H1 5752   6.521   3.713   2.676
 1937TIP3    H2 5753   6.610   3.666   2.563
 1938TIP3   OH2 5754   6.507   5.560   4.006
 1938TIP3    H1 5755   6.505   5.473   3.965
 1938TIP3    H2 5756   6.415   5.579   4.025
 1939TIP3   OH2 5757   0.641   2.607   3.305
 1939TIP3    H1 5758   0.571   2.654   3.349
 1939TIP3    H2 5759   0.627   2.515   3.326
 1940TIP3   OH2 5760   6.368   4.582   6.596
 1940TIP3    H1 5761   6.306   4.591   6.524
 1940TIP3    H2 5762   6.380   4.488   6.606
 1941TIP3   OH2 5763   2.803   3.789   1.841
 1941TIP3    H1 5764   2.825   3.725   1.909
 1941TIP3    H2 5765   2.846   3.756   1.762
 1942TIP3   OH2 5766   5.366   0.970   3.149
 1942TIP3    H1 5767   5.439   1.025   3.177
 1942TIP3    H2 5768   5.315   1.026   3.091
 1943TIP3   OH2 5769   7.077   0.091   0.829
 1943TIP3    H1 5770   7.049   0.031   0.760
 1943TIP3    H2 5771   7.149   0.140   0.790
 1944TIP3   OH2 5772   1.406   3.396   4.082
 1944TIP3    H1 5773   1.330   3.339   4.092
 1944TIP3    H2 5774   1.435   3.413   4.172
 1945TIP3   OH2 5775   7.712   3.154   4.973
 1945TIP3    H1 5776   7.794   3.141   5.021
 1945TIP3    H2 5777   7.645   3.119   5.030
 1946TIP3   OH2 5778   8.122   7.682   4.589
 1946TIP3    H1 5779   8.145   7.749   4.654
 1946TIP3    H2 5780   8.201   7.672   4.536
 1947TIP3   OH2 5781   1.925   6.119   0.315
 1947TIP3    H1 5782   1.899   6.042   0.265
 1947TIP3    H2 5783   1.931   6.089   0.406
 1948TIP3   OH2 5784   5.208   7.817   1.317
 1948TIP3    H1 5785   5.194   7.727   1.348
 1948TIP3    H2 5786   5.130   7.837   1.265
 1949TIP3   OH2 5787   6.562   5.786   2.350
 1949TIP3    H1 5788   6.578   5.872   2.312
 1949TIP3    H2 5789   6.477   5.759   2.314
 1950TIP3   OH2 5790   0.647   4.647   5.055
 1950TIP3    H1 5791   0.576   4.623   5.115
 1950TIP3    H2 5792   0.643   4.743   5.051
 1951TIP3   OH2 5793   1.257   4.021   2.059
 1951TIP3    H1 5794   1.211   4.089   2.108
 1951TIP3    H2 5795   1.200   4.001   1.986
 1952TIP3   OH2 5796   4.852   2.342   2.006
 1952TIP3    H1 5797   4.937   2.385   1.998
 1952TIP3    H2 5798   4.794   2.410   2.043
 1953TIP3   OH2 5799   0.742   4.961   0.683
 1953TIP3    H1 5800   0.739   4.927   0.593
 1953TIP3    H2 5801   0.831   4.996   0.692
 1954TIP3   OH2 5802   6.908   5.517   3.636
 1954TIP3    H1 5803   6.931   5.578   3.706
 1954TIP3    H2 5804   6.821   5.484   3.659
 1955TIP3   OH2 5805   7.693   1.655   5.080
 1955TIP3    H1 5806   7.665   1.746   5.089
 1955TIP3    H2 5807   7.760   1.657   5.012
 1956TIP3   OH2 5808   3.378   7.248   3.069
 1956TIP3    H1 5809   3.471   7.270   3.074
 1956TIP3    H2 5810   3.363   7.224   2.978
 1957TIP3   OH2 5811   5.052   0.958   5.188
 1957TIP3    H1 5812   5.097   0.961   5.272
 1957TIP3    H2 5813   5.096   1.025   5.135
 1958TIP3   OH2 5814   5.330   1.022   0.033
 1958TIP3    H1 5815   5.398   0.955   0.046
 1958TIP3    H2 5816   5.288   0.997  -0.049
 1959TIP3   OH2 5817   5.867   7.815   2.399
 1959TIP3    H1 5818   5.799   7.879   2.416
 1959TIP3    H2 5819   5.914   7.806   2.482
 1960TIP3   OH2 5820   6.581   3.598   5.014
 1960TIP3    H1 5821   6.503   3.648   5.037
 1960TIP3    H2 5822   6.570   3.578   4.921
 1961TIP3   OH2 5823   6.718   2.532   4.816
 1961TIP3    H1 5824   6.813   2.531   4.801
 1961TIP3    H2 5825   6.681   2.488   4.740
 1962TIP3   OH2 5826   5.700   3.810   5.374
 1962TIP3    H1 5827   5.709   3.734   5.317
 1962TIP3    H2 5828   5.790   3.833   5.398
 1963TIP3   OH2 5829   1.197   0.159   1.959
 1963TIP3    H1 5830   1.230   0.146   1.871
 1963TIP3    H2 5831   1.102   0.164   1.949
 1964TIP3   OH2 5832   2.735   4.817   2.624
 1964TIP3    H1 5833   2.796   4.890   2.637
 1964TIP3    H2 5834   2.727   4.777   2.710
 1965TIP3   OH2 5835   6.567   6.825   2.495
 1965TIP3    H1 5836   6.635   6.849   2.431
 1965TIP3    H2 5837   6.500   6.892   2.483
 1966TIP3   OH2 5838   7.094   1.535   5.775
 1966TIP3    H1 5839   7.136   1.521   5.859
 1966TIP3    H2 5840   7.001   1.548   5.797
 1967TIP3   OH2 5841   1.004   6.008   6.487
 1967TIP3    H1 5842   0.931   5.954   6.456
 1967TIP3    H2 5843   1.080   5.950   6.480
 1968TIP3   OH2 5844   0.943   3.473   0.354
 1968TIP3    H1 5845   0.959   3.379   0.350
 1968TIP3    H2 5846   0.923   3.498   0.264
 1969TIP3   OH2 5847   6.341   7.604   1.701
 1969TIP3    H1 5848   6.342   7.595   1.606
 1969TIP3    H2 5849   6.433   7.604   1.727
 1970TIP3   OH2 5850   5.329   1.584   2.200
 1970TIP3    H1 5851   5.237   1.589   2.228
 1970TIP3    H2 5852   5.349   1.491   2.199
 1971TIP3   OH2 5853   2.664   0.368   1.283
 1971TIP3    H1 5854   2.650   0.425   1.207
 1971TIP3    H2 5855   2.583   0.318   1.290
 1972TIP3   OH2 5856   1.512   7.305   6.147
 1972TIP3    H1 5857   1.434   7.251   6.137
 1972TIP3    H2 5858   1.519   7.319   6.242
 1973TIP3   OH2 5859   4.372   0.464   5.307
 1973TIP3    H1 5860   4.394   0.499   5.221
 1973TIP3    H2 5861   4.395   0.371   5.302
 1974TIP3   OH2 5862   7.261   3.184   2.750
 1974TIP3    H1 5863   7.285   3.247   2.682
 1974TIP3    H2 5864   7.340   3.131   2.762
 1975TIP3   OH2 5865   1.507   7.002   2.149
 1975TIP3    H1 5866   1.536   7.052   2.225
 1975TIP3    H2 5867   1.449   6.935   2.184
 1976TIP3   OH2 5868   4.793   2.604   1.910
 1976TIP3    H1 5869   4.882   2.621   1.879
 1976TIP3    H2 5870   4.758   2.690   1.933
 1977TIP3   OH2 5871   0.859   6.956   2.778
 1977TIP3    H1 5872   0.888   7.026   2.719
 1977TIP3    H2 5873   0.867   6.993   2.866
 1978TIP3   OH2 5874   2.369   3.115   5.856
 1978TIP3    H1 5875   2.368   3.104   5.760
 1978TIP3    H2 5876   2.432   3.186   5.870
 1979TIP3   OH2 5877   2.117   7.634   1.489
 1979TIP3    H1 5878   2.208   7.624   1.516
 1979TIP3    H2 5879   2.121   7.689   1.410
 1980TIP3   OH2 5880   6.423   7.007   2.746
 1980TIP3    H1 5881   6.421   7.026   2.840
 1980TIP3    H2 5882   6.516   7.005   2.724
 1981TIP3   OH2 5883   7.378   5.315   4.752
 1981TIP3    H1 5884   7.336   5.401   4.753
 1981TIP3    H2 5885   7.318   5.259   4.702
 1982TIP3   OH2 5886   0.909   2.442   3.892
 1982TIP3    H1 5887   0.899   2.524   3.842
 1982TIP3    H2 5888   0.864   2.459   3.975
 1983TIP3   OH2 5889   1.895   4.029   0.165
 1983TIP3    H1 5890   1.938   3.946   0.142
 1983TIP3    H2 5891   1.915   4.088   0.093
 1984TIP3   OH2 5892   0.019   0.376   3.934
 1984TIP3    H1 5893   0.045   0.312   3.869
 1984TIP3    H2 5894   0.093   0.381   3.994
 1985TIP3   OH2 5895   2.592   5.137   1.669
 1985TIP3    H1 5896   2.556   5.200   1.606
 1985TIP3    H2 5897   2.522   5.125   1.734
 1986TIP3   OH2 5898   5.895   6.845   2.193
 1986TIP3    H1 5899   5.944   6.913   2.146
 1986TIP3    H2 5900   5.804   6.872   2.185
 1987TIP3   OH2 5901   1.235   1.579   1.040
 1987TIP3    H1 5902   1.219   1.491   1.006
 1987TIP3    H2 5903   1.320   1.573   1.085
 1988TIP3   OH2 5904   8.136   1.430   6.599
 1988TIP3    H1 5905   8.049   1.431   6.557
 1988TIP3    H2 5906   8.152   1.521   6.623
 1989TIP3   OH2 5907   3.919   4.742   5.416
 1989TIP3    H1 5908   3.902   4.652   5.388
 1989TIP3    H2 5909   3.834   4.773   5.449
 1990TIP3   OH2 5910   7.977   4.849   6.677
 1990TIP3    H1 5911   8.003   4.763   6.646
 1990TIP3    H2 5912   7.900   4.833   6.732
 1991TIP3   OH2 5913   1.471   2.244   3.421
 1991TIP3    H1 5914   1.527   2.202   3.487
 1991TIP3    H2 5915   1.464   2.179   3.351
 1992TIP3   OH2 5916   3.047   0.864   4.041
 1992TIP3    H1 5917   2.982   0.933   4.053
 1992TIP3    H2 5918   3.038   0.838   3.949
 1993TIP3   OH2 5919   7.545   3.272   4.311
 1993TIP3    H1 5920   7.570   3.247   4.222
 1993TIP3    H2 5921   7.598   3.349   4.330
 1994TIP3   OH2 5922   7.256   0.268   1.437
 1994TIP3    H1 5923   7.199   0.274   1.361
 1994TIP3    H2 5924   7.269   0.174   1.451
 1995TIP3   OH2 5925   0.239   5.784   0.590
 1995TIP3    H1 5926   0.262   5.709   0.645
 1995TIP3    H2 5927   0.176   5.750   0.527
 1996TIP3   OH2 5928   0.537   0.656   3.771
 1996TIP3    H1 5929   0.605   0.594   3.799
 1996TIP3    H2 5930   0.521   0.711   3.848
 1997TIP3   OH2 5931   0.171   0.504   4.381
 1997TIP3    H1 5932   0.184   0.595   4.353
 1997TIP3    H2 5933   0.246   0.457   4.343
 1998TIP3   OH2 5934   1.692   2.066   1.260
 1998TIP3    H1 5935   1.701   2.060   1.355
 1998TIP3    H2 5936   1.602   2.093   1.246
 1999TIP3   OH2 5937   7.569   6.071   0.333
 1999TIP3    H1 5938   7.586   6.117   0.251
 1999TIP3    H2 5939   7.651   6.026   0.353
 2000TIP3   OH2 5940   4.636   6.345   1.042
 2000TIP3    H1 5941   4.610   6.419   1.097
 2000TIP3    H2 5942   4.594   6.362   0.957
 2001TIP3   OH2 5943   2.909   6.157   4.229
 2001TIP3    H1 5944   2.995   6.196   4.211
 2001TIP3    H2 5945   2.860   6.227   4.272
 2002TIP3   OH2 5946   3.083   5.571   5.627
 2002TIP3    H1 5947   3.095   5.551   5.535
 2002TIP3    H2 5948   3.053   5.489   5.666
 2003TIP3   OH2 5949   7.247   1.951   3.217
 2003TIP3    H1 5950   7.179   1.945   3.150
 2003TIP3    H2 5951   7.301   2.026   3.189
 2004TIP3   OH2 5952   5.486   6.295   5.328
 2004TIP3    H1 5953   5.485   6.243   5.408
 2004TIP3    H2 5954   5.578   6.296   5.301
 2005TIP3   OH2 5955   4.514   2.467   5.032
 2005TIP3    H1 5956   4.582   2.521   4.991
 2005TIP3    H2 5957   4.563   2.408   5.089
 2006TIP3   OH2 5958   0.714   1.898   4.546
 2006TIP3    H1 5959   0.720   1.814   4.591
 2006TIP3    H2 5960   0.646   1.946   4.593
 2007TIP3   OH2 5961   6.776   0.680   4.457
 2007TIP3    H1 5962   6.769   0.772   4.484
 2007TIP3    H2 5963   6.870   0.663   4.454
 2008TIP3   OH2 5964   5.932   3.107   0.913
 2008TIP3    H1 5965   6.000   3.118   0.847
 2008TIP3    H2 5966   5.855   3.081   0.863
 2009TIP3   OH2 5967   1.167   3.267   6.802
 2009TIP3    H1 5968   1.098   3.207   6.830
 2009TIP3    H2 5969   1.246   3.236   6.847
 2010TIP3   OH2 5970   3.276   5.158   1.039
 2010TIP3    H1 5971   3.247   5.084   0.986
 2010TIP3    H2 5972   3.345   5.123   1.095
 2011TIP3   OH2 5973   0.568   1.533   2.973
 2011TIP3    H1 5974   0.594   1.468   2.908
 2011TIP3    H2 5975   0.629   1.520   3.046
 2012TIP3   OH2 5976   4.754   5.809   4.397
 2012TIP3    H1 5977   4.791   5.764   4.321
 2012TIP3    H2 5978   4.802   5.892   4.400
 2013TIP3   OH2 5979   5.152   5.905   3.859
 2013TIP3    H1 5980   5.138   5.896   3.765
 2013TIP3    H2 5981   5.180   5.818   3.888
 2014TIP3   OH2 5982   5.978   5.573   0.031
 2014TIP3    H1 5983   5.986   5.638   0.102
 2014TIP3    H2 5984   6.023   5.495   0.065
 2015TIP3   OH2 5985   1.603   6.572   4.185
 2015TIP3    H1 5986   1.626   6.640   4.121
 2015TIP3    H2 5987   1.559   6.505   4.133
 2016TIP3   OH2 5988   1.531   0.024   0.864
 2016TIP3    H1 5989   1.474  -0.043   0.902
 2016TIP3    H2 5990   1.608   0.026   0.920
 2017TIP3   OH2 5991   0.310   1.115   1.507
 2017TIP3    H1 5992   0.277   1.144   1.423
 2017TIP3    H2 5993   0.379   1.051   1.485
 2018TIP3   OH2 5994   2.006   6.176   1.592
 2018TIP3    H1 5995   1.992   6.271   1.600
 2018TIP3    H2 5996   1.946   6.148   1.523
 2019TIP3   OH2 5997   2.491   1.389   2.187
 2019TIP3    H1 5998   2.420   1.436   2.230
 2019TIP3    H2 5999   2.542   1.458   2.143
 2020TIP3   OH2 6000   3.457   2.620   6.036
 2020TIP3    H1 6001   3.453   2.690   6.102
 2020TIP3    H2 6002   3.454   2.666   5.952
 2021TIP3   OH2 6003   2.721   0.544   5.757
 2021TIP3    H1 6004   2.773   0.492   5.696
 2021TIP3    H2 6005   2.630   0.524   5.736
 2022TIP3   OH2 6006   8.366   2.795   2.452
 2022TIP3    H1 6007   8.289   2.771   2.401
 2022TIP3    H2 6008   8.342   2.876   2.497
 2023TIP3   OH2 6009   5.085   7.918   4.515
 2023TIP3    H1 6010   5.027   7.882   4.448
 2023TIP3    H2 6011   5.041   7.898   4.598
 2024TIP3   OH2 6012   7.235   0.206   3.617
 2024TIP3    H1 6013   7.148   0.189   3.581
 2024TIP3    H2 6014   7.295   0.194   3.544
 2025TIP3   OH2 6015   5.547   6.942   2.209
 2025TIP3    H1 6016   5.483   6.958   2.278
 2025TIP3    H2 6017   5.558   7.027   2.166
 2026TIP3   OH2 6018   7.946   5.049   5.432
 2026TIP3    H1 6019   7.870   5.089   5.475
 2026TIP3    H2 6020   8.020   5.073   5.487
 2027TIP3   OH2 6021   5.311   0.929   6.665
 2027TIP3    H1 6022   5.382   0.989   6.690
 2027TIP3    H2 6023   5.316   0.925   6.570
 2028TIP3   OH2 6024   6.514   7.630   0.471
 2028TIP3    H1 6025   6.557   7.544   0.471
 2028TIP3    H2 6026   6.537   7.668   0.556
 2029TIP3   OH2 6027   8.385   6.252   3.052
 2029TIP3    H1 6028   8.310   6.230   2.997
 2029TIP3    H2 6029   8.456   6.268   2.990
 2030TIP3   OH2 6030   3.879   2.919   0.599
 2030TIP3    H1 6031   3.953   2.979   0.612
 2030TIP3    H2 6032   3.878   2.865   0.678
 2031TIP3   OH2 6033   8.039   3.617   2.936
 2031TIP3    H1 6034   8.032   3.574   3.022
 2031TIP3    H2 6035   7.966   3.581   2.886
 2032TIP3   OH2 6036   2.655   4.200   0.655
 2032TIP3    H1 6037   2.660   4.232   0.745
 2032TIP3    H2 6038   2.723   4.248   0.608
 2033TIP3   OH2 6039   6.908   4.383   5.404
 2033TIP3    H1 6040   6.914   4.447   5.333
 2033TIP3    H2 6041   6.850   4.425   5.468
 2034TIP3   OH2 6042   8.183   0.363   3.220
 2034TIP3    H1 6043   8.135   0.415   3.284
 2034TIP3    H2 6044   8.223   0.293   3.271
 2035TIP3   OH2 6045   5.475   7.131   0.248
 2035TIP3    H1 6046   5.552   7.187   0.240
 2035TIP3    H2 6047   5.471   7.083   0.165
 2036TIP3   OH2 6048   7.072   1.403   3.739
 2036TIP3    H1 6049   7.048   1.490   3.708
 2036TIP3    H2 6050   7.061   1.407   3.834
 2037TIP3   OH2 6051   2.702   2.290   2.251
 2037TIP3    H1 6052   2.645   2.213   2.240
 2037TIP3    H2 6053   2.789   2.259   2.226
 2038TIP3   OH2 6054   8.370   0.174   5.876
 2038TIP3    H1 6055   8.391   0.117   5.950
 2038TIP3    H2 6056   8.412   0.257   5.897
 2039TIP3   OH2 6057   4.236   6.950   3.262
 2039TIP3    H1 6058   4.234   6.861   3.297
 2039TIP3    H2 6059   4.324   6.960   3.226
 2040TIP3   OH2 6060   8.078   6.497   2.800
 2040TIP3    H1 6061   8.100   6.413   2.840
 2040TIP3    H2 6062   7.995   6.522   2.842
 2041TIP3   OH2 6063   5.353   2.292   5.067
 2041TIP3    H1 6064   5.369   2.208   5.111
 2041TIP3    H2 6065   5.317   2.268   4.982
 2042TIP3   OH2 6066   7.682   0.105   5.321
 2042TIP3    H1 6067   7.777   0.100   5.329
 2042TIP3    H2 6068   7.663   0.199   5.331
 2043TIP3   OH2 6069   6.698   1.124   3.651
 2043TIP3    H1 6070   6.755   1.199   3.636
 2043TIP3    H2 6071   6.610   1.158   3.634
 2044TIP3   OH2 6072   5.983   4.812   5.381
 2044TIP3    H1 6073   5.925   4.756   5.331
 2044TIP3    H2 6074   5.925   4.875   5.424
 2045TIP3   OH2 6075   3.340   7.359   2.099
 2045TIP3    H1 6076   3.261   7.405   2.072
 2045TIP3    H2 6077   3.386   7.340   2.016
 2046TIP3   OH2 6078   7.680   4.555   3.582
 2046TIP3    H1 6079   7.747   4.488   3.571
 2046TIP3    H2 6080   7.610   4.512   3.631
 2047TIP3   OH2 6081   8.276   6.830   0.718
 2047TIP3    H1 6082   8.199   6.878   0.687
 2047TIP3    H2 6083   8.347   6.893   0.712
 2048TIP3   OH2 6084   6.744   1.821   1.885
 2048TIP3    H1 6085   6.713   1.734   1.913
 2048TIP3    H2 6086   6.744   1.873   1.966
 2049TIP3   OH2 6087   0.879   1.230   5.625
 2049TIP3    H1 6088   0.863   1.144   5.584
 2049TIP3    H2 6089   0.818   1.289   5.581
 2050TIP3   OH2 6090   2.055   2.917   3.728
 2050TIP3    H1 6091   2.046   2.845   3.666
 2050TIP3    H2 6092   2.003   2.891   3.804
 2051TIP3   OH2 6093   1.236   0.328   4.374
 2051TIP3    H1 6094   1.227   0.287   4.460
 2051TIP3    H2 6095   1.203   0.418   4.387
 2052TIP3   OH2 6096   5.283   0.096   4.176
 2052TIP3    H1 6097   5.376   0.103   4.154
 2052TIP3    H2 6098   5.266   0.002   4.183
 2053TIP3   OH2 6099   0.357   1.570   3.376
 2053TIP3    H1 6100   0.343   1.644   3.317
 2053TIP3    H2 6101   0.376   1.611   3.461
 2054TIP3   OH2 6102   3.381   3.316   0.531
 2054TIP3    H1 6103   3.336   3.240   0.568
 2054TIP3    H2 6104   3.365   3.310   0.437
 2055TIP3   OH2 6105   0.329   2.272   2.266
 2055TIP3    H1 6106   0.256   2.331   2.246
 2055TIP3    H2 6107   0.379   2.319   2.332
 2056TIP3   OH2 6108   1.003   3.899   0.363
 2056TIP3    H1 6109   0.998   3.985   0.406
 2056TIP3    H2 6110   1.030   3.839   0.433
 2057TIP3   OH2 6111   0.125   5.375   3.362
 2057TIP3    H1 6112   0.040   5.335   3.383
 2057TIP3    H2 6113   0.120   5.462   3.401
 2058TIP3   OH2 6114   7.551   6.596   4.781
 2058TIP3    H1 6115   7.500   6.541   4.840
 2058TIP3    H2 6116   7.607   6.535   4.732
 2059TIP3   OH2 6117   5.240   7.672   6.357
 2059TIP3    H1 6118   5.269   7.753   6.315
 2059TIP3    H2 6119   5.259   7.685   6.450
 2060TIP3   OH2 6120   4.922   4.463   0.966
 2060TIP3    H1 6121   5.011   4.494   0.949
 2060TIP3    H2 6122   4.875   4.481   0.884
 2061TIP3   OH2 6123   6.965   4.465   0.572
 2061TIP3    H1 6124   7.052   4.443   0.539
 2061TIP3    H2 6125   6.958   4.560   0.561
 2062TIP3   OH2 6126   5.149   6.481   4.118
 2062TIP3    H1 6127   5.113   6.553   4.171
 2062TIP3    H2 6128   5.242   6.501   4.112
 2063TIP3   OH2 6129   2.671   0.331   0.539
 2063TIP3    H1 6130   2.630   0.403   0.587
 2063TIP3    H2 6131   2.746   0.371   0.495
 2064TIP3   OH2 6132   3.631   3.979   3.371
 2064TIP3    H1 6133   3.576   3.911   3.330
 2064TIP3    H2 6134   3.669   4.027   3.297
 2065TIP3   OH2 6135   2.809   3.279   0.287
 2065TIP3    H1 6136   2.876   3.347   0.299
 2065TIP3    H2 6137   2.735   3.310   0.339
 2066TIP3   OH2 6138   7.776   6.198   0.974
 2066TIP3    H1 6139   7.742   6.196   0.885
 2066TIP3    H2 6140   7.699   6.186   1.030
 2067TIP3   OH2 6141   6.250   2.871   1.036
 2067TIP3    H1 6142   6.164   2.878   1.077
 2067TIP3    H2 6143   6.248   2.786   0.991
 2068TIP3   OH2 6144   7.271   4.472   6.569
 2068TIP3    H1 6145   7.202   4.537   6.555
 2068TIP3    H2 6146   7.352   4.523   6.571
 2069TIP3   OH2 6147   7.887   5.815   6.134
 2069TIP3    H1 6148   7.897   5.905   6.103
 2069TIP3    H2 6149   7.804   5.786   6.097
 2070TIP3   OH2 6150   5.132   6.070   3.445
 2070TIP3    H1 6151   5.161   6.025   3.524
 2070TIP3    H2 6152   5.134   6.163   3.467
 2071TIP3   OH2 6153   4.427   0.910   4.987
 2071TIP3    H1 6154   4.341   0.870   4.999
 2071TIP3    H2 6155   4.482   0.869   5.054
 2072TIP3   OH2 6156   6.429   0.969   2.941
 2072TIP3    H1 6157   6.490   0.896   2.948
 2072TIP3    H2 6158   6.376   0.964   3.020
 2073TIP3   OH2 6159   7.111   7.879   5.380
 2073TIP3    H1 6160   7.163   7.886   5.300
 2073TIP3    H2 6161   7.041   7.818   5.358
 2074TIP3   OH2 6162   4.220   4.080   6.613
 2074TIP3    H1 6163   4.152   4.143   6.591
 2074TIP3    H2 6164   4.182   3.995   6.588
 2075TIP3   OH2 6165   6.455   4.273   0.903
 2075TIP3    H1 6166   6.523   4.297   0.840
 2075TIP3    H2 6167   6.376   4.262   0.849
 2076TIP3   OH2 6168   0.198   1.334   4.011
 2076TIP3    H1 6169   0.139   1.318   3.937
 2076TIP3    H2 6170   0.282   1.298   3.983
 2077TIP3   OH2 6171   1.217   6.599   3.393
 2077TIP3    H1 6172   1.208   6.552   3.311
 2077TIP3    H2 6173   1.283   6.666   3.375
 2078TIP3   OH2 6174   7.256   1.653   0.680
 2078TIP3    H1 6175   7.284   1.742   0.701
 2078TIP3    H2 6176   7.232   1.614   0.764
 2079TIP3   OH2 6177   7.762   6.796   4.126
 2079TIP3    H1 6178   7.702   6.829   4.192
 2079TIP3    H2 6179   7.718   6.813   4.043
 2080TIP3   OH2 6180   4.271   6.349   5.013
 2080TIP3    H1 6181   4.273   6.269   5.065
 2080TIP3    H2 6182   4.207   6.331   4.944
 2081TIP3   OH2 6183   5.477   7.062   3.550
 2081TIP3    H1 6184   5.478   7.158   3.543
 2081TIP3    H2 6185   5.506   7.045   3.639
 2082TIP3   OH2 6186   0.202   3.075   5.115
 2082TIP3    H1 6187   0.129   3.120   5.157
 2082TIP3    H2 6188   0.270   3.142   5.106
 2083TIP3   OH2 6189   1.713   5.482   0.746
 2083TIP3    H1 6190   1.722   5.442   0.660
 2083TIP3    H2 6191   1.769   5.560   0.743
 2084TIP3   OH2 6192   2.694   1.860   1.974
 2084TIP3    H1 6193   2.673   1.935   1.918
 2084TIP3    H2 6194   2.670   1.784   1.921
 2085TIP3   OH2 6195   5.688   3.443   2.210
 2085TIP3    H1 6196   5.669   3.411   2.298
 2085TIP3    H2 6197   5.777   3.413   2.192
 2086TIP3   OH2 6198   4.763   6.329   1.716
 2086TIP3    H1 6199   4.741   6.400   1.776
 2086TIP3    H2 6200   4.686   6.320   1.660
 2087TIP3   OH2 6201   5.256   1.853   4.685
 2087TIP3    H1 6202   5.290   1.836   4.773
 2087TIP3    H2 6203   5.183   1.914   4.699
 2088TIP3   OH2 6204   0.820   2.814   3.315
 2088TIP3    H1 6205   0.900   2.799   3.366
 2088TIP3    H2 6206   0.769   2.733   3.326
 2089TIP3   OH2 6207   2.695   4.113   3.545
 2089TIP3    H1 6208   2.621   4.169   3.520
 2089TIP3    H2 6209   2.772   4.155   3.505
 2090TIP3   OH2 6210   2.064   4.974   5.167
 2090TIP3    H1 6211   2.029   4.944   5.251
 2090TIP3    H2 6212   2.147   4.927   5.158
 2091TIP3   OH2 6213   4.196   5.481   0.693
 2091TIP3    H1 6214   4.228   5.560   0.650
 2091TIP3    H2 6215   4.146   5.435   0.625
 2092TIP3   OH2 6216   0.853   4.156   5.095
 2092TIP3    H1 6217   0.824   4.228   5.152
 2092TIP3    H2 6218   0.877   4.199   5.013
 2093TIP3   OH2 6219   8.247   4.683   3.352
 2093TIP3    H1 6220   8.171   4.676   3.410
 2093TIP3    H2 6221   8.240   4.607   3.293
 2094TIP3   OH2 6222   6.370   2.284   3.987
 2094TIP3    H1 6223   6.335   2.195   3.987
 2094TIP3    H2 6224   6.457   2.275   3.947
 2095TIP3   OH2 6225   5.934   0.623   3.558
 2095TIP3    H1 6226   5.932   0.707   3.604
 2095TIP3    H2 6227   6.023   0.590   3.572
 2096TIP3   OH2 6228   8.224   5.825   4.403
 2096TIP3    H1 6229   8.261   5.737   4.391
 2096TIP3    H2 6230   8.195   5.826   4.494
 2097TIP3   OH2 6231   1.060   2.964   5.463
 2097TIP3    H1 6232   1.141   2.917   5.483
 2097TIP3    H2 6233   1.009   2.958   5.544
 2098TIP3   OH2 6234   4.727   2.728   1.102
 2098TIP3    H1 6235   4.738   2.679   1.184
 2098TIP3    H2 6236   4.767   2.672   1.035
 2099TIP3   OH2 6237   0.715   1.366   6.543
 2099TIP3    H1 6238   0.700   1.460   6.557
 2099TIP3    H2 6239   0.809   1.358   6.534
 2100TIP3   OH2 6240   4.656   4.492   6.433
 2100TIP3    H1 6241   4.630   4.508   6.342
 2100TIP3    H2 6242   4.612   4.411   6.457
 2101TIP3   OH2 6243   2.384   0.510   3.072
 2101TIP3    H1 6244   2.343   0.554   2.997
 2101TIP3    H2 6245   2.436   0.578   3.115
 2102TIP3   OH2 6246   0.712   4.697   1.979
 2102TIP3    H1 6247   0.629   4.737   1.956
 2102TIP3    H2 6248   0.704   4.675   2.072
 2103TIP3   OH2 6249   3.867   4.264   3.249
 2103TIP3    H1 6250   3.836   4.197   3.188
 2103TIP3    H2 6251   3.850   4.347   3.205
 2104TIP3   OH2 6252   1.954   6.075   1.157
 2104TIP3    H1 6253   1.880   6.045   1.106
 2104TIP3    H2 6254   1.918   6.094   1.244
 2105TIP3   OH2 6255   0.797   0.245   3.070
 2105TIP3    H1 6256   0.791   0.173   3.006
 2105TIP3    H2 6257   0.748   0.214   3.146
 2106TIP3   OH2 6258   1.332   4.737   1.532
 2106TIP3    H1 6259   1.352   4.670   1.466
 2106TIP3    H2 6260   1.392   4.809   1.510
 2107TIP3   OH2 6261   2.990   4.591   0.565
 2107TIP3    H1 6262   3.062   4.567   0.623
 2107TIP3    H2 6263   2.949   4.666   0.608
 2108TIP3   OH2 6264   1.132   0.125   1.139
 2108TIP3    H1 6265   1.066   0.189   1.166
 2108TIP3    H2 6266   1.083   0.059   1.090
 2109TIP3   OH2 6267   1.370   0.979   6.341
 2109TIP3    H1 6268   1.322   1.002   6.420
 2109TIP3    H2 6269   1.457   0.954   6.372
 2110TIP3   OH2 6270   6.383   6.794   1.740
 2110TIP3    H1 6271   6.299   6.795   1.694
 2110TIP3    H2 6272   6.363   6.832   1.826
 2111TIP3   OH2 6273   4.740   4.466   3.832
 2111TIP3    H1 6274   4.710   4.556   3.831
 2111TIP3    H2 6275   4.816   4.467   3.891
 2112TIP3   OH2 6276   4.786   5.894   2.530
 2112TIP3    H1 6277   4.714   5.868   2.587
 2112TIP3    H2 6278   4.853   5.827   2.544
 2113TIP3   OH2 6279   7.092   7.051   3.563
 2113TIP3    H1 6280   7.124   7.125   3.512
 2113TIP3    H2 6281   7.012   7.024   3.519
 2114TIP3   OH2 6282   1.856   5.357   5.637
 2114TIP3    H1 6283   1.835   5.431   5.694
 2114TIP3    H2 6284   1.771   5.316   5.620
 2115TIP3   OH2 6285   0.287   5.611   6.447
 2115TIP3    H1 6286   0.377   5.631   6.473
 2115TIP3    H2 6287   0.282   5.637   6.355
 2116TIP3   OH2 6288   5.544   0.227   6.236
 2116TIP3    H1 6289   5.613   0.293   6.238
 2116TIP3    H2 6290   5.585   0.149   6.274
 2117TIP3   OH2 6291   5.013   3.240   0.444
 2117TIP3    H1 6292   4.962   3.186   0.505
 2117TIP3    H2 6293   5.028   3.321   0.493
 2118TIP3   OH2 6294   3.600   4.186   2.212
 2118TIP3    H1 6295   3.619   4.144   2.128
 2118TIP3    H2 6296   3.639   4.273   2.205
 2119TIP3   OH2 6297   3.408   3.666   4.911
 2119TIP3    H1 6298   3.387   3.759   4.911
 2119TIP3    H2 6299   3.400   3.639   4.819
 2120TIP3   OH2 6300   4.245   6.578   5.345
 2120TIP3    H1 6301   4.261   6.670   5.363
 2120TIP3    H2 6302   4.318   6.532   5.386
 2121TIP3   OH2 6303   3.966   6.369   0.191
 2121TIP3    H1 6304   3.927   6.304   0.249
 2121TIP3    H2 6305   4.060   6.356   0.199
 2122TIP3   OH2 6306   1.436   0.900   5.929
 2122TIP3    H1 6307   1.452   0.856   6.013
 2122TIP3    H2 6308   1.363   0.852   5.891
 2123TIP3   OH2 6309   6.941   5.183   5.881
 2123TIP3    H1 6310   6.990   5.243   5.936
 2123TIP3    H2 6311   6.956   5.096   5.920
 2124TIP3   OH2 6312   0.223   7.171   2.071
 2124TIP3    H1 6313   0.156   7.113   2.106
 2124TIP3    H2 6314   0.261   7.213   2.148
 2125TIP3   OH2 6315   5.311   3.498   5.049
 2125TIP3    H1 6316   5.395   3.471   5.086
 2125TIP3    H2 6317   5.255   3.420   5.056
 2126TIP3   OH2 6318   0.128   4.922   2.455
 2126TIP3    H1 6319   0.152   4.926   2.362
 2126TIP3    H2 6320   0.194   4.975   2.499
 2127TIP3   OH2 6321   5.122   7.192   4.091
 2127TIP3    H1 6322   5.182   7.261   4.119
 2127TIP3    H2 6323   5.066   7.234   4.025
 2128TIP3   OH2 6324   5.061   7.113   1.969
 2128TIP3    H1 6325   4.969   7.111   1.945
 2128TIP3    H2 6326   5.062   7.117   2.064
 2129TIP3   OH2 6327   4.163   4.976   2.550
 2129TIP3    H1 6328   4.083   4.927   2.532
 2129TIP3    H2 6329   4.157   4.998   2.643
 2130TIP3   OH2 6330   1.901   0.303   2.339
 2130TIP3    H1 6331   1.883   0.303   2.245
 2130TIP3    H2 6332   1.934   0.391   2.357
 2131TIP3   OH2 6333   8.330   2.406   3.034
 2131TIP3    H1 6334   8.309   2.395   2.941
 2131TIP3    H2 6335   8.412   2.358   3.045
 2132TIP3   OH2 6336   5.538   7.882   6.707
 2132TIP3    H1 6337   5.549   7.861   6.614
 2132TIP3    H2 6338   5.459   7.835   6.733
 2133TIP3   OH2 6339   0.130   0.119   5.669
 2133TIP3    H1 6340   0.072   0.153   5.736
 2133TIP3    H2 6341   0.076   0.059   5.618
 2134TIP3   OH2 6342   0.587   0.393   1.825
 2134TIP3    H1 6343   0.599   0.435   1.740
 2134TIP3    H2 6344   0.583   0.299   1.804
 2135TIP3   OH2 6345   1.915   6.293   3.331
 2135TIP3    H1 6346   1.854   6.277   3.259
 2135TIP3    H2 6347   1.914   6.211   3.382
 2136TIP3   OH2 6348   5.346   2.397   4.666
 2136TIP3    H1 6349   5.393   2.448   4.600
 2136TIP3    H2 6350   5.353   2.448   4.747
 2137TIP3   OH2 6351   6.621   7.426   1.774
 2137TIP3    H1 6352   6.690   7.435   1.839
 2137TIP3    H2 6353   6.665   7.439   1.690
 2138TIP3   OH2 6354   4.254   5.496   4.679
 2138TIP3    H1 6355   4.286   5.529   4.595
 2138TIP3    H2 6356   4.168   5.538   4.690
 2139TIP3   OH2 6357   4.422   6.485   5.979
 2139TIP3    H1 6358   4.440   6.399   5.941
 2139TIP3    H2 6359   4.338   6.474   6.024
 2140TIP3   OH2 6360   3.985   7.524   6.114
 2140TIP3    H1 6361   3.964   7.447   6.166
 2140TIP3    H2 6362   3.900   7.564   6.095
 2141TIP3   OH2 6363   5.183   1.102   4.473
 2141TIP3    H1 6364   5.135   1.033   4.427
 2141TIP3    H2 6365   5.245   1.136   4.409
 2142TIP3   OH2 6366   4.424   1.479   2.332
 2142TIP3    H1 6367   4.401   1.402   2.280
 2142TIP3    H2 6368   4.518   1.470   2.349
 2143TIP3   OH2 6369   8.223   3.263   1.003
 2143TIP3    H1 6370   8.288   3.323   1.039
 2143TIP3    H2 6371   8.205   3.295   0.915
 2144TIP3   OH2 6372   0.637   6.448   1.365
 2144TIP3    H1 6373   0.718   6.400   1.350
 2144TIP3    H2 6374   0.644   6.478   1.456
 2145TIP3   OH2 6375   1.092   6.042   1.425
 2145TIP3    H1 6376   1.022   6.020   1.364
 2145TIP3    H2 6377   1.051   6.103   1.487
 2146TIP3   OH2 6378   2.499   0.473   6.634
 2146TIP3    H1 6379   2.439   0.530   6.682
 2146TIP3    H2 6380   2.577   0.468   6.688
 2147TIP3   OH2 6381   4.971   6.603   3.347
 2147TIP3    H1 6382   5.047   6.611   3.404
 2147TIP3    H2 6383   5.007   6.606   3.258
 2148TIP3   OH2 6384   0.806   3.197   3.782
 2148TIP3    H1 6385   0.831   3.257   3.853
 2148TIP3    H2 6386   0.827   3.245   3.702
 2149TIP3   OH2 6387   6.510   0.905   3.447
 2149TIP3    H1 6388   6.435   0.916   3.506
 2149TIP3    H2 6389   6.585   0.934   3.499
 2150TIP3   OH2 6390   2.952   0.837   3.357
 2150TIP3    H1 6391   2.873   0.801   3.317
 2150TIP3    H2 6392   2.989   0.895   3.290
 2151TIP3   OH2 6393   0.256   0.870   6.125
 2151TIP3    H1 6394   0.286   0.901   6.039
 2151TIP3    H2 6395   0.307   0.921   6.188
 2152TIP3   OH2 6396   2.686   5.206   4.549
 2152TIP3    H1 6397   2.687   5.235   4.641
 2152TIP3    H2 6398   2.773   5.229   4.516
 2153TIP3   OH2 6399   4.316   2.454   4.048
 2153TIP3    H1 6400   4.314   2.466   3.953
 2153TIP3    H2 6401   4.407   2.472   4.072
 2154TIP3   OH2 6402   3.896   7.706   1.360
 2154TIP3    H1 6403   3.885   7.801   1.357
 2154TIP3    H2 6404   3.809   7.671   1.346
 2155TIP3   OH2 6405   2.601   2.465   6.265
 2155TIP3    H1 6406   2.679   2.508   6.300
 2155TIP3    H2 6407   2.531   2.487   6.328
 2156TIP3   OH2 6408   7.464   3.098   3.966
 2156TIP3    H1 6409   7.516   3.146   3.901
 2156TIP3    H2 6410   7.431   3.166   4.025
 2157TIP3   OH2 6411   4.883   7.432   0.794
 2157TIP3    H1 6412   4.940   7.360   0.770
 2157TIP3    H2 6413   4.927   7.475   0.868
 2158TIP3   OH2 6414   4.426   2.776   2.520
 2158TIP3    H1 6415   4.423   2.871   2.507
 2158TIP3    H2 6416   4.420   2.739   2.432
 2159TIP3   OH2 6417   1.619   2.760   3.725
 2159TIP3    H1 6418   1.598   2.667   3.732
 2159TIP3    H2 6419   1.711   2.766   3.750
 2160TIP3   OH2 6420   3.798   5.243   3.416
 2160TIP3    H1 6421   3.879   5.200   3.443
 2160TIP3    H2 6422   3.793   5.229   3.322
 2161TIP3   OH2 6423   7.769   3.019   3.012
 2161TIP3    H1 6424   7.839   3.080   3.036
 2161TIP3    H2 6425   7.765   2.957   3.084
 2162TIP3   OH2 6426   7.805   4.738   0.575
 2162TIP3    H1 6427   7.782   4.807   0.513
 2162TIP3    H2 6428   7.767   4.767   0.658
 2163TIP3   OH2 6429   6.695   2.486   1.941
 2163TIP3    H1 6430   6.656   2.493   2.028
 2163TIP3    H2 6431   6.756   2.412   1.947
 2164TIP3   OH2 6432   1.536   6.049   2.722
 2164TIP3    H1 6433   1.471   6.008   2.665
 2164TIP3    H2 6434   1.568   6.124   2.672
 2165TIP3   OH2 6435   2.528   0.862   0.055
 2165TIP3    H1 6436   2.558   0.774   0.078
 2165TIP3    H2 6437   2.458   0.881   0.119
 2166TIP3   OH2 6438   1.676   6.802   3.735
 2166TIP3    H1 6439   1.756   6.837   3.776
 2166TIP3    H2 6440   1.669   6.713   3.769
 2167TIP3   OH2 6441   0.199   7.565   0.694
 2167TIP3    H1 6442   0.291   7.587   0.706
 2167TIP3    H2 6443   0.154   7.649   0.696
 2168TIP3   OH2 6444   4.360   3.230   2.192
 2168TIP3    H1 6445   4.356   3.260   2.101
 2168TIP3    H2 6446   4.417   3.293   2.236
 2169TIP3   OH2 6447   4.317   5.618   6.393
 2169TIP3    H1 6448   4.306   5.523   6.395
 2169TIP3    H2 6449   4.375   5.634   6.318
 2170TIP3   OH2 6450   7.607   1.625   0.545
 2170TIP3    H1 6451   7.585   1.550   0.489
 2170TIP3    H2 6452   7.680   1.594   0.598
 2171TIP3   OH2 6453   7.621   0.570   5.990
 2171TIP3    H1 6454   7.713   0.595   6.003
 2171TIP3    H2 6455   7.594   0.532   6.073
 2172TIP3   OH2 6456   5.099   1.137   0.133
 2172TIP3    H1 6457   5.048   1.085   0.196
 2172TIP3    H2 6458   5.177   1.083   0.115
 2173TIP3   OH2 6459   8.125   4.873   0.517
 2173TIP3    H1 6460   8.105   4.932   0.590
 2173TIP3    H2 6461   8.178   4.804   0.556
 2174TIP3   OH2 6462   8.092   6.877   3.216
 2174TIP3    H1 6463   8.001   6.908   3.214
 2174TIP3    H2 6464   8.120   6.880   3.124
 2175TIP3   OH2 6465   7.172   7.578   5.928
 2175TIP3    H1 6466   7.089   7.530   5.936
 2175TIP3    H2 6467   7.157   7.639   5.856
 2176TIP3   OH2 6468   2.287   6.084   5.687
 2176TIP3    H1 6469   2.346   6.159   5.689
 2176TIP3    H2 6470   2.337   6.015   5.644
 2177TIP3   OH2 6471   5.754   1.686   1.952
 2177TIP3    H1 6472   5.685   1.685   2.018
 2177TIP3    H2 6473   5.781   1.778   1.946
 2178TIP3   OH2 6474   2.210   5.695   4.933
 2178TIP3    H1 6475   2.205   5.748   4.854
 2178TIP3    H2 6476   2.255   5.614   4.906
 2179TIP3   OH2 6477   6.872   1.399   0.904
 2179TIP3    H1 6478   6.878   1.490   0.934
 2179TIP3    H2 6479   6.899   1.347   0.979
 2180TIP3   OH2 6480   2.062   6.619   2.605
 2180TIP3    H1 6481   2.063   6.647   2.514
 2180TIP3    H2 6482   1.970   6.626   2.631
 2181TIP3   OH2 6483   3.192   2.998   5.780
 2181TIP3    H1 6484   3.220   3.046   5.702
 2181TIP3    H2 6485   3.096   2.996   5.774
 2182TIP3   OH2 6486   5.575   1.000   6.801
 2182TIP3    H1 6487   5.572   0.911   6.836
 2182TIP3    H2 6488   5.622   0.992   6.718
 2183TIP3   OH2 6489   5.016   3.061   4.849
 2183TIP3    H1 6490   5.047   3.003   4.918
 2183TIP3    H2 6491   5.086   3.062   4.785
 2184TIP3   OH2 6492   0.697   3.724   3.538
 2184TIP3    H1 6493   0.668   3.634   3.555
 2184TIP3    H2 6494   0.771   3.737   3.597
 2185TIP3   OH2 6495   3.262   3.061   0.527
 2185TIP3    H1 6496   3.181   3.066   0.477
 2185TIP3    H2 6497   3.327   3.027   0.465
 2186TIP3   OH2 6498   4.879   0.468   1.162
 2186TIP3    H1 6499   4.822   0.392   1.166
 2186TIP3    H2 6500   4.825   0.538   1.126
 2187TIP3   OH2 6501   3.486   5.893   6.810
 2187TIP3    H1 6502   3.438   5.976   6.808
 2187TIP3    H2 6503   3.418   5.826   6.805
 2188TIP3   OH2 6504   4.372   2.124   4.111
 2188TIP3    H1 6505   4.423   2.181   4.168
 2188TIP3    H2 6506   4.291   2.173   4.095
 2189TIP3   OH2 6507   6.992   1.334   2.465
 2189TIP3    H1 6508   7.054   1.274   2.423
 2189TIP3    H2 6509   6.916   1.335   2.406
 2190TIP3   OH2 6510   0.254   2.287   4.439
 2190TIP3    H1 6511   0.228   2.207   4.393
 2190TIP3    H2 6512   0.215   2.358   4.387
 2191TIP3   OH2 6513   6.732   6.585   4.756
 2191TIP3    H1 6514   6.782   6.506   4.735
 2191TIP3    H2 6515   6.647   6.553   4.786
 2192TIP3   OH2 6516   3.418   2.561   1.136
 2192TIP3    H1 6517   3.407   2.608   1.053
 2192TIP3    H2 6518   3.352   2.599   1.194
 2193TIP3   OH2 6519   4.623   3.581   1.176
 2193TIP3    H1 6520   4.682   3.657   1.166
 2193TIP3    H2 6521   4.549   3.601   1.120
 2194TIP3   OH2 6522   8.186   1.696   6.622
 2194TIP3    H1 6523   8.226   1.711   6.707
 2194TIP3    H2 6524   8.113   1.757   6.619
 2195TIP3   OH2 6525   1.349   0.534   5.701
 2195TIP3    H1 6526   1.316   0.620   5.726
 2195TIP3    H2 6527   1.276   0.474   5.718
 2196TIP3   OH2 6528   4.129   4.090   4.007
 2196TIP3    H1 6529   4.148   3.996   4.006
 2196TIP3    H2 6530   4.048   4.099   3.957
 2197TIP3   OH2 6531   4.868   2.492   2.923
 2197TIP3    H1 6532   4.820   2.573   2.940
 2197TIP3    H2 6533   4.924   2.481   3.000
 2198TIP3   OH2 6534   6.387   0.417   1.383
 2198TIP3    H1 6535   6.451   0.483   1.357
 2198TIP3    H2 6536   6.329   0.408   1.307
 2199TIP3   OH2 6537   2.152   1.672   6.620
 2199TIP3    H1 6538   2.058   1.662   6.602
 2199TIP3    H2 6539   2.195   1.616   6.556
 2200TIP3   OH2 6540   5.014   5.718   0.934
 2200TIP3    H1 6541   4.992   5.672   1.015
 2200TIP3    H2 6542   5.107   5.699   0.921
 2201TIP3   OH2 6543   5.970   2.566   2.288
 2201TIP3    H1 6544   6.044   2.625   2.302
 2201TIP3    H2 6545   5.990   2.489   2.340
 2202TIP3   OH2 6546   0.524   0.861   3.974
 2202TIP3    H1 6547   0.481   0.944   3.951
 2202TIP3    H2 6548   0.474   0.828   4.048
 2203TIP3   OH2 6549   5.119   1.394   2.363
 2203TIP3    H1 6550   5.210   1.368   2.347
 2203TIP3    H2 6551   5.075   1.313   2.387
 2204TIP3   OH2 6552   5.799   7.359   4.223
 2204TIP3    H1 6553   5.803   7.424   4.292
 2204TIP3    H2 6554   5.890   7.338   4.203
 2205TIP3   OH2 6555   4.248   5.601   2.724
 2205TIP3    H1 6556   4.334   5.617   2.684
 2205TIP3    H2 6557   4.185   5.629   2.657
 2206TIP3   OH2 6558   7.103   6.764   0.227
 2206TIP3    H1 6559   7.121   6.848   0.270
 2206TIP3    H2 6560   7.180   6.746   0.174
 2207TIP3   OH2 6561   5.768   6.036   5.816
 2207TIP3    H1 6562   5.805   5.968   5.760
 2207TIP3    H2 6563   5.709   5.989   5.876
 2208TIP3   OH2 6564   0.441   3.949   1.513
 2208TIP3    H1 6565   0.527   3.921   1.484
 2208TIP3    H2 6566   0.382   3.879   1.485
 2209TIP3   OH2 6567   7.302   6.395   6.518
 2209TIP3    H1 6568   7.235   6.332   6.545
 2209TIP3    H2 6569   7.254   6.477   6.505
 2210TIP3   OH2 6570   1.046   5.367   1.680
 2210TIP3    H1 6571   1.052   5.333   1.590
 2210TIP3    H2 6572   1.024   5.459   1.668
 2211TIP3   OH2 6573   3.697   2.361   6.755
 2211TIP3    H1 6574   3.642   2.403   6.821
 2211TIP3    H2 6575   3.753   2.301   6.805
 2212TIP3   OH2 6576   3.394   7.512   1.397
 2212TIP3    H1 6577   3.366   7.589   1.446
 2212TIP3    H2 6578   3.404   7.444   1.463
 2213TIP3   OH2 6579   1.911   3.216   4.686
 2213TIP3    H1 6580   1.876   3.163   4.614
 2213TIP3    H2 6581   2.005   3.222   4.668
 2214TIP3   OH2 6582   4.903   5.250   6.439
 2214TIP3    H1 6583   4.983   5.224   6.394
 2214TIP3    H2 6584   4.890   5.182   6.506
 2215TIP3   OH2 6585   8.182   3.475   6.325
 2215TIP3    H1 6586   8.193   3.551   6.267
 2215TIP3    H2 6587   8.254   3.416   6.301
 2216TIP3   OH2 6588   3.876   2.759   0.805
 2216TIP3    H1 6589   3.893   2.770   0.899
 2216TIP3    H2 6590   3.796   2.707   0.801
 2217TIP3   OH2 6591   7.517   4.406   4.737
 2217TIP3    H1 6592   7.454   4.475   4.760
 2217TIP3    H2 6593   7.556   4.435   4.655
 2218TIP3   OH2 6594   4.058   5.635   0.198
 2218TIP3    H1 6595   4.147   5.670   0.193
 2218TIP3    H2 6596   4.004   5.703   0.156
 2219TIP3   OH2 6597   1.206   4.686   3.609
 2219TIP3    H1 6598   1.121   4.727   3.594
 2219TIP3    H2 6599   1.258   4.708   3.532
 2220TIP3   OH2 6600   7.176   4.283   3.947
 2220TIP3    H1 6601   7.125   4.282   3.866
 2220TIP3    H2 6602   7.235   4.208   3.939
 2221TIP3   OH2 6603   6.742   5.473   4.293
 2221TIP3    H1 6604   6.702   5.546   4.340
 2221TIP3    H2 6605   6.711   5.395   4.339
 2222TIP3   OH2 6606   3.795   2.820   4.464
 2222TIP3    H1 6607   3.796   2.738   4.513
 2222TIP3    H2 6608   3.888   2.840   4.450
 2223TIP3   OH2 6609   0.711   6.120   4.239
 2223TIP3    H1 6610   0.718   6.062   4.164
 2223TIP3    H2 6611   0.644   6.184   4.215
 2224TIP3   OH2 6612   0.049   0.766   6.266
 2224TIP3    H1 6613   0.114   0.814   6.216
 2224TIP3    H2 6614   0.094   0.741   6.347
 2225TIP3   OH2 6615   1.973   5.710   2.573
 2225TIP3    H1 6616   1.915   5.750   2.508
 2225TIP3    H2 6617   2.021   5.784   2.610
 2226TIP3   OH2 6618   5.653   6.442   2.904
 2226TIP3    H1 6619   5.738   6.485   2.893
 2226TIP3    H2 6620   5.673   6.355   2.937
 2227TIP3   OH2 6621   5.017   0.404   1.404
 2227TIP3    H1 6622   4.963   0.396   1.325
 2227TIP3    H2 6623   5.010   0.496   1.429
 2228TIP3   OH2 6624   7.566   2.684   2.923
 2228TIP3    H1 6625   7.631   2.716   2.986
 2228TIP3    H2 6626   7.614   2.676   2.840
 2229TIP3   OH2 6627   5.956   2.975   2.728
 2229TIP3    H1 6628   5.995   2.901   2.774
 2229TIP3    H2 6629   5.896   3.014   2.791
 2230TIP3   OH2 6630   0.025   7.295   5.995
 2230TIP3    H1 6631  -0.034   7.293   5.919
 2230TIP3    H2 6632   0.045   7.388   6.007
 2231TIP3   OH2 6633   5.584   3.279   2.903
 2231TIP3    H1 6634   5.552   3.327   2.979
 2231TIP3    H2 6635   5.609   3.348   2.841
 2232TIP3   OH2 6636   6.203   4.427   1.894
 2232TIP3    H1 6637   6.184   4.336   1.920
 2232TIP3    H2 6638   6.139   4.446   1.826
 2233TIP3   OH2 6639   4.589   5.885   1.366
 2233TIP3    H1 6640   4.564   5.908   1.456
 2233TIP3    H2 6641   4.658   5.948   1.345
 2234TIP3   OH2 6642   1.138   5.184   6.732
 2234TIP3    H1 6643   1.191   5.112   6.767
 2234TIP3    H2 6644   1.176   5.263   6.772
 2235TIP3   OH2 6645   1.591   2.232   5.921
 2235TIP3    H1 6646   1.557   2.143   5.921
 2235TIP3    H2 6647   1.686   2.222   5.913
 2236TIP3   OH2 6648   6.775   1.078   5.119
 2236TIP3    H1 6649   6.865   1.070   5.087
 2236TIP3    H2 6650   6.729   1.005   5.076
 2237TIP3   OH2 6651   0.611   4.658   0.843
 2237TIP3    H1 6652   0.567   4.645   0.759
 2237TIP3    H2 6653   0.572   4.736   0.880
 2238TIP3   OH2 6654   2.797   7.044   4.444
 2238TIP3    H1 6655   2.776   6.972   4.385
 2238TIP3    H2 6656   2.824   7.116   4.386
 2239TIP3   OH2 6657   3.790   2.105   5.073
 2239TIP3    H1 6658   3.714   2.111   5.015
 2239TIP3    H2 6659   3.865   2.106   5.013
 2240TIP3   OH2 6660   8.385   3.188   5.815
 2240TIP3    H1 6661   8.325   3.257   5.845
 2240TIP3    H2 6662   8.445   3.175   5.889
 2241TIP3   OH2 6663   8.311   6.259   2.609
 2241TIP3    H1 6664   8.396   6.216   2.617
 2241TIP3    H2 6665   8.331   6.347   2.576
 2242TIP3   OH2 6666   1.501   5.590   3.890
 2242TIP3    H1 6667   1.567   5.599   3.821
 2242TIP3    H2 6668   1.548   5.546   3.961
 2243TIP3   OH2 6669   4.745   1.842   0.150
 2243TIP3    H1 6670   4.769   1.749   0.153
 2243TIP3    H2 6671   4.784   1.879   0.229
 2244TIP3   OH2 6672   4.233   2.989   5.602
 2244TIP3    H1 6673   4.274   2.922   5.548
 2244TIP3    H2 6674   4.278   3.070   5.578
 2245TIP3   OH2 6675   3.755   1.266   5.567
 2245TIP3    H1 6676   3.715   1.316   5.638
 2245TIP3    H2 6677   3.821   1.325   5.529
 2246TIP3   OH2 6678   1.356   6.442   2.640
 2246TIP3    H1 6679   1.284   6.494   2.678
 2246TIP3    H2 6680   1.326   6.422   2.552
 2247TIP3   OH2 6681   7.106   2.407   2.954
 2247TIP3    H1 6682   7.160   2.478   2.918
 2247TIP3    H2 6683   7.129   2.331   2.900
 2248TIP3   OH2 6684   6.733   1.374   1.287
 2248TIP3    H1 6685   6.708   1.402   1.374
 2248TIP3    H2 6686   6.806   1.430   1.263
 2249TIP3   OH2 6687   2.825   5.538   6.365
 2249TIP3    H1 6688   2.821   5.537   6.461
 2249TIP3    H2 6689   2.913   5.570   6.345
 2250TIP3   OH2 6690   6.696   6.424   5.166
 2250TIP3    H1 6691   6.681   6.476   5.087
 2250TIP3    H2 6692   6.626   6.451   5.226
 2251TIP3   OH2 6693   3.993   2.475   6.823
 2251TIP3    H1 6694   3.976   2.409   6.891
 2251TIP3    H2 6695   3.922   2.538   6.832
 2252TIP3   OH2 6696   2.773   7.353   5.449
 2252TIP3    H1 6697   2.833   7.336   5.522
 2252TIP3    H2 6698   2.686   7.350   5.488
 2253TIP3   OH2 6699   5.238   2.850   3.415
 2253TIP3    H1 6700   5.214   2.787   3.483
 2253TIP3    H2 6701   5.330   2.870   3.433
 2254TIP3   OH2 6702   3.314   2.791   6.766
 2254TIP3    H1 6703   3.373   2.803   6.692
 2254TIP3    H2 6704   3.269   2.708   6.748
 2255TIP3   OH2 6705   5.309   3.430   5.971
 2255TIP3    H1 6706   5.327   3.519   6.002
 2255TIP3    H2 6707   5.388   3.406   5.922
 2256TIP3   OH2 6708   7.067   1.592   2.114
 2256TIP3    H1 6709   7.092   1.598   2.206
 2256TIP3    H2 6710   7.052   1.682   2.086
 2257TIP3   OH2 6711   4.748   2.202   4.304
 2257TIP3    H1 6712   4.663   2.243   4.287
 2257TIP3    H2 6713   4.746   2.121   4.253
 2258TIP3   OH2 6714   2.047   4.310   1.790
 2258TIP3    H1 6715   2.013   4.251   1.857
 2258TIP3    H2 6716   2.120   4.263   1.752
 2259TIP3   OH2 6717   1.519   4.933   6.803
 2259TIP3    H1 6718   1.548   4.997   6.738
 2259TIP3    H2 6719   1.596   4.877   6.817
 2260TIP3   OH2 6720   7.534   6.053   2.314
 2260TIP3    H1 6721   7.496   5.990   2.252
 2260TIP3    H2 6722   7.475   6.128   2.310
 2261TIP3   OH2 6723   7.903   2.306   4.910
 2261TIP3    H1 6724   7.813   2.278   4.896
 2261TIP3    H2 6725   7.896   2.396   4.942
 2262TIP3   OH2 6726   5.146   7.559   1.434
 2262TIP3    H1 6727   5.080   7.534   1.369
 2262TIP3    H2 6728   5.225   7.511   1.408
 2263TIP3   OH2 6729   4.505   2.170   2.841
 2263TIP3    H1 6730   4.417   2.134   2.833
 2263TIP3    H2 6731   4.552   2.109   2.897
 2264TIP3   OH2 6732   4.834   0.925   4.536
 2264TIP3    H1 6733   4.832   0.897   4.445
 2264TIP3    H2 6734   4.849   1.020   4.532
 2265TIP3   OH2 6735   1.373   5.681   2.096
 2265TIP3    H1 6736   1.402   5.590   2.088
 2265TIP3    H2 6737   1.347   5.706   2.008
 2266TIP3   OH2 6738   4.024   7.890   3.651
 2266TIP3    H1 6739   4.031   7.845   3.567
 2266TIP3    H2 6740   4.114   7.904   3.678
 2267TIP3   OH2 6741   3.727   3.789   5.458
 2267TIP3    H1 6742   3.713   3.696   5.442
 2267TIP3    H2 6743   3.725   3.830   5.371
 2268TIP3   OH2 6744   5.694   6.229   4.606
 2268TIP3    H1 6745   5.699   6.168   4.532
 2268TIP3    H2 6746   5.692   6.172   4.683
 2269TIP3   OH2 6747   5.807   2.517   0.573
 2269TIP3    H1 6748   5.809   2.476   0.487
 2269TIP3    H2 6749   5.795   2.444   0.634
 2270TIP3   OH2 6750   2.125   3.884   2.958
 2270TIP3    H1 6751   2.163   3.889   3.045
 2270TIP3    H2 6752   2.040   3.926   2.966
 2271TIP3   OH2 6753   5.820   5.596   6.705
 2271TIP3    H1 6754   5.765   5.643   6.766
 2271TIP3    H2 6755   5.820   5.506   6.737
 2272TIP3   OH2 6756   2.543   0.005   6.688
 2272TIP3    H1 6757   2.545  -0.075   6.637
 2272TIP3    H2 6758   2.519   0.073   6.626
 2273TIP3   OH2 6759   6.288   3.637   3.808
 2273TIP3    H1 6760   6.379   3.639   3.838
 2273TIP3    H2 6761   6.284   3.706   3.741
 2274TIP3   OH2 6762   6.298   5.300   0.420
 2274TIP3    H1 6763   6.391   5.312   0.400
 2274TIP3    H2 6764   6.272   5.381   0.464
 2275TIP3   OH2 6765   1.030   7.606   6.147
 2275TIP3    H1 6766   1.001   7.649   6.066
 2275TIP3    H2 6767   1.107   7.555   6.120
 2276TIP3   OH2 6768   6.051   4.475   2.470
 2276TIP3    H1 6769   5.995   4.402   2.445
 2276TIP3    H2 6770   6.052   4.533   2.394
 2277TIP3   OH2 6771   6.686   6.843   4.654
 2277TIP3    H1 6772   6.672   6.888   4.738
 2277TIP3    H2 6773   6.685   6.750   4.676
 2278TIP3   OH2 6774   6.080   3.840   5.893
 2278TIP3    H1 6775   6.021   3.897   5.843
 2278TIP3    H2 6776   6.039   3.754   5.889
 2279TIP3   OH2 6777   3.700   5.776   0.264
 2279TIP3    H1 6778   3.612   5.754   0.232
 2279TIP3    H2 6779   3.759   5.731   0.205
 2280TIP3   OH2 6780   5.205   2.579   0.239
 2280TIP3    H1 6781   5.186   2.562   0.331
 2280TIP3    H2 6782   5.206   2.492   0.198
 2281TIP3   OH2 6783   0.135   7.587   4.936
 2281TIP3    H1 6784   0.088   7.668   4.952
 2281TIP3    H2 6785   0.159   7.555   5.023
 2282TIP3   OH2 6786   8.034   0.183   2.986
 2282TIP3    H1 6787   7.963   0.172   3.050
 2282TIP3    H2 6788   8.063   0.273   2.998
 2283TIP3   OH2 6789   3.007   5.488   0.288
 2283TIP3    H1 6790   2.939   5.540   0.245
 2283TIP3    H2 6791   2.977   5.478   0.378
 2284TIP3   OH2 6792   3.577   3.093   1.166
 2284TIP3    H1 6793   3.653   3.043   1.196
 2284TIP3    H2 6794   3.522   3.029   1.123
 2285TIP3   OH2 6795   0.111   2.898   4.205
 2285TIP3    H1 6796   0.041   2.858   4.152
 2285TIP3    H2 6797   0.171   2.825   4.222
 2286TIP3   OH2 6798   0.965   2.971   3.631
 2286TIP3    H1 6799   0.874   2.957   3.603
 2286TIP3    H2 6800   0.968   3.063   3.656
 2287TIP3   OH2 6801   5.116   5.512   4.991
 2287TIP3    H1 6802   5.094   5.464   4.911
 2287TIP3    H2 6803   5.175   5.453   5.039
 2288TIP3   OH2 6804   0.202   1.228   2.169
 2288TIP3    H1 6805   0.146   1.279   2.111
 2288TIP3    H2 6806   0.263   1.184   2.109
 2289TIP3   OH2 6807   6.579   3.971   6.765
 2289TIP3    H1 6808   6.541   3.973   6.677
 2289TIP3    H2 6809   6.589   4.063   6.789
 2290TIP3   OH2 6810   8.394   4.732   4.475
 2290TIP3    H1 6811   8.413   4.644   4.442
 2290TIP3    H2 6812   8.423   4.731   4.566
 2291TIP3   OH2 6813   4.544   5.107   3.892
 2291TIP3    H1 6814   4.497   5.133   3.971
 2291TIP3    H2 6815   4.547   5.187   3.840
 2292TIP3   OH2 6816   7.070   3.596   5.658
 2292TIP3    H1 6817   7.116   3.669   5.700
 2292TIP3    H2 6818   7.140   3.542   5.622
 2293TIP3   OH2 6819   4.987   1.874   5.053
 2293TIP3    H1 6820   4.910   1.925   5.028
 2293TIP3    H2 6821   4.976   1.860   5.147
 2294TIP3   OH2 6822   7.631   2.386   4.915
 2294TIP3    H1 6823   7.637   2.460   4.854
 2294TIP3    H2 6824   7.632   2.427   5.002
 2295TIP3   OH2 6825   2.674   7.110   5.287
 2295TIP3    H1 6826   2.681   7.186   5.344
 2295TIP3    H2 6827   2.596   7.126   5.234
 2296TIP3   OH2 6828   7.570   6.502   6.044
 2296TIP3    H1 6829   7.485   6.496   6.087
 2296TIP3    H2 6830   7.550   6.493   5.951
 2297TIP3   OH2 6831   5.425   0.990   4.297
 2297TIP3    H1 6832   5.345   0.943   4.320
 2297TIP3    H2 6833   5.487   0.921   4.271
 2298TIP3   OH2 6834   2.668   4.030   0.406
 2298TIP3    H1 6835   2.612   4.054   0.331
 2298TIP3    H2 6836   2.712   4.112   0.430
 2299TIP3   OH2 6837   6.525   2.474   5.902
 2299TIP3    H1 6838   6.529   2.402   5.840
 2299TIP3    H2 6839   6.582   2.448   5.974
 2300TIP3   OH2 6840   5.509   6.717   2.063
 2300TIP3    H1 6841   5.581   6.669   2.105
 2300TIP3    H2 6842   5.490   6.789   2.123
 2301TIP3   OH2 6843   0.102   1.444   5.844
 2301TIP3    H1 6844   0.120   1.430   5.937
 2301TIP3    H2 6845   0.110   1.357   5.805
 2302TIP3   OH2 6846   4.240   1.367   6.296
 2302TIP3    H1 6847   4.311   1.373   6.360
 2302TIP3    H2 6848   4.257   1.438   6.234
 2303TIP3   OH2 6849   2.714   1.642   0.434
 2303TIP3    H1 6850   2.689   1.734   0.429
 2303TIP3    H2 6851   2.786   1.633   0.372
 2304TIP3   OH2 6852   3.754   6.049   3.522
 2304TIP3    H1 6853   3.659   6.041   3.536
 2304TIP3    H2 6854   3.794   6.008   3.598
 2305TIP3   OH2 6855   4.753   7.591   5.943
 2305TIP3    H1 6856   4.816   7.664   5.948
 2305TIP3    H2 6857   4.694   7.606   6.016
 2306TIP3   OH2 6858   7.385   3.845   5.283
 2306TIP3    H1 6859   7.319   3.782   5.255
 2306TIP3    H2 6860   7.336   3.923   5.309
 2307TIP3   OH2 6861   0.376   4.991   2.274
 2307TIP3    H1 6862   0.388   4.934   2.198
 2307TIP3    H2 6863   0.399   5.078   2.242
 2308TIP3   OH2 6864   8.053   1.855   3.273
 2308TIP3    H1 6865   8.052   1.930   3.214
 2308TIP3    H2 6866   7.968   1.813   3.259
 2309TIP3   OH2 6867   2.517   7.286   2.736
 2309TIP3    H1 6868   2.459   7.221   2.776
 2309TIP3    H2 6869   2.602   7.269   2.776
 2310TIP3   OH2 6870   1.661   0.126   1.863
 2310TIP3    H1 6871   1.691   0.097   1.777
 2310TIP3    H2 6872   1.622   0.212   1.847
 2311TIP3   OH2 6873   0.973   1.856   0.899
 2311TIP3    H1 6874   0.904   1.901   0.850
 2311TIP3    H2 6875   0.957   1.882   0.990
 2312TIP3   OH2 6876   6.750   0.928   2.918
 2312TIP3    H1 6877   6.764   0.987   2.992
 2312TIP3    H2 6878   6.744   0.985   2.842
 2313TIP3   OH2 6879   7.006   5.628   2.356
 2313TIP3    H1 6880   7.070   5.687   2.317
 2313TIP3    H2 6881   6.923   5.649   2.312
 2314TIP3   OH2 6882   6.088   5.838   1.466
 2314TIP3    H1 6883   6.078   5.892   1.387
 2314TIP3    H2 6884   6.087   5.748   1.434
 2315TIP3   OH2 6885   1.278   6.135   2.871
 2315TIP3    H1 6886   1.303   6.154   2.780
 2315TIP3    H2 6887   1.233   6.214   2.901
 2316TIP3   OH2 6888   4.432   7.564   1.822
 2316TIP3    H1 6889   4.355   7.620   1.833
 2316TIP3    H2 6890   4.441   7.518   1.905
 2317TIP3   OH2 6891   4.329   5.362   5.043
 2317TIP3    H1 6892   4.253   5.322   4.999
 2317TIP3    H2 6893   4.350   5.300   5.113
 2318TIP3   OH2 6894   1.779   5.000   6.101
 2318TIP3    H1 6895   1.739   5.083   6.075
 2318TIP3    H2 6896   1.743   4.936   6.039
 2319TIP3   OH2 6897   6.309   2.524   1.542
 2319TIP3    H1 6898   6.238   2.469   1.574
 2319TIP3    H2 6899   6.378   2.517   1.608
 2320TIP3   OH2 6900   0.689   3.882   1.997
 2320TIP3    H1 6901   0.613   3.823   1.998
 2320TIP3    H2 6902   0.716   3.885   1.906
 2321TIP3   OH2 6903   0.138   0.328   2.632
 2321TIP3    H1 6904   0.056   0.377   2.638
 2321TIP3    H2 6905   0.125   0.251   2.687
 2322TIP3   OH2 6906   4.952   0.718   5.089
 2322TIP3    H1 6907   4.865   0.749   5.063
 2322TIP3    H2 6908   5.002   0.797   5.105
 2323TIP3   OH2 6909   6.751   7.049   3.061
 2323TIP3    H1 6910   6.847   7.048   3.063
 2323TIP3    H2 6911   6.726   7.031   3.152
 2324TIP3   OH2 6912   3.079   6.353   0.800
 2324TIP3    H1 6913   3.128   6.322   0.724
 2324TIP3    H2 6914   3.087   6.448   0.796
 2325TIP3   OH2 6915   2.563   1.443   1.810
 2325TIP3    H1 6916   2.638   1.431   1.752
 2325TIP3    H2 6917   2.587   1.518   1.865
 2326TIP3   OH2 6918   2.243   3.246   6.645
 2326TIP3    H1 6919   2.250   3.332   6.604
 2326TIP3    H2 6920   2.312   3.245   6.711
 2327TIP3   OH2 6921   5.305   3.187   1.642
 2327TIP3    H1 6922   5.384   3.217   1.686
 2327TIP3    H2 6923   5.267   3.123   1.703
 2328TIP3   OH2 6924   4.453   0.513   0.092
 2328TIP3    H1 6925   4.464   0.453   0.166
 2328TIP3    H2 6926   4.373   0.482   0.048
 2329TIP3   OH2 6927   2.526   1.945   1.053
 2329TIP3    H1 6928   2.567   1.867   1.017
 2329TIP3    H2 6929   2.598   1.995   1.092
 2330TIP3   OH2 6930   6.624   1.941   0.990
 2330TIP3    H1 6931   6.689   1.998   0.949
 2330TIP3    H2 6932   6.544   1.956   0.939
 2331TIP3   OH2 6933   1.709   1.239   6.490
 2331TIP3    H1 6934   1.713   1.178   6.563
 2331TIP3    H2 6935   1.663   1.315   6.524
 2332TIP3   OH2 6936   3.543   6.045   6.542
 2332TIP3    H1 6937   3.449   6.031   6.538
 2332TIP3    H2 6938   3.556   6.135   6.513
 2333TIP3   OH2 6939   0.672   0.346   2.493
 2333TIP3    H1 6940   0.678   0.427   2.544
 2333TIP3    H2 6941   0.610   0.366   2.424
 2334TIP3   OH2 6942   4.095   0.297   3.285
 2334TIP3    H1 6943   4.103   0.325   3.194
 2334TIP3    H2 6944   4.137   0.211   3.288
 2335TIP3   OH2 6945   2.920   1.878   1.188
 2335TIP3    H1 6946   3.011   1.890   1.160
 2335TIP3    H2 6947   2.923   1.803   1.247
 2336TIP3   OH2 6948   1.418   7.884   6.046
 2336TIP3    H1 6949   1.397   7.859   6.136
 2336TIP3    H2 6950   1.407   7.803   5.996
 2337TIP3   OH2 6951   5.249   5.627   3.943
 2337TIP3    H1 6952   5.280   5.698   4.000
 2337TIP3    H2 6953   5.157   5.616   3.967
 2338TIP3   OH2 6954   7.068   5.868   5.664
 2338TIP3    H1 6955   7.006   5.796   5.681
 2338TIP3    H2 6956   7.154   5.826   5.664
 2339TIP3   OH2 6957   0.249   3.089   1.911
 2339TIP3    H1 6958   0.333   3.129   1.886
 2339TIP3    H2 6959   0.230   3.028   1.840
 2340TIP3   OH2 6960   1.119   2.024   6.367
 2340TIP3    H1 6961   1.089   2.082   6.436
 2340TIP3    H2 6962   1.060   2.040   6.294
 2341TIP3   OH2 6963   6.064   0.399   3.828
 2341TIP3    H1 6964   5.989   0.348   3.859
 2341TIP3    H2 6965   6.042   0.489   3.849
 2342TIP3   OH2 6966   2.322   3.022   4.029
 2342TIP3    H1 6967   2.299   2.963   4.100
 2342TIP3    H2 6968   2.251   3.087   4.029
 2343TIP3   OH2 6969   3.583   7.570   3.565
 2343TIP3    H1 6970   3.524   7.596   3.495
 2343TIP3    H2 6971   3.539   7.597   3.646
 2344TIP3   OH2 6972   4.175   5.836   3.714
 2344TIP3    H1 6973   4.187   5.767   3.649
 2344TIP3    H2 6974   4.080   5.847   3.720
 2345TIP3   OH2 6975   3.834   7.220   5.900
 2345TIP3    H1 6976   3.758   7.185   5.946
 2345TIP3    H2 6977   3.803   7.300   5.858
 2346TIP3   OH2 6978   7.318   3.948   0.152
 2346TIP3    H1 6979   7.409   3.948   0.123
 2346TIP3    H2 6980   7.307   3.863   0.196
 2347TIP3   OH2 6981   7.760   3.069   4.582
 2347TIP3    H1 6982   7.736   3.021   4.503
 2347TIP3    H2 6983   7.829   3.129   4.554
 2348TIP3   OH2 6984   4.396   3.561   5.426
 2348TIP3    H1 6985   4.307   3.533   5.445
 2348TIP3    H2 6986   4.402   3.559   5.331
 2349TIP3   OH2 6987   2.411   3.539   6.090
 2349TIP3    H1 6988   2.395   3.538   5.995
 2349TIP3    H2 6989   2.414   3.446   6.114
 2350TIP3   OH2 6990   8.151   1.713   2.083
 2350TIP3    H1 6991   8.216   1.714   2.013
 2350TIP3    H2 6992   8.134   1.805   2.102
 2351TIP3   OH2 6993   5.870   4.159   0.315
 2351TIP3    H1 6994   5.867   4.124   0.226
 2351TIP3    H2 6995   5.907   4.246   0.305
 2352TIP3   OH2 6996   6.509   5.318   4.583
 2352TIP3    H1 6997   6.428   5.350   4.542
 2352TIP3    H2 6998   6.548   5.396   4.622
 2353TIP3   OH2 6999   8.359   7.837   5.030
 2353TIP3    H1 7000   8.400   7.911   4.986
 2353TIP3    H2 7001   8.265   7.851   5.020
 2354TIP3   OH2 7002   5.964   5.053   6.471
 2354TIP3    H1 7003   6.037   4.993   6.450
 2354TIP3    H2 7004   5.970   5.121   6.404
 2355TIP3   OH2 7005   2.878   0.240   4.348
 2355TIP3    H1 7006   2.845   0.171   4.291
 2355TIP3    H2 7007   2.971   0.220   4.358
 2356TIP3   OH2 7008   8.383   7.860   2.513
 2356TIP3    H1 7009   8.288   7.850   2.506
 2356TIP3    H2 7010   8.404   7.929   2.451
 2357TIP3   OH2 7011   0.274   0.385   5.165
 2357TIP3    H1 7012   0.369   0.388   5.176
 2357TIP3    H2 7013   0.260   0.324   5.092
 2358TIP3   OH2 7014   4.968   5.848   4.198
 2358TIP3    H1 7015   4.899   5.846   4.132
 2358TIP3    H2 7016   5.035   5.906   4.161
 2359TIP3   OH2 7017   6.826   3.295   5.520
 2359TIP3    H1 7018   6.892   3.295   5.590
 2359TIP3    H2 7019   6.815   3.203   5.497
 2360TIP3   OH2 7020   1.666   1.123   4.398
 2360TIP3    H1 7021   1.654   1.174   4.478
 2360TIP3    H2 7022   1.585   1.136   4.349
 2361TIP3   OH2 7023   2.655   2.976   2.467
 2361TIP3    H1 7024   2.731   2.977   2.408
 2361TIP3    H2 7025   2.582   3.002   2.412
 2362TIP3   OH2 7026   0.352   6.468   3.522
 2362TIP3    H1 7027   0.359   6.372   3.522
 2362TIP3    H2 7028   0.421   6.497   3.463
 2363TIP3   OH2 7029   6.202   5.655   5.177
 2363TIP3    H1 7030   6.285   5.671   5.132
 2363TIP3    H2 7031   6.195   5.560   5.181
 2364TIP3   OH2 7032   5.725   1.646   1.165
 2364TIP3    H1 7033   5.650   1.620   1.113
 2364TIP3    H2 7034   5.702   1.734   1.197
 2365TIP3   OH2 7035   6.000   7.811   0.758
 2365TIP3    H1 7036   5.997   7.784   0.666
 2365TIP3    H2 7037   5.913   7.791   0.791
 2366TIP3   OH2 7038   3.266   1.721   4.270
 2366TIP3    H1 7039   3.350   1.758   4.246
 2366TIP3    H2 7040   3.227   1.785   4.330
 2367TIP3   OH2 7041   3.038   5.691   1.577
 2367TIP3    H1 7042   2.985   5.728   1.648
 2367TIP3    H2 7043   3.075   5.611   1.616
 2368TIP3   OH2 7044   5.009   7.602   2.619
 2368TIP3    H1 7045   5.101   7.627   2.630
 2368TIP3    H2 7046   4.998   7.526   2.676
 2369TIP3   OH2 7047   8.176   6.182   2.258
 2369TIP3    H1 7048   8.230   6.256   2.285
 2369TIP3    H2 7049   8.096   6.221   2.225
 2370TIP3   OH2 7050   7.244   5.390   2.044
 2370TIP3    H1 7051   7.175   5.350   1.993
 2370TIP3    H2 7052   7.325   5.347   2.015
 2371TIP3   OH2 7053   2.183   2.657   5.304
 2371TIP3    H1 7054   2.250   2.601   5.265
 2371TIP3    H2 7055   2.100   2.616   5.280
 2372TIP3   OH2 7056   5.644   6.078   1.635
 2372TIP3    H1 7057   5.601   6.043   1.557
 2372TIP3    H2 7058   5.705   6.009   1.662
 2373TIP3   OH2 7059   7.669   1.244   6.498
 2373TIP3    H1 7060   7.647   1.174   6.436
 2373TIP3    H2 7061   7.618   1.319   6.469
 2374TIP3   OH2 7062   5.349   7.293   0.503
 2374TIP3    H1 7063   5.323   7.334   0.421
 2374TIP3    H2 7064   5.445   7.292   0.500
 2375TIP3   OH2 7065   5.312   1.907   4.395
 2375TIP3    H1 7066   5.330   1.897   4.489
 2375TIP3    H2 7067   5.399   1.918   4.355
 2376TIP3   OH2 7068   5.442   1.842   5.158
 2376TIP3    H1 7069   5.471   1.824   5.247
 2376TIP3    H2 7070   5.471   1.932   5.140
 2377TIP3   OH2 7071   6.786   3.019   4.362
 2377TIP3    H1 7072   6.802   3.040   4.454
 2377TIP3    H2 7073   6.821   2.931   4.351
 2378TIP3   OH2 7074   4.275   6.359   1.081
 2378TIP3    H1 7075   4.311   6.397   1.161
 2378TIP3    H2 7076   4.258   6.268   1.103
 2379TIP3   OH2 7077   4.735   3.627   5.329
 2379TIP3    H1 7078   4.748   3.622   5.423
 2379TIP3    H2 7079   4.820   3.601   5.292
 2380TIP3   OH2 7080   6.743   6.656   0.990
 2380TIP3    H1 7081   6.671   6.647   0.928
 2380TIP3    H2 7082   6.745   6.571   1.036
 2381TIP3   OH2 7083   6.144   6.684   0.644
 2381TIP3    H1 7084   6.224   6.631   0.635
 2381TIP3    H2 7085   6.094   6.640   0.712
 2382TIP3   OH2 7086   5.238   3.686   1.643
 2382TIP3    H1 7087   5.330   3.691   1.669
 2382TIP3    H2 7088   5.220   3.592   1.637
 2383TIP3   OH2 7089   4.979   6.336   2.429
 2383TIP3    H1 7090   4.938   6.295   2.505
 2383TIP3    H2 7091   4.905   6.358   2.372
 2384TIP3   OH2 7092   7.015   3.436   2.164
 2384TIP3    H1 7093   6.931   3.390   2.164
 2384TIP3    H2 7094   7.013   3.490   2.085
 2385TIP3   OH2 7095   2.476   6.304   6.069
 2385TIP3    H1 7096   2.543   6.303   6.001
 2385TIP3    H2 7097   2.430   6.220   6.059
 2386TIP3   OH2 7098   1.528   6.308   5.009
 2386TIP3    H1 7099   1.611   6.348   5.037
 2386TIP3    H2 7100   1.467   6.326   5.080
 2387TIP3   OH2 7101   4.760   1.635   3.782
 2387TIP3    H1 7102   4.833   1.573   3.789
 2387TIP3    H2 7103   4.754   1.675   3.869
 2388TIP3   OH2 7104   4.468   3.323   1.667
 2388TIP3    H1 7105   4.558   3.294   1.686
 2388TIP3    H2 7106   4.463   3.410   1.706
 2389TIP3   OH2 7107   3.916   7.626   2.411
 2389TIP3    H1 7108   3.981   7.568   2.451
 2389TIP3    H2 7109   3.874   7.669   2.485
 2390TIP3   OH2 7110   2.929   3.671   6.059
 2390TIP3    H1 7111   2.860   3.607   6.075
 2390TIP3    H2 7112   2.970   3.684   6.145
 2391TIP3   OH2 7113   7.711   3.016   3.350
 2391TIP3    H1 7114   7.788   3.006   3.406
 2391TIP3    H2 7115   7.720   3.104   3.312
 2392TIP3   OH2 7116   6.316   1.289   4.189
 2392TIP3    H1 7117   6.297   1.371   4.143
 2392TIP3    H2 7118   6.385   1.313   4.252
 2393TIP3   OH2 7119   6.538   4.440   5.911
 2393TIP3    H1 7120   6.599   4.423   5.839
 2393TIP3    H2 7121   6.560   4.375   5.977
 2394TIP3   OH2 7122   6.539   6.479   4.516
 2394TIP3    H1 7123   6.537   6.403   4.575
 2394TIP3    H2 7124   6.512   6.553   4.571
 2395TIP3   OH2 7125   2.978   4.656   2.891
 2395TIP3    H1 7126   3.074   4.653   2.888
 2395TIP3    H2 7127   2.956   4.606   2.970
 2396TIP3   OH2 7128   3.536   1.470   5.030
 2396TIP3    H1 7129   3.540   1.466   5.125
 2396TIP3    H2 7130   3.623   1.503   5.004
 2397TIP3   OH2 7131   6.464   4.270   5.612
 2397TIP3    H1 7132   6.427   4.202   5.556
 2397TIP3    H2 7133   6.394   4.336   5.618
 2398TIP3   OH2 7134   4.561   0.008   3.907
 2398TIP3    H1 7135   4.629  -0.051   3.875
 2398TIP3    H2 7136   4.572   0.008   4.002
 2399TIP3   OH2 7137   7.447   3.537   6.295
 2399TIP3    H1 7138   7.488   3.593   6.360
 2399TIP3    H2 7139   7.490   3.561   6.213
 2400TIP3   OH2 7140   5.748   5.243   3.549
 2400TIP3    H1 7141   5.776   5.324   3.592
 2400TIP3    H2 7142   5.799   5.174   3.592
 2401TIP3   OH2 7143   4.258   5.165   2.864
 2401TIP3    H1 7144   4.266   5.228   2.936
 2401TIP3    H2 7145   4.348   5.146   2.838
 2402TIP3   OH2 7146   2.564   3.877   2.348
 2402TIP3    H1 7147   2.602   3.866   2.435
 2402TIP3    H2 7148   2.580   3.969   2.327
 2403TIP3   OH2 7149   0.134   1.671   3.855
 2403TIP3    H1 7150   0.056   1.725   3.843
 2403TIP3    H2 7151   0.200   1.732   3.889
 2404TIP3   OH2 7152   2.811   7.677   3.972
 2404TIP3    H1 7153   2.871   7.750   3.992
 2404TIP3    H2 7154   2.834   7.652   3.882
 2405TIP3   OH2 7155   3.083   6.119   6.002
 2405TIP3    H1 7156   3.058   6.203   6.041
 2405TIP3    H2 7157   3.078   6.134   5.907
 2406TIP3   OH2 7158   0.200   0.972   1.732
 2406TIP3    H1 7159   0.209   0.881   1.702
 2406TIP3    H2 7160   0.223   1.024   1.655
 2407TIP3   OH2 7161   8.327   5.053   1.136
 2407TIP3    H1 7162   8.393   5.004   1.184
 2407TIP3    H2 7163   8.351   5.043   1.044
 2408TIP3   OH2 7164   0.765   4.941   2.626
 2408TIP3    H1 7165   0.832   4.966   2.562
 2408TIP3    H2 7166   0.753   5.019   2.680
 2409TIP3   OH2 7167   4.974   5.052   5.149
 2409TIP3    H1 7168   4.932   5.137   5.135
 2409TIP3    H2 7169   4.985   5.046   5.244
 2410TIP3   OH2 7170   4.170   1.506   3.702
 2410TIP3    H1 7171   4.155   1.598   3.722
 2410TIP3    H2 7172   4.086   1.475   3.668
 2411TIP3   OH2 7173   7.512   6.768   0.685
 2411TIP3    H1 7174   7.440   6.740   0.629
 2411TIP3    H2 7175   7.589   6.726   0.647
 2412TIP3   OH2 7176   3.610   5.168   6.403
 2412TIP3    H1 7177   3.669   5.200   6.334
 2412TIP3    H2 7178   3.617   5.073   6.399
 2413TIP3   OH2 7179   7.078   5.368   3.903
 2413TIP3    H1 7180   6.995   5.363   3.856
 2413TIP3    H2 7181   7.053   5.381   3.994
 2414TIP3   OH2 7182   5.858   6.045   3.402
 2414TIP3    H1 7183   5.887   5.962   3.441
 2414TIP3    H2 7184   5.776   6.022   3.358
 2415TIP3   OH2 7185   5.940   1.739   4.167
 2415TIP3    H1 7186   6.023   1.721   4.123
 2415TIP3    H2 7187   5.923   1.831   4.150
 2416TIP3   OH2 7188   2.637   7.813   0.699
 2416TIP3    H1 7189   2.694   7.752   0.652
 2416TIP3    H2 7190   2.565   7.758   0.732
 2417TIP3   OH2 7191   5.624   7.379   6.518
 2417TIP3    H1 7192   5.593   7.426   6.440
 2417TIP3    H2 7193   5.602   7.437   6.591
 2418TIP3   OH2 7194   6.913   7.595   2.745
 2418TIP3    H1 7195   6.881   7.560   2.663
 2418TIP3    H2 7196   7.008   7.603   2.733
 2419TIP3   OH2 7197   0.378   2.838   5.277
 2419TIP3    H1 7198   0.394   2.818   5.185
 2419TIP3    H2 7199   0.458   2.811   5.322
 2420TIP3   OH2 7200   2.398   5.827   2.653
 2420TIP3    H1 7201   2.469   5.767   2.676
 2420TIP3    H2 7202   2.334   5.772   2.607
 2421TIP3   OH2 7203   3.464   5.009   5.778
 2421TIP3    H1 7204   3.397   5.076   5.781
 2421TIP3    H2 7205   3.448   4.962   5.696
 2422TIP3   OH2 7206   0.235   2.816   2.344
 2422TIP3    H1 7207   0.262   2.845   2.431
 2422TIP3    H2 7208   0.143   2.791   2.354
 2423TIP3   OH2 7209   8.067   1.157   3.507
 2423TIP3    H1 7210   8.037   1.115   3.588
 2423TIP3    H2 7211   8.160   1.175   3.522
 2424TIP3   OH2 7212   7.491   1.674   5.972
 2424TIP3    H1 7213   7.561   1.618   5.939
 2424TIP3    H2 7214   7.427   1.613   6.010
 2425TIP3   OH2 7215   5.708   7.914   0.591
 2425TIP3    H1 7216   5.707   7.820   0.573
 2425TIP3    H2 7217   5.694   7.954   0.505
 2426TIP3   OH2 7218   6.690   1.015   2.283
 2426TIP3    H1 7219   6.609   1.031   2.331
 2426TIP3    H2 7220   6.751   0.981   2.348
 2427TIP3   OH2 7221   1.925   1.025   4.395
 2427TIP3    H1 7222   1.962   1.031   4.307
 2427TIP3    H2 7223   1.845   1.079   4.390
 2428TIP3   OH2 7224   8.239   4.133   1.643
 2428TIP3    H1 7225   8.307   4.071   1.669
 2428TIP3    H2 7226   8.279   4.219   1.654
 2429TIP3   OH2 7227   7.931   1.406   3.181
 2429TIP3    H1 7228   7.987   1.370   3.250
 2429TIP3    H2 7229   7.861   1.452   3.227
 2430TIP3   OH2 7230   1.119   4.222   2.157
 2430TIP3    H1 7231   1.135   4.239   2.250
 2430TIP3    H2 7232   1.058   4.291   2.130
 2431TIP3   OH2 7233   3.455   6.242   5.246
 2431TIP3    H1 7234   3.400   6.165   5.256
 2431TIP3    H2 7235   3.394   6.314   5.229
 2432TIP3   OH2 7236   2.244   3.543   5.559
 2432TIP3    H1 7237   2.265   3.500   5.642
 2432TIP3    H2 7238   2.325   3.588   5.533
 2433TIP3   OH2 7239   0.943   0.648   6.674
 2433TIP3    H1 7240   0.945   0.662   6.768
 2433TIP3    H2 7241   0.987   0.564   6.661
 2434TIP3   OH2 7242   4.681   6.923   4.703
 2434TIP3    H1 7243   4.749   6.965   4.756
 2434TIP3    H2 7244   4.600   6.937   4.752
 2435TIP3   OH2 7245   4.496   7.664   3.821
 2435TIP3    H1 7246   4.415   7.706   3.791
 2435TIP3    H2 7247   4.542   7.642   3.740
 2436TIP3   OH2 7248   6.854   2.438   1.641
 2436TIP3    H1 7249   6.896   2.520   1.618
 2436TIP3    H2 7250   6.824   2.450   1.731
 2437TIP3   OH2 7251   7.258   3.237   6.126
 2437TIP3    H1 7252   7.279   3.247   6.033
 2437TIP3    H2 7253   7.312   3.163   6.155
 2438TIP3   OH2 7254   3.262   5.623   0.580
 2438TIP3    H1 7255   3.332   5.683   0.606
 2438TIP3    H2 7256   3.286   5.595   0.492
 2439TIP3   OH2 7257   5.248   7.158   1.340
 2439TIP3    H1 7258   5.231   7.112   1.258
 2439TIP3    H2 7259   5.265   7.248   1.314
 2440TIP3   OH2 7260   3.730   6.532   0.286
 2440TIP3    H1 7261   3.686   6.616   0.269
 2440TIP3    H2 7262   3.755   6.499   0.200
 2441TIP3   OH2 7263   2.694   6.062   0.701
 2441TIP3    H1 7264   2.729   6.063   0.612
 2441TIP3    H2 7265   2.627   6.131   0.701
 2442TIP3   OH2 7266   1.640   0.833   2.558
 2442TIP3    H1 7267   1.608   0.779   2.486
 2442TIP3    H2 7268   1.727   0.862   2.530
 2443TIP3   OH2 7269   3.705   0.734   1.248
 2443TIP3    H1 7270   3.743   0.692   1.170
 2443TIP3    H2 7271   3.613   0.707   1.246
 2444TIP3   OH2 7272   5.438   0.401   2.364
 2444TIP3    H1 7273   5.451   0.323   2.417
 2444TIP3    H2 7274   5.510   0.399   2.300
 2445TIP3   OH2 7275   8.314   4.792   6.712
 2445TIP3    H1 7276   8.345   4.766   6.799
 2445TIP3    H2 7277   8.243   4.731   6.693
 2446TIP3   OH2 7278   3.510   3.832   2.869
 2446TIP3    H1 7279   3.474   3.880   2.794
 2446TIP3    H2 7280   3.433   3.804   2.919
 2447TIP3   OH2 7281   5.449   6.285   1.909
 2447TIP3    H1 7282   5.428   6.378   1.910
 2447TIP3    H2 7283   5.459   6.261   2.001
 2448TIP3   OH2 7284   3.368   5.880   0.529
 2448TIP3    H1 7285   3.421   5.954   0.558
 2448TIP3    H2 7286   3.376   5.881   0.433
 2449TIP3   OH2 7287   0.809   3.307   5.077
 2449TIP3    H1 7288   0.714   3.318   5.076
 2449TIP3    H2 7289   0.827   3.243   5.008
 2450TIP3   OH2 7290   6.399   0.141   0.873
 2450TIP3    H1 7291   6.472   0.146   0.812
 2450TIP3    H2 7292   6.321   0.154   0.819
 2451TIP3   OH2 7293   0.248   4.399   2.540
 2451TIP3    H1 7294   0.197   4.478   2.522
 2451TIP3    H2 7295   0.339   4.429   2.539
 2452TIP3   OH2 7296   1.362   1.195   5.566
 2452TIP3    H1 7297   1.294   1.137   5.531
 2452TIP3    H2 7298   1.443   1.146   5.555
 2453TIP3   OH2 7299   0.327   2.574   1.215
 2453TIP3    H1 7300   0.318   2.479   1.211
 2453TIP3    H2 7301   0.411   2.589   1.259
 2454TIP3   OH2 7302   8.107   1.044   5.646
 2454TIP3    H1 7303   8.043   1.087   5.589
 2454TIP3    H2 7304   8.079   0.953   5.649
 2455TIP3   OH2 7305   0.910   3.391   3.317
 2455TIP3    H1 7306   0.955   3.366   3.237
 2455TIP3    H2 7307   0.939   3.481   3.334
 2456TIP3   OH2 7308   6.159   1.370   2.615
 2456TIP3    H1 7309   6.064   1.373   2.604
 2456TIP3    H2 7310   6.183   1.460   2.639
 2457TIP3   OH2 7311   2.002   5.906   3.119
 2457TIP3    H1 7312   2.029   5.997   3.105
 2457TIP3    H2 7313   1.909   5.904   3.093
 2458TIP3   OH2 7314   6.903   6.318   5.511
 2458TIP3    H1 7315   6.901   6.399   5.562
 2458TIP3    H2 7316   6.957   6.258   5.561
 2459TIP3   OH2 7317   2.725   0.865   0.434
 2459TIP3    H1 7318   2.763   0.825   0.356
 2459TIP3    H2 7319   2.654   0.806   0.458
 2460TIP3   OH2 7320   7.867   3.050   5.640
 2460TIP3    H1 7321   7.920   3.074   5.564
 2460TIP3    H2 7322   7.931   3.038   5.710
 2461TIP3   OH2 7323   6.435   2.511   1.785
 2461TIP3    H1 7324   6.362   2.459   1.818
 2461TIP3    H2 7325   6.511   2.483   1.837
 2462TIP3   OH2 7326   6.310   4.047   3.602
 2462TIP3    H1 7327   6.251   4.083   3.535
 2462TIP3    H2 7328   6.308   3.953   3.587
 2463TIP3   OH2 7329   6.367   4.570   1.499
 2463TIP3    H1 7330   6.395   4.647   1.548
 2463TIP3    H2 7331   6.272   4.575   1.499
 2464TIP3   OH2 7332   0.088   6.886   3.538
 2464TIP3    H1 7333   0.121   6.809   3.491
 2464TIP3    H2 7334  -0.007   6.883   3.525
 2465TIP3   OH2 7335   7.075   6.161   3.219
 2465TIP3    H1 7336   7.118   6.214   3.152
 2465TIP3    H2 7337   7.100   6.203   3.302
 2466TIP3   OH2 7338   6.767   0.532   6.201
 2466TIP3    H1 7339   6.835   0.467   6.180
 2466TIP3    H2 7340   6.699   0.516   6.136
 2467TIP3   OH2 7341   6.580   6.780   5.448
 2467TIP3    H1 7342   6.582   6.868   5.410
 2467TIP3    H2 7343   6.665   6.772   5.492
 2468TIP3   OH2 7344   2.762   5.244   5.516
 2468TIP3    H1 7345   2.682   5.210   5.556
 2468TIP3    H2 7346   2.831   5.185   5.546
 2469TIP3   OH2 7347   3.681   0.903   4.632
 2469TIP3    H1 7348   3.626   0.937   4.703
 2469TIP3    H2 7349   3.677   0.808   4.643
 2470TIP3   OH2 7350   1.402   2.287   1.722
 2470TIP3    H1 7351   1.423   2.233   1.646
 2470TIP3    H2 7352   1.415   2.377   1.691
 2471TIP3   OH2 7353   3.561   0.924   1.986
 2471TIP3    H1 7354   3.641   0.974   1.970
 2471TIP3    H2 7355   3.565   0.852   1.923
 2472TIP3   OH2 7356   2.742   7.822   4.366
 2472TIP3    H1 7357   2.697   7.901   4.336
 2472TIP3    H2 7358   2.821   7.818   4.312
 2473TIP3   OH2 7359   2.029   7.706   5.757
 2473TIP3    H1 7360   2.067   7.633   5.805
 2473TIP3    H2 7361   1.934   7.692   5.762
 2474TIP3   OH2 7362   0.965   3.864   6.307
 2474TIP3    H1 7363   1.049   3.907   6.323
 2474TIP3    H2 7364   0.986   3.789   6.252
 2475TIP3   OH2 7365   7.573   2.005   5.700
 2475TIP3    H1 7366   7.569   1.936   5.634
 2475TIP3    H2 7367   7.592   1.960   5.782
 2476TIP3   OH2 7368   5.712   3.470   2.725
 2476TIP3    H1 7369   5.795   3.458   2.679
 2476TIP3    H2 7370   5.696   3.564   2.722
 2477TIP3   OH2 7371   2.855   2.389   6.359
 2477TIP3    H1 7372   2.901   2.322   6.309
 2477TIP3    H2 7373   2.776   2.346   6.390
 2478TIP3   OH2 7374   1.732   7.271   0.442
 2478TIP3    H1 7375   1.680   7.200   0.479
 2478TIP3    H2 7376   1.724   7.343   0.505
 2479TIP3   OH2 7377   1.371   3.162   6.321
 2479TIP3    H1 7378   1.354   3.124   6.407
 2479TIP3    H2 7379   1.439   3.227   6.336
 2480TIP3   OH2 7380   6.365   2.981   5.013
 2480TIP3    H1 7381   6.460   2.985   5.008
 2480TIP3    H2 7382   6.347   2.953   5.103
 2481TIP3   OH2 7383   2.757   2.037   0.616
 2481TIP3    H1 7384   2.846   2.006   0.598
 2481TIP3    H2 7385   2.705   1.957   0.623
 2482TIP3   OH2 7386   2.130   5.676   3.021
 2482TIP3    H1 7387   2.090   5.748   3.069
 2482TIP3    H2 7388   2.171   5.622   3.089
 2483TIP3   OH2 7389   0.528   3.387   6.402
 2483TIP3    H1 7390   0.500   3.435   6.480
 2483TIP3    H2 7391   0.624   3.395   6.403
 2484TIP3   OH2 7392   0.209   4.673   2.814
 2484TIP3    H1 7393   0.292   4.648   2.775
 2484TIP3    H2 7394   0.206   4.769   2.803
 2485TIP3   OH2 7395   0.916   7.671   5.048
 2485TIP3    H1 7396   0.961   7.657   4.965
 2485TIP3    H2 7397   0.894   7.765   5.048
 2486TIP3   OH2 7398   6.071   0.142   5.891
 2486TIP3    H1 7399   6.077   0.053   5.858
 2486TIP3    H2 7400   6.035   0.192   5.818
 2487TIP3   OH2 7401   4.762   5.861   4.004
 2487TIP3    H1 7402   4.760   5.785   3.947
 2487TIP3    H2 7403   4.771   5.935   3.944
 2488TIP3   OH2 7404   3.914   2.127   4.084
 2488TIP3    H1 7405   3.854   2.172   4.143
 2488TIP3    H2 7406   4.001   2.152   4.114
 2489TIP3   OH2 7407   0.686   2.821   0.411
 2489TIP3    H1 7408   0.601   2.808   0.453
 2489TIP3    H2 7409   0.727   2.735   0.411
 2490TIP3   OH2 7410   2.059   3.975   1.351
 2490TIP3    H1 7411   2.040   3.976   1.257
 2490TIP3    H2 7412   2.035   3.886   1.379
 2491TIP3   OH2 7413   7.704   0.906   5.655
 2491TIP3    H1 7414   7.733   0.993   5.628
 2491TIP3    H2 7415   7.628   0.922   5.711
 2492TIP3   OH2 7416   0.832   3.730   3.270
 2492TIP3    H1 7417   0.916   3.708   3.310
 2492TIP3    H2 7418   0.773   3.744   3.345
 2493TIP3   OH2 7419   1.603   5.133   6.641
 2493TIP3    H1 7420   1.514   5.166   6.625
 2493TIP3    H2 7421   1.657   5.179   6.577
 2494TIP3   OH2 7422   3.748   5.690   0.759
 2494TIP3    H1 7423   3.817   5.756   0.754
 2494TIP3    H2 7424   3.699   5.701   0.678
 2495TIP3   OH2 7425   3.630   1.410   6.510
 2495TIP3    H1 7426   3.662   1.489   6.553
 2495TIP3    H2 7427   3.640   1.428   6.416
 2496TIP3   OH2 7428   2.280   2.087   0.988
 2496TIP3    H1 7429   2.362   2.039   0.985
 2496TIP3    H2 7430   2.291   2.157   0.924
 2497TIP3   OH2 7431   6.567   5.677   1.072
 2497TIP3    H1 7432   6.566   5.619   0.996
 2497TIP3    H2 7433   6.598   5.623   1.144
 2498TIP3   OH2 7434   7.950   4.196   0.199
 2498TIP3    H1 7435   7.958   4.256   0.124
 2498TIP3    H2 7436   7.880   4.136   0.174
 2499TIP3   OH2 7437   6.734   6.820   0.402
 2499TIP3    H1 7438   6.785   6.880   0.348
 2499TIP3    H2 7439   6.663   6.874   0.436
 2500TIP3   OH2 7440   8.024   1.565   2.989
 2500TIP3    H1 7441   7.996   1.502   3.055
 2500TIP3    H2 7442   7.961   1.636   2.995
 2501TIP3   OH2 7443   6.859   6.382   6.477
 2501TIP3    H1 7444   6.947   6.410   6.500
 2501TIP3    H2 7445   6.861   6.287   6.486
 2502TIP3   OH2 7446   1.027   7.404   5.901
 2502TIP3    H1 7447   1.068   7.327   5.940
 2502TIP3    H2 7448   0.948   7.371   5.860
 2503TIP3   OH2 7449   7.147   1.662   4.505
 2503TIP3    H1 7450   7.210   1.693   4.440
 2503TIP3    H2 7451   7.200   1.614   4.568
 2504TIP3   OH2 7452   2.289   2.439   4.564
 2504TIP3    H1 7453   2.363   2.500   4.569
 2504TIP3    H2 7454   2.290   2.406   4.474
 2505TIP3   OH2 7455   3.865   1.020   5.582
 2505TIP3    H1 7456   3.817   0.971   5.649
 2505TIP3    H2 7457   3.823   1.105   5.581
 2506TIP3   OH2 7458   7.327   6.111   3.421
 2506TIP3    H1 7459   7.395   6.130   3.486
 2506TIP3    H2 7460   7.324   6.189   3.366
 2507TIP3   OH2 7461   0.362   1.467   5.450
 2507TIP3    H1 7462   0.427   1.496   5.386
 2507TIP3    H2 7463   0.403   1.392   5.493
 2508TIP3   OH2 7464   7.879   7.808   0.291
 2508TIP3    H1 7465   7.786   7.824   0.306
 2508TIP3    H2 7466   7.921   7.833   0.373
 2509TIP3   OH2 7467   0.689   5.045   3.406
 2509TIP3    H1 7468   0.660   5.129   3.442
 2509TIP3    H2 7469   0.697   4.988   3.482
 2510TIP3   OH2 7470   4.032   6.111   6.775
 2510TIP3    H1 7471   3.972   6.120   6.700
 2510TIP3    H2 7472   3.985   6.055   6.836
 2511TIP3   OH2 7473   4.042   3.590   0.549
 2511TIP3    H1 7474   3.958   3.548   0.532
 2511TIP3    H2 7475   4.021   3.682   0.562
 2512TIP3   OH2 7476   6.880   0.683   3.295
 2512TIP3    H1 7477   6.789   0.653   3.305
 2512TIP3    H2 7478   6.918   0.673   3.382
 2513TIP3   OH2 7479   3.773   6.569   3.414
 2513TIP3    H1 7480   3.779   6.478   3.387
 2513TIP3    H2 7481   3.799   6.569   3.506
 2514TIP3   OH2 7482   4.915   1.607   6.151
 2514TIP3    H1 7483   4.932   1.689   6.198
 2514TIP3    H2 7484   4.844   1.629   6.090
 2515TIP3   OH2 7485   1.283   1.595   3.787
 2515TIP3    H1 7486   1.332   1.645   3.852
 2515TIP3    H2 7487   1.205   1.566   3.834
 2516TIP3   OH2 7488   7.586   6.115   6.737
 2516TIP3    H1 7489   7.649   6.044   6.755
 2516TIP3    H2 7490   7.637   6.195   6.747
 2517TIP3   OH2 7491   8.166   4.434   4.840
 2517TIP3    H1 7492   8.169   4.503   4.775
 2517TIP3    H2 7493   8.073   4.423   4.860
 2518TIP3   OH2 7494   2.093   7.882   2.084
 2518TIP3    H1 7495   2.038   7.855   2.010
 2518TIP3    H2 7496   2.049   7.959   2.120
 2519TIP3   OH2 7497   4.499   5.629   5.735
 2519TIP3    H1 7498   4.520   5.566   5.666
 2519TIP3    H2 7499   4.473   5.575   5.810
 2520TIP3   OH2 7500   0.048   1.371   4.672
 2520TIP3    H1 7501   0.012   1.282   4.680
 2520TIP3    H2 7502  -0.015   1.427   4.717
 2521TIP3   OH2 7503   8.036   4.645   0.410
 2521TIP3    H1 7504   8.077   4.728   0.385
 2521TIP3    H2 7505   7.964   4.670   0.468
 2522TIP3   OH2 7506   3.009   5.129   4.750
 2522TIP3    H1 7507   2.941   5.192   4.771
 2522TIP3    H2 7508   3.084   5.155   4.805
 2523TIP3   OH2 7509   2.457   5.207   4.156
 2523TIP3    H1 7510   2.527   5.255   4.111
 2523TIP3    H2 7511   2.408   5.274   4.203
 2524TIP3   OH2 7512   3.371   3.606   0.787
 2524TIP3    H1 7513   3.344   3.697   0.778
 2524TIP3    H2 7514   3.466   3.607   0.781
 2525TIP3   OH2 7515   5.591   7.821   1.711
 2525TIP3    H1 7516   5.580   7.915   1.695
 2525TIP3    H2 7517   5.565   7.780   1.628
 2526TIP3   OH2 7518   4.323   5.745   3.215
 2526TIP3    H1 7519   4.270   5.762   3.138
 2526TIP3    H2 7520   4.280   5.672   3.259
 2527TIP3   OH2 7521   8.089   0.475   1.419
 2527TIP3    H1 7522   8.111   0.386   1.393
 2527TIP3    H2 7523   7.998   0.486   1.391
 2528TIP3   OH2 7524   3.771   0.859   1.639
 2528TIP3    H1 7525   3.793   0.818   1.556
 2528TIP3    H2 7526   3.829   0.819   1.703
 2529TIP3   OH2 7527   0.682   1.138   4.853
 2529TIP3    H1 7528   0.697   1.231   4.871
 2529TIP3    H2 7529   0.770   1.101   4.848
 2530TIP3   OH2 7530   2.999   4.696   4.252
 2530TIP3    H1 7531   3.093   4.683   4.246
 2530TIP3    H2 7532   2.989   4.790   4.265
 2531TIP3   OH2 7533   5.254   0.086   4.746
 2531TIP3    H1 7534   5.269   0.101   4.653
 2531TIP3    H2 7535   5.164   0.053   4.751
 2532TIP3   OH2 7536   6.677   2.876   0.247
 2532TIP3    H1 7537   6.663   2.817   0.321
 2532TIP3    H2 7538   6.759   2.920   0.266
 2533TIP3   OH2 7539   7.591   7.300   2.443
 2533TIP3    H1 7540   7.501   7.320   2.467
 2533TIP3    H2 7541   7.585   7.216   2.397
 2534TIP3   OH2 7542   5.858   6.907   4.401
 2534TIP3    H1 7543   5.917   6.963   4.451
 2534TIP3    H2 7544   5.815   6.967   4.340
 2535TIP3   OH2 7545   8.188   0.352   4.070
 2535TIP3    H1 7546   8.225   0.315   4.149
 2535TIP3    H2 7547   8.263   0.368   4.013
 2536TIP3   OH2 7548   5.255   6.287   1.545
 2536TIP3    H1 7549   5.217   6.202   1.523
 2536TIP3    H2 7550   5.350   6.274   1.539
 2537TIP3   OH2 7551   5.318   4.679   4.946
 2537TIP3    H1 7552   5.263   4.694   5.023
 2537TIP3    H2 7553   5.321   4.764   4.902
 2538TIP3   OH2 7554   7.302   6.004   2.698
 2538TIP3    H1 7555   7.329   5.983   2.788
 2538TIP3    H2 7556   7.279   5.919   2.660
 2539TIP3   OH2 7557   6.335   3.058   5.287
 2539TIP3    H1 7558   6.424   3.072   5.257
 2539TIP3    H2 7559   6.292   3.143   5.273
 2540TIP3   OH2 7560   1.467   1.986   0.993
 2540TIP3    H1 7561   1.438   1.906   0.950
 2540TIP3    H2 7562   1.411   1.994   1.070
 2541TIP3   OH2 7563   1.536   4.497   1.597
 2541TIP3    H1 7564   1.492   4.496   1.512
 2541TIP3    H2 7565   1.464   4.500   1.661
 2542TIP3   OH2 7566   7.186   6.477   3.629
 2542TIP3    H1 7567   7.123   6.502   3.696
 2542TIP3    H2 7568   7.164   6.532   3.554
 2543TIP3   OH2 7569   3.107   2.622   4.629
 2543TIP3    H1 7570   3.027   2.574   4.608
 2543TIP3    H2 7571   3.098   2.705   4.581
 2544TIP3   OH2 7572   3.621   2.083   5.875
 2544TIP3    H1 7573   3.644   2.175   5.887
 2544TIP3    H2 7574   3.704   2.040   5.854
 2545TIP3   OH2 7575   7.801   1.370   2.245
 2545TIP3    H1 7576   7.859   1.421   2.188
 2545TIP3    H2 7577   7.842   1.284   2.251
 2546TIP3   OH2 7578   5.110   3.813   2.513
 2546TIP3    H1 7579   5.141   3.824   2.423
 2546TIP3    H2 7580   5.024   3.772   2.504
 2547TIP3   OH2 7581   1.281   5.414   6.757
 2547TIP3    H1 7582   1.218   5.433   6.826
 2547TIP3    H2 7583   1.366   5.416   6.802
 2548TIP3   OH2 7584   2.559   2.108   5.549
 2548TIP3    H1 7585   2.485   2.090   5.491
 2548TIP3    H2 7586   2.531   2.184   5.600
 2549TIP3   OH2 7587   1.134   5.319   6.087
 2549TIP3    H1 7588   1.100   5.273   6.010
 2549TIP3    H2 7589   1.221   5.347   6.061
 2550TIP3   OH2 7590   4.087   2.447   1.900
 2550TIP3    H1 7591   4.075   2.525   1.846
 2550TIP3    H2 7592   4.003   2.437   1.946
 2551TIP3   OH2 7593   3.054   3.621   6.319
 2551TIP3    H1 7594   3.081   3.702   6.363
 2551TIP3    H2 7595   3.000   3.576   6.383
 2552TIP3   OH2 7596   7.283   1.662   5.544
 2552TIP3    H1 7597   7.222   1.598   5.508
 2552TIP3    H2 7598   7.296   1.634   5.634
 2553TIP3   OH2 7599   1.564   7.693   0.962
 2553TIP3    H1 7600   1.542   7.600   0.950
 2553TIP3    H2 7601   1.528   7.736   0.885
 2554TIP3   OH2 7602   7.928   2.256   4.583
 2554TIP3    H1 7603   7.919   2.256   4.678
 2554TIP3    H2 7604   7.981   2.179   4.563
 2555TIP3   OH2 7605   1.465   4.907   3.227
 2555TIP3    H1 7606   1.417   4.990   3.219
 2555TIP3    H2 7607   1.401   4.846   3.264
 2556TIP3   OH2 7608   4.581   0.410   1.014
 2556TIP3    H1 7609   4.532   0.489   0.991
 2556TIP3    H2 7610   4.609   0.375   0.929
 2557TIP3   OH2 7611   5.219   6.158   3.084
 2557TIP3    H1 7612   5.219   6.149   3.179
 2557TIP3    H2 7613   5.128   6.173   3.061
 2558TIP3   OH2 7614   5.438   1.373   2.005
 2558TIP3    H1 7615   5.508   1.329   1.956
 2558TIP3    H2 7616   5.365   1.377   1.943
 2559TIP3   OH2 7617   3.701   5.981   1.471
 2559TIP3    H1 7618   3.650   5.923   1.414
 2559TIP3    H2 7619   3.779   6.001   1.420
 2560TIP3   OH2 7620   1.797   2.146   1.522
 2560TIP3    H1 7621   1.884   2.172   1.551
 2560TIP3    H2 7622   1.737   2.196   1.576
 2561TIP3   OH2 7623   3.733   1.555   3.806
 2561TIP3    H1 7624   3.798   1.565   3.735
 2561TIP3    H2 7625   3.660   1.508   3.765
 2562TIP3   OH2 7626   7.362   3.299   1.764
 2562TIP3    H1 7627   7.294   3.307   1.698
 2562TIP3    H2 7628   7.377   3.204   1.773
 2563TIP3   OH2 7629   2.287   4.794   3.093
 2563TIP3    H1 7630   2.309   4.814   3.184
 2563TIP3    H2 7631   2.320   4.869   3.043
 2564TIP3   OH2 7632   5.338   5.634   1.619
 2564TIP3    H1 7633   5.368   5.581   1.546
 2564TIP3    H2 7634   5.266   5.584   1.658
 2565TIP3   OH2 7635   4.273   2.587   6.360
 2565TIP3    H1 7636   4.234   2.633   6.285
 2565TIP3    H2 7637   4.259   2.494   6.340
 2566TIP3   OH2 7638   3.591   5.737   2.686
 2566TIP3    H1 7639   3.684   5.745   2.708
 2566TIP3    H2 7640   3.554   5.686   2.758
 2567TIP3   OH2 7641   4.394   4.809   5.324
 2567TIP3    H1 7642   4.436   4.778   5.244
 2567TIP3    H2 7643   4.310   4.764   5.327
 2568TIP3   OH2 7644   6.418   0.267   6.482
 2568TIP3    H1 7645   6.477   0.234   6.550
 2568TIP3    H2 7646   6.461   0.345   6.449
 2569TIP3   OH2 7647   3.321   3.644   1.913
 2569TIP3    H1 7648   3.413   3.627   1.892
 2569TIP3    H2 7649   3.320   3.647   2.009
 2570TIP3   OH2 7650   4.905   0.421   2.758
 2570TIP3    H1 7651   4.933   0.439   2.847
 2570TIP3    H2 7652   4.980   0.447   2.704
 2571TIP3   OH2 7653   6.386   1.239   5.046
 2571TIP3    H1 7654   6.291   1.240   5.034
 2571TIP3    H2 7655   6.400   1.182   5.122
 2572TIP3   OH2 7656   6.332   6.181   2.048
 2572TIP3    H1 7657   6.396   6.235   2.094
 2572TIP3    H2 7658   6.248   6.206   2.087
 2573TIP3   OH2 7659   7.691   0.728   0.939
 2573TIP3    H1 7660   7.736   0.779   1.007
 2573TIP3    H2 7661   7.625   0.788   0.904
 2574TIP3   OH2 7662   0.709   5.486   3.314
 2574TIP3    H1 7663   0.699   5.434   3.235
 2574TIP3    H2 7664   0.803   5.505   3.319
 2575TIP3   OH2 7665   4.657   3.986   2.018
 2575TIP3    H1 7666   4.670   4.061   2.076
 2575TIP3    H2 7667   4.738   3.980   1.968
 2576TIP3   OH2 7668   5.737   4.066   5.124
 2576TIP3    H1 7669   5.785   3.986   5.100
 2576TIP3    H2 7670   5.774   4.134   5.067
 2577TIP3   OH2 7671   4.966   7.405   3.626
 2577TIP3    H1 7672   4.929   7.487   3.595
 2577TIP3    H2 7673   4.908   7.337   3.591
 2578TIP3   OH2 7674   8.309   3.370   2.832
 2578TIP3    H1 7675   8.373   3.377   2.903
 2578TIP3    H2 7676   8.331   3.442   2.773
 2579TIP3   OH2 7677   2.560   0.284   3.013
 2579TIP3    H1 7678   2.483   0.318   2.967
 2579TIP3    H2 7679   2.634   0.311   2.959
 2580TIP3   OH2 7680   1.392   0.525   5.139
 2580TIP3    H1 7681   1.415   0.432   5.135
 2580TIP3    H2 7682   1.448   0.561   5.208
 2581TIP3   OH2 7683   6.777   5.695   1.968
 2581TIP3    H1 7684   6.723   5.773   1.953
 2581TIP3    H2 7685   6.865   5.722   1.942
 2582TIP3   OH2 7686   5.803   5.408   1.235
 2582TIP3    H1 7687   5.729   5.368   1.189
 2582TIP3    H2 7688   5.782   5.399   1.328
 2583TIP3   OH2 7689   0.317   1.067   1.965
 2583TIP3    H1 7690   0.362   1.144   1.931
 2583TIP3    H2 7691   0.248   1.049   1.902
 2584TIP3   OH2 7692   1.496   7.756   2.553
 2584TIP3    H1 7693   1.545   7.799   2.624
 2584TIP3    H2 7694   1.555   7.762   2.477
 2585TIP3   OH2 7695   7.696   0.123   5.680
 2585TIP3    H1 7696   7.643   0.089   5.752
 2585TIP3    H2 7697   7.675   0.216   5.676
 2586TIP3   OH2 7698   3.976   3.889   2.624
 2586TIP3    H1 7699   3.973   3.825   2.696
 2586TIP3    H2 7700   4.056   3.939   2.640
 2587TIP3   OH2 7701   8.184   3.656   3.383
 2587TIP3    H1 7702   8.272   3.632   3.353
 2587TIP3    H2 7703   8.148   3.575   3.420
 2588TIP3   OH2 7704   2.390   6.065   1.169
 2588TIP3    H1 7705   2.465   6.094   1.117
 2588TIP3    H2 7706   2.412   6.091   1.259
 2589TIP3   OH2 7707   6.807   5.575   1.549
 2589TIP3    H1 7708   6.782   5.588   1.640
 2589TIP3    H2 7709   6.821   5.481   1.541
 2590TIP3   OH2 7710   6.146   5.782   6.501
 2590TIP3    H1 7711   6.152   5.810   6.410
 2590TIP3    H2 7712   6.052   5.773   6.517
 2591TIP3   OH2 7713   7.159   7.327   0.745
 2591TIP3    H1 7714   7.160   7.414   0.705
 2591TIP3    H2 7715   7.132   7.269   0.674
 2592TIP3   OH2 7716   3.012   6.874   2.131
 2592TIP3    H1 7717   2.943   6.893   2.066
 2592TIP3    H2 7718   2.969   6.890   2.215
 2593TIP3   OH2 7719   3.904   6.610   1.724
 2593TIP3    H1 7720   3.821   6.654   1.709
 2593TIP3    H2 7721   3.880   6.526   1.764
 2594TIP3   OH2 7722   3.512   1.480   1.520
 2594TIP3    H1 7723   3.603   1.487   1.493
 2594TIP3    H2 7724   3.507   1.533   1.600
 2595TIP3   OH2 7725   6.396   5.243   5.488
 2595TIP3    H1 7726   6.380   5.161   5.441
 2595TIP3    H2 7727   6.329   5.245   5.557
 2596TIP3   OH2 7728   1.631   0.328   0.307
 2596TIP3    H1 7729   1.617   0.415   0.269
 2596TIP3    H2 7730   1.683   0.345   0.385
 2597TIP3   OH2 7731   0.275   5.926   3.345
 2597TIP3    H1 7732   0.308   5.851   3.296
 2597TIP3    H2 7733   0.324   6.001   3.309
 2598TIP3   OH2 7734   4.566   1.356   4.022
 2598TIP3    H1 7735   4.500   1.347   4.091
 2598TIP3    H2 7736   4.615   1.435   4.046
 2599TIP3   OH2 7737   1.571   1.531   4.021
 2599TIP3    H1 7738   1.506   1.601   4.028
 2599TIP3    H2 7739   1.655   1.576   4.026
 2600TIP3   OH2 7740   4.720   4.550   0.062
 2600TIP3    H1 7741   4.809   4.515   0.067
 2600TIP3    H2 7742   4.664   4.474   0.076
 2601TIP3   OH2 7743   0.002   6.727   6.149
 2601TIP3    H1 7744  -0.015   6.633   6.153
 2601TIP3    H2 7745   0.086   6.738   6.194
 2602TIP3   OH2 7746   1.717   7.615   0.070
 2602TIP3    H1 7747   1.635   7.656   0.045
 2602TIP3    H2 7748   1.785   7.676   0.040
 2603TIP3   OH2 7749   3.666   0.184   2.467
 2603TIP3    H1 7750   3.731   0.165   2.400
 2603TIP3    H2 7751   3.582   0.182   2.421
 2604TIP3   OH2 7752   0.920   6.625   5.476
 2604TIP3    H1 7753   1.008   6.618   5.441
 2604TIP3    H2 7754   0.863   6.591   5.407
 2605TIP3   OH2 7755   1.327   4.980   5.303
 2605TIP3    H1 7756   1.316   4.901   5.249
 2605TIP3    H2 7757   1.379   5.039   5.249
 2606TIP3   OH2 7758   1.211   5.097   2.695
 2606TIP3    H1 7759   1.165   5.143   2.766
 2606TIP3    H2 7760   1.199   5.154   2.619
 2607TIP3   OH2 7761   3.180   0.247   0.205
 2607TIP3    H1 7762   3.109   0.292   0.159
 2607TIP3    H2 7763   3.171   0.274   0.296
 2608TIP3   OH2 7764   8.224   5.372   0.860
 2608TIP3    H1 7765   8.193   5.285   0.835
 2608TIP3    H2 7766   8.237   5.367   0.955
 2609TIP3   OH2 7767   2.088   7.173   5.092
 2609TIP3    H1 7768   2.014   7.180   5.151
 2609TIP3    H2 7769   2.144   7.248   5.114
 2610TIP3   OH2 7770   4.626   6.081   6.752
 2610TIP3    H1 7771   4.571   6.039   6.818
 2610TIP3    H2 7772   4.625   6.020   6.678
 2611TIP3   OH2 7773   7.922   3.522   6.372
 2611TIP3    H1 7774   7.892   3.560   6.290
 2611TIP3    H2 7775   8.014   3.501   6.357
 2612TIP3   OH2 7776   5.708   0.112   2.654
 2612TIP3    H1 7777   5.780   0.146   2.707
 2612TIP3    H2 7778   5.680   0.034   2.700
 2613TIP3   OH2 7779   5.064   2.836   6.309
 2613TIP3    H1 7780   5.007   2.831   6.385
 2613TIP3    H2 7781   5.144   2.792   6.335
 2614TIP3   OH2 7782   2.400   6.560   2.209
 2614TIP3    H1 7783   2.373   6.504   2.281
 2614TIP3    H2 7784   2.493   6.542   2.197
 2615TIP3   OH2 7785   6.123   6.518   6.460
 2615TIP3    H1 7786   6.029   6.515   6.474
 2615TIP3    H2 7787   6.160   6.541   6.545
 2616TIP3   OH2 7788   4.106   7.839   2.469
 2616TIP3    H1 7789   4.037   7.798   2.418
 2616TIP3    H2 7790   4.072   7.926   2.491
 2617TIP3   OH2 7791   4.398   6.244   6.402
 2617TIP3    H1 7792   4.304   6.234   6.417
 2617TIP3    H2 7793   4.418   6.183   6.331
 2618TIP3   OH2 7794   2.659   4.732   2.884
 2618TIP3    H1 7795   2.646   4.646   2.925
 2618TIP3    H2 7796   2.695   4.787   2.953
 2619TIP3   OH2 7797   6.665   1.610   3.686
 2619TIP3    H1 7798   6.586   1.614   3.739
 2619TIP3    H2 7799   6.666   1.693   3.638
 2620TIP3   OH2 7800   7.157   0.204   6.587
 2620TIP3    H1 7801   7.080   0.146   6.588
 2620TIP3    H2 7802   7.184   0.206   6.495
 2621TIP3   OH2 7803   7.112   6.014   3.597
 2621TIP3    H1 7804   7.164   6.068   3.539
 2621TIP3    H2 7805   7.160   5.932   3.604
 2622TIP3   OH2 7806   3.923   7.101   2.688
 2622TIP3    H1 7807   3.966   7.068   2.609
 2622TIP3    H2 7808   3.904   7.193   2.668
 2623TIP3   OH2 7809   1.270   1.617   3.500
 2623TIP3    H1 7810   1.241   1.599   3.590
 2623TIP3    H2 7811   1.226   1.550   3.447
 2624TIP3   OH2 7812   0.137   6.213   5.399
 2624TIP3    H1 7813   0.110   6.276   5.332
 2624TIP3    H2 7814   0.219   6.177   5.367
 2625TIP3   OH2 7815   6.951   0.523   4.252
 2625TIP3    H1 7816   6.959   0.447   4.310
 2625TIP3    H2 7817   7.040   0.537   4.219
 2626TIP3   OH2 7818   4.887   2.233   2.272
 2626TIP3    H1 7819   4.868   2.268   2.185
 2626TIP3    H2 7820   4.885   2.138   2.261
 2627TIP3   OH2 7821   1.326   1.713   4.041
 2627TIP3    H1 7822   1.297   1.666   4.119
 2627TIP3    H2 7823   1.336   1.804   4.070
 2628TIP3   OH2 7824   2.343   5.065   1.246
 2628TIP3    H1 7825   2.393   5.108   1.177
 2628TIP3    H2 7826   2.361   5.116   1.325
 2629TIP3   OH2 7827   0.849   2.233   2.854
 2629TIP3    H1 7828   0.870   2.324   2.832
 2629TIP3    H2 7829   0.921   2.182   2.818
 2630TIP3   OH2 7830   0.393   3.578   2.403
 2630TIP3    H1 7831   0.472   3.577   2.349
 2630TIP3    H2 7832   0.321   3.575   2.340
 2631TIP3   OH2 7833   6.839   6.263   6.758
 2631TIP3    H1 7834   6.852   6.176   6.722
 2631TIP3    H2 7835   6.825   6.319   6.682
 2632TIP3   OH2 7836   2.824   3.312   1.505
 2632TIP3    H1 7837   2.918   3.300   1.511
 2632TIP3    H2 7838   2.812   3.383   1.442
 2633TIP3   OH2 7839   0.423   7.216   0.982
 2633TIP3    H1 7840   0.486   7.288   0.982
 2633TIP3    H2 7841   0.389   7.214   0.893
 2634TIP3   OH2 7842   5.294   1.251   0.865
 2634TIP3    H1 7843   5.247   1.334   0.873
 2634TIP3    H2 7844   5.343   1.259   0.783
 2635TIP3   OH2 7845   6.876   1.827   6.529
 2635TIP3    H1 7846   6.888   1.908   6.480
 2635TIP3    H2 7847   6.818   1.851   6.602
 2636TIP3   OH2 7848   3.968   0.630   6.246
 2636TIP3    H1 7849   3.919   0.678   6.312
 2636TIP3    H2 7850   4.003   0.553   6.292
 2637TIP3   OH2 7851   0.709   1.887   0.322
 2637TIP3    H1 7852   0.699   1.981   0.331
 2637TIP3    H2 7853   0.630   1.859   0.276
 2638TIP3   OH2 7854   4.801   4.317   1.784
 2638TIP3    H1 7855   4.746   4.338   1.708
 2638TIP3    H2 7856   4.849   4.238   1.757
 2639TIP3   OH2 7857   2.774   6.600   2.854
 2639TIP3    H1 7858   2.709   6.622   2.787
 2639TIP3    H2 7859   2.740   6.641   2.934
 2640TIP3   OH2 7860   2.329   2.408   1.548
 2640TIP3    H1 7861   2.347   2.322   1.587
 2640TIP3    H2 7862   2.245   2.433   1.586
 2641TIP3   OH2 7863   7.976   0.355   4.820
 2641TIP3    H1 7864   7.947   0.420   4.883
 2641TIP3    H2 7865   7.937   0.383   4.737
 2642TIP3   OH2 7866   5.540   7.854   5.548
 2642TIP3    H1 7867   5.539   7.845   5.452
 2642TIP3    H2 7868   5.515   7.767   5.580
 2643TIP3   OH2 7869   7.686   0.778   1.769
 2643TIP3    H1 7870   7.769   0.755   1.811
 2643TIP3    H2 7871   7.688   0.873   1.762
 2644TIP3   OH2 7872   3.818   4.153   0.432
 2644TIP3    H1 7873   3.896   4.190   0.472
 2644TIP3    H2 7874   3.831   4.165   0.338
 2645TIP3   OH2 7875   6.206   7.313   4.670
 2645TIP3    H1 7876   6.116   7.285   4.688
 2645TIP3    H2 7877   6.261   7.249   4.716
 2646TIP3   OH2 7878   3.979   0.943   0.094
 2646TIP3    H1 7879   4.017   1.029   0.113
 2646TIP3    H2 7880   4.041   0.904   0.031
 2647TIP3   OH2 7881   2.249   3.803   5.857
 2647TIP3    H1 7882   2.216   3.717   5.881
 2647TIP3    H2 7883   2.320   3.820   5.919
 2648TIP3   OH2 7884   7.312   2.994   4.523
 2648TIP3    H1 7885   7.377   2.932   4.491
 2648TIP3    H2 7886   7.361   3.074   4.542
 2649TIP3   OH2 7887   1.171   0.817   6.659
 2649TIP3    H1 7888   1.089   0.796   6.703
 2649TIP3    H2 7889   1.178   0.751   6.590
 2650TIP3   OH2 7890   7.042   6.962   0.727
 2650TIP3    H1 7891   7.084   6.955   0.813
 2650TIP3    H2 7892   6.948   6.953   0.746
 2651TIP3   OH2 7893   2.132   7.152   1.077
 2651TIP3    H1 7894   2.172   7.067   1.093
 2651TIP3    H2 7895   2.054   7.153   1.131
 2652TIP3   OH2 7896   4.162   5.932   4.496
 2652TIP3    H1 7897   4.230   5.947   4.561
 2652TIP3    H2 7898   4.083   5.969   4.535
 2653TIP3   OH2 7899   7.990   7.220   3.599
 2653TIP3    H1 7900   7.947   7.302   3.624
 2653TIP3    H2 7901   7.933   7.151   3.633
 2654TIP3   OH2 7902   2.008   5.973   2.218
 2654TIP3    H1 7903   1.962   5.961   2.135
 2654TIP3    H2 7904   2.007   6.067   2.233
 2655TIP3   OH2 7905   8.353   4.952   2.078
 2655TIP3    H1 7906   8.406   4.999   2.014
 2655TIP3    H2 7907   8.413   4.887   2.115
 2656TIP3   OH2 7908   5.290   4.555   4.071
 2656TIP3    H1 7909   5.253   4.555   4.159
 2656TIP3    H2 7910   5.289   4.647   4.044
 2657TIP3   OH2 7911   0.514   7.454   2.152
 2657TIP3    H1 7912   0.423   7.482   2.154
 2657TIP3    H2 7913   0.564   7.536   2.149
 2658TIP3   OH2 7914   2.178   1.205   1.425
 2658TIP3    H1 7915   2.168   1.198   1.330
 2658TIP3    H2 7916   2.181   1.300   1.442
 2659TIP3   OH2 7917   2.618   7.461   1.958
 2659TIP3    H1 7918   2.595   7.368   1.959
 2659TIP3    H2 7919   2.663   7.476   2.041
 2660TIP3   OH2 7920   7.722   2.761   5.167
 2660TIP3    H1 7921   7.776   2.715   5.231
 2660TIP3    H2 7922   7.711   2.698   5.096
 2661TIP3   OH2 7923   5.838   4.727   2.913
 2661TIP3    H1 7924   5.876   4.639   2.917
 2661TIP3    H2 7925   5.842   4.759   3.003
 2662TIP3   OH2 7926   7.173   4.653   2.134
 2662TIP3    H1 7927   7.142   4.706   2.207
 2662TIP3    H2 7928   7.139   4.565   2.152
 2663TIP3   OH2 7929   4.637   4.594   2.672
 2663TIP3    H1 7930   4.732   4.595   2.659
 2663TIP3    H2 7931   4.606   4.524   2.614
 2664TIP3   OH2 7932   0.835   7.210   0.672
 2664TIP3    H1 7933   0.745   7.207   0.641
 2664TIP3    H2 7934   0.831   7.259   0.754
 2665TIP3   OH2 7935   5.654   6.204   3.058
 2665TIP3    H1 7936   5.730   6.148   3.042
 2665TIP3    H2 7937   5.674   6.247   3.141
 2666TIP3   OH2 7938   7.762   5.759   2.432
 2666TIP3    H1 7939   7.855   5.772   2.446
 2666TIP3    H2 7940   7.720   5.829   2.482
 2667TIP3   OH2 7941   6.573   7.436   5.360
 2667TIP3    H1 7942   6.535   7.381   5.292
 2667TIP3    H2 7943   6.520   7.419   5.437
 2668TIP3   OH2 7944   6.935   3.951   1.902
 2668TIP3    H1 7945   6.995   3.978   1.832
 2668TIP3    H2 7946   6.890   4.031   1.928
 2669TIP3   OH2 7947   6.510   2.097   0.695
 2669TIP3    H1 7948   6.584   2.055   0.651
 2669TIP3    H2 7949   6.433   2.070   0.644
 2670TIP3   OH2 7950   8.031   5.343   3.592
 2670TIP3    H1 7951   7.985   5.391   3.662
 2670TIP3    H2 7952   7.977   5.266   3.576
 2671TIP3   OH2 7953   6.088   4.151   1.903
 2671TIP3    H1 7954   6.145   4.109   1.839
 2671TIP3    H2 7955   6.049   4.079   1.953
 2672TIP3   OH2 7956   6.089   3.292   5.354
 2672TIP3    H1 7957   6.039   3.221   5.312
 2672TIP3    H2 7958   6.146   3.248   5.417
 2673TIP3   OH2 7959   7.814   3.850   0.725
 2673TIP3    H1 7960   7.786   3.846   0.816
 2673TIP3    H2 7961   7.905   3.881   0.729
 2674TIP3   OH2 7962   7.932   1.127   6.480
 2674TIP3    H1 7963   7.971   1.097   6.562
 2674TIP3    H2 7964   7.843   1.093   6.483
 2675TIP3   OH2 7965   0.084   5.354   3.695
 2675TIP3    H1 7966   0.139   5.313   3.762
 2675TIP3    H2 7967   0.118   5.443   3.687
 2676TIP3   OH2 7968   3.546   1.302   0.939
 2676TIP3    H1 7969   3.626   1.308   0.991
 2676TIP3    H2 7970   3.493   1.237   0.984
 2677TIP3   OH2 7971   5.991   7.150   0.272
 2677TIP3    H1 7972   6.007   7.077   0.211
 2677TIP3    H2 7973   5.994   7.228   0.218
 2678TIP3   OH2 7974   2.664   3.323   4.144
 2678TIP3    H1 7975   2.594   3.385   4.124
 2678TIP3    H2 7976   2.744   3.367   4.114
 2679TIP3   OH2 7977   1.284   5.564   2.962
 2679TIP3    H1 7978   1.371   5.601   2.981
 2679TIP3    H2 7979   1.229   5.595   3.033
 2680TIP3   OH2 7980   0.322   2.741   3.984
 2680TIP3    H1 7981   0.313   2.737   4.079
 2680TIP3    H2 7982   0.329   2.835   3.964
 2681TIP3   OH2 7983   2.855   6.088   2.139
 2681TIP3    H1 7984   2.829   6.156   2.202
 2681TIP3    H2 7985   2.808   6.111   2.059
 2682TIP3   OH2 7986   8.376   7.589   1.270
 2682TIP3    H1 7987   8.458   7.599   1.319
 2682TIP3    H2 7988   8.351   7.498   1.282
 2683TIP3   OH2 7989   3.839   3.941   4.124
 2683TIP3    H1 7990   3.904   3.962   4.057
 2683TIP3    H2 7991   3.759   3.925   4.075
 2684TIP3   OH2 7992   3.281   7.732   1.569
 2684TIP3    H1 7993   3.252   7.795   1.503
 2684TIP3    H2 7994   3.358   7.773   1.609
 2685TIP3   OH2 7995   6.470   5.299   2.226
 2685TIP3    H1 7996   6.433   5.302   2.314
 2685TIP3    H2 7997   6.557   5.339   2.235
 2686TIP3   OH2 7998   0.228   6.026   6.492
 2686TIP3    H1 7999   0.174   6.077   6.552
 2686TIP3    H2 8000   0.170   6.004   6.419
 2687TIP3   OH2 8001   7.761   4.928   3.658
 2687TIP3    H1 8002   7.691   4.903   3.719
 2687TIP3    H2 8003   7.762   4.857   3.593
 2688TIP3   OH2 8004   3.798   6.695   0.989
 2688TIP3    H1 8005   3.859   6.622   0.998
 2688TIP3    H2 8006   3.848   6.765   0.948
 2689TIP3   OH2 8007   7.547   6.105   5.204
 2689TIP3    H1 8008   7.532   6.177   5.265
 2689TIP3    H2 8009   7.493   6.127   5.127
 2690TIP3   OH2 8010   6.094   5.177   5.471
 2690TIP3    H1 8011   6.131   5.263   5.490
 2690TIP3    H2 8012   6.039   5.157   5.546
 2691TIP3   OH2 8013   3.509   6.232   6.008
 2691TIP3    H1 8014   3.441   6.272   5.954
 2691TIP3    H2 8015   3.462   6.191   6.080
 2692TIP3   OH2 8016   6.591   2.352   0.486
 2692TIP3    H1 8017   6.505   2.319   0.457
 2692TIP3    H2 8018   6.590   2.341   0.581
 2693TIP3   OH2 8019   0.394   7.787   6.493
 2693TIP3    H1 8020   0.318   7.806   6.437
 2693TIP3    H2 8021   0.453   7.861   6.479
 2694TIP3   OH2 8022   2.224   6.694   2.054
 2694TIP3    H1 8023   2.251   6.786   2.053
 2694TIP3    H2 8024   2.305   6.645   2.071
 2695TIP3   OH2 8025   4.330   1.154   4.025
 2695TIP3    H1 8026   4.392   1.165   3.953
 2695TIP3    H2 8027   4.270   1.228   4.016
 2696TIP3   OH2 8028   4.632   1.121   5.251
 2696TIP3    H1 8029   4.541   1.123   5.281
 2696TIP3    H2 8030   4.630   1.162   5.165
 2697TIP3   OH2 8031   4.102   6.138   1.608
 2697TIP3    H1 8032   4.029   6.108   1.661
 2697TIP3    H2 8033   4.174   6.079   1.631
 2698TIP3   OH2 8034   4.157   5.181   0.848
 2698TIP3    H1 8035   4.071   5.222   0.844
 2698TIP3    H2 8036   4.194   5.210   0.931
 2699TIP3   OH2 8037   3.920   2.945   3.222
 2699TIP3    H1 8038   3.943   2.945   3.315
 2699TIP3    H2 8039   3.902   2.853   3.202
 2700TIP3   OH2 8040   7.375   2.427   5.731
 2700TIP3    H1 8041   7.310   2.419   5.802
 2700TIP3    H2 8042   7.430   2.349   5.741
 2701TIP3   OH2 8043   0.068   6.500   4.060
 2701TIP3    H1 8044   0.033   6.446   3.989
 2701TIP3    H2 8045   0.063   6.445   4.138
 2702TIP3   OH2 8046   7.448   7.468   4.270
 2702TIP3    H1 8047   7.524   7.423   4.307
 2702TIP3    H2 8048   7.374   7.415   4.297
 2703TIP3   OH2 8049   1.282   6.494   5.995
 2703TIP3    H1 8050   1.274   6.537   6.080
 2703TIP3    H2 8051   1.374   6.505   5.971
 2704TIP3   OH2 8052   6.595   4.783   2.474
 2704TIP3    H1 8053   6.587   4.756   2.566
 2704TIP3    H2 8054   6.553   4.869   2.471
 2705TIP3   OH2 8055   7.816   7.414   3.683
 2705TIP3    H1 8056   7.808   7.436   3.776
 2705TIP3    H2 8057   7.725   7.417   3.651
 2706TIP3   OH2 8058   4.689   1.632   4.687
 2706TIP3    H1 8059   4.728   1.716   4.709
 2706TIP3    H2 8060   4.725   1.610   4.601
 2707TIP3   OH2 8061   0.667   3.825   6.849
 2707TIP3    H1 8062   0.678   3.877   6.769
 2707TIP3    H2 8063   0.737   3.854   6.907
 2708TIP3   OH2 8064   6.548   2.664   0.785
 2708TIP3    H1 8065   6.594   2.695   0.863
 2708TIP3    H2 8066   6.544   2.569   0.794
 2709TIP3   OH2 8067   5.674   3.543   1.020
 2709TIP3    H1 8068   5.718   3.492   0.953
 2709TIP3    H2 8069   5.675   3.487   1.098
 2710TIP3   OH2 8070   3.570   4.648   6.586
 2710TIP3    H1 8071   3.631   4.584   6.549
 2710TIP3    H2 8072   3.493   4.643   6.530
 2711TIP3   OH2 8073   1.105   0.672   6.186
 2711TIP3    H1 8074   1.128   0.579   6.193
 2711TIP3    H2 8075   1.066   0.693   6.271
 2712TIP3   OH2 8076   5.840   3.309   1.491
 2712TIP3    H1 8077   5.918   3.265   1.458
 2712TIP3    H2 8078   5.833   3.280   1.582
 2713TIP3   OH2 8079   0.215   6.287   4.112
 2713TIP3    H1 8080   0.268   6.366   4.102
 2713TIP3    H2 8081   0.204   6.254   4.023
 2714TIP3   OH2 8082   3.154   1.456   4.346
 2714TIP3    H1 8083   3.189   1.545   4.343
 2714TIP3    H2 8084   3.185   1.415   4.265
 2715TIP3   OH2 8085   3.653   4.812   5.473
 2715TIP3    H1 8086   3.567   4.833   5.511
 2715TIP3    H2 8087   3.632   4.757   5.397
 2716TIP3   OH2 8088   0.379   2.870   1.686
 2716TIP3    H1 8089   0.454   2.895   1.740
 2716TIP3    H2 8090   0.317   2.832   1.748
 2717TIP3   OH2 8091   1.458   4.071   1.212
 2717TIP3    H1 8092   1.458   4.125   1.133
 2717TIP3    H2 8093   1.441   3.982   1.180
 2718TIP3   OH2 8094   0.082   5.422   1.993
 2718TIP3    H1 8095  -0.012   5.414   2.008
 2718TIP3    H2 8096   0.090   5.485   1.922
 2719TIP3   OH2 8097   5.403   0.281   0.973
 2719TIP3    H1 8098   5.450   0.304   0.893
 2719TIP3    H2 8099   5.317   0.253   0.943
 2720TIP3   OH2 8100   6.177   3.735   6.711
 2720TIP3    H1 8101   6.262   3.714   6.748
 2720TIP3    H2 8102   6.152   3.657   6.662
 2721TIP3   OH2 8103   1.662   6.618   0.827
 2721TIP3    H1 8104   1.699   6.703   0.802
 2721TIP3    H2 8105   1.661   6.567   0.746
 2722TIP3   OH2 8106   0.527   5.564   6.825
 2722TIP3    H1 8107   0.614   5.545   6.862
 2722TIP3    H2 8108   0.525   5.516   6.742
 2723TIP3   OH2 8109   5.893   6.100   6.830
 2723TIP3    H1 8110   5.944   6.088   6.750
 2723TIP3    H2 8111   5.889   6.195   6.843
 2724TIP3   OH2 8112   5.328   7.582   5.397
 2724TIP3    H1 8113   5.407   7.625   5.365
 2724TIP3    H2 8114   5.258   7.644   5.379
 2725TIP3   OH2 8115   1.206   0.359   3.275
 2725TIP3    H1 8116   1.219   0.314   3.358
 2725TIP3    H2 8117   1.283   0.336   3.223
 2726TIP3   OH2 8118   2.766   3.387   3.192
 2726TIP3    H1 8119   2.692   3.366   3.249
 2726TIP3    H2 8120   2.801   3.302   3.165
 2727TIP3   OH2 8121   1.852   3.402   3.680
 2727TIP3    H1 8122   1.926   3.463   3.683
 2727TIP3    H2 8123   1.892   3.319   3.653
 2728TIP3   OH2 8124   3.837   5.455   3.901
 2728TIP3    H1 8125   3.810   5.445   3.993
 2728TIP3    H2 8126   3.771   5.405   3.852
 2729TIP3   OH2 8127   2.128   1.346   6.682
 2729TIP3    H1 8128   2.098   1.346   6.591
 2729TIP3    H2 8129   2.153   1.255   6.698
 2730TIP3   OH2 8130   3.709   5.179   1.016
 2730TIP3    H1 8131   3.683   5.089   1.036
 2730TIP3    H2 8132   3.651   5.205   0.944
 2731TIP3   OH2 8133   1.654   2.234   0.192
 2731TIP3    H1 8134   1.734   2.186   0.171
 2731TIP3    H2 8135   1.584   2.186   0.149
 2732TIP3   OH2 8136   4.459   0.682   0.833
 2732TIP3    H1 8137   4.495   0.657   0.748
 2732TIP3    H2 8138   4.371   0.715   0.813
 2733TIP3   OH2 8139   5.318   0.050   5.348
 2733TIP3    H1 8140   5.313   0.130   5.296
 2733TIP3    H2 8141   5.334  -0.019   5.283
 2734TIP3   OH2 8142   3.918   3.312   4.426
 2734TIP3    H1 8143   3.979   3.240   4.411
 2734TIP3    H2 8144   3.869   3.320   4.345
 2735TIP3   OH2 8145   6.173   2.514   3.919
 2735TIP3    H1 8146   6.141   2.571   3.849
 2735TIP3    H2 8147   6.145   2.426   3.893
 2736TIP3   OH2 8148   5.691   5.257   3.249
 2736TIP3    H1 8149   5.708   5.165   3.226
 2736TIP3    H2 8150   5.714   5.262   3.342
 2737TIP3   OH2 8151   0.658   5.854   2.178
 2737TIP3    H1 8152   0.575   5.874   2.222
 2737TIP3    H2 8153   0.693   5.779   2.227
 2738TIP3   OH2 8154   7.435   2.931   6.059
 2738TIP3    H1 8155   7.526   2.953   6.038
 2738TIP3    H2 8156   7.432   2.927   6.154
 2739TIP3   OH2 8157   3.909   3.240   2.014
 2739TIP3    H1 8158   3.961   3.302   1.964
 2739TIP3    H2 8159   3.948   3.155   1.994
 2740TIP3   OH2 8160   4.149   5.335   2.693
 2740TIP3    H1 8161   4.186   5.417   2.726
 2740TIP3    H2 8162   4.161   5.273   2.764
 2741TIP3   OH2 8163   5.095   5.138   6.145
 2741TIP3    H1 8164   5.123   5.223   6.111
 2741TIP3    H2 8165   5.019   5.115   6.092
 2742TIP3   OH2 8166   1.449   6.775   4.308
 2742TIP3    H1 8167   1.505   6.732   4.243
 2742TIP3    H2 8168   1.510   6.822   4.365
 2743TIP3   OH2 8169   7.137   7.460   1.984
 2743TIP3    H1 8170   7.207   7.436   1.924
 2743TIP3    H2 8171   7.102   7.542   1.950
 2744TIP3   OH2 8172   6.687   6.262   0.145
 2744TIP3    H1 8173   6.645   6.300   0.222
 2744TIP3    H2 8174   6.643   6.177   0.134
 2745TIP3   OH2 8175   0.570   4.533   6.542
 2745TIP3    H1 8176   0.596   4.559   6.453
 2745TIP3    H2 8177   0.561   4.438   6.537
 2746TIP3   OH2 8178   5.552   5.168   1.944
 2746TIP3    H1 8179   5.478   5.228   1.937
 2746TIP3    H2 8180   5.630   5.223   1.930
 2747TIP3   OH2 8181   5.775   0.424   4.605
 2747TIP3    H1 8182   5.681   0.442   4.603
 2747TIP3    H2 8183   5.816   0.511   4.604
 2748TIP3   OH2 8184   7.085   0.169   5.795
 2748TIP3    H1 8185   7.140   0.091   5.782
 2748TIP3    H2 8186   7.039   0.152   5.877
 2749TIP3   OH2 8187   4.689   1.174   1.570
 2749TIP3    H1 8188   4.772   1.216   1.595
 2749TIP3    H2 8189   4.715   1.104   1.509
 2750TIP3   OH2 8190   1.948   2.968   0.976
 2750TIP3    H1 8191   1.940   3.062   0.964
 2750TIP3    H2 8192   1.888   2.947   1.048
 2751TIP3   OH2 8193   3.758   1.144   3.827
 2751TIP3    H1 8194   3.815   1.075   3.791
 2751TIP3    H2 8195   3.714   1.181   3.751
 2752TIP3   OH2 8196   7.676   4.874   1.876
 2752TIP3    H1 8197   7.689   4.931   1.800
 2752TIP3    H2 8198   7.759   4.828   1.886
 2753TIP3   OH2 8199   4.287   1.143   5.018
 2753TIP3    H1 8200   4.342   1.082   4.968
 2753TIP3    H2 8201   4.197   1.116   4.999
 2754TIP3   OH2 8202   7.170   2.084   3.458
 2754TIP3    H1 8203   7.222   2.163   3.470
 2754TIP3    H2 8204   7.215   2.037   3.387
 2755TIP3   OH2 8205   6.813   3.216   2.020
 2755TIP3    H1 8206   6.772   3.150   2.076
 2755TIP3    H2 8207   6.904   3.186   2.011
 2756TIP3   OH2 8208   7.081   4.784   2.341
 2756TIP3    H1 8209   7.122   4.818   2.421
 2756TIP3    H2 8210   6.995   4.754   2.369
 2757TIP3   OH2 8211   7.288   6.150   0.782
 2757TIP3    H1 8212   7.365   6.095   0.792
 2757TIP3    H2 8213   7.219   6.089   0.754
 2758TIP3   OH2 8214   4.415   4.963   5.052
 2758TIP3    H1 8215   4.338   5.007   5.088
 2758TIP3    H2 8216   4.489   5.000   5.101
 2759TIP3   OH2 8217   1.846   4.300   5.842
 2759TIP3    H1 8218   1.900   4.244   5.787
 2759TIP3    H2 8219   1.881   4.288   5.930
 2760TIP3   OH2 8220   7.735   6.364   1.633
 2760TIP3    H1 8221   7.766   6.301   1.699
 2760TIP3    H2 8222   7.810   6.376   1.575
 2761TIP3   OH2 8223   0.194   2.312   3.106
 2761TIP3    H1 8224   0.271   2.343   3.154
 2761TIP3    H2 8225   0.230   2.275   3.025
 2762TIP3   OH2 8226   0.034   2.910   2.049
 2762TIP3    H1 8227   0.030   2.949   1.962
 2762TIP3    H2 8228   0.011   2.981   2.108
 2763TIP3   OH2 8229   7.940   3.215   3.841
 2763TIP3    H1 8230   7.992   3.207   3.921
 2763TIP3    H2 8231   7.949   3.307   3.815
 2764TIP3   OH2 8232   1.741   5.587   4.392
 2764TIP3    H1 8233   1.741   5.616   4.483
 2764TIP3    H2 8234   1.654   5.549   4.379
 2765TIP3   OH2 8235   5.067   2.026   4.376
 2765TIP3    H1 8236   5.090   2.075   4.297
 2765TIP3    H2 8237   5.146   1.976   4.397
 2766TIP3   OH2 8238   8.277   4.704   2.739
 2766TIP3    H1 8239   8.321   4.621   2.759
 2766TIP3    H2 8240   8.348   4.764   2.716
 2767TIP3   OH2 8241   5.146   1.804   0.166
 2767TIP3    H1 8242   5.088   1.839   0.098
 2767TIP3    H2 8243   5.216   1.761   0.118
 2768TIP3   OH2 8244   5.860   4.074   6.503
 2768TIP3    H1 8245   5.765   4.088   6.503
 2768TIP3    H2 8246   5.897   4.160   6.521
 2769TIP3   OH2 8247   8.301   5.976   0.653
 2769TIP3    H1 8248   8.313   5.954   0.745
 2769TIP3    H2 8249   8.230   5.919   0.624
 2770TIP3   OH2 8250   6.888   7.358   1.867
 2770TIP3    H1 8251   6.942   7.386   1.794
 2770TIP3    H2 8252   6.938   7.382   1.945
 2771TIP3   OH2 8253   2.317   1.751   3.162
 2771TIP3    H1 8254   2.278   1.664   3.172
 2771TIP3    H2 8255   2.377   1.742   3.088
 2772TIP3   OH2 8256   7.152   2.399   5.089
 2772TIP3    H1 8257   7.093   2.474   5.098
 2772TIP3    H2 8258   7.138   2.347   5.167
 2773TIP3   OH2 8259   5.221   7.474   6.161
 2773TIP3    H1 8260   5.262   7.532   6.224
 2773TIP3    H2 8261   5.227   7.387   6.200
 2774TIP3   OH2 8262   2.863   7.275   6.453
 2774TIP3    H1 8263   2.783   7.319   6.481
 2774TIP3    H2 8264   2.914   7.343   6.408
 2775TIP3   OH2 8265   3.228   1.884   2.441
 2775TIP3    H1 8266   3.134   1.899   2.428
 2775TIP3    H2 8267   3.260   1.857   2.355
 2776TIP3   OH2 8268   5.582   7.011   0.845
 2776TIP3    H1 8269   5.612   7.074   0.910
 2776TIP3    H2 8270   5.652   7.009   0.780
 2777TIP3   OH2 8271   1.820   1.833   0.487
 2777TIP3    H1 8272   1.909   1.836   0.452
 2777TIP3    H2 8273   1.811   1.913   0.537
 2778TIP3   OH2 8274   6.832   7.259   2.780
 2778TIP3    H1 8275   6.766   7.287   2.843
 2778TIP3    H2 8276   6.801   7.174   2.749
 2779TIP3   OH2 8277   7.498   5.413   1.253
 2779TIP3    H1 8278   7.466   5.499   1.228
 2779TIP3    H2 8279   7.590   5.427   1.276
 2780TIP3   OH2 8280   4.133   7.387   1.594
 2780TIP3    H1 8281   4.080   7.316   1.556
 2780TIP3    H2 8282   4.223   7.357   1.584
 2781TIP3   OH2 8283   5.577   1.502   0.726
 2781TIP3    H1 8284   5.563   1.592   0.694
 2781TIP3    H2 8285   5.523   1.448   0.668
 2782TIP3   OH2 8286   1.476   0.600   1.442
 2782TIP3    H1 8287   1.452   0.508   1.453
 2782TIP3    H2 8288   1.392   0.647   1.439
 2783TIP3   OH2 8289   3.979   0.230   5.412
 2783TIP3    H1 8290   3.960   0.281   5.491
 2783TIP3    H2 8291   3.960   0.289   5.339
 2784TIP3   OH2 8292   5.293   3.338   0.490
 2784TIP3    H1 8293   5.290   3.268   0.425
 2784TIP3    H2 8294   5.269   3.297   0.573
 2785TIP3   OH2 8295   0.886   5.594   4.694
 2785TIP3    H1 8296   0.930   5.524   4.742
 2785TIP3    H2 8297   0.942   5.608   4.617
 2786TIP3   OH2 8298   2.106   0.383   2.076
 2786TIP3    H1 8299   2.105   0.290   2.051
 2786TIP3    H2 8300   2.029   0.420   2.034
 2787TIP3   OH2 8301   7.980   7.305   2.591
 2787TIP3    H1 8302   7.936   7.279   2.510
 2787TIP3    H2 8303   8.059   7.349   2.562
 2788TIP3   OH2 8304   1.071   0.188   0.725
 2788TIP3    H1 8305   1.008   0.149   0.786
 2788TIP3    H2 8306   1.027   0.188   0.641
 2789TIP3   OH2 8307   1.975   5.482   0.038
 2789TIP3    H1 8308   1.912   5.433   0.090
 2789TIP3    H2 8309   1.955   5.574   0.056
 2790TIP3   OH2 8310   5.688   2.938   4.204
 2790TIP3    H1 8311   5.771   2.986   4.201
 2790TIP3    H2 8312   5.692   2.879   4.129
 2791TIP3   OH2 8313   3.793   3.185   4.665
 2791TIP3    H1 8314   3.843   3.237   4.602
 2791TIP3    H2 8315   3.754   3.249   4.724
 2792TIP3   OH2 8316   7.721   1.588   3.312
 2792TIP3    H1 8317   7.646   1.648   3.310
 2792TIP3    H2 8318   7.685   1.507   3.349
 2793TIP3   OH2 8319   4.759   5.469   6.638
 2793TIP3    H1 8320   4.691   5.440   6.699
 2793TIP3    H2 8321   4.779   5.392   6.585
 2794TIP3   OH2 8322   0.761   1.665   4.688
 2794TIP3    H1 8323   0.812   1.616   4.623
 2794TIP3    H2 8324   0.826   1.689   4.754
 2795TIP3   OH2 8325   2.767   0.754   6.491
 2795TIP3    H1 8326   2.824   0.708   6.552
 2795TIP3    H2 8327   2.817   0.761   6.410
 2796TIP3   OH2 8328   6.341   7.115   6.639
 2796TIP3    H1 8329   6.352   7.148   6.551
 2796TIP3    H2 8330   6.262   7.061   6.635
 2797TIP3   OH2 8331   1.078   4.212   2.852
 2797TIP3    H1 8332   1.067   4.127   2.808
 2797TIP3    H2 8333   1.042   4.276   2.790
 2798TIP3   OH2 8334   3.317   5.202   5.546
 2798TIP3    H1 8335   3.337   5.202   5.452
 2798TIP3    H2 8336   3.354   5.283   5.579
 2799TIP3   OH2 8337   3.296   5.775   2.987
 2799TIP3    H1 8338   3.283   5.870   2.976
 2799TIP3    H2 8339   3.371   5.754   2.933
 2800TIP3   OH2 8340   4.136   1.347   2.801
 2800TIP3    H1 8341   4.155   1.441   2.801
 2800TIP3    H2 8342   4.176   1.315   2.882
 2801TIP3   OH2 8343   0.473   7.618   0.722
 2801TIP3    H1 8344   0.468   7.702   0.769
 2801TIP3    H2 8345   0.523   7.638   0.643
 2802TIP3   OH2 8346   3.792   1.623   0.356
 2802TIP3    H1 8347   3.752   1.609   0.442
 2802TIP3    H2 8348   3.723   1.598   0.294
 2803TIP3   OH2 8349   2.349   4.503   1.032
 2803TIP3    H1 8350   2.279   4.438   1.042
 2803TIP3    H2 8351   2.349   4.551   1.115
 2804TIP3   OH2 8352   7.803   5.530   2.903
 2804TIP3    H1 8353   7.795   5.512   2.996
 2804TIP3    H2 8354   7.793   5.625   2.896
 2805TIP3   OH2 8355   5.733   3.328   3.715
 2805TIP3    H1 8356   5.800   3.395   3.702
 2805TIP3    H2 8357   5.672   3.341   3.643
 2806TIP3   OH2 8358   1.041   5.083   4.289
 2806TIP3    H1 8359   0.985   5.006   4.291
 2806TIP3    H2 8360   1.104   5.069   4.360
 2807TIP3   OH2 8361   3.141   2.845   5.419
 2807TIP3    H1 8362   3.118   2.934   5.446
 2807TIP3    H2 8363   3.064   2.793   5.438
 2808TIP3   OH2 8364   1.851   4.394   4.228
 2808TIP3    H1 8365   1.802   4.314   4.250
 2808TIP3    H2 8366   1.926   4.364   4.177
 2809TIP3   OH2 8367   7.135   5.804   1.263
 2809TIP3    H1 8368   7.164   5.800   1.354
 2809TIP3    H2 8369   7.121   5.712   1.238
 2810TIP3   OH2 8370   6.683   3.429   0.719
 2810TIP3    H1 8371   6.654   3.362   0.782
 2810TIP3    H2 8372   6.679   3.385   0.634
 2811TIP3   OH2 8373   4.629   4.999   6.167
 2811TIP3    H1 8374   4.684   4.949   6.227
 2811TIP3    H2 8375   4.683   5.074   6.142
 2812TIP3   OH2 8376   1.905   6.613   5.528
 2812TIP3    H1 8377   1.929   6.643   5.616
 2812TIP3    H2 8378   1.983   6.630   5.475
 2813TIP3   OH2 8379   1.700   5.545   3.701
 2813TIP3    H1 8380   1.760   5.477   3.732
 2813TIP3    H2 8381   1.751   5.626   3.704
 2814TIP3   OH2 8382   6.543   1.695   2.127
 2814TIP3    H1 8383   6.450   1.687   2.103
 2814TIP3    H2 8384   6.587   1.629   2.074
 2815TIP3   OH2 8385   4.222   1.793   3.168
 2815TIP3    H1 8386   4.217   1.792   3.264
 2815TIP3    H2 8387   4.218   1.885   3.145
 2816TIP3   OH2 8388   5.217   4.147   5.568
 2816TIP3    H1 8389   5.204   4.166   5.661
 2816TIP3    H2 8390   5.157   4.206   5.522
 2817TIP3   OH2 8391   0.044   0.099   5.024
 2817TIP3    H1 8392   0.129   0.139   5.007
 2817TIP3    H2 8393   0.065   0.011   5.056
 2818TIP3   OH2 8394   0.439   3.466   6.639
 2818TIP3    H1 8395   0.377   3.476   6.712
 2818TIP3    H2 8396   0.467   3.555   6.619
 2819TIP3   OH2 8397   8.242   2.839   3.677
 2819TIP3    H1 8398   8.322   2.810   3.720
 2819TIP3    H2 8399   8.240   2.790   3.595
 2820TIP3   OH2 8400   6.710   4.335   4.669
 2820TIP3    H1 8401   6.795   4.342   4.625
 2820TIP3    H2 8402   6.698   4.241   4.683
 2821TIP3   OH2 8403   5.689   2.389   0.942
 2821TIP3    H1 8404   5.774   2.368   0.904
 2821TIP3    H2 8405   5.706   2.461   1.002
 2822TIP3   OH2 8406   3.223   1.580   0.314
 2822TIP3    H1 8407   3.273   1.557   0.235
 2822TIP3    H2 8408   3.277   1.549   0.387
 2823TIP3   OH2 8409   3.011   5.510   3.546
 2823TIP3    H1 8410   2.941   5.497   3.610
 2823TIP3    H2 8411   3.039   5.421   3.524
 2824TIP3   OH2 8412   0.776   3.800   1.716
 2824TIP3    H1 8413   0.776   3.733   1.784
 2824TIP3    H2 8414   0.854   3.782   1.664
 2825TIP3   OH2 8415   0.683   6.921   0.067
 2825TIP3    H1 8416   0.613   6.924   0.132
 2825TIP3    H2 8417   0.763   6.940   0.116
 2826TIP3   OH2 8418   1.407   6.200   5.732
 2826TIP3    H1 8419   1.466   6.202   5.808
 2826TIP3    H2 8420   1.456   6.151   5.666
 2827TIP3   OH2 8421   4.174   0.912   2.419
 2827TIP3    H1 8422   4.152   0.993   2.466
 2827TIP3    H2 8423   4.259   0.928   2.380
 2828TIP3   OH2 8424   4.898   3.515   2.236
 2828TIP3    H1 8425   4.960   3.445   2.259
 2828TIP3    H2 8426   4.860   3.486   2.152
 2829TIP3   OH2 8427   2.628   1.511   1.128
 2829TIP3    H1 8428   2.644   1.480   1.039
 2829TIP3    H2 8429   2.657   1.602   1.127
 2830TIP3   OH2 8430   2.483   4.789   6.123
 2830TIP3    H1 8431   2.423   4.714   6.129
 2830TIP3    H2 8432   2.555   4.767   6.182
 2831TIP3   OH2 8433   7.147   7.176   3.805
 2831TIP3    H1 8434   7.065   7.171   3.854
 2831TIP3    H2 8435   7.129   7.134   3.721
 2832TIP3   OH2 8436   0.757   7.188   2.360
 2832TIP3    H1 8437   0.816   7.118   2.388
 2832TIP3    H2 8438   0.816   7.258   2.331
 2833TIP3   OH2 8439   7.178   6.412   2.725
 2833TIP3    H1 8440   7.166   6.329   2.680
 2833TIP3    H2 8441   7.272   6.430   2.717
 2834TIP3   OH2 8442   3.312   4.182   2.154
 2834TIP3    H1 8443   3.369   4.258   2.139
 2834TIP3    H2 8444   3.372   4.107   2.158
 2835TIP3   OH2 8445   1.519   1.256   5.168
 2835TIP3    H1 8446   1.495   1.313   5.242
 2835TIP3    H2 8447   1.515   1.168   5.204
 2836TIP3   OH2 8448   4.464   0.417   6.683
 2836TIP3    H1 8449   4.499   0.477   6.617
 2836TIP3    H2 8450   4.369   0.425   6.674
 2837TIP3   OH2 8451   5.725   4.305   1.831
 2837TIP3    H1 8452   5.791   4.253   1.785
 2837TIP3    H2 8453   5.769   4.337   1.909
 2838TIP3   OH2 8454   3.490   0.279   1.486
 2838TIP3    H1 8455   3.438   0.307   1.411
 2838TIP3    H2 8456   3.428   0.276   1.559
 2839TIP3   OH2 8457   0.172   4.188   4.575
 2839TIP3    H1 8458   0.078   4.203   4.583
 2839TIP3    H2 8459   0.204   4.185   4.665
 2840TIP3   OH2 8460   0.127   6.098   2.589
 2840TIP3    H1 8461   0.064   6.027   2.598
 2840TIP3    H2 8462   0.146   6.102   2.495
 2841TIP3   OH2 8463   1.008   1.546   1.383
 2841TIP3    H1 8464   0.917   1.576   1.382
 2841TIP3    H2 8465   1.046   1.591   1.459
 2842TIP3   OH2 8466   5.868   6.644   3.203
 2842TIP3    H1 8467   5.911   6.558   3.203
 2842TIP3    H2 8468   5.822   6.647   3.287
 2843TIP3   OH2 8469   2.763   3.447   1.248
 2843TIP3    H1 8470   2.834   3.471   1.189
 2843TIP3    H2 8471   2.690   3.503   1.222
 2844TIP3   OH2 8472   6.281   1.562   2.765
 2844TIP3    H1 8473   6.368   1.530   2.787
 2844TIP3    H2 8474   6.287   1.657   2.776
 2845TIP3   OH2 8475   6.781   7.542   4.657
 2845TIP3    H1 8476   6.852   7.605   4.671
 2845TIP3    H2 8477   6.773   7.496   4.740
 2846TIP3   OH2 8478   4.526   5.202   2.846
 2846TIP3    H1 8479   4.574   5.119   2.849
 2846TIP3    H2 8480   4.530   5.228   2.754
 2847TIP3   OH2 8481   6.232   6.379   2.430
 2847TIP3    H1 8482   6.279   6.452   2.471
 2847TIP3    H2 8483   6.141   6.391   2.457
 2848TIP3   OH2 8484   4.061   4.796   5.925
 2848TIP3    H1 8485   4.068   4.790   5.830
 2848TIP3    H2 8486   4.071   4.706   5.956
 2849TIP3   OH2 8487   4.180   3.032   2.278
 2849TIP3    H1 8488   4.243   3.091   2.236
 2849TIP3    H2 8489   4.105   3.087   2.298
 2850TIP3   OH2 8490   6.467   6.057   2.358
 2850TIP3    H1 8491   6.441   6.135   2.308
 2850TIP3    H2 8492   6.427   6.069   2.444
 2851TIP3   OH2 8493   0.094   7.417   0.965
 2851TIP3    H1 8494   0.031   7.416   0.892
 2851TIP3    H2 8495   0.139   7.501   0.956
 2852TIP3   OH2 8496   6.908   2.313   1.946
 2852TIP3    H1 8497   6.998   2.346   1.942
 2852TIP3    H2 8498   6.916   2.224   1.979
 2853TIP3   OH2 8499   5.012   2.568   5.570
 2853TIP3    H1 8500   5.068   2.605   5.501
 2853TIP3    H2 8501   5.073   2.544   5.639
 2854TIP3   OH2 8502   4.737   2.555   5.917
 2854TIP3    H1 8503   4.827   2.523   5.908
 2854TIP3    H2 8504   4.732   2.629   5.856
 2855TIP3   OH2 8505   0.754   6.523   5.303
 2855TIP3    H1 8506   0.676   6.478   5.273
 2855TIP3    H2 8507   0.772   6.589   5.235
 2856TIP3   OH2 8508   4.224   3.057   1.078
 2856TIP3    H1 8509   4.315   3.032   1.060
 2856TIP3    H2 8510   4.230   3.143   1.118
 2857TIP3   OH2 8511   5.367   3.071   2.789
 2857TIP3    H1 8512   5.285   3.045   2.830
 2857TIP3    H2 8513   5.428   3.083   2.862
 2858TIP3   OH2 8514   0.132   2.623   2.602
 2858TIP3    H1 8515   0.058   2.678   2.577
 2858TIP3    H2 8516   0.178   2.674   2.669
 2859TIP3   OH2 8517   7.425   5.909   0.784
 2859TIP3    H1 8518   7.398   5.829   0.738
 2859TIP3    H2 8519   7.473   5.877   0.861
 2860TIP3   OH2 8520   1.646   0.408   2.024
 2860TIP3    H1 8521   1.739   0.404   2.006
 2860TIP3    H2 8522   1.605   0.426   1.939
 2861TIP3   OH2 8523   5.765   3.638   1.308
 2861TIP3    H1 8524   5.859   3.646   1.323
 2861TIP3    H2 8525   5.756   3.564   1.248
 2862TIP3   OH2 8526   7.913   4.777   2.310
 2862TIP3    H1 8527   7.966   4.766   2.231
 2862TIP3    H2 8528   7.944   4.709   2.370
 2863TIP3   OH2 8529   5.531   4.698   2.890
 2863TIP3    H1 8530   5.623   4.722   2.890
 2863TIP3    H2 8531   5.487   4.769   2.937
 2864TIP3   OH2 8532   3.280   6.498   2.791
 2864TIP3    H1 8533   3.365   6.481   2.831
 2864TIP3    H2 8534   3.223   6.519   2.865
 2865TIP3   OH2 8535   4.931   2.282   5.192
 2865TIP3    H1 8536   4.905   2.192   5.175
 2865TIP3    H2 8537   4.960   2.282   5.283
 2866TIP3   OH2 8538   7.188   4.337   3.422
 2866TIP3    H1 8539   7.273   4.323   3.380
 2866TIP3    H2 8540   7.131   4.271   3.382
 2867TIP3   OH2 8541   0.583   6.857   3.404
 2867TIP3    H1 8542   0.674   6.879   3.382
 2867TIP3    H2 8543   0.531   6.905   3.339
 2868TIP3   OH2 8544   0.383   7.509   4.723
 2868TIP3    H1 8545   0.307   7.462   4.689
 2868TIP3    H2 8546   0.459   7.466   4.683
 2869TIP3   OH2 8547   3.571   0.071   2.984
 2869TIP3    H1 8548   3.514   0.007   3.025
 2869TIP3    H2 8549   3.655   0.061   3.028
 2870TIP3   OH2 8550   7.101   5.800   5.266
 2870TIP3    H1 8551   7.169   5.801   5.333
 2870TIP3    H2 8552   7.107   5.713   5.227
 2871TIP3   OH2 8553   6.307   4.693   2.143
 2871TIP3    H1 8554   6.313   4.768   2.203
 2871TIP3    H2 8555   6.386   4.699   2.089
 2872TIP3   OH2 8556   3.381   4.820   0.633
 2872TIP3    H1 8557   3.367   4.881   0.561
 2872TIP3    H2 8558   3.378   4.734   0.592
 2873TIP3   OH2 8559   6.734   5.739   4.002
 2873TIP3    H1 8560   6.684   5.820   3.993
 2873TIP3    H2 8561   6.669   5.669   3.993
 2874TIP3   OH2 8562   6.231   3.047   3.294
 2874TIP3    H1 8563   6.184   2.977   3.249
 2874TIP3    H2 8564   6.183   3.127   3.271
 2875TIP3   OH2 8565   3.506   1.943   2.206
 2875TIP3    H1 8566   3.489   2.027   2.162
 2875TIP3    H2 8567   3.551   1.967   2.287
 2876TIP3   OH2 8568   2.503   1.059   3.290
 2876TIP3    H1 8569   2.550   1.024   3.214
 2876TIP3    H2 8570   2.545   1.018   3.366
 2877TIP3   OH2 8571   8.306   4.792   1.345
 2877TIP3    H1 8572   8.292   4.730   1.416
 2877TIP3    H2 8573   8.322   4.737   1.268
 2878TIP3   OH2 8574   2.706   4.535   5.469
 2878TIP3    H1 8575   2.659   4.553   5.551
 2878TIP3    H2 8576   2.764   4.610   5.458
 2879TIP3   OH2 8577   3.886   0.042   1.545
 2879TIP3    H1 8578   3.873   0.137   1.551
 2879TIP3    H2 8579   3.894   0.024   1.452
 2880TIP3   OH2 8580   6.410   0.702   2.968
 2880TIP3    H1 8581   6.421   0.726   3.060
 2880TIP3    H2 8582   6.365   0.776   2.928
 2881TIP3   OH2 8583   4.847   1.869   3.045
 2881TIP3    H1 8584   4.778   1.915   3.093
 2881TIP3    H2 8585   4.903   1.832   3.112
 2882TIP3   OH2 8586   4.022   2.269   3.319
 2882TIP3    H1 8587   3.939   2.221   3.317
 2882TIP3    H2 8588   4.003   2.347   3.371
 2883TIP3   OH2 8589   5.454   3.993   3.863
 2883TIP3    H1 8590   5.468   3.902   3.837
 2883TIP3    H2 8591   5.443   4.040   3.780
 2884TIP3   OH2 8592   6.727   5.463   5.083
 2884TIP3    H1 8593   6.743   5.558   5.082
 2884TIP3    H2 8594   6.662   5.450   5.151
 2885TIP3   OH2 8595   7.677   3.828   3.578
 2885TIP3    H1 8596   7.688   3.922   3.588
 2885TIP3    H2 8597   7.609   3.804   3.640
 2886TIP3   OH2 8598   4.997   4.232   6.448
 2886TIP3    H1 8599   5.082   4.209   6.486
 2886TIP3    H2 8600   4.953   4.284   6.515
 2887TIP3   OH2 8601   3.349   2.321   3.449
 2887TIP3    H1 8602   3.444   2.312   3.449
 2887TIP3    H2 8603   3.317   2.248   3.502
 2888TIP3   OH2 8604   5.820   0.275   3.818
 2888TIP3    H1 8605   5.732   0.247   3.843
 2888TIP3    H2 8606   5.862   0.196   3.784
 2889TIP3   OH2 8607   8.005   4.687   1.154
 2889TIP3    H1 8608   7.993   4.782   1.160
 2889TIP3    H2 8609   8.078   4.676   1.094
 2890TIP3   OH2 8610   2.746   3.905   3.718
 2890TIP3    H1 8611   2.762   3.948   3.802
 2890TIP3    H2 8612   2.742   3.976   3.655
 2891TIP3   OH2 8613   6.753   6.199   3.899
 2891TIP3    H1 8614   6.751   6.279   3.952
 2891TIP3    H2 8615   6.840   6.199   3.859
 2892TIP3   OH2 8616   7.736   4.285   5.369
 2892TIP3    H1 8617   7.654   4.257   5.409
 2892TIP3    H2 8618   7.708   4.340   5.295
 2893TIP3   OH2 8619   2.057   6.185   2.480
 2893TIP3    H1 8620   2.053   6.116   2.546
 2893TIP3    H2 8621   2.139   6.170   2.434
 2894TIP3   OH2 8622   4.643   6.726   2.177
 2894TIP3    H1 8623   4.670   6.636   2.192
 2894TIP3    H2 8624   4.723   6.778   2.187
 2895TIP3   OH2 8625   6.272   3.219   5.561
 2895TIP3    H1 8626   6.363   3.189   5.572
 2895TIP3    H2 8627   6.276   3.314   5.569
 2896TIP3   OH2 8628   0.742   0.532   2.978
 2896TIP3    H1 8629   0.654   0.502   2.954
 2896TIP3    H2 8630   0.787   0.453   3.007
 2897TIP3   OH2 8631   4.124   0.464   2.302
 2897TIP3    H1 8632   4.200   0.475   2.246
 2897TIP3    H2 8633   4.056   0.517   2.261
 2898TIP3   OH2 8634   0.254   5.460   2.195
 2898TIP3    H1 8635   0.181   5.408   2.161
 2898TIP3    H2 8636   0.236   5.549   2.166
 2899TIP3   OH2 8637   4.118   0.586   4.295
 2899TIP3    H1 8638   4.184   0.574   4.363
 2899TIP3    H2 8639   4.168   0.598   4.214
 2900TIP3   OH2 8640   1.164   6.018   0.665
 2900TIP3    H1 8641   1.077   6.055   0.682
 2900TIP3    H2 8642   1.224   6.073   0.715
 2901TIP3   OH2 8643   7.923   5.954   1.654
 2901TIP3    H1 8644   7.947   6.017   1.722
 2901TIP3    H2 8645   7.832   5.933   1.672
 2902TIP3   OH2 8646   5.588   6.240   6.635
 2902TIP3    H1 8647   5.659   6.214   6.577
 2902TIP3    H2 8648   5.514   6.186   6.608
 2903TIP3   OH2 8649   2.842   4.899   0.115
 2903TIP3    H1 8650   2.914   4.859   0.067
 2903TIP3    H2 8651   2.772   4.835   0.112
 2904TIP3   OH2 8652   2.920   7.775   2.770
 2904TIP3    H1 8653   3.012   7.779   2.797
 2904TIP3    H2 8654   2.921   7.726   2.688
 2905TIP3   OH2 8655   4.489   7.689   2.281
 2905TIP3    H1 8656   4.418   7.672   2.344
 2905TIP3    H2 8657   4.488   7.784   2.270
 2906TIP3   OH2 8658   5.228   2.403   6.785
 2906TIP3    H1 8659   5.290   2.350   6.736
 2906TIP3    H2 8660   5.197   2.468   6.721
 2907TIP3   OH2 8661   1.449   0.728   3.383
 2907TIP3    H1 8662   1.420   0.814   3.352
 2907TIP3    H2 8663   1.367   0.680   3.399
 2908TIP3   OH2 8664   7.026   1.676   2.736
 2908TIP3    H1 8665   6.966   1.702   2.805
 2908TIP3    H2 8666   7.015   1.581   2.730
 2909TIP3   OH2 8667   7.909   6.914   5.123
 2909TIP3    H1 8668   7.964   6.931   5.046
 2909TIP3    H2 8669   7.943   6.973   5.190
 2910TIP3   OH2 8670   0.567   1.394   1.734
 2910TIP3    H1 8671   0.654   1.382   1.695
 2910TIP3    H2 8672   0.560   1.489   1.747
 2911TIP3   OH2 8673   2.143   1.736   1.493
 2911TIP3    H1 8674   2.233   1.764   1.507
 2911TIP3    H2 8675   2.147   1.673   1.422
 2912TIP3   OH2 8676   1.742   4.564   1.222
 2912TIP3    H1 8677   1.704   4.652   1.232
 2912TIP3    H2 8678   1.708   4.514   1.296
 2913TIP3   OH2 8679   4.671   1.032   6.534
 2913TIP3    H1 8680   4.625   0.973   6.474
 2913TIP3    H2 8681   4.762   1.005   6.528
 2914TIP3   OH2 8682   0.170   1.594   2.754
 2914TIP3    H1 8683   0.109   1.583   2.828
 2914TIP3    H2 8684   0.202   1.683   2.763
 2915TIP3   OH2 8685   2.796   1.612   5.834
 2915TIP3    H1 8686   2.808   1.623   5.929
 2915TIP3    H2 8687   2.753   1.528   5.825
 2916TIP3   OH2 8688   0.456   6.480   4.577
 2916TIP3    H1 8689   0.510   6.538   4.524
 2916TIP3    H2 8690   0.369   6.483   4.536
 2917TIP3   OH2 8691   6.945   3.399   5.002
 2917TIP3    H1 8692   7.009   3.470   5.000
 2917TIP3    H2 8693   6.992   3.323   4.967
 2918TIP3   OH2 8694   4.454   3.895   6.497
 2918TIP3    H1 8695   4.390   3.929   6.435
 2918TIP3    H2 8696   4.538   3.928   6.465
 2919TIP3   OH2 8697   4.145   4.813   1.276
 2919TIP3    H1 8698   4.115   4.735   1.229
 2919TIP3    H2 8699   4.094   4.884   1.239
 2920TIP3   OH2 8700   4.272   3.340   0.578
 2920TIP3    H1 8701   4.177   3.330   0.584
 2920TIP3    H2 8702   4.306   3.303   0.660
 2921TIP3   OH2 8703   1.572   6.378   2.299
 2921TIP3    H1 8704   1.557   6.326   2.379
 2921TIP3    H2 8705   1.666   6.393   2.298
 2922TIP3   OH2 8706   4.562   4.473   0.635
 2922TIP3    H1 8707   4.597   4.479   0.546
 2922TIP3    H2 8708   4.470   4.448   0.622
 2923TIP3   OH2 8709   7.636   1.562   4.116
 2923TIP3    H1 8710   7.714   1.548   4.170
 2923TIP3    H2 8711   7.589   1.479   4.119
 2924TIP3   OH2 8712   5.188   4.627   3.163
 2924TIP3    H1 8713   5.279   4.655   3.180
 2924TIP3    H2 8714   5.157   4.688   3.096
 2925TIP3   OH2 8715   8.055   5.484   6.030
 2925TIP3    H1 8716   8.090   5.536   5.957
 2925TIP3    H2 8717   7.961   5.501   6.028
 2926TIP3   OH2 8718   1.411   0.157   1.074
 2926TIP3    H1 8719   1.341   0.119   1.127
 2926TIP3    H2 8720   1.420   0.097   1.000
 2927TIP3   OH2 8721   5.320   5.259   3.421
 2927TIP3    H1 8722   5.227   5.237   3.420
 2927TIP3    H2 8723   5.322   5.354   3.433
 2928TIP3   OH2 8724   3.149   0.620   3.858
 2928TIP3    H1 8725   3.063   0.606   3.897
 2928TIP3    H2 8726   3.209   0.567   3.912
 2929TIP3   OH2 8727   2.552   2.886   6.338
 2929TIP3    H1 8728   2.462   2.917   6.335
 2929TIP3    H2 8729   2.553   2.819   6.407
 2930TIP3   OH2 8730   4.574   4.093   2.465
 2930TIP3    H1 8731   4.541   4.146   2.393
 2930TIP3    H2 8732   4.651   4.049   2.429
 2931TIP3   OH2 8733   5.524   1.378   4.676
 2931TIP3    H1 8734   5.567   1.413   4.598
 2931TIP3    H2 8735   5.490   1.293   4.648
 2932TIP3   OH2 8736   4.396   4.303   0.901
 2932TIP3    H1 8737   4.431   4.232   0.847
 2932TIP3    H2 8738   4.436   4.290   0.987
 2933TIP3   OH2 8739   1.452   1.409   6.313
 2933TIP3    H1 8740   1.499   1.488   6.287
 2933TIP3    H2 8741   1.466   1.403   6.407
 2934TIP3   OH2 8742   2.594   6.574   5.105
 2934TIP3    H1 8743   2.603   6.488   5.064
 2934TIP3    H2 8744   2.536   6.559   5.180
 2935TIP3   OH2 8745   4.632   6.688   0.937
 2935TIP3    H1 8746   4.627   6.643   0.853
 2935TIP3    H2 8747   4.578   6.634   0.996
 2936TIP3   OH2 8748   6.976   6.584   0.794
 2936TIP3    H1 8749   7.014   6.529   0.725
 2936TIP3    H2 8750   6.896   6.620   0.754
 2937TIP3   OH2 8751   3.285   7.746   3.750
 2937TIP3    H1 8752   3.305   7.769   3.841
 2937TIP3    H2 8753   3.283   7.650   3.750
 2938TIP3   OH2 8754   7.187   3.644   5.248
 2938TIP3    H1 8755   7.099   3.657   5.283
 2938TIP3    H2 8756   7.205   3.552   5.262
 2939TIP3   OH2 8757   3.935   6.530   3.022
 2939TIP3    H1 8758   3.989   6.608   3.034
 2939TIP3    H2 8759   3.847   6.558   3.051
 2940TIP3   OH2 8760   0.946   6.944   2.428
 2940TIP3    H1 8761   0.887   6.869   2.418
 2940TIP3    H2 8762   1.025   6.920   2.380
 2941TIP3   OH2 8763   8.182   5.873   6.611
 2941TIP3    H1 8764   8.220   5.911   6.532
 2941TIP3    H2 8765   8.251   5.882   6.677
 2942TIP3   OH2 8766   0.884   1.819   2.301
 2942TIP3    H1 8767   0.904   1.736   2.344
 2942TIP3    H2 8768   0.969   1.854   2.274
 2943TIP3   OH2 8769   8.376   3.811   0.389
 2943TIP3    H1 8770   8.391   3.895   0.434
 2943TIP3    H2 8771   8.297   3.777   0.429
 2944TIP3   OH2 8772   6.439   5.633   5.370
 2944TIP3    H1 8773   6.410   5.672   5.287
 2944TIP3    H2 8774   6.470   5.708   5.421
 2945TIP3   OH2 8775   2.620   4.889   3.720
 2945TIP3    H1 8776   2.693   4.923   3.772
 2945TIP3    H2 8777   2.579   4.967   3.683
 2946TIP3   OH2 8778   3.462   5.456   3.379
 2946TIP3    H1 8779   3.543   5.424   3.418
 2946TIP3    H2 8780   3.474   5.551   3.373
 2947TIP3   OH2 8781   8.110   0.906   0.417
 2947TIP3    H1 8782   8.030   0.853   0.412
 2947TIP3    H2 8783   8.090   0.974   0.481
 2948TIP3   OH2 8784   0.082   0.164   2.848
 2948TIP3    H1 8785   0.063   0.132   2.936
 2948TIP3    H2 8786   0.094   0.258   2.859
 2949TIP3   OH2 8787   6.134   2.020   3.913
 2949TIP3    H1 8788   6.131   2.060   3.826
 2949TIP3    H2 8789   6.086   2.081   3.969
 2950TIP3   OH2 8790   4.560   6.652   6.413
 2950TIP3    H1 8791   4.569   6.669   6.507
 2950TIP3    H2 8792   4.502   6.721   6.381
 2951TIP3   OH2 8793   5.304   5.598   0.276
 2951TIP3    H1 8794   5.339   5.513   0.251
 2951TIP3    H2 8795   5.379   5.646   0.312
 2952TIP3   OH2 8796   0.076   5.315   4.711
 2952TIP3    H1 8797  -0.015   5.306   4.740
 2952TIP3    H2 8798   0.086   5.408   4.689
 2953TIP3   OH2 8799   2.890   6.960   4.697
 2953TIP3    H1 8800   2.878   7.019   4.772
 2953TIP3    H2 8801   2.833   6.996   4.629
 2954TIP3   OH2 8802   0.379   1.670   4.118
 2954TIP3    H1 8803   0.345   1.741   4.063
 2954TIP3    H2 8804   0.301   1.628   4.155
 2955TIP3   OH2 8805   1.926   6.029   0.569
 2955TIP3    H1 8806   1.973   5.947   0.580
 2955TIP3    H2 8807   1.835   6.009   0.594
 2956TIP3   OH2 8808   7.253   7.025   2.178
 2956TIP3    H1 8809   7.165   7.025   2.142
 2956TIP3    H2 8810   7.247   6.971   2.257
 2957TIP3   OH2 8811   7.057   4.847   3.750
 2957TIP3    H1 8812   7.100   4.905   3.687
 2957TIP3    H2 8813   7.083   4.881   3.836
 2958TIP3   OH2 8814   3.242   7.905   5.494
 2958TIP3    H1 8815   3.295   7.981   5.519
 2958TIP3    H2 8816   3.152   7.934   5.505
 2959TIP3   OH2 8817   3.924   6.503   2.481
 2959TIP3    H1 8818   3.949   6.499   2.388
 2959TIP3    H2 8819   3.830   6.517   2.480
 2960TIP3   OH2 8820   2.531   0.321   3.661
 2960TIP3    H1 8821   2.448   0.329   3.614
 2960TIP3    H2 8822   2.548   0.227   3.663
 2961TIP3   OH2 8823   2.204   6.081   5.043
 2961TIP3    H1 8824   2.114   6.062   5.018
 2961TIP3    H2 8825   2.254   6.067   4.963
 2962TIP3   OH2 8826   5.948   1.356   4.368
 2962TIP3    H1 8827   6.029   1.372   4.417
 2962TIP3    H2 8828   5.902   1.440   4.369
 2963TIP3   OH2 8829   7.357   6.793   4.351
 2963TIP3    H1 8830   7.427   6.727   4.343
 2963TIP3    H2 8831   7.396   6.873   4.315
 2964TIP3   OH2 8832   6.006   4.990   0.366
 2964TIP3    H1 8833   5.967   5.077   0.380
 2964TIP3    H2 8834   6.096   5.008   0.340
 2965TIP3   OH2 8835   5.164   0.705   5.917
 2965TIP3    H1 8836   5.108   0.686   5.993
 2965TIP3    H2 8837   5.210   0.623   5.899
 2966TIP3   OH2 8838   3.808   0.973   4.054
 2966TIP3    H1 8839   3.846   1.035   4.117
 2966TIP3    H2 8840   3.774   1.028   3.984
 2967TIP3   OH2 8841   3.348   4.341   2.655
 2967TIP3    H1 8842   3.427   4.306   2.614
 2967TIP3    H2 8843   3.281   4.333   2.588
 2968TIP3   OH2 8844   1.423   4.866   3.901
 2968TIP3    H1 8845   1.446   4.947   3.855
 2968TIP3    H2 8846   1.361   4.895   3.969
 2969TIP3   OH2 8847   5.993   1.741   2.798
 2969TIP3    H1 8848   5.938   1.733   2.720
 2969TIP3    H2 8849   5.954   1.680   2.862
 2970TIP3   OH2 8850   5.211   6.859   3.774
 2970TIP3    H1 8851   5.246   6.908   3.848
 2970TIP3    H2 8852   5.238   6.769   3.791
 2971TIP3   OH2 8853   7.195   1.546   4.190
 2971TIP3    H1 8854   7.270   1.599   4.218
 2971TIP3    H2 8855   7.152   1.521   4.272
 2972TIP3   OH2 8856   4.862   1.451   2.914
 2972TIP3    H1 8857   4.837   1.412   2.831
 2972TIP3    H2 8858   4.787   1.437   2.972
 2973TIP3   OH2 8859   6.058   2.472   4.179
 2973TIP3    H1 8860   5.994   2.521   4.231
 2973TIP3    H2 8861   6.067   2.522   4.098
 2974TIP3   OH2 8862   8.311   3.108   2.190
 2974TIP3    H1 8863   8.284   3.087   2.279
 2974TIP3    H2 8864   8.246   3.171   2.160
 2975TIP3   OH2 8865   3.479   0.057   2.283
 2975TIP3    H1 8866   3.427  -0.013   2.244
 2975TIP3    H2 8867   3.508   0.110   2.209
 2976TIP3   OH2 8868   5.054   5.976   2.701
 2976TIP3    H1 8869   5.024   5.910   2.639
 2976TIP3    H2 8870   5.114   5.929   2.759
 2977TIP3   OH2 8871   4.982   0.962   5.577
 2977TIP3    H1 8872   4.915   0.961   5.509
 2977TIP3    H2 8873   4.953   1.031   5.638
 2978TIP3   OH2 8874   5.174   5.091   4.215
 2978TIP3    H1 8875   5.263   5.112   4.241
 2978TIP3    H2 8876   5.159   5.143   4.136
 2979TIP3   OH2 8877   3.977   7.695   0.372
 2979TIP3    H1 8878   3.889   7.659   0.385
 2979TIP3    H2 8879   3.963   7.789   0.358
 2980TIP3   OH2 8880   2.708   5.338   0.829
 2980TIP3    H1 8881   2.733   5.422   0.868
 2980TIP3    H2 8882   2.656   5.362   0.753
 2981TIP3   OH2 8883   2.144   3.271   5.594
 2981TIP3    H1 8884   2.102   3.302   5.514
 2981TIP3    H2 8885   2.220   3.222   5.565
 2982TIP3   OH2 8886   7.940   0.561   4.990
 2982TIP3    H1 8887   7.965   0.652   4.979
 2982TIP3    H2 8888   7.983   0.535   5.072
 2983TIP3   OH2 8889   2.890   3.822   0.063
 2983TIP3    H1 8890   2.903   3.906   0.106
 2983TIP3    H2 8891   2.855   3.845  -0.023
 2984TIP3   OH2 8892   5.870   7.005   2.948
 2984TIP3    H1 8893   5.868   7.101   2.945
 2984TIP3    H2 8894   5.962   6.983   2.939
 2985TIP3   OH2 8895   7.496   6.777   1.586
 2985TIP3    H1 8896   7.511   6.708   1.522
 2985TIP3    H2 8897   7.402   6.795   1.580
 2986TIP3   OH2 8898   5.932   1.288   1.468
 2986TIP3    H1 8899   5.848   1.270   1.426
 2986TIP3    H2 8900   5.942   1.216   1.531
 2987TIP3   OH2 8901   4.089   5.642   3.499
 2987TIP3    H1 8902   4.007   5.672   3.460
 2987TIP3    H2 8903   4.063   5.609   3.585
 2988TIP3   OH2 8904   3.310   3.735   2.412
 2988TIP3    H1 8905   3.232   3.725   2.466
 2988TIP3    H2 8906   3.314   3.829   2.393
 2989TIP3   OH2 8907   2.892   0.393   1.989
 2989TIP3    H1 8908   2.908   0.481   1.955
 2989TIP3    H2 8909   2.943   0.389   2.070
 2990TIP3   OH2 8910   6.389   2.893   0.349
 2990TIP3    H1 8911   6.434   2.845   0.279
 2990TIP3    H2 8912   6.335   2.957   0.302
 2991TIP3   OH2 8913   4.288   6.381   4.603
 2991TIP3    H1 8914   4.297   6.322   4.528
 2991TIP3    H2 8915   4.372   6.377   4.648
 2992TIP3   OH2 8916   2.223   2.840   2.880
 2992TIP3    H1 8917   2.213   2.920   2.931
 2992TIP3    H2 8918   2.182   2.860   2.796
 2993TIP3   OH2 8919   2.727   3.488   6.087
 2993TIP3    H1 8920   2.637   3.456   6.088
 2993TIP3    H2 8921   2.779   3.414   6.120
 2994TIP3   OH2 8922   2.011   3.896   5.771
 2994TIP3    H1 8923   2.101   3.876   5.795
 2994TIP3    H2 8924   1.962   3.818   5.796
 2995TIP3   OH2 8925   5.037   2.978   6.779
 2995TIP3    H1 8926   4.997   2.930   6.851
 2995TIP3    H2 8927   5.099   2.917   6.739
 2996TIP3   OH2 8928   1.197   0.429   6.331
 2996TIP3    H1 8929   1.223   0.339   6.310
 2996TIP3    H2 8930   1.156   0.422   6.418
 2997TIP3   OH2 8931   2.753   6.852   4.264
 2997TIP3    H1 8932   2.663   6.821   4.274
 2997TIP3    H2 8933   2.807   6.789   4.312
 2998TIP3   OH2 8934   7.881   6.655   3.434
 2998TIP3    H1 8935   7.903   6.734   3.484
 2998TIP3    H2 8936   7.803   6.679   3.385
 2999TIP3   OH2 8937   5.000   0.176   0.591
 2999TIP3    H1 8938   4.919   0.125   0.585
 2999TIP3    H2 8939   5.057   0.124   0.647
 3000TIP3   OH2 8940   5.082   4.708   3.402
 3000TIP3    H1 8941   5.013   4.761   3.362
 3000TIP3    H2 8942   5.120   4.658   3.329
 3001TIP3   OH2 8943   5.500   7.611   5.767
 3001TIP3    H1 8944   5.480   7.519   5.786
 3001TIP3    H2 8945   5.433   7.660   5.813
 3002TIP3   OH2 8946   0.197   5.431   6.068
 3002TIP3    H1 8947   0.195   5.335   6.073
 3002TIP3    H2 8948   0.136   5.459   6.137
 3003TIP3   OH2 8949   3.046   6.861   6.739
 3003TIP3    H1 8950   2.998   6.931   6.695
 3003TIP3    H2 8951   3.071   6.898   6.823
 3004TIP3   OH2 8952   2.807   6.637   5.942
 3004TIP3    H1 8953   2.747   6.662   6.013
 3004TIP3    H2 8954   2.756   6.576   5.888
 3005TIP3   OH2 8955   3.634   1.507   5.306
 3005TIP3    H1 8956   3.707   1.448   5.290
 3005TIP3    H2 8957   3.657   1.553   5.387
 3006TIP3   OH2 8958   1.329   7.507   2.464
 3006TIP3    H1 8959   1.363   7.525   2.552
 3006TIP3    H2 8960   1.271   7.431   2.476
 3007TIP3   OH2 8961   1.034   7.534   4.156
 3007TIP3    H1 8962   1.081   7.451   4.151
 3007TIP3    H2 8963   1.101   7.600   4.137
 3008TIP3   OH2 8964   4.185   1.224   6.584
 3008TIP3    H1 8965   4.192   1.261   6.672
 3008TIP3    H2 8966   4.107   1.265   6.547
 3009TIP3   OH2 8967   0.201   6.967   0.446
 3009TIP3    H1 8968   0.232   7.043   0.396
 3009TIP3    H2 8969   0.135   6.927   0.390
 3010TIP3   OH2 8970   7.020   1.588   5.522
 3010TIP3    H1 8971   6.942   1.534   5.515
 3010TIP3    H2 8972   7.047   1.580   5.613
 3011TIP3   OH2 8973   3.266   6.242   6.585
 3011TIP3    H1 8974   3.312   6.218   6.505
 3011TIP3    H2 8975   3.238   6.333   6.571
 3012TIP3   OH2 8976   4.592   0.236   5.010
 3012TIP3    H1 8977   4.504   0.219   4.977
 3012TIP3    H2 8978   4.582   0.236   5.106
 3013TIP3   OH2 8979   5.896   2.798   6.320
 3013TIP3    H1 8980   5.973   2.846   6.351
 3013TIP3    H2 8981   5.879   2.732   6.387
 3014TIP3   OH2 8982   2.931   2.067   1.993
 3014TIP3    H1 8983   3.025   2.052   1.986
 3014TIP3    H2 8984   2.897   1.990   2.039
 3015TIP3   OH2 8985   3.110   3.103   5.508
 3015TIP3    H1 8986   3.017   3.080   5.513
 3015TIP3    H2 8987   3.110   3.198   5.495
 3016TIP3   OH2 8988   6.697   4.527   1.237
 3016TIP3    H1 8989   6.677   4.594   1.302
 3016TIP3    H2 8990   6.625   4.533   1.174
 3017TIP3   OH2 8991   0.092   7.008   0.681
 3017TIP3    H1 8992   0.145   6.977   0.608
 3017TIP3    H2 8993   0.134   6.971   0.759
 3018TIP3   OH2 8994   5.805   1.522   6.574
 3018TIP3    H1 8995   5.797   1.444   6.629
 3018TIP3    H2 8996   5.725   1.524   6.523
 3019TIP3   OH2 8997   3.881   0.484   4.269
 3019TIP3    H1 8998   3.974   0.506   4.273
 3019TIP3    H2 8999   3.836   0.568   4.272
 3020TIP3   OH2 9000   5.271   3.480   3.211
 3020TIP3    H1 9001   5.285   3.560   3.160
 3020TIP3    H2 9002   5.273   3.410   3.146
 3021TIP3   OH2 9003   0.102   4.113   1.148
 3021TIP3    H1 9004   0.092   4.181   1.214
 3021TIP3    H2 9005   0.013   4.095   1.117
 3022TIP3   OH2 9006   4.281   4.875   1.864
 3022TIP3    H1 9007   4.315   4.826   1.789
 3022TIP3    H2 9008   4.281   4.966   1.835
 3023TIP3   OH2 9009   4.438   2.638   5.374
 3023TIP3    H1 9010   4.426   2.607   5.464
 3023TIP3    H2 9011   4.510   2.586   5.339
 3024TIP3   OH2 9012   4.914   1.974   2.487
 3024TIP3    H1 9013   4.957   2.058   2.471
 3024TIP3    H2 9014   4.961   1.936   2.561
 3025TIP3   OH2 9015   7.707   2.940   4.330
 3025TIP3    H1 9016   7.745   2.862   4.288
 3025TIP3    H2 9017   7.613   2.933   4.312
 3026TIP3   OH2 9018   4.165   7.109   1.358
 3026TIP3    H1 9019   4.104   7.176   1.390
 3026TIP3    H2 9020   4.193   7.062   1.436
 3027TIP3   OH2 9021   3.786   1.160   1.365
 3027TIP3    H1 9022   3.722   1.102   1.323
 3027TIP3    H2 9023   3.750   1.176   1.452
 3028TIP3   OH2 9024   6.474   0.808   6.295
 3028TIP3    H1 9025   6.526   0.767   6.225
 3028TIP3    H2 9026   6.408   0.742   6.318
 3029TIP3   OH2 9027   6.552   6.234   4.645
 3029TIP3    H1 9028   6.482   6.172   4.664
 3029TIP3    H2 9029   6.620   6.182   4.602
 3030TIP3   OH2 9030   1.448   6.973   5.347
 3030TIP3    H1 9031   1.473   7.011   5.263
 3030TIP3    H2 9032   1.400   7.043   5.391
 3031TIP3   OH2 9033   1.050   5.704   2.772
 3031TIP3    H1 9034   1.127   5.697   2.715
 3031TIP3    H2 9035   1.059   5.791   2.812
 3032TIP3   OH2 9036   5.905   7.175   2.214
 3032TIP3    H1 9037   5.919   7.268   2.197
 3032TIP3    H2 9038   5.985   7.133   2.182
 3033TIP3   OH2 9039   6.679   4.469   2.237
 3033TIP3    H1 9040   6.671   4.512   2.152
 3033TIP3    H2 9041   6.592   4.478   2.277
 3034TIP3   OH2 9042   5.935   7.695   4.863
 3034TIP3    H1 9043   5.886   7.662   4.938
 3034TIP3    H2 9044   5.954   7.786   4.885
 3035TIP3   OH2 9045   1.995   5.558   1.068
 3035TIP3    H1 9046   2.018   5.651   1.057
 3035TIP3    H2 9047   1.903   5.559   1.093
 3036TIP3   OH2 9048   3.920   5.063   4.353
 3036TIP3    H1 9049   3.958   4.981   4.325
 3036TIP3    H2 9050   3.837   5.039   4.394
 3037TIP3   OH2 9051   2.684   1.928   1.531
 3037TIP3    H1 9052   2.747   1.859   1.550
 3037TIP3    H2 9053   2.737   2.002   1.502
 3038TIP3   OH2 9054   1.824   6.948   3.322
 3038TIP3    H1 9055   1.772   6.871   3.347
 3038TIP3    H2 9056   1.913   6.927   3.350
 3039TIP3   OH2 9057   4.843   3.556   6.145
 3039TIP3    H1 9058   4.822   3.649   6.156
 3039TIP3    H2 9059   4.764   3.510   6.172
 3040TIP3   OH2 9060   6.508   0.012   0.104
 3040TIP3    H1 9061   6.588   0.037   0.150
 3040TIP3    H2 9062   6.538  -0.023   0.020
 3041TIP3   OH2 9063   6.073   7.299   0.533
 3041TIP3    H1 9064   6.052   7.233   0.467
 3041TIP3    H2 9065   6.070   7.251   0.616
 3042TIP3   OH2 9066   4.018   4.169   6.335
 3042TIP3    H1 9067   3.949   4.104   6.329
 3042TIP3    H2 9068   4.018   4.196   6.427
 3043TIP3   OH2 9069   1.757   0.682   1.846
 3043TIP3    H1 9070   1.719   0.755   1.895
 3043TIP3    H2 9071   1.730   0.696   1.756
 3044TIP3   OH2 9072   5.747   4.086   1.350
 3044TIP3    H1 9073   5.754   4.175   1.385
 3044TIP3    H2 9074   5.713   4.098   1.261
 3045TIP3   OH2 9075   5.389   0.868   0.436
 3045TIP3    H1 9076   5.403   0.788   0.385
 3045TIP3    H2 9077   5.476   0.905   0.447
 3046TIP3   OH2 9078   2.467   4.025   1.278
 3046TIP3    H1 9079   2.442   4.114   1.302
 3046TIP3    H2 9080   2.523   3.996   1.351
 3047TIP3   OH2 9081   7.183   1.174   2.363
 3047TIP3    H1 9082   7.172   1.079   2.349
 3047TIP3    H2 9083   7.232   1.180   2.445
 3048TIP3   OH2 9084   4.655   6.463   1.924
 3048TIP3    H1 9085   4.570   6.419   1.926
 3048TIP3    H2 9086   4.687   6.458   2.014
 3049TIP3   OH2 9087   7.527   3.330   0.847
 3049TIP3    H1 9088   7.505   3.421   0.825
 3049TIP3    H2 9089   7.497   3.280   0.772
 3050TIP3   OH2 9090   4.167   2.551   4.540
 3050TIP3    H1 9091   4.087   2.514   4.577
 3050TIP3    H2 9092   4.213   2.588   4.616
 3051TIP3   OH2 9093   6.994   7.458   0.451
 3051TIP3    H1 9094   6.944   7.420   0.523
 3051TIP3    H2 9095   7.070   7.400   0.441
 3052TIP3   OH2 9096   1.724   2.678   2.825
 3052TIP3    H1 9097   1.682   2.693   2.741
 3052TIP3    H2 9098   1.697   2.589   2.850
 3053TIP3   OH2 9099   5.620   7.314   0.456
 3053TIP3    H1 9100   5.687   7.378   0.479
 3053TIP3    H2 9101   5.663   7.253   0.396
 3054TIP3   OH2 9102   1.536   6.953   2.921
 3054TIP3    H1 9103   1.552   7.043   2.950
 3054TIP3    H2 9104   1.598   6.900   2.971
 3055TIP3   OH2 9105   0.545   6.692   4.432
 3055TIP3    H1 9106   0.576   6.666   4.345
 3055TIP3    H2 9107   0.597   6.770   4.452
 3056TIP3   OH2 9108   4.063   2.847   4.542
 3056TIP3    H1 9109   4.092   2.757   4.525
 3056TIP3    H2 9110   4.039   2.847   4.635
 3057TIP3   OH2 9111   4.032   3.333   0.884
 3057TIP3    H1 9112   4.081   3.414   0.872
 3057TIP3    H2 9113   3.981   3.347   0.964
 3058TIP3   OH2 9114   2.119   0.788   6.519
 3058TIP3    H1 9115   2.030   0.793   6.555
 3058TIP3    H2 9116   2.114   0.836   6.437
 3059TIP3   OH2 9117   1.435   3.447   1.294
 3059TIP3    H1 9118   1.475   3.480   1.213
 3059TIP3    H2 9119   1.464   3.509   1.361
 3060TIP3   OH2 9120   2.217   5.244   6.576
 3060TIP3    H1 9121   2.204   5.263   6.483
 3060TIP3    H2 9122   2.224   5.330   6.617
 3061TIP3   OH2 9123   6.982   0.566   3.851
 3061TIP3    H1 9124   6.999   0.472   3.853
 3061TIP3    H2 9125   7.047   0.601   3.789
 3062TIP3   OH2 9126   1.796   5.624   3.157
 3062TIP3    H1 9127   1.762   5.557   3.097
 3062TIP3    H2 9128   1.889   5.602   3.167
 3063TIP3   OH2 9129   0.805   4.917   6.096
 3063TIP3    H1 9130   0.783   5.007   6.071
 3063TIP3    H2 9131   0.808   4.919   6.192
 3064TIP3   OH2 9132   3.851   2.945   4.786
 3064TIP3    H1 9133   3.829   3.004   4.713
 3064TIP3    H2 9134   3.767   2.927   4.828
 3065TIP3   OH2 9135   7.833   0.167   1.498
 3065TIP3    H1 9136   7.879   0.166   1.582
 3065TIP3    H2 9137   7.767   0.098   1.507
 3066TIP3   OH2 9138   3.644   5.732   5.641
 3066TIP3    H1 9139   3.700   5.676   5.588
 3066TIP3    H2 9140   3.665   5.821   5.613
 3067TIP3   OH2 9141   5.197   2.852   0.089
 3067TIP3    H1 9142   5.219   2.771   0.135
 3067TIP3    H2 9143   5.274   2.870   0.035
 3068TIP3   OH2 9144   0.227   2.030   1.599
 3068TIP3    H1 9145   0.275   1.947   1.610
 3068TIP3    H2 9146   0.134   2.004   1.602
 3069TIP3   OH2 9147   2.485   5.229   5.959
 3069TIP3    H1 9148   2.491   5.316   5.999
 3069TIP3    H2 9149   2.447   5.246   5.872
 3070TIP3   OH2 9150   5.754   2.230   6.417
 3070TIP3    H1 9151   5.744   2.137   6.434
 3070TIP3    H2 9152   5.705   2.273   6.488
 3071TIP3   OH2 9153   2.365   2.295   4.795
 3071TIP3    H1 9154   2.322   2.282   4.710
 3071TIP3    H2 9155   2.332   2.380   4.825
 3072TIP3   OH2 9156   5.300   0.137   0.650
 3072TIP3    H1 9157   5.344   0.052   0.650
 3072TIP3    H2 9158   5.244   0.136   0.727
 3073TIP3   OH2 9159   6.611   7.719   6.091
 3073TIP3    H1 9160   6.553   7.645   6.109
 3073TIP3    H2 9161   6.603   7.734   5.997
 3074TIP3   OH2 9162   4.547   4.558   1.232
 3074TIP3    H1 9163   4.546   4.470   1.195
 3074TIP3    H2 9164   4.628   4.596   1.198
 3075TIP3   OH2 9165   4.361   1.587   4.846
 3075TIP3    H1 9166   4.338   1.677   4.869
 3075TIP3    H2 9167   4.327   1.534   4.919
 3076TIP3   OH2 9168   0.676   0.882   0.407
 3076TIP3    H1 9169   0.680   0.793   0.442
 3076TIP3    H2 9170   0.650   0.871   0.316
 3077TIP3   OH2 9171   7.295   0.180   2.419
 3077TIP3    H1 9172   7.264   0.196   2.508
 3077TIP3    H2 9173   7.374   0.233   2.411
 3078TIP3   OH2 9174   6.452   3.692   4.417
 3078TIP3    H1 9175   6.411   3.729   4.496
 3078TIP3    H2 9176   6.546   3.703   4.432
 3079TIP3   OH2 9177   7.638   4.199   6.431
 3079TIP3    H1 9178   7.620   4.253   6.354
 3079TIP3    H2 9179   7.726   4.166   6.417
 3080TIP3   OH2 9180   4.797   3.680   2.431
 3080TIP3    H1 9181   4.830   3.611   2.374
 3080TIP3    H2 9182   4.774   3.752   2.372
 3081TIP3   OH2 9183   1.345   6.299   3.239
 3081TIP3    H1 9184   1.365   6.205   3.235
 3081TIP3    H2 9185   1.317   6.313   3.330
 3082TIP3   OH2 9186   1.291   1.423   5.436
 3082TIP3    H1 9187   1.222   1.437   5.502
 3082TIP3    H2 9188   1.326   1.336   5.458
 3083TIP3   OH2 9189   4.672   5.829   2.823
 3083TIP3    H1 9190   4.759   5.870   2.829
 3083TIP3    H2 9191   4.616   5.883   2.879
 3084TIP3   OH2 9192   3.781   2.123   3.302
 3084TIP3    H1 9193   3.709   2.160   3.353
 3084TIP3    H2 9194   3.740   2.096   3.219
 3085TIP3   OH2 9195   2.265   4.710   6.370
 3085TIP3    H1 9196   2.353   4.694   6.402
 3085TIP3    H2 9197   2.211   4.715   6.449
 3086TIP3   OH2 9198   3.628   2.021   3.101
 3086TIP3    H1 9199   3.578   1.978   3.170
 3086TIP3    H2 9200   3.565   2.078   3.058
 3087TIP3   OH2 9201   1.000   6.176   6.692
 3087TIP3    H1 9202   0.948   6.137   6.762
 3087TIP3    H2 9203   1.002   6.110   6.623
 3088TIP3   OH2 9204   3.281   3.888   0.937
 3088TIP3    H1 9205   3.243   3.893   0.850
 3088TIP3    H2 9206   3.321   3.973   0.951
 3089TIP3   OH2 9207   2.541   6.229   4.344
 3089TIP3    H1 9208   2.526   6.241   4.250
 3089TIP3    H2 9209   2.525   6.136   4.360
 3090TIP3   OH2 9210   3.469   3.047   6.669
 3090TIP3    H1 9211   3.507   3.036   6.582
 3090TIP3    H2 9212   3.533   3.007   6.728
 3091TIP3   OH2 9213   6.327   1.042   6.412
 3091TIP3    H1 9214   6.233   1.059   6.402
 3091TIP3    H2 9215   6.352   0.999   6.330
 3092TIP3   OH2 9216   7.898   7.533   2.134
 3092TIP3    H1 9217   7.872   7.533   2.042
 3092TIP3    H2 9218   7.872   7.619   2.167
 3093TIP3   OH2 9219   2.826   1.063   3.173
 3093TIP3    H1 9220   2.892   1.001   3.143
 3093TIP3    H2 9221   2.819   1.128   3.103
 3094TIP3   OH2 9222   4.594   6.640   5.315
 3094TIP3    H1 9223   4.523   6.576   5.316
 3094TIP3    H2 9224   4.551   6.723   5.339
 3095TIP3   OH2 9225   0.333   7.268   3.423
 3095TIP3    H1 9226   0.329   7.334   3.492
 3095TIP3    H2 9227   0.320   7.317   3.342
 3096TIP3   OH2 9228   7.904   2.508   6.001
 3096TIP3    H1 9229   7.953   2.547   5.929
 3096TIP3    H2 9230   7.891   2.580   6.063
 3097TIP3   OH2 9231   4.855   4.584   5.326
 3097TIP3    H1 9232   4.816   4.582   5.239
 3097TIP3    H2 9233   4.948   4.599   5.310
 3098TIP3   OH2 9234   8.196   0.994   0.156
 3098TIP3    H1 9235   8.138   0.925   0.189
 3098TIP3    H2 9236   8.278   0.981   0.203
 3099TIP3   OH2 9237   4.651   5.074   6.494
 3099TIP3    H1 9238   4.669   5.006   6.428
 3099TIP3    H2 9239   4.606   5.027   6.565
 3100TIP3   OH2 9240   4.263   4.225   5.976
 3100TIP3    H1 9241   4.200   4.287   5.938
 3100TIP3    H2 9242   4.293   4.172   5.902
 3101TIP3   OH2 9243   6.482   7.100   2.200
 3101TIP3    H1 9244   6.550   7.088   2.134
 3101TIP3    H2 9245   6.413   7.039   2.174
 3102TIP3   OH2 9246   5.323   2.208   3.743
 3102TIP3    H1 9247   5.306   2.299   3.767
 3102TIP3    H2 9248   5.361   2.169   3.822
 3103TIP3   OH2 9249   4.355   1.208   0.046
 3103TIP3    H1 9250   4.356   1.125  -0.002
 3103TIP3    H2 9251   4.437   1.209   0.095
 3104TIP3   OH2 9252   5.433   2.605   2.740
 3104TIP3    H1 9253   5.427   2.579   2.649
 3104TIP3    H2 9254   5.456   2.698   2.738
 3105TIP3   OH2 9255   8.210   5.659   5.420
 3105TIP3    H1 9256   8.131   5.604   5.427
 3105TIP3    H2 9257   8.266   5.613   5.358
 3106TIP3   OH2 9258   0.165   1.449   5.161
 3106TIP3    H1 9259   0.085   1.446   5.214
 3106TIP3    H2 9260   0.194   1.540   5.167
 3107TIP3   OH2 9261   8.200   6.090   3.637
 3107TIP3    H1 9262   8.199   6.013   3.695
 3107TIP3    H2 9263   8.117   6.134   3.655
 3108TIP3   OH2 9264   0.723   6.368   0.235
 3108TIP3    H1 9265   0.631   6.344   0.225
 3108TIP3    H2 9266   0.733   6.447   0.181
 3109TIP3   OH2 9267   4.657   1.612   1.541
 3109TIP3    H1 9268   4.629   1.547   1.605
 3109TIP3    H2 9269   4.575   1.650   1.508
 3110TIP3   OH2 9270   4.968   0.219   5.608
 3110TIP3    H1 9271   5.058   0.248   5.589
 3110TIP3    H2 9272   4.972   0.124   5.603
 3111TIP3   OH2 9273   2.323   3.149   2.419
 3111TIP3    H1 9274   2.293   3.239   2.409
 3111TIP3    H2 9275   2.297   3.106   2.337
 3112TIP3   OH2 9276   7.724   3.480   4.491
 3112TIP3    H1 9277   7.760   3.427   4.563
 3112TIP3    H2 9278   7.760   3.567   4.505
 3113TIP3   OH2 9279   0.964   1.589   4.518
 3113TIP3    H1 9280   1.054   1.614   4.499
 3113TIP3    H2 9281   0.930   1.554   4.436
 3114TIP3   OH2 9282   5.470   3.164   3.463
 3114TIP3    H1 9283   5.415   3.102   3.510
 3114TIP3    H2 9284   5.427   3.249   3.476
 3115TIP3   OH2 9285   7.328   4.689   3.116
 3115TIP3    H1 9286   7.414   4.714   3.150
 3115TIP3    H2 9287   7.331   4.714   3.024
 3116TIP3   OH2 9288   5.490   3.521   5.383
 3116TIP3    H1 9289   5.502   3.470   5.302
 3116TIP3    H2 9290   5.559   3.587   5.379
 3117TIP3   OH2 9291   1.633   6.448   0.567
 3117TIP3    H1 9292   1.693   6.383   0.529
 3117TIP3    H2 9293   1.556   6.445   0.510
 3118TIP3   OH2 9294   2.197   1.475   1.381
 3118TIP3    H1 9295   2.128   1.458   1.318
 3118TIP3    H2 9296   2.278   1.465   1.331
 3119TIP3   OH2 9297   5.467   3.604   2.065
 3119TIP3    H1 9298   5.534   3.535   2.066
 3119TIP3    H2 9299   5.389   3.562   2.100
 3120TIP3   OH2 9300   5.100   0.249   4.061
 3120TIP3    H1 9301   5.145   0.332   4.073
 3120TIP3    H2 9302   5.152   0.185   4.110
 3121TIP3   OH2 9303   6.363   1.544   3.393
 3121TIP3    H1 9304   6.270   1.520   3.394
 3121TIP3    H2 9305   6.391   1.533   3.484
 3122TIP3   OH2 9306   4.920   4.099   0.912
 3122TIP3    H1 9307   4.896   4.118   0.822
 3122TIP3    H2 9308   5.015   4.106   0.914
 3123TIP3   OH2 9309   6.031   7.509   1.552
 3123TIP3    H1 9310   6.110   7.538   1.505
 3123TIP3    H2 9311   6.058   7.504   1.644
 3124TIP3   OH2 9312   5.880   2.515   5.441
 3124TIP3    H1 9313   5.928   2.598   5.439
 3124TIP3    H2 9314   5.816   2.526   5.511
 3125TIP3   OH2 9315   3.490   1.817   4.818
 3125TIP3    H1 9316   3.504   1.746   4.755
 3125TIP3    H2 9317   3.570   1.819   4.869
 3126TIP3   OH2 9318   1.606   6.341   2.623
 3126TIP3    H1 9319   1.516   6.372   2.631
 3126TIP3    H2 9320   1.660   6.417   2.644
 3127TIP3   OH2 9321   0.267   6.991   5.136
 3127TIP3    H1 9322   0.351   7.018   5.099
 3127TIP3    H2 9323   0.215   7.071   5.139
 3128TIP3   OH2 9324   7.958   0.862   4.184
 3128TIP3    H1 9325   8.011   0.940   4.169
 3128TIP3    H2 9326   7.973   0.840   4.276
 3129TIP3   OH2 9327   4.213   3.513   3.608
 3129TIP3    H1 9328   4.240   3.596   3.646
 3129TIP3    H2 9329   4.162   3.470   3.677
 3130TIP3   OH2 9330   3.252   2.954   4.850
 3130TIP3    H1 9331   3.220   2.877   4.898
 3130TIP3    H2 9332   3.175   2.987   4.804
 3131TIP3   OH2 9333   3.447   4.422   2.110
 3131TIP3    H1 9334   3.540   4.437   2.123
 3131TIP3    H2 9335   3.406   4.463   2.186
 3132TIP3   OH2 9336   8.267   3.872   5.138
 3132TIP3    H1 9337   8.358   3.890   5.116
 3132TIP3    H2 9338   8.216   3.920   5.073
 3133TIP3   OH2 9339   5.826   0.370   0.923
 3133TIP3    H1 9340   5.880   0.438   0.963
 3133TIP3    H2 9341   5.736   0.404   0.929
 3134TIP3   OH2 9342   0.142   4.939   2.765
 3134TIP3    H1 9343   0.197   4.989   2.704
 3134TIP3    H2 9344   0.083   5.005   2.802
 3135TIP3   OH2 9345   3.345   2.619   3.788
 3135TIP3    H1 9346   3.383   2.666   3.862
 3135TIP3    H2 9347   3.410   2.628   3.718
 3136TIP3   OH2 9348   1.844   3.266   1.020
 3136TIP3    H1 9349   1.822   3.336   1.082
 3136TIP3    H2 9350   1.829   3.304   0.934
 3137TIP3   OH2 9351   6.056   0.564   6.058
 3137TIP3    H1 9352   6.106   0.573   5.977
 3137TIP3    H2 9353   5.975   0.611   6.042
 3138TIP3   OH2 9354   1.370   5.698   3.189
 3138TIP3    H1 9355   1.294   5.736   3.232
 3138TIP3    H2 9356   1.443   5.717   3.248
 3139TIP3   OH2 9357   0.084   0.993   0.234
 3139TIP3    H1 9358   0.159   0.934   0.227
 3139TIP3    H2 9359   0.096   1.036   0.319
 3140TIP3   OH2 9360   5.980   2.771   2.879
 3140TIP3    H1 9361   5.988   2.706   2.809
 3140TIP3    H2 9362   5.954   2.720   2.956
 3141TIP3   OH2 9363   0.935   1.421   1.862
 3141TIP3    H1 9364   0.868   1.354   1.845
 3141TIP3    H2 9365   0.900   1.471   1.935
 3142TIP3   OH2 9366   3.994   1.206   3.485
 3142TIP3    H1 9367   3.984   1.120   3.445
 3142TIP3    H2 9368   4.034   1.187   3.571
 3143TIP3   OH2 9369   6.115   2.272   5.123
 3143TIP3    H1 9370   6.118   2.303   5.214
 3143TIP3    H2 9371   6.203   2.237   5.107
 3144TIP3   OH2 9372   2.893   4.347   4.534
 3144TIP3    H1 9373   2.852   4.278   4.481
 3144TIP3    H2 9374   2.882   4.427   4.483
 3145TIP3   OH2 9375   0.284   7.198   0.324
 3145TIP3    H1 9376   0.376   7.217   0.340
 3145TIP3    H2 9377   0.238   7.278   0.350
 3146TIP3   OH2 9378   4.240   5.678   6.665
 3146TIP3    H1 9379   4.272   5.592   6.693
 3146TIP3    H2 9380   4.265   5.684   6.573
 3147TIP3   OH2 9381   1.330   7.528   1.511
 3147TIP3    H1 9382   1.306   7.608   1.465
 3147TIP3    H2 9383   1.247   7.482   1.523
 3148TIP3   OH2 9384   1.018   7.182   1.897
 3148TIP3    H1 9385   1.051   7.271   1.910
 3148TIP3    H2 9386   1.097   7.128   1.897
 3149TIP3   OH2 9387   4.977   3.014   0.078
 3149TIP3    H1 9388   5.007   3.101   0.105
 3149TIP3    H2 9389   5.055   2.958   0.087
 3150TIP3   OH2 9390   1.394   0.175   2.292
 3150TIP3    H1 9391   1.421   0.136   2.375
 3150TIP3    H2 9392   1.442   0.125   2.225
 3151TIP3   OH2 9393   0.204   2.207   0.877
 3151TIP3    H1 9394   0.160   2.122   0.873
 3151TIP3    H2 9395   0.257   2.211   0.797
 3152TIP3   OH2 9396   8.168   7.632   3.947
 3152TIP3    H1 9397   8.108   7.694   3.907
 3152TIP3    H2 9398   8.126   7.609   4.030
 3153TIP3   OH2 9399   0.039   6.090   4.680
 3153TIP3    H1 9400  -0.009   6.129   4.607
 3153TIP3    H2 9401   0.119   6.143   4.687
 3154TIP3   OH2 9402   6.324   3.500   5.679
 3154TIP3    H1 9403   6.259   3.570   5.674
 3154TIP3    H2 9404   6.320   3.470   5.770
 3155TIP3   OH2 9405   7.825   1.833   5.510
 3155TIP3    H1 9406   7.798   1.881   5.431
 3155TIP3    H2 9407   7.917   1.814   5.496
 3156TIP3   OH2 9408   2.182   3.853   3.648
 3156TIP3    H1 9409   2.252   3.912   3.672
 3156TIP3    H2 9410   2.222   3.792   3.586
 3157TIP3   OH2 9411   4.819   1.865   4.774
 3157TIP3    H1 9412   4.790   1.933   4.834
 3157TIP3    H2 9413   4.896   1.902   4.730
 3158TIP3   OH2 9414   3.046   5.649   0.757
 3158TIP3    H1 9415   3.099   5.646   0.678
 3158TIP3    H2 9416   3.108   5.635   0.828
 3159TIP3   OH2 9417   6.051   7.408   0.205
 3159TIP3    H1 9418   6.125   7.432   0.262
 3159TIP3    H2 9419   6.060   7.464   0.129
 3160TIP3   OH2 9420   2.333   7.802   0.106
 3160TIP3    H1 9421   2.428   7.793   0.115
 3160TIP3    H2 9422   2.306   7.850   0.184
 3161TIP3   OH2 9423   7.580   5.909   5.630
 3161TIP3    H1 9424   7.586   5.870   5.718
 3161TIP3    H2 9425   7.612   5.840   5.572
 3162TIP3   OH2 9426   2.523   2.710   0.798
 3162TIP3    H1 9427   2.590   2.778   0.807
 3162TIP3    H2 9428   2.570   2.634   0.764
 3163TIP3   OH2 9429   4.512   6.865   4.280
 3163TIP3    H1 9430   4.575   6.836   4.347
 3163TIP3    H2 9431   4.496   6.957   4.301
 3164TIP3   OH2 9432   6.829   7.614   4.177
 3164TIP3    H1 9433   6.875   7.628   4.094
 3164TIP3    H2 9434   6.813   7.702   4.211
 3165TIP3   OH2 9435   4.793   4.116   5.365
 3165TIP3    H1 9436   4.842   4.092   5.286
 3165TIP3    H2 9437   4.750   4.198   5.343
 3166TIP3   OH2 9438   1.373   1.219   6.161
 3166TIP3    H1 9439   1.383   1.292   6.222
 3166TIP3    H2 9440   1.374   1.141   6.217
 3167TIP3   OH2 9441   0.068   0.433   3.596
 3167TIP3    H1 9442   0.162   0.421   3.586
 3167TIP3    H2 9443   0.030   0.377   3.528
 3168TIP3   OH2 9444   1.465   6.132   0.256
 3168TIP3    H1 9445   1.404   6.204   0.241
 3168TIP3    H2 9446   1.550   6.166   0.228
 3169TIP3   OH2 9447   7.370   1.865   2.928
 3169TIP3    H1 9448   7.398   1.786   2.882
 3169TIP3    H2 9449   7.315   1.834   3.000
 3170TIP3   OH2 9450   3.879   3.535   2.303
 3170TIP3    H1 9451   3.925   3.617   2.320
 3170TIP3    H2 9452   3.940   3.484   2.250
 3171TIP3   OH2 9453   5.864   1.247   6.307
 3171TIP3    H1 9454   5.824   1.232   6.221
 3171TIP3    H2 9455   5.790   1.266   6.365
 3172TIP3   OH2 9456   0.395   3.001   4.024
 3172TIP3    H1 9457   0.473   3.056   4.015
 3172TIP3    H2 9458   0.348   3.038   4.099
 3173TIP3   OH2 9459   3.360   0.502   4.327
 3173TIP3    H1 9460   3.296   0.554   4.278
 3173TIP3    H2 9461   3.421   0.567   4.362
 3174TIP3   OH2 9462   6.574   5.283   3.962
 3174TIP3    H1 9463   6.516   5.220   3.919
 3174TIP3    H2 9464   6.551   5.278   4.054
 3175TIP3   OH2 9465   6.497   3.759   3.188
 3175TIP3    H1 9466   6.556   3.686   3.173
 3175TIP3    H2 9467   6.525   3.796   3.272
 3176TIP3   OH2 9468   0.335   3.789   1.758
 3176TIP3    H1 9469   0.253   3.810   1.803
 3176TIP3    H2 9470   0.363   3.871   1.719
 3177TIP3   OH2 9471   0.130   3.669   6.765
 3177TIP3    H1 9472   0.049   3.618   6.756
 3177TIP3    H2 9473   0.186   3.616   6.821
 3178TIP3   OH2 9474   5.918   2.256   2.674
 3178TIP3    H1 9475   5.840   2.210   2.705
 3178TIP3    H2 9476   5.991   2.207   2.711
 3179TIP3   OH2 9477   3.394   4.935   4.055
 3179TIP3    H1 9478   3.435   4.903   3.975
 3179TIP3    H2 9479   3.443   4.894   4.125
 3180TIP3   OH2 9480   1.185   2.342   4.694
 3180TIP3    H1 9481   1.147   2.414   4.643
 3180TIP3    H2 9482   1.112   2.283   4.710
 3181TIP3   OH2 9483   3.467   3.626   0.287
 3181TIP3    H1 9484   3.520   3.674   0.223
 3181TIP3    H2 9485   3.501   3.536   0.283
 3182TIP3   OH2 9486   5.550   5.581   0.979
 3182TIP3    H1 9487   5.596   5.644   1.035
 3182TIP3    H2 9488   5.536   5.505   1.036
 3183TIP3   OH2 9489   7.875   7.116   4.374
 3183TIP3    H1 9490   7.918   7.070   4.302
 3183TIP3    H2 9491   7.781   7.104   4.357
 3184TIP3   OH2 9492   7.849   6.172   1.810
 3184TIP3    H1 9493   7.898   6.239   1.858
 3184TIP3    H2 9494   7.779   6.146   1.870
 3185TIP3   OH2 9495   3.512   5.993   0.133
 3185TIP3    H1 9496   3.442   6.044   0.173
 3185TIP3    H2 9497   3.493   5.902   0.157
 3186TIP3   OH2 9498   1.899   0.440   5.557
 3186TIP3    H1 9499   1.830   0.467   5.618
 3186TIP3    H2 9500   1.974   0.419   5.613
 3187TIP3   OH2 9501   7.378   1.604   5.045
 3187TIP3    H1 9502   7.434   1.585   4.969
 3187TIP3    H2 9503   7.409   1.544   5.113
 3188TIP3   OH2 9504   0.403   1.824   2.073
 3188TIP3    H1 9505   0.326   1.802   2.020
 3188TIP3    H2 9506   0.414   1.918   2.061
 3189TIP3   OH2 9507   1.200   2.207   0.725
 3189TIP3    H1 9508   1.268   2.141   0.712
 3189TIP3    H2 9509   1.244   2.290   0.704
 3190TIP3   OH2 9510   2.076   0.046   4.145
 3190TIP3    H1 9511   2.093   0.021   4.055
 3190TIP3    H2 9512   1.981   0.062   4.148
 3191TIP3   OH2 9513   4.764   6.320   0.670
 3191TIP3    H1 9514   4.850   6.349   0.701
 3191TIP3    H2 9515   4.703   6.387   0.702
 3192TIP3   OH2 9516   3.208   7.219   0.553
 3192TIP3    H1 9517   3.120   7.194   0.581
 3192TIP3    H2 9518   3.219   7.308   0.587
 3193TIP3   OH2 9519   8.057   2.622   1.657
 3193TIP3    H1 9520   8.001   2.586   1.588
 3193TIP3    H2 9521   8.142   2.580   1.643
 3194TIP3   OH2 9522   6.415   5.315   6.052
 3194TIP3    H1 9523   6.461   5.358   5.980
 3194TIP3    H2 9524   6.473   5.324   6.127
 3195TIP3   OH2 9525   3.679   4.713   0.575
 3195TIP3    H1 9526   3.732   4.783   0.615
 3195TIP3    H2 9527   3.743   4.646   0.552
 3196TIP3   OH2 9528   7.202   6.448   5.401
 3196TIP3    H1 9529   7.228   6.510   5.469
 3196TIP3    H2 9530   7.258   6.372   5.416
 3197TIP3   OH2 9531   7.287   4.512   1.892
 3197TIP3    H1 9532   7.259   4.548   1.976
 3197TIP3    H2 9533   7.338   4.582   1.851
 3198TIP3   OH2 9534   0.631   1.577   4.200
 3198TIP3    H1 9535   0.712   1.619   4.169
 3198TIP3    H2 9536   0.564   1.610   4.141
 3199TIP3   OH2 9537   3.474   7.318   1.179
 3199TIP3    H1 9538   3.437   7.374   1.247
 3199TIP3    H2 9539   3.407   7.252   1.163
 3200TIP3   OH2 9540   3.135   2.305   4.395
 3200TIP3    H1 9541   3.154   2.242   4.325
 3200TIP3    H2 9542   3.115   2.387   4.350
 3201TIP3   OH2 9543   2.614   4.322   6.226
 3201TIP3    H1 9544   2.690   4.263   6.231
 3201TIP3    H2 9545   2.540   4.268   6.252
 3202TIP3   OH2 9546   7.902   4.776   1.585
 3202TIP3    H1 9547   7.965   4.827   1.534
 3202TIP3    H2 9548   7.948   4.695   1.606
 3203TIP3   OH2 9549   3.718   6.161   0.062
 3203TIP3    H1 9550   3.777   6.089   0.082
 3203TIP3    H2 9551   3.631   6.126   0.078
 3204TIP3   OH2 9552   1.406   4.504   1.080
 3204TIP3    H1 9553   1.485   4.553   1.057
 3204TIP3    H2 9554   1.333   4.561   1.054
 3205TIP3   OH2 9555   4.805   3.399   1.517
 3205TIP3    H1 9556   4.868   3.393   1.445
 3205TIP3    H2 9557   4.720   3.384   1.476
 3206TIP3   OH2 9558   1.322   5.680   6.249
 3206TIP3    H1 9559   1.229   5.673   6.224
 3206TIP3    H2 9560   1.320   5.694   6.344
 3207TIP3   OH2 9561   7.517   3.372   3.027
 3207TIP3    H1 9562   7.428   3.404   3.044
 3207TIP3    H2 9563   7.505   3.279   3.007
 3208TIP3   OH2 9564   0.174   7.665   2.616
 3208TIP3    H1 9565   0.108   7.733   2.610
 3208TIP3    H2 9566   0.131   7.594   2.663
 3209TIP3   OH2 9567   5.047   5.190   2.105
 3209TIP3    H1 9568   5.056   5.106   2.059
 3209TIP3    H2 9569   5.004   5.247   2.041
 3210TIP3   OH2 9570   1.800   1.280   1.150
 3210TIP3    H1 9571   1.796   1.300   1.057
 3210TIP3    H2 9572   1.856   1.203   1.156
 3211TIP3   OH2 9573   3.517   0.456   4.827
 3211TIP3    H1 9574   3.471   0.484   4.748
 3211TIP3    H2 9575   3.534   0.538   4.874
 3212TIP3   OH2 9576   0.409   2.683   5.028
 3212TIP3    H1 9577   0.451   2.631   5.097
 3212TIP3    H2 9578   0.478   2.696   4.963
 3213TIP3   OH2 9579   7.797   5.390   0.376
 3213TIP3    H1 9580   7.779   5.484   0.374
 3213TIP3    H2 9581   7.722   5.353   0.423
 3214TIP3   OH2 9582   2.102   4.173   5.305
 3214TIP3    H1 9583   2.010   4.189   5.284
 3214TIP3    H2 9584   2.128   4.247   5.360
 3215TIP3   OH2 9585   6.019   1.084   6.441
 3215TIP3    H1 9586   6.031   1.130   6.525
 3215TIP3    H2 9587   5.965   1.144   6.389
 3216TIP3   OH2 9588   1.969   4.475   2.664
 3216TIP3    H1 9589   1.880   4.491   2.634
 3216TIP3    H2 9590   2.000   4.403   2.609
 3217TIP3   OH2 9591   7.844   5.170   1.381
 3217TIP3    H1 9592   7.929   5.167   1.337
 3217TIP3    H2 9593   7.810   5.257   1.362
 3218TIP3   OH2 9594   7.245   7.351   2.814
 3218TIP3    H1 9595   7.194   7.283   2.771
 3218TIP3    H2 9596   7.256   7.419   2.747
 3219TIP3   OH2 9597   8.194   6.897   0.110
 3219TIP3    H1 9598   8.146   6.825   0.151
 3219TIP3    H2 9599   8.242   6.855   0.038
 3220TIP3   OH2 9600   0.715   5.348   2.403
 3220TIP3    H1 9601   0.744   5.386   2.486
 3220TIP3    H2 9602   0.629   5.312   2.422
 3221TIP3   OH2 9603   5.887   7.741   5.408
 3221TIP3    H1 9604   5.893   7.652   5.371
 3221TIP3    H2 9605   5.854   7.728   5.497
 3222TIP3   OH2 9606   4.055   2.887   6.594
 3222TIP3    H1 9607   3.970   2.918   6.563
 3222TIP3    H2 9608   4.093   2.842   6.519
 3223TIP3   OH2 9609   2.722   2.219   4.519
 3223TIP3    H1 9610   2.682   2.227   4.432
 3223TIP3    H2 9611   2.654   2.177   4.572
 3224TIP3   OH2 9612   3.072   7.882   1.853
 3224TIP3    H1 9613   3.081   7.961   1.800
 3224TIP3    H2 9614   3.001   7.901   1.914
 3225TIP3   OH2 9615   5.959   0.780   0.132
 3225TIP3    H1 9616   5.893   0.769   0.063
 3225TIP3    H2 9617   5.996   0.866   0.117
 3226TIP3   OH2 9618   3.904   4.946   6.268
 3226TIP3    H1 9619   3.837   4.926   6.334
 3226TIP3    H2 9620   3.975   4.986   6.318
 3227TIP3   OH2 9621   1.186   6.744   4.294
 3227TIP3    H1 9622   1.186   6.688   4.371
 3227TIP3    H2 9623   1.277   6.744   4.264
 3228TIP3   OH2 9624   4.285   2.738   1.498
 3228TIP3    H1 9625   4.353   2.737   1.430
 3228TIP3    H2 9626   4.289   2.650   1.536
 3229TIP3   OH2 9627   6.368   1.851   1.917
 3229TIP3    H1 9628   6.335   1.761   1.926
 3229TIP3    H2 9629   6.361   1.869   1.823
 3230TIP3   OH2 9630   5.323   5.941   0.591
 3230TIP3    H1 9631   5.371   5.929   0.673
 3230TIP3    H2 9632   5.391   5.959   0.526
 3231TIP3   OH2 9633   3.154   5.815   4.779
 3231TIP3    H1 9634   3.152   5.901   4.738
 3231TIP3    H2 9635   3.246   5.787   4.772
 3232TIP3   OH2 9636   3.347   3.932   4.832
 3232TIP3    H1 9637   3.269   3.943   4.778
 3232TIP3    H2 9638   3.387   4.019   4.835
 3233TIP3   OH2 9639   5.472   2.197   6.012
 3233TIP3    H1 9640   5.418   2.274   5.991
 3233TIP3    H2 9641   5.471   2.144   5.933
 3234TIP3   OH2 9642   1.878   5.157   4.893
 3234TIP3    H1 9643   1.872   5.214   4.971
 3234TIP3    H2 9644   1.955   5.103   4.909
 3235TIP3   OH2 9645   1.074   7.417   3.695
 3235TIP3    H1 9646   1.133   7.493   3.694
 3235TIP3    H2 9647   0.986   7.454   3.690
 3236TIP3   OH2 9648   3.044   1.972   5.146
 3236TIP3    H1 9649   3.136   1.952   5.133
 3236TIP3    H2 9650   3.030   1.961   5.240
 3237TIP3   OH2 9651   4.093   5.751   2.557
 3237TIP3    H1 9652   4.058   5.813   2.493
 3237TIP3    H2 9653   4.132   5.806   2.625
 3238TIP3   OH2 9654   1.045   5.620   3.561
 3238TIP3    H1 9655   1.015   5.702   3.601
 3238TIP3    H2 9656   1.052   5.558   3.633
 3239TIP3   OH2 9657   1.117   0.404   3.973
 3239TIP3    H1 9658   1.062   0.336   3.936
 3239TIP3    H2 9659   1.070   0.486   3.955
 3240TIP3   OH2 9660   0.701   6.751   2.254
 3240TIP3    H1 9661   0.643   6.816   2.294
 3240TIP3    H2 9662   0.648   6.711   2.186
 3241TIP3   OH2 9663   3.428   1.652   3.452
 3241TIP3    H1 9664   3.340   1.630   3.423
 3241TIP3    H2 9665   3.417   1.685   3.541
 3242TIP3   OH2 9666   7.926   7.433   6.617
 3242TIP3    H1 9667   7.914   7.356   6.672
 3242TIP3    H2 9668   7.869   7.499   6.655
 3243TIP3   OH2 9669   6.192   5.250   3.546
 3243TIP3    H1 9670   6.166   5.173   3.597
 3243TIP3    H2 9671   6.224   5.214   3.463
 3244TIP3   OH2 9672   2.814   4.130   1.587
 3244TIP3    H1 9673   2.909   4.114   1.580
 3244TIP3    H2 9674   2.775   4.044   1.571
 3245TIP3   OH2 9675   3.518   4.975   0.811
 3245TIP3    H1 9676   3.482   4.915   0.745
 3245TIP3    H2 9677   3.545   4.917   0.882
 3246TIP3   OH2 9678   2.301   7.587   5.682
 3246TIP3    H1 9679   2.251   7.532   5.743
 3246TIP3    H2 9680   2.250   7.585   5.601
 3247TIP3   OH2 9681   3.309   2.680   4.270
 3247TIP3    H1 9682   3.349   2.641   4.349
 3247TIP3    H2 9683   3.349   2.767   4.265
 3248TIP3   OH2 9684   3.511   6.769   5.570
 3248TIP3    H1 9685   3.515   6.698   5.506
 3248TIP3    H2 9686   3.580   6.749   5.633
 3249TIP3   OH2 9687   8.225   5.009   4.162
 3249TIP3    H1 9688   8.153   4.999   4.101
 3249TIP3    H2 9689   8.302   4.975   4.116
 3250TIP3   OH2 9690   6.486   6.902   6.838
 3250TIP3    H1 9691   6.508   6.887   6.930
 3250TIP3    H2 9692   6.400   6.862   6.827
 3251TIP3   OH2 9693   4.753   2.533   4.915
 3251TIP3    H1 9694   4.832   2.558   4.866
 3251TIP3    H2 9695   4.754   2.438   4.914
 3252TIP3   OH2 9696   3.263   5.005   1.398
 3252TIP3    H1 9697   3.306   5.090   1.398
 3252TIP3    H2 9698   3.250   4.985   1.491
 3253TIP3   OH2 9699   8.108   2.895   4.496
 3253TIP3    H1 9700   8.134   2.804   4.513
 3253TIP3    H2 9701   8.019   2.901   4.529
 3254TIP3   OH2 9702   4.947   2.889   0.855
 3254TIP3    H1 9703   4.987   2.918   0.773
 3254TIP3    H2 9704   4.957   2.794   0.854
 3255TIP3   OH2 9705   6.297   1.474   4.005
 3255TIP3    H1 9706   6.343   1.488   3.922
 3255TIP3    H2 9707   6.278   1.562   4.037
 3256TIP3   OH2 9708   7.967   2.302   3.709
 3256TIP3    H1 9709   7.906   2.291   3.636
 3256TIP3    H2 9710   7.947   2.230   3.768
 3257TIP3   OH2 9711   1.601   1.362   4.522
 3257TIP3    H1 9712   1.677   1.375   4.465
 3257TIP3    H2 9713   1.638   1.359   4.610
 3258TIP3   OH2 9714   6.891   5.903   5.405
 3258TIP3    H1 9715   6.967   5.871   5.358
 3258TIP3    H2 9716   6.910   5.996   5.421
 3259TIP3   OH2 9717   2.485   6.491   0.869
 3259TIP3    H1 9718   2.419   6.550   0.906
 3259TIP3    H2 9719   2.567   6.518   0.910
 3260TIP3   OH2 9720   1.962   1.094   5.757
 3260TIP3    H1 9721   1.938   1.155   5.687
 3260TIP3    H2 9722   2.058   1.098   5.759
 3261TIP3   OH2 9723   1.895   7.737   6.460
 3261TIP3    H1 9724   1.823   7.743   6.398
 3261TIP3    H2 9725   1.887   7.648   6.496
 3262TIP3   OH2 9726   6.535   4.632   0.243
 3262TIP3    H1 9727   6.440   4.644   0.246
 3262TIP3    H2 9728   6.568   4.711   0.200
 3263TIP3   OH2 9729   6.185   1.350   0.360
 3263TIP3    H1 9730   6.113   1.290   0.340
 3263TIP3    H2 9731   6.205   1.393   0.277
 3264TIP3   OH2 9732   2.574   0.968   3.011
 3264TIP3    H1 9733   2.574   0.909   2.936
 3264TIP3    H2 9734   2.614   1.049   2.979
 3265TIP3   OH2 9735   1.036   4.509   4.050
 3265TIP3    H1 9736   0.980   4.580   4.019
 3265TIP3    H2 9737   1.108   4.553   4.095
 3266TIP3   OH2 9738   6.267   0.114   2.978
 3266TIP3    H1 9739   6.230   0.194   3.014
 3266TIP3    H2 9740   6.227   0.106   2.891
 3267TIP3   OH2 9741   0.220   2.320   1.518
 3267TIP3    H1 9742   0.229   2.238   1.566
 3267TIP3    H2 9743   0.128   2.321   1.490
 3268TIP3   OH2 9744   5.466   6.173   5.060
 3268TIP3    H1 9745   5.373   6.177   5.038
 3268TIP3    H2 9746   5.476   6.234   5.133
 3269TIP3   OH2 9747   0.487   2.374   5.514
 3269TIP3    H1 9748   0.496   2.281   5.534
 3269TIP3    H2 9749   0.569   2.397   5.471
 3270TIP3   OH2 9750   2.138   2.259   1.230
 3270TIP3    H1 9751   2.135   2.177   1.180
 3270TIP3    H2 9752   2.047   2.288   1.235
 3271TIP3   OH2 9753   3.482   7.668   6.772
 3271TIP3    H1 9754   3.451   7.580   6.752
 3271TIP3    H2 9755   3.463   7.680   6.865
 3272TIP3   OH2 9756   4.470   5.413   1.238
 3272TIP3    H1 9757   4.498   5.462   1.316
 3272TIP3    H2 9758   4.500   5.324   1.254
 3273TIP3   OH2 9759   7.335   1.210   4.352
 3273TIP3    H1 9760   7.404   1.145   4.365
 3273TIP3    H2 9761   7.268   1.186   4.416
 3274TIP3   OH2 9762   6.844   5.004   3.654
 3274TIP3    H1 9763   6.797   4.921   3.649
 3274TIP3    H2 9764   6.913   4.989   3.719
 3275TIP3   OH2 9765   1.259   2.941   0.439
 3275TIP3    H1 9766   1.315   2.877   0.483
 3275TIP3    H2 9767   1.176   2.936   0.485
 3276TIP3   OH2 9768   4.561   4.101   2.857
 3276TIP3    H1 9769   4.511   4.024   2.830
 3276TIP3    H2 9770   4.497   4.172   2.856
 3277TIP3   OH2 9771   0.031   3.522   4.051
 3277TIP3    H1 9772  -0.005   3.610   4.038
 3277TIP3    H2 9773   0.016   3.504   4.144
 3278TIP3   OH2 9774   3.361   0.442   4.585
 3278TIP3    H1 9775   3.354   0.349   4.606
 3278TIP3    H2 9776   3.367   0.445   4.490
 3279TIP3   OH2 9777   1.036   6.315   3.374
 3279TIP3    H1 9778   1.058   6.407   3.389
 3279TIP3    H2 9779   1.117   6.267   3.393
 3280TIP3   OH2 9780   4.614   7.067   5.676
 3280TIP3    H1 9781   4.600   6.979   5.711
 3280TIP3    H2 9782   4.677   7.055   5.605
 3281TIP3   OH2 9783   1.372   7.854   1.115
 3281TIP3    H1 9784   1.436   7.926   1.115
 3281TIP3    H2 9785   1.425   7.776   1.100
 3282TIP3   OH2 9786   1.232   2.549   1.974
 3282TIP3    H1 9787   1.259   2.565   1.884
 3282TIP3    H2 9788   1.310   2.512   2.016
 3283TIP3   OH2 9789   2.233   6.947   4.282
 3283TIP3    H1 9790   2.166   6.908   4.226
 3283TIP3    H2 9791   2.312   6.946   4.228
 3284TIP3   OH2 9792   0.842   5.188   3.242
 3284TIP3    H1 9793   0.916   5.230   3.286
 3284TIP3    H2 9794   0.805   5.129   3.307
 3285TIP3   OH2 9795   3.627   6.147   1.071
 3285TIP3    H1 9796   3.705   6.172   1.120
 3285TIP3    H2 9797   3.654   6.151   0.979
 3286TIP3   OH2 9798   2.463   1.358   1.286
 3286TIP3    H1 9799   2.526   1.410   1.237
 3286TIP3    H2 9800   2.453   1.405   1.369
 3287TIP3   OH2 9801   6.032   6.643   4.875
 3287TIP3    H1 9802   5.950   6.657   4.924
 3287TIP3    H2 9803   6.014   6.678   4.788
 3288TIP3   OH2 9804   2.320   0.791   3.739
 3288TIP3    H1 9805   2.253   0.802   3.807
 3288TIP3    H2 9806   2.400   0.769   3.787
 3289TIP3   OH2 9807   4.659   4.629   5.514
 3289TIP3    H1 9808   4.744   4.612   5.473
 3289TIP3    H2 9809   4.649   4.724   5.510
 3290TIP3   OH2 9810   6.390   1.609   3.765
 3290TIP3    H1 9811   6.345   1.670   3.706
 3290TIP3    H2 9812   6.376   1.523   3.725
 3291TIP3   OH2 9813   5.191   5.271   0.104
 3291TIP3    H1 9814   5.272   5.306   0.141
 3291TIP3    H2 9815   5.181   5.316   0.020
 3292TIP3   OH2 9816   7.547   7.647   2.705
 3292TIP3    H1 9817   7.573   7.558   2.730
 3292TIP3    H2 9818   7.489   7.634   2.629
 3293TIP3   OH2 9819   6.851   6.673   6.512
 3293TIP3    H1 9820   6.807   6.589   6.502
 3293TIP3    H2 9821   6.789   6.736   6.475
 3294TIP3   OH2 9822   5.040   6.493   6.140
 3294TIP3    H1 9823   5.025   6.550   6.064
 3294TIP3    H2 9824   4.952   6.472   6.172
 3295TIP3   OH2 9825   3.530   6.816   3.627
 3295TIP3    H1 9826   3.623   6.803   3.647
 3295TIP3    H2 9827   3.506   6.893   3.679
 3296TIP3   OH2 9828   3.676   4.564   3.267
 3296TIP3    H1 9829   3.627   4.594   3.191
 3296TIP3    H2 9830   3.611   4.525   3.325
 3297TIP3   OH2 9831   3.810   7.042   0.061
 3297TIP3    H1 9832   3.861   6.978   0.111
 3297TIP3    H2 9833   3.719   7.027   0.089
 3298TIP3   OH2 9834   4.778   3.780   3.868
 3298TIP3    H1 9835   4.797   3.820   3.953
 3298TIP3    H2 9836   4.709   3.716   3.886
 3299TIP3   OH2 9837   3.309   0.268   3.105
 3299TIP3    H1 9838   3.256   0.346   3.124
 3299TIP3    H2 9839   3.389   0.303   3.068
 3300TIP3   OH2 9840   6.524  -0.003   2.962
 3300TIP3    H1 9841   6.570   0.075   2.995
 3300TIP3    H2 9842   6.438   0.029   2.938
 3301TIP3   OH2 9843   0.901   0.250   6.209
 3301TIP3    H1 9844   0.965   0.240   6.139
 3301TIP3    H2 9845   0.832   0.187   6.188
 3302TIP3   OH2 9846   5.218   0.324   5.269
 3302TIP3    H1 9847   5.252   0.377   5.342
 3302TIP3    H2 9848   5.177   0.388   5.211
 3303TIP3   OH2 9849   1.950   5.397   5.034
 3303TIP3    H1 9850   1.967   5.430   5.122
 3303TIP3    H2 9851   1.861   5.427   5.013
 3304TIP3   OH2 9852   0.018   0.995   5.496
 3304TIP3    H1 9853   0.079   1.067   5.479
 3304TIP3    H2 9854  -0.069   1.033   5.484
 3305TIP3   OH2 9855   0.710   3.971   3.166
 3305TIP3    H1 9856   0.775   3.902   3.183
 3305TIP3    H2 9857   0.675   3.993   3.252
 3306TIP3   OH2 9858   1.474   4.386   4.468
 3306TIP3    H1 9859   1.435   4.328   4.403
 3306TIP3    H2 9860   1.525   4.449   4.416
 3307TIP3   OH2 9861   6.724   5.265   3.629
 3307TIP3    H1 9862   6.745   5.264   3.536
 3307TIP3    H2 9863   6.762   5.183   3.663
 3308TIP3   OH2 9864   4.304   7.268   2.225
 3308TIP3    H1 9865   4.306   7.239   2.316
 3308TIP3    H2 9866   4.299   7.187   2.174
 3309TIP3   OH2 9867   3.252   6.302   1.273
 3309TIP3    H1 9868   3.284   6.214   1.292
 3309TIP3    H2 9869   3.216   6.296   1.184
 3310TIP3   OH2 9870   2.492   5.861   6.138
 3310TIP3    H1 9871   2.496   5.800   6.211
 3310TIP3    H2 9872   2.553   5.931   6.161
 3311TIP3   OH2 9873   1.060   1.128   5.948
 3311TIP3    H1 9874   1.143   1.163   5.916
 3311TIP3    H2 9875   1.084   1.074   6.023
 3312TIP3   OH2 9876   6.349   3.181   6.068
 3312TIP3    H1 9877   6.268   3.224   6.097
 3312TIP3    H2 9878   6.401   3.252   6.031
 3313TIP3   OH2 9879   6.549   1.445   0.878
 3313TIP3    H1 9880   6.643   1.441   0.893
 3313TIP3    H2 9881   6.526   1.538   0.888
 3314TIP3   OH2 9882   1.471   3.885   5.153
 3314TIP3    H1 9883   1.383   3.858   5.125
 3314TIP3    H2 9884   1.487   3.834   5.233
 3315TIP3   OH2 9885   2.634   7.017   2.356
 3315TIP3    H1 9886   2.595   6.973   2.281
 3315TIP3    H2 9887   2.681   7.091   2.319
 3316TIP3   OH2 9888   8.091   7.888   6.196
 3316TIP3    H1 9889   8.077   7.880   6.102
 3316TIP3    H2 9890   8.133   7.973   6.207
 3317TIP3   OH2 9891   2.254   6.215   3.651
 3317TIP3    H1 9892   2.326   6.182   3.598
 3317TIP3    H2 9893   2.296   6.274   3.714
 3318TIP3   OH2 9894   5.332   2.000   3.171
 3318TIP3    H1 9895   5.248   1.998   3.216
 3318TIP3    H2 9896   5.312   2.034   3.084
 3319TIP3   OH2 9897   2.808   4.376   1.982
 3319TIP3    H1 9898   2.861   4.352   2.059
 3319TIP3    H2 9899   2.770   4.293   1.952
 3320TIP3   OH2 9900   1.219   1.200   1.386
 3320TIP3    H1 9901   1.245   1.107   1.389
 3320TIP3    H2 9902   1.237   1.233   1.474
 3321TIP3   OH2 9903   1.304   2.133   5.519
 3321TIP3    H1 9904   1.326   2.041   5.504
 3321TIP3    H2 9905   1.376   2.167   5.572
 3322TIP3   OH2 9906   2.570   2.194   1.359
 3322TIP3    H1 9907   2.621   2.185   1.439
 3322TIP3    H2 9908   2.616   2.140   1.295
 3323TIP3   OH2 9909   3.246   1.442   1.049
 3323TIP3    H1 9910   3.245   1.495   1.128
 3323TIP3    H2 9911   3.299   1.365   1.072
 3324TIP3   OH2 9912   7.713   2.384   4.462
 3324TIP3    H1 9913   7.763   2.393   4.381
 3324TIP3    H2 9914   7.758   2.315   4.510
 3325TIP3   OH2 9915   6.980   0.268   2.466
 3325TIP3    H1 9916   6.899   0.314   2.489
 3325TIP3    H2 9917   7.016   0.242   2.551
 3326TIP3   OH2 9918   2.623   4.292   3.137
 3326TIP3    H1 9919   2.685   4.230   3.099
 3326TIP3    H2 9920   2.541   4.243   3.145
 3327TIP3   OH2 9921   7.437   5.152   4.398
 3327TIP3    H1 9922   7.491   5.075   4.418
 3327TIP3    H2 9923   7.478   5.223   4.448
 3328TIP3   OH2 9924   1.464   2.577   5.310
 3328TIP3    H1 9925   1.405   2.595   5.237
 3328TIP3    H2 9926   1.412   2.525   5.372
 3329TIP3   OH2 9927   6.898   7.179   4.757
 3329TIP3    H1 9928   6.916   7.109   4.695
 3329TIP3    H2 9929   6.833   7.141   4.817
 3330TIP3   OH2 9930   0.481   0.383   5.945
 3330TIP3    H1 9931   0.550   0.446   5.965
 3330TIP3    H2 9932   0.401   0.423   5.982
 3331TIP3   OH2 9933   4.927   3.998   6.681
 3331TIP3    H1 9934   4.931   3.930   6.748
 3331TIP3    H2 9935   5.018   4.013   6.657
 3332TIP3   OH2 9936   2.061   2.117   5.627
 3332TIP3    H1 9937   2.152   2.128   5.656
 3332TIP3    H2 9938   2.064   2.042   5.567
 3333TIP3   OH2 9939   3.955   1.736   0.166
 3333TIP3    H1 9940   3.915   1.691   0.241
 3333TIP3    H2 9941   3.990   1.817   0.204
 3334TIP3   OH2 9942   7.522   5.104   1.680
 3334TIP3    H1 9943   7.458   5.048   1.635
 3334TIP3    H2 9944   7.606   5.078   1.643
 3335TIP3   OH2 9945   0.942   4.850   2.185
 3335TIP3    H1 9946   0.997   4.804   2.249
 3335TIP3    H2 9947   0.862   4.798   2.181
 3336TIP3   OH2 9948   1.839   4.919   1.982
 3336TIP3    H1 9949   1.756   4.937   2.025
 3336TIP3    H2 9950   1.829   4.957   1.895
 3337TIP3   OH2 9951   4.835   5.721   3.385
 3337TIP3    H1 9952   4.763   5.718   3.322
 3337TIP3    H2 9953   4.800   5.768   3.460
 3338TIP3   OH2 9954   1.538   3.692   2.637
 3338TIP3    H1 9955   1.631   3.692   2.660
 3338TIP3    H2 9956   1.537   3.705   2.542
 3339TIP3   OH2 9957   5.181   6.517   3.175
 3339TIP3    H1 9958   5.150   6.579   3.109
 3339TIP3    H2 9959   5.275   6.508   3.157
 3340TIP3   OH2 9960   5.718   7.238   3.587
 3340TIP3    H1 9961   5.775   7.306   3.623
 3340TIP3    H2 9962   5.777   7.168   3.559
 3341TIP3   OH2 9963   8.068   0.239   0.104
 3341TIP3    H1 9964   8.104   0.326   0.084
 3341TIP3    H2 9965   8.140   0.193   0.148
 3342TIP3   OH2 9966   5.926   5.594   4.979
 3342TIP3    H1 9967   6.004   5.539   4.978
 3342TIP3    H2 9968   5.946   5.666   4.919
 3343TIP3   OH2 9969   4.334   7.688   5.998
 3343TIP3    H1 9970   4.292   7.606   6.024
 3343TIP3    H2 9971   4.394   7.662   5.928
 3344TIP3   OH2 9972   0.385   5.105   5.493
 3344TIP3    H1 9973   0.302   5.059   5.504
 3344TIP3    H2 9974   0.381   5.178   5.555
 3345TIP3   OH2 9975   8.313   2.518   6.411
 3345TIP3    H1 9976   8.260   2.577   6.463
 3345TIP3    H2 9977   8.397   2.513   6.457
 3346TIP3   OH2 9978   0.300   7.481   3.603
 3346TIP3    H1 9979   0.255   7.529   3.533
 3346TIP3    H2 9980   0.259   7.512   3.683
 3347TIP3   OH2 9981   4.904   1.613   0.242
 3347TIP3    H1 9982   4.958   1.542   0.277
 3347TIP3    H2 9983   4.963   1.663   0.186
 3348TIP3   OH2 9984   5.157   7.395   5.930
 3348TIP3    H1 9985   5.168   7.444   6.011
 3348TIP3    H2 9986   5.246   7.372   5.902
 3349TIP3   OH2 9987   1.004   5.101   0.687
 3349TIP3    H1 9988   1.039   5.036   0.627
 3349TIP3    H2 9989   1.064   5.176   0.679
 3350TIP3   OH2 9990   0.905   7.410   2.252
 3350TIP3    H1 9991   0.916   7.496   2.294
 3350TIP3    H2 9992   0.973   7.407   2.185
 3351TIP3   OH2 9993   1.972   3.908   4.737
 3351TIP3    H1 9994   1.973   3.996   4.776
 3351TIP3    H2 9995   1.960   3.923   4.643
 3352TIP3   OH2 9996   2.182   2.780   0.318
 3352TIP3    H1 9997   2.150   2.870   0.321
 3352TIP3    H2 9998   2.128   2.733   0.382
 3353TIP3   OH2 9999   5.824   6.203   5.236
 3353TIP3    H110000   5.888   6.179   5.303
 3353TIP3    H210001   5.812   6.122   5.185
 3354TIP3   OH210002   5.364   1.554   6.679
 3354TIP3    H110003   5.368   1.469   6.723
 3354TIP3    H210004   5.294   1.601   6.722
 3355TIP3   OH210005   3.590   4.844   4.280
 3355TIP3    H110006   3.536   4.814   4.353
 3355TIP3    H210007   3.663   4.782   4.277
 3356TIP3   OH210008   4.771   1.707   2.496
 3356TIP3    H110009   4.852   1.657   2.485
 3356TIP3    H210010   4.801   1.797   2.510
 3357TIP3   OH210011   7.600   0.553   1.661
 3357TIP3    H110012   7.625   0.636   1.702
 3357TIP3    H210013   7.676   0.528   1.609
 3358TIP3   OH210014   2.373   2.101   6.027
 3358TIP3    H110015   2.463   2.109   6.059
 3358TIP3    H210016   2.326   2.170   6.073
 3359TIP3   OH210017   2.715   7.767   4.625
 3359TIP3    H110018   2.734   7.674   4.630
 3359TIP3    H210019   2.725   7.789   4.533
 3360TIP3   OH210020   4.113   2.307   4.125
 3360TIP3    H110021   4.080   2.350   4.204
 3360TIP3    H210022   4.167   2.373   4.082
 3361TIP3   OH210023   6.785   6.059   0.535
 3361TIP3    H110024   6.840   6.114   0.478
 3361TIP3    H210025   6.806   5.969   0.510
 3362TIP3   OH210026   2.085   6.677   5.328
 3362TIP3    H110027   2.062   6.768   5.349
 3362TIP3    H210028   2.147   6.684   5.256
 3363TIP3   OH210029   3.074   0.704   1.558
 3363TIP3    H110030   3.004   0.769   1.564
 3363TIP3    H210031   3.143   0.737   1.616
 3364TIP3   OH210032   1.798   6.049   6.638
 3364TIP3    H110033   1.831   5.972   6.684
 3364TIP3    H210034   1.703   6.038   6.639
 3365TIP3   OH210035   6.817   1.369   3.034
 3365TIP3    H110036   6.832   1.282   3.072
 3365TIP3    H210037   6.727   1.390   3.059
 3366TIP3   OH210038   5.302   1.518   3.597
 3366TIP3    H110039   5.251   1.443   3.568
 3366TIP3    H210040   5.247   1.561   3.662
 3367TIP3   OH210041   1.627   2.076   3.215
 3367TIP3    H110042   1.651   2.155   3.166
 3367TIP3    H210043   1.687   2.074   3.289
 3368TIP3   OH210044   2.826   7.576   6.607
 3368TIP3    H110045   2.833   7.670   6.591
 3368TIP3    H210046   2.909   7.552   6.647
 3369TIP3   OH210047   3.639   2.030   2.444
 3369TIP3    H110048   3.665   2.114   2.482
 3369TIP3    H210049   3.609   1.979   2.519
 3370TIP3   OH210050   5.332   0.099   1.784
 3370TIP3    H110051   5.376   0.022   1.749
 3370TIP3    H210052   5.288   0.139   1.708
 3371TIP3   OH210053   3.714   4.187   6.569
 3371TIP3    H110054   3.697   4.130   6.495
 3371TIP3    H210055   3.798   4.157   6.604
 3372TIP3   OH210056   4.322   1.073   1.349
 3372TIP3    H110057   4.227   1.081   1.361
 3372TIP3    H210058   4.356   1.158   1.378
 3373TIP3   OH210059   5.641   1.920   4.635
 3373TIP3    H110060   5.580   1.847   4.626
 3373TIP3    H210061   5.610   1.968   4.712
 3374TIP3   OH210062   1.458   3.805   6.596
 3374TIP3    H110063   1.363   3.813   6.589
 3374TIP3    H210064   1.473   3.775   6.685
 3375TIP3   OH210065   5.106   7.148   5.711
 3375TIP3    H110066   5.166   7.134   5.784
 3375TIP3    H210067   5.124   7.075   5.652
 3376TIP3   OH210068   4.215   0.101   5.624
 3376TIP3    H110069   4.273   0.046   5.572
 3376TIP3    H210070   4.195   0.175   5.566
 3377TIP3   OH210071   1.580   3.704   6.354
 3377TIP3    H110072   1.668   3.740   6.364
 3377TIP3    H210073   1.531   3.740   6.428
 3378TIP3   OH210074   7.212   7.325   2.219
 3378TIP3    H110075   7.198   7.231   2.205
 3378TIP3    H210076   7.166   7.367   2.146
 3379TIP3   OH210077   5.102   7.300   4.450
 3379TIP3    H110078   5.094   7.390   4.482
 3379TIP3    H210079   5.048   7.249   4.510
 3380TIP3   OH210080   5.417   5.854   2.133
 3380TIP3    H110081   5.376   5.812   2.209
 3380TIP3    H210082   5.346   5.903   2.091
 3381TIP3   OH210083   1.772   1.318   4.117
 3381TIP3    H110084   1.787   1.326   4.211
 3381TIP3    H210085   1.702   1.381   4.099
 3382TIP3   OH210086   3.874   7.687   4.468
 3382TIP3    H110087   3.925   7.767   4.483
 3382TIP3    H210088   3.793   7.718   4.427
 3383TIP3   OH210089   6.255   4.317   5.242
 3383TIP3    H110090   6.348   4.336   5.245
 3383TIP3    H210091   6.218   4.370   5.313
 3384TIP3   OH210092   0.563   4.761   6.756
 3384TIP3    H110093   0.650   4.749   6.717
 3384TIP3    H210094   0.576   4.828   6.824
 3385TIP3   OH210095   4.748   7.879   3.699
 3385TIP3    H110096   4.837   7.844   3.704
 3385TIP3    H210097   4.724   7.869   3.607
 3386TIP3   OH210098   0.342   7.872   0.840
 3386TIP3    H110099   0.301   7.958   0.837
 3386TIP3    H210100   0.434   7.888   0.821
 3387TIP3   OH210101   6.752   5.596   4.679
 3387TIP3    H110102   6.717   5.562   4.596
 3387TIP3    H210103   6.718   5.686   4.683
 3388TIP3   OH210104   5.009   4.428   0.370
 3388TIP3    H110105   4.965   4.499   0.416
 3388TIP3    H210106   5.089   4.468   0.336
 3389TIP3   OH210107   4.068   6.379   6.849
 3389TIP3    H110108   4.073   6.299   6.796
 3389TIP3    H210109   4.152   6.422   6.834
 3390TIP3   OH210110   4.921   7.811   5.145
 3390TIP3    H110111   4.915   7.886   5.204
 3390TIP3    H210112   4.886   7.842   5.062
 3391TIP3   OH210113   0.250   4.955   6.562
 3391TIP3    H110114   0.185   4.942   6.493
 3391TIP3    H210115   0.301   5.030   6.532
 3392TIP3   OH210116   2.867   4.240   0.425
 3392TIP3    H110117   2.959   4.245   0.452
 3392TIP3    H210118   2.854   4.316   0.368
 3393TIP3   OH210119   1.396   4.534   6.440
 3393TIP3    H110120   1.397   4.625   6.410
 3393TIP3    H210121   1.399   4.483   6.359
 3394TIP3   OH210122   0.467   1.056   3.532
 3394TIP3    H110123   0.481   1.076   3.440
 3394TIP3    H210124   0.483   1.139   3.577
 3395TIP3   OH210125   1.709   4.947   3.345
 3395TIP3    H110126   1.626   4.940   3.298
 3395TIP3    H210127   1.699   4.888   3.420
 3396TIP3   OH210128   7.830   3.531   2.699
 3396TIP3    H110129   7.848   3.437   2.707
 3396TIP3    H210130   7.826   3.547   2.605
 3397TIP3   OH210131   3.080   4.173   3.877
 3397TIP3    H110132   3.119   4.260   3.889
 3397TIP3    H210133   3.152   4.117   3.850
 3398TIP3   OH210134   4.810   7.178   6.333
 3398TIP3    H110135   4.753   7.223   6.396
 3398TIP3    H210136   4.789   7.219   6.249
 3399TIP3   OH210137   3.270   5.502   3.080
 3399TIP3    H110138   3.268   5.596   3.098
 3399TIP3    H210139   3.210   5.464   3.144
 3400TIP3   OH210140   2.878   7.049   1.961
 3400TIP3    H110141   2.866   7.108   2.035
 3400TIP3    H210142   2.933   7.098   1.900
 3401TIP3   OH210143   0.879   1.198   6.294
 3401TIP3    H110144   0.975   1.194   6.298
 3401TIP3    H210145   0.859   1.207   6.201
 3402TIP3   OH210146   2.337   3.360   0.525
 3402TIP3    H110147   2.336   3.278   0.575
 3402TIP3    H210148   2.308   3.335   0.438
 3403TIP3   OH210149   2.735   6.739   2.115
 3403TIP3    H110150   2.749   6.755   2.208
 3403TIP3    H210151   2.815   6.696   2.086
 3404TIP3   OH210152   3.529   1.859   6.261
 3404TIP3    H110153   3.438   1.834   6.247
 3404TIP3    H210154   3.561   1.799   6.328
 3405TIP3   OH210155   3.904   0.910   3.683
 3405TIP3    H110156   3.884   0.843   3.617
 3405TIP3    H210157   3.985   0.951   3.652
 3406TIP3   OH210158   3.600   7.108   6.473
 3406TIP3    H110159   3.564   7.122   6.385
 3406TIP3    H210160   3.524   7.109   6.531
 3407TIP3   OH210161   0.086   2.079   5.013
 3407TIP3    H110162   0.146   2.153   5.020
 3407TIP3    H210163   0.094   2.050   4.922
 3408TIP3   OH210164   6.755   2.404   2.417
 3408TIP3    H110165   6.776   2.417   2.509
 3408TIP3    H210166   6.836   2.369   2.379
 3409TIP3   OH210167   6.020   4.324   6.537
 3409TIP3    H110168   6.071   4.330   6.456
 3409TIP3    H210169   6.081   4.288   6.601
 3410TIP3   OH210170   5.812   5.029   3.773
 3410TIP3    H110171   5.802   4.942   3.812
 3410TIP3    H210172   5.723   5.065   3.772
 3411TIP3   OH210173   7.208   3.529   2.321
 3411TIP3    H110174   7.162   3.495   2.244
 3411TIP3    H210175   7.233   3.618   2.298
 3412TIP3   OH210176   1.122   2.532   4.498
 3412TIP3    H110177   1.183   2.596   4.461
 3412TIP3    H210178   1.112   2.466   4.430
 3413TIP3   OH210179   8.136   1.315   5.012
 3413TIP3    H110180   8.047   1.329   5.045
 3413TIP3    H210181   8.156   1.393   4.961
 3414TIP3   OH210182   5.093   2.007   0.891
 3414TIP3    H110183   5.164   2.066   0.868
 3414TIP3    H210184   5.121   1.965   0.972
 3415TIP3   OH210185   4.782   6.177   6.404
 3415TIP3    H110186   4.870   6.207   6.428
 3415TIP3    H210187   4.729   6.257   6.402
 3416TIP3   OH210188   0.900   0.422   1.410
 3416TIP3    H110189   0.915   0.395   1.320
 3416TIP3    H210190   0.895   0.517   1.407
 3417TIP3   OH210191   3.856   2.531   6.167
 3417TIP3    H110192   3.859   2.622   6.136
 3417TIP3    H210193   3.909   2.530   6.247
 3418TIP3   OH210194   8.068   5.139   1.633
 3418TIP3    H110195   8.059   5.219   1.581
 3418TIP3    H210196   8.049   5.068   1.571
 3419TIP3   OH210197   8.099   7.742   2.970
 3419TIP3    H110198   8.085   7.658   3.014
 3419TIP3    H210199   8.133   7.799   3.039
 3420TIP3   OH210200   1.428   4.489   2.842
 3420TIP3    H110201   1.340   4.527   2.845
 3420TIP3    H210202   1.466   4.511   2.926
 3421TIP3   OH210203   3.798   5.516   4.162
 3421TIP3    H110204   3.739   5.450   4.198
 3421TIP3    H210205   3.788   5.591   4.220
 3422TIP3   OH210206   1.342   6.827   0.565
 3422TIP3    H110207   1.358   6.759   0.499
 3422TIP3    H210208   1.257   6.804   0.602
 3423TIP3   OH210209   1.579   4.710   4.778
 3423TIP3    H110210   1.524   4.774   4.734
 3423TIP3    H210211   1.658   4.705   4.725
 3424TIP3   OH210212   6.211   5.227   6.679
 3424TIP3    H110213   6.285   5.263   6.629
 3424TIP3    H210214   6.245   5.146   6.717
 3425TIP3   OH210215   6.336   4.043   3.205
 3425TIP3    H110216   6.351   4.096   3.127
 3425TIP3    H210217   6.414   4.057   3.259
 3426TIP3   OH210218   0.373   1.960   4.266
 3426TIP3    H110219   0.365   2.014   4.188
 3426TIP3    H210220   0.301   1.988   4.323
 3427TIP3   OH210221   7.536   2.941   2.425
 3427TIP3    H110222   7.588   2.860   2.425
 3427TIP3    H210223   7.597   3.008   2.393
 3428TIP3   OH210224   1.487   3.022   1.895
 3428TIP3    H110225   1.546   2.972   1.952
 3428TIP3    H210226   1.400   3.007   1.932
 3429TIP3   OH210227   0.584   7.119   0.607
 3429TIP3    H110228   0.566   7.089   0.696
 3429TIP3    H210229   0.586   7.039   0.554
 3430TIP3   OH210230   7.932   4.550   6.839
 3430TIP3    H110231   7.987   4.500   6.900
 3430TIP3    H210232   7.974   4.537   6.754
 3431TIP3   OH210233   4.804   2.990   4.492
 3431TIP3    H110234   4.811   3.025   4.403
 3431TIP3    H210235   4.879   2.932   4.501
 3432TIP3   OH210236   6.432   1.622   1.189
 3432TIP3    H110237   6.375   1.695   1.215
 3432TIP3    H210238   6.518   1.662   1.177
 3433TIP3   OH210239   6.673   4.193   3.220
 3433TIP3    H110240   6.740   4.262   3.221
 3433TIP3    H210241   6.720   4.114   3.194
 3434TIP3   OH210242   0.358   4.207   1.557
 3434TIP3    H110243   0.277   4.220   1.507
 3434TIP3    H210244   0.380   4.115   1.543
 3435TIP3   OH210245   1.944   7.425   1.137
 3435TIP3    H110246   2.031   7.440   1.098
 3435TIP3    H210247   1.895   7.379   1.069
 3436TIP3   OH210248   2.667   2.485   0.783
 3436TIP3    H110249   2.715   2.403   0.774
 3436TIP3    H210250   2.668   2.504   0.877
 3437TIP3   OH210251   4.364   0.465   6.063
 3437TIP3    H110252   4.333   0.438   6.149
 3437TIP3    H210253   4.351   0.388   6.008
 3438TIP3   OH210254   4.764   3.983   0.093
 3438TIP3    H110255   4.819   4.057   0.066
 3438TIP3    H210256   4.786   3.913   0.032
 3439TIP3   OH210257   1.896   3.021   3.491
 3439TIP3    H110258   1.930   3.018   3.581
 3439TIP3    H210259   1.968   2.987   3.437
 3440TIP3   OH210260   3.608   6.014   4.976
 3440TIP3    H110261   3.558   5.959   5.037
 3440TIP3    H210262   3.544   6.077   4.943
 3441TIP3   OH210263   6.473   2.155   6.524
 3441TIP3    H110264   6.394   2.141   6.577
 3441TIP3    H210265   6.451   2.119   6.438
 3442TIP3   OH210266   0.759   6.669   0.783
 3442TIP3    H110267   0.681   6.648   0.835
 3442TIP3    H210268   0.805   6.736   0.834
 3443TIP3   OH210269   0.524   0.765   5.525
 3443TIP3    H110270   0.450   0.777   5.466
 3443TIP3    H210271   0.502   0.687   5.575
 3444TIP3   OH210272   7.155   2.521   3.889
 3444TIP3    H110273   7.224   2.473   3.935
 3444TIP3    H210274   7.201   2.587   3.837
 3445TIP3   OH210275   7.608   2.141   6.457
 3445TIP3    H110276   7.632   2.233   6.448
 3445TIP3    H210277   7.522   2.144   6.501
 3446TIP3   OH210278   7.182   4.564   1.011
 3446TIP3    H110279   7.170   4.655   0.981
 3446TIP3    H210280   7.094   4.533   1.029
 3447TIP3   OH210281   5.478   3.613   4.640
 3447TIP3    H110282   5.452   3.588   4.552
 3447TIP3    H210283   5.399   3.651   4.679
 3448TIP3   OH210284   3.477   7.047   3.780
 3448TIP3    H110285   3.419   7.078   3.850
 3448TIP3    H210286   3.515   7.126   3.743
 3449TIP3   OH210287   3.006   2.460   3.653
 3449TIP3    H110288   3.068   2.443   3.723
 3449TIP3    H210289   3.033   2.544   3.616
 3450TIP3   OH210290   6.404   7.721   6.853
 3450TIP3    H110291   6.478   7.663   6.834
 3450TIP3    H210292   6.361   7.733   6.768
 3451TIP3   OH210293   3.103   1.970   0.797
 3451TIP3    H110294   3.155   1.913   0.853
 3451TIP3    H210295   3.073   1.913   0.726
 3452TIP3   OH210296   1.276   7.327   4.090
 3452TIP3    H110297   1.308   7.289   4.009
 3452TIP3    H210298   1.259   7.252   4.147
 3453TIP3   OH210299   2.440   5.810   3.294
 3453TIP3    H110300   2.474   5.794   3.206
 3453TIP3    H210301   2.352   5.845   3.279
 3454TIP3   OH210302   4.232   7.324   4.652
 3454TIP3    H110303   4.269   7.357   4.570
 3454TIP3    H210304   4.251   7.230   4.651
 3455TIP3   OH210305   0.031   2.630   1.415
 3455TIP3    H110306   0.106   2.570   1.417
 3455TIP3    H210307  -0.041   2.578   1.381
 3456TIP3   OH210308   0.321   7.313   2.546
 3456TIP3    H110309   0.373   7.277   2.474
 3456TIP3    H210310   0.354   7.402   2.557
 3457TIP3   OH210311   1.131   7.289   2.431
 3457TIP3    H110312   1.066   7.223   2.406
 3457TIP3    H210313   1.085   7.346   2.492
 3458TIP3   OH210314   3.743   1.219   0.580
 3458TIP3    H110315   3.821   1.170   0.606
 3458TIP3    H210316   3.761   1.309   0.605
 3459TIP3   OH210317   6.535   3.981   5.191
 3459TIP3    H110318   6.619   3.936   5.198
 3459TIP3    H210319   6.485   3.927   5.130
 3460TIP3   OH210320   0.460   0.506   2.061
 3460TIP3    H110321   0.367   0.519   2.078
 3460TIP3    H210322   0.463   0.444   1.988
 3461TIP3   OH210323   6.259   3.563   0.347
 3461TIP3    H110324   6.333   3.508   0.319
 3461TIP3    H210325   6.228   3.522   0.428
 3462TIP3   OH210326   0.305   1.209   2.515
 3462TIP3    H110327   0.318   1.158   2.435
 3462TIP3    H210328   0.332   1.298   2.491
 3463TIP3   OH210329   3.459   5.838   2.020
 3463TIP3    H110330   3.421   5.811   1.936
 3463TIP3    H210331   3.550   5.859   2.000
 3464TIP3   OH210332   1.395   1.036   4.647
 3464TIP3    H110333   1.415   1.130   4.653
 3464TIP3    H210334   1.465   0.994   4.697
 3465TIP3   OH210335   3.224   4.743   5.375
 3465TIP3    H110336   3.217   4.730   5.281
 3465TIP3    H210337   3.147   4.794   5.399
 3466TIP3   OH210338   1.325   5.052   6.489
 3466TIP3    H110339   1.404   5.079   6.443
 3466TIP3    H210340   1.339   4.959   6.509
 3467TIP3   OH210341   7.188   2.662   0.807
 3467TIP3    H110342   7.166   2.661   0.714
 3467TIP3    H210343   7.238   2.743   0.818
 3468TIP3   OH210344   6.211   2.279   2.986
 3468TIP3    H110345   6.245   2.193   3.012
 3468TIP3    H210346   6.166   2.311   3.064
 3469TIP3   OH210347   2.500   0.148   1.873
 3469TIP3    H110348   2.431   0.178   1.813
 3469TIP3    H210349   2.454   0.102   1.943
 3470TIP3   OH210350   0.390   6.881   0.196
 3470TIP3    H110351   0.392   6.802   0.142
 3470TIP3    H210352   0.306   6.922   0.175
 3471TIP3   OH210353   5.880   7.442   0.418
 3471TIP3    H110354   5.950   7.395   0.463
 3471TIP3    H210355   5.899   7.431   0.325
 3472TIP3   OH210356   5.107   6.696   5.105
 3472TIP3    H110357   5.036   6.640   5.075
 3472TIP3    H210358   5.113   6.764   5.038
 3473TIP3   OH210359   7.767   7.667   1.329
 3473TIP3    H110360   7.754   7.654   1.235
 3473TIP3    H210361   7.682   7.696   1.361
 3474TIP3   OH210362   6.314   3.835   3.022
 3474TIP3    H110363   6.312   3.917   3.073
 3474TIP3    H210364   6.358   3.772   3.080
 3475TIP3   OH210365   2.665   2.724   1.373
 3475TIP3    H110366   2.591   2.705   1.315
 3475TIP3    H210367   2.717   2.789   1.325
 3476TIP3   OH210368   4.292   2.756   0.418
 3476TIP3    H110369   4.366   2.800   0.376
 3476TIP3    H210370   4.306   2.770   0.512
 3477TIP3   OH210371   4.619   5.247   4.566
 3477TIP3    H110372   4.622   5.151   4.562
 3477TIP3    H210373   4.651   5.275   4.480
 3478TIP3   OH210374   6.964   2.696   1.632
 3478TIP3    H110375   6.922   2.703   1.717
 3478TIP3    H210376   6.937   2.775   1.585
 3479TIP3   OH210377   0.101   7.180   1.450
 3479TIP3    H110378   0.194   7.164   1.464
 3479TIP3    H210379   0.068   7.098   1.413
 3480TIP3   OH210380   0.227   5.404   0.277
 3480TIP3    H110381   0.215   5.469   0.346
 3480TIP3    H210382   0.175   5.438   0.204
 3481TIP3   OH210383   0.809   0.347   0.766
 3481TIP3    H110384   0.830   0.267   0.815
 3481TIP3    H210385   0.732   0.323   0.714
 3482TIP3   OH210386   1.049   7.523   1.608
 3482TIP3    H110387   0.991   7.512   1.532
 3482TIP3    H210388   0.989   7.528   1.682
 3483TIP3   OH210389   5.851   7.067   5.672
 3483TIP3    H110390   5.859   7.050   5.578
 3483TIP3    H210391   5.931   7.114   5.694
 3484TIP3   OH210392   2.853   6.177   1.456
 3484TIP3    H110393   2.853   6.273   1.455
 3484TIP3    H210394   2.762   6.153   1.472
 3485TIP3   OH210395   3.950   5.840   2.129
 3485TIP3    H110396   4.026   5.887   2.095
 3485TIP3    H210397   3.908   5.803   2.051
 3486TIP3   OH210398   5.690   5.879   3.752
 3486TIP3    H110399   5.652   5.958   3.790
 3486TIP3    H210400   5.784   5.886   3.769
 3487TIP3   OH210401   6.099   2.750   1.326
 3487TIP3    H110402   6.027   2.695   1.355
 3487TIP3    H210403   6.058   2.816   1.271
 3488TIP3   OH210404   6.105   0.041   6.569
 3488TIP3    H110405   6.173   0.051   6.636
 3488TIP3    H210406   6.122   0.112   6.507
 3489TIP3   OH210407   6.736   3.892   3.062
 3489TIP3    H110408   6.802   3.951   3.028
 3489TIP3    H210409   6.665   3.895   2.997
 3490TIP3   OH210410   3.067   6.120   5.109
 3490TIP3    H110411   3.010   6.194   5.088
 3490TIP3    H210412   3.010   6.044   5.100
 3491TIP3   OH210413   0.267   5.700   6.154
 3491TIP3    H110414   0.303   5.780   6.116
 3491TIP3    H210415   0.174   5.719   6.165
 3492TIP3   OH210416   6.260   2.381   6.129
 3492TIP3    H110417   6.308   2.299   6.127
 3492TIP3    H210418   6.215   2.381   6.213
 3493TIP3   OH210419   1.997   1.711   3.255
 3493TIP3    H110420   1.941   1.729   3.331
 3493TIP3    H210421   1.951   1.752   3.182
 3494TIP3   OH210422   7.237   0.527   4.193
 3494TIP3    H110423   7.301   0.569   4.135
 3494TIP3    H210424   7.255   0.434   4.183
 3495TIP3   OH210425   2.278   3.414   4.425
 3495TIP3    H110426   2.250   3.442   4.512
 3495TIP3    H210427   2.363   3.372   4.439
 3496TIP3   OH210428   6.141   1.000   1.432
 3496TIP3    H110429   6.061   1.026   1.478
 3496TIP3    H210430   6.212   1.029   1.489
 3497TIP3   OH210431   7.715   7.601   6.670
 3497TIP3    H110432   7.699   7.694   6.689
 3497TIP3    H210433   7.689   7.555   6.749
 3498TIP3   OH210434   2.152   0.466   5.279
 3498TIP3    H110435   2.185   0.544   5.235
 3498TIP3    H210436   2.227   0.406   5.281
 3499TIP3   OH210437   5.608   6.165   6.133
 3499TIP3    H110438   5.614   6.072   6.111
 3499TIP3    H210439   5.529   6.196   6.089
 3500TIP3   OH210440   3.931   7.748   3.373
 3500TIP3    H110441   3.930   7.681   3.442
 3500TIP3    H210442   3.839   7.760   3.350
 3501TIP3   OH210443   6.282   7.838   5.843
 3501TIP3    H110444   6.373   7.806   5.843
 3501TIP3    H210445   6.242   7.795   5.768
 3502TIP3   OH210446   6.213   4.017   4.383
 3502TIP3    H110447   6.233   4.059   4.300
 3502TIP3    H210448   6.169   3.935   4.358
 3503TIP3   OH210449   4.578   7.476   4.558
 3503TIP3    H110450   4.561   7.544   4.623
 3503TIP3    H210451   4.491   7.452   4.525
 3504TIP3   OH210452   2.338   2.711   3.556
 3504TIP3    H110453   2.426   2.742   3.535
 3504TIP3    H210454   2.352   2.640   3.619
 3505TIP3   OH210455   8.002   6.307   3.144
 3505TIP3    H110456   8.053   6.382   3.175
 3505TIP3    H210457   8.011   6.241   3.213
 3506TIP3   OH210458   3.637   3.058   4.441
 3506TIP3    H110459   3.677   2.975   4.467
 3506TIP3    H210460   3.696   3.125   4.475
 3507TIP3   OH210461   3.344   0.253   1.699
 3507TIP3    H110462   3.272   0.191   1.687
 3507TIP3    H210463   3.302   0.339   1.694
 3508TIP3   OH210464   5.436   1.220   4.442
 3508TIP3    H110465   5.476   1.259   4.364
 3508TIP3    H210466   5.458   1.127   4.436
 3509TIP3   OH210467   6.547   5.408   1.504
 3509TIP3    H110468   6.522   5.485   1.452
 3509TIP3    H210469   6.527   5.432   1.594
 3510TIP3   OH210470   7.725   1.208   5.778
 3510TIP3    H110471   7.668   1.284   5.768
 3510TIP3    H210472   7.790   1.217   5.709
 3511TIP3   OH210473   5.919   6.746   4.620
 3511TIP3    H110474   5.890   6.776   4.534
 3511TIP3    H210475   5.843   6.702   4.657
 3512TIP3   OH210476   5.177   7.090   1.085
 3512TIP3    H110477   5.082   7.083   1.075
 3512TIP3    H210478   5.201   7.168   1.036
 3513TIP3   OH210479   1.806   7.209   6.311
 3513TIP3    H110480   1.729   7.242   6.359
 3513TIP3    H210481   1.801   7.114   6.323
 3514TIP3   OH210482   7.031   4.338   4.807
 3514TIP3    H110483   6.968   4.390   4.858
 3514TIP3    H210484   7.044   4.259   4.859
 3515TIP3   OH210485   2.211   1.731   4.925
 3515TIP3    H110486   2.277   1.695   4.986
 3515TIP3    H210487   2.138   1.669   4.930
 3516TIP3   OH210488   4.217   0.911   4.707
 3516TIP3    H110489   4.179   0.826   4.684
 3516TIP3    H210490   4.266   0.894   4.787
 3517TIP3   OH210491   7.659   5.858   1.678
 3517TIP3    H110492   7.631   5.768   1.662
 3517TIP3    H210493   7.610   5.910   1.615
 3518TIP3   OH210494   0.781   3.462   6.462
 3518TIP3    H110495   0.854   3.405   6.486
 3518TIP3    H210496   0.815   3.551   6.475
 3519TIP3   OH210497   7.139   6.642   3.391
 3519TIP3    H110498   7.165   6.734   3.392
 3519TIP3    H210499   7.064   6.640   3.332
 3520TIP3   OH210500   0.114   0.415   2.982
 3520TIP3    H110501   0.174   0.482   2.948
 3520TIP3    H210502   0.137   0.406   3.074
 3521TIP3   OH210503   5.060   0.206   0.300
 3521TIP3    H110504   5.018   0.215   0.386
 3521TIP3    H210505   5.092   0.116   0.298
 3522TIP3   OH210506   6.399   7.383   0.707
 3522TIP3    H110507   6.411   7.373   0.613
 3522TIP3    H210508   6.488   7.381   0.743
 3523TIP3   OH210509   4.561   4.509   0.348
 3523TIP3    H110510   4.528   4.425   0.316
 3523TIP3    H210511   4.507   4.575   0.305
 3524TIP3   OH210512   5.560   2.021   0.315
 3524TIP3    H110513   5.552   2.106   0.358
 3524TIP3    H210514   5.491   2.021   0.249
 3525TIP3   OH210515   2.971   7.453   1.399
 3525TIP3    H110516   2.994   7.431   1.309
 3525TIP3    H210517   2.929   7.539   1.393
 3526TIP3   OH210518   1.689   2.249   1.751
 3526TIP3    H110519   1.632   2.321   1.725
 3526TIP3    H210520   1.675   2.239   1.845
 3527TIP3   OH210521   3.052   5.015   1.232
 3527TIP3    H110522   3.132   5.008   1.285
 3527TIP3    H210523   2.984   4.975   1.287
 3528TIP3   OH210524   1.587   5.673   3.389
 3528TIP3    H110525   1.661   5.664   3.329
 3528TIP3    H210526   1.554   5.584   3.401
 3529TIP3   OH210527   4.589   1.253   5.728
 3529TIP3    H110528   4.546   1.272   5.812
 3529TIP3    H210529   4.518   1.224   5.671
 3530TIP3   OH210530   5.018   3.382   1.353
 3530TIP3    H110531   5.065   3.399   1.435
 3530TIP3    H210532   5.074   3.320   1.305
 3531TIP3   OH210533   4.217   6.680   3.333
 3531TIP3    H110534   4.152   6.656   3.398
 3531TIP3    H210535   4.237   6.597   3.288
 3532TIP3   OH210536   6.356   7.140   4.989
 3532TIP3    H110537   6.346   7.099   4.904
 3532TIP3    H210538   6.285   7.204   4.993
 3533TIP3   OH210539   7.110   5.232   6.558
 3533TIP3    H110540   7.108   5.283   6.477
 3533TIP3    H210541   7.192   5.256   6.600
 3534TIP3   OH210542   5.148   1.649   3.813
 3534TIP3    H110543   5.083   1.584   3.839
 3534TIP3    H210544   5.162   1.702   3.891
 3535TIP3   OH210545   0.478   1.663   4.433
 3535TIP3    H110546   0.512   1.591   4.380
 3535TIP3    H210547   0.434   1.720   4.370
 3536TIP3   OH210548   3.603   0.040   5.451
 3536TIP3    H110549   3.551   0.068   5.526
 3536TIP3    H210550   3.579   0.100   5.381
 3537TIP3   OH210551   5.719   2.126   2.787
 3537TIP3    H110552   5.724   2.185   2.862
 3537TIP3    H210553   5.688   2.043   2.823
 3538TIP3   OH210554   2.259   2.948   6.377
 3538TIP3    H110555   2.211   2.886   6.322
 3538TIP3    H210556   2.197   2.973   6.445
 3539TIP3   OH210557   2.406   5.607   2.895
 3539TIP3    H110558   2.416   5.598   2.800
 3539TIP3    H210559   2.312   5.614   2.908
 3540TIP3   OH210560   6.366   5.331   0.941
 3540TIP3    H110561   6.307   5.375   0.880
 3540TIP3    H210562   6.386   5.247   0.899
 3541TIP3   OH210563   0.529   6.720   0.944
 3541TIP3    H110564   0.549   6.716   1.038
 3541TIP3    H210565   0.435   6.700   0.939
 3542TIP3   OH210566   5.720   0.221   4.420
 3542TIP3    H110567   5.738   0.296   4.478
 3542TIP3    H210568   5.630   0.236   4.390
 3543TIP3   OH210569   1.295   1.076   6.578
 3543TIP3    H110570   1.353   1.114   6.644
 3543TIP3    H210571   1.272   0.990   6.613
 3544TIP3   OH210572   8.017   6.612   4.125
 3544TIP3    H110573   8.078   6.547   4.091
 3544TIP3    H210574   8.024   6.686   4.065
 3545TIP3   OH210575   7.634   7.161   4.209
 3545TIP3    H110576   7.662   7.182   4.119
 3545TIP3    H210577   7.638   7.244   4.255
 3546TIP3   OH210578   5.927   6.878   6.464
 3546TIP3    H110579   5.917   6.922   6.380
 3546TIP3    H210580   5.850   6.904   6.515
 3547TIP3   OH210581   5.533   2.093   5.171
 3547TIP3    H110582   5.585   2.173   5.168
 3547TIP3    H210583   5.507   2.084   5.263
 3548TIP3   OH210584   5.419   0.937   5.611
 3548TIP3    H110585   5.455   1.009   5.664
 3548TIP3    H210586   5.424   0.861   5.668
 3549TIP3   OH210587   2.287   1.590   1.112
 3549TIP3    H110588   2.247   1.511   1.077
 3549TIP3    H210589   2.320   1.637   1.035
 3550TIP3   OH210590   5.912   1.429   2.505
 3550TIP3    H110591   5.816   1.429   2.503
 3550TIP3    H210592   5.938   1.454   2.416
 3551TIP3   OH210593   2.519   6.290   0.434
 3551TIP3    H110594   2.579   6.316   0.364
 3551TIP3    H210595   2.484   6.373   0.467
 3552TIP3   OH210596   3.182   6.270   0.153
 3552TIP3    H110597   3.170   6.346   0.096
 3552TIP3    H210598   3.163   6.194   0.097
 3553TIP3   OH210599   0.647   7.594   0.473
 3553TIP3    H110600   0.636   7.642   0.391
 3553TIP3    H210601   0.732   7.551   0.465
 3554TIP3   OH210602   5.956   0.647   3.894
 3554TIP3    H110603   5.878   0.692   3.926
 3554TIP3    H210604   5.993   0.705   3.828
 3555TIP3   OH210605   0.860   6.764   4.604
 3555TIP3    H110606   0.786   6.811   4.564
 3555TIP3    H210607   0.825   6.734   4.688
 3556TIP3   OH210608   2.544   7.705   5.498
 3556TIP3    H110609   2.560   7.780   5.442
 3556TIP3    H210610   2.500   7.741   5.575
 3557TIP3   OH210611   1.194   1.678   0.172
 3557TIP3    H110612   1.147   1.724   0.102
 3557TIP3    H210613   1.126   1.658   0.236
 3558TIP3   OH210614   0.963   6.803   3.943
 3558TIP3    H110615   1.039   6.779   3.891
 3558TIP3    H210616   0.962   6.740   4.015
 3559TIP3   OH210617   3.735   2.272   6.504
 3559TIP3    H110618   3.694   2.340   6.557
 3559TIP3    H210619   3.690   2.191   6.531
 3560TIP3   OH210620   3.463   1.708   4.560
 3560TIP3    H110621   3.419   1.626   4.585
 3560TIP3    H210622   3.493   1.693   4.470
 3561TIP3   OH210623   8.222   0.409   4.489
 3561TIP3    H110624   8.181   0.334   4.532
 3561TIP3    H210625   8.303   0.373   4.451
 3562TIP3   OH210626   7.420   0.199   1.761
 3562TIP3    H110627   7.364   0.122   1.771
 3562TIP3    H210628   7.359   0.270   1.739
 3563TIP3   OH210629   7.750   2.607   1.997
 3563TIP3    H110630   7.704   2.685   2.028
 3563TIP3    H210631   7.748   2.615   1.901
 3564TIP3   OH210632   0.714   6.873   5.411
 3564TIP3    H110633   0.807   6.887   5.391
 3564TIP3    H210634   0.714   6.830   5.497
 3565TIP3   OH210635   1.500   2.917   4.374
 3565TIP3    H110636   1.563   2.856   4.413
 3565TIP3    H210637   1.552   2.966   4.310
 3566TIP3   OH210638   4.090   3.078   0.794
 3566TIP3    H110639   4.061   3.165   0.820
 3566TIP3    H210640   4.128   3.041   0.874
 3567TIP3   OH210641   2.379   5.372   5.371
 3567TIP3    H110642   2.346   5.335   5.289
 3567TIP3    H210643   2.303   5.376   5.429
 3568TIP3   OH210644   4.052   4.921   2.864
 3568TIP3    H110645   4.133   4.903   2.913
 3568TIP3    H210646   4.053   5.015   2.850
 3569TIP3   OH210647   6.532   6.032   3.398
 3569TIP3    H110648   6.471   6.103   3.376
 3569TIP3    H210649   6.598   6.074   3.452
 3570TIP3   OH210650   7.449   7.196   3.346
 3570TIP3    H110651   7.441   7.139   3.423
 3570TIP3    H210652   7.450   7.284   3.382
 3571TIP3   OH210653   0.990   6.584   2.654
 3571TIP3    H110654   1.062   6.644   2.669
 3571TIP3    H210655   0.911   6.635   2.675
 3572TIP3   OH210656   1.922   5.917   6.367
 3572TIP3    H110657   1.918   5.821   6.372
 3572TIP3    H210658   1.832   5.944   6.353
 3573TIP3   OH210659   6.438   3.224   3.743
 3573TIP3    H110660   6.447   3.280   3.666
 3573TIP3    H210661   6.385   3.276   3.805
 3574TIP3   OH210662   6.594   0.937   0.531
 3574TIP3    H110663   6.588   1.012   0.471
 3574TIP3    H210664   6.661   0.961   0.594
 3575TIP3   OH210665   4.745   2.714   0.450
 3575TIP3    H110666   4.732   2.766   0.530
 3575TIP3    H210667   4.680   2.644   0.457
 3576TIP3   OH210668   6.494   6.414   3.493
 3576TIP3    H110669   6.514   6.453   3.408
 3576TIP3    H210670   6.563   6.348   3.505
 3577TIP3   OH210671   6.936   1.801   5.123
 3577TIP3    H110672   6.883   1.837   5.052
 3577TIP3    H210673   6.898   1.715   5.140
 3578TIP3   OH210674   2.315   1.120   2.376
 3578TIP3    H110675   2.326   1.203   2.423
 3578TIP3    H210676   2.245   1.137   2.313
 3579TIP3   OH210677   7.910   2.882   1.642
 3579TIP3    H110678   7.901   2.921   1.555
 3579TIP3    H210679   7.995   2.838   1.640
 3580TIP3   OH210680   8.242   3.059   4.692
 3580TIP3    H110681   8.198   3.028   4.612
 3580TIP3    H210682   8.191   3.021   4.763
 3581TIP3   OH210683   4.841   1.733   1.682
 3581TIP3    H110684   4.776   1.684   1.631
 3581TIP3    H210685   4.792   1.808   1.717
 3582TIP3   OH210686   5.636   6.185   0.872
 3582TIP3    H110687   5.601   6.260   0.919
 3582TIP3    H210688   5.645   6.215   0.782
 3583TIP3   OH210689   1.488   4.772   5.671
 3583TIP3    H110690   1.393   4.774   5.682
 3583TIP3    H210691   1.506   4.840   5.607
 3584TIP3   OH210692   0.621   4.253   3.446
 3584TIP3    H110693   0.623   4.295   3.532
 3584TIP3    H210694   0.628   4.160   3.465
 3585TIP3   OH210695   1.767   0.312   6.649
 3585TIP3    H110696   1.731   0.371   6.583
 3585TIP3    H210697   1.862   0.317   6.637
 3586TIP3   OH210698   2.209   7.288   5.480
 3586TIP3    H110699   2.197   7.383   5.486
 3586TIP3    H210700   2.174   7.265   5.394
 3587TIP3   OH210701   3.890   6.877   5.293
 3587TIP3    H110702   3.833   6.862   5.369
 3587TIP3    H210703   3.907   6.790   5.258
 3588TIP3   OH210704   5.239   6.389   2.429
 3588TIP3    H110705   5.250   6.484   2.430
 3588TIP3    H210706   5.145   6.376   2.419
 3589TIP3   OH210707   4.284   7.790   2.027
 3589TIP3    H110708   4.287   7.858   2.093
 3589TIP3    H210709   4.245   7.714   2.071
 3590TIP3   OH210710   6.222   5.459   5.493
 3590TIP3    H110711   6.313   5.438   5.472
 3590TIP3    H210712   6.190   5.508   5.417
 3591TIP3   OH210713   4.693   4.956   2.064
 3591TIP3    H110714   4.751   4.947   1.988
 3591TIP3    H210715   4.730   4.896   2.129
 3592TIP3   OH210716   6.626   7.547   5.673
 3592TIP3    H110717   6.563   7.478   5.695
 3592TIP3    H210718   6.690   7.503   5.617
 3593TIP3   OH210719   7.046   1.870   3.816
 3593TIP3    H110720   7.121   1.906   3.864
 3593TIP3    H210721   6.972   1.926   3.842
 3594TIP3   OH210722   3.892   3.745   0.794
 3594TIP3    H110723   3.958   3.682   0.824
 3594TIP3    H210724   3.926   3.778   0.711
 3595TIP3   OH210725   6.808   3.341   2.963
 3595TIP3    H110726   6.805   3.359   3.057
 3595TIP3    H210727   6.901   3.339   2.941
 3596TIP3   OH210728   8.340   3.753   3.881
 3596TIP3    H110729   8.357   3.697   3.805
 3596TIP3    H210730   8.332   3.841   3.843
 3597TIP3   OH210731   4.075   6.633   0.644
 3597TIP3    H110732   4.149   6.610   0.701
 3597TIP3    H210733   4.089   6.726   0.624
 3598TIP3   OH210734   3.286   3.039   5.211
 3598TIP3    H110735   3.330   2.954   5.203
 3598TIP3    H210736   3.232   3.031   5.289
 3599TIP3   OH210737   6.687   6.959   4.900
 3599TIP3    H110738   6.668   7.019   4.972
 3599TIP3    H210739   6.763   6.909   4.930
 3600TIP3   OH210740   2.591   4.903   3.282
 3600TIP3    H110741   2.646   4.909   3.204
 3600TIP3    H210742   2.511   4.950   3.260
 3601TIP3   OH210743   6.072   5.493   0.478
 3601TIP3    H110744   6.005   5.496   0.409
 3601TIP3    H210745   6.068   5.580   0.518
 3602TIP3   OH210746   0.269   6.758   5.941
 3602TIP3    H110747   0.246   6.850   5.929
 3602TIP3    H210748   0.243   6.738   6.031
 3603TIP3   OH210749   3.106   4.906   5.822
 3603TIP3    H110750   3.182   4.860   5.859
 3603TIP3    H210751   3.038   4.896   5.888
 3604TIP3   OH210752   6.274   6.730   2.751
 3604TIP3    H110753   6.326   6.789   2.806
 3604TIP3    H210754   6.324   6.721   2.670
 3605TIP3   OH210755   7.474   5.012   5.806
 3605TIP3    H110756   7.492   4.944   5.741
 3605TIP3    H210757   7.395   5.055   5.773
 3606TIP3   OH210758   7.598   2.261   5.556
 3606TIP3    H110759   7.592   2.179   5.606
 3606TIP3    H210760   7.607   2.329   5.623
 3607TIP3   OH210761   8.310   3.400   6.003
 3607TIP3    H110762   8.324   3.365   6.091
 3607TIP3    H210763   8.381   3.464   5.991
 3608TIP3   OH210764   3.117   7.335   3.876
 3608TIP3    H110765   3.183   7.402   3.892
 3608TIP3    H210766   3.114   7.284   3.957
 3609TIP3   OH210767   7.831   0.430   1.841
 3609TIP3    H110768   7.902   0.444   1.778
 3609TIP3    H210769   7.875   0.425   1.926
 3610TIP3   OH210770   5.468   0.628   3.854
 3610TIP3    H110771   5.393   0.568   3.858
 3610TIP3    H210772   5.544   0.571   3.842
 3611TIP3   OH210773   7.991   4.429   0.053
 3611TIP3    H110774   8.004   4.379  -0.028
 3611TIP3    H210775   8.031   4.514   0.036
 3612TIP3   OH210776   4.751   4.339   5.591
 3612TIP3    H110777   4.777   4.250   5.616
 3612TIP3    H210778   4.825   4.394   5.617
 3613TIP3   OH210779   5.198   4.315   1.057
 3613TIP3    H110780   5.189   4.273   0.972
 3613TIP3    H210781   5.209   4.243   1.119
 3614TIP3   OH210782   2.646   2.409   5.064
 3614TIP3    H110783   2.591   2.487   5.058
 3614TIP3    H210784   2.652   2.377   4.975
 3615TIP3   OH210785   3.698   0.181   5.801
 3615TIP3    H110786   3.660   0.099   5.769
 3615TIP3    H210787   3.625   0.241   5.807
 3616TIP3   OH210788   0.020   0.740   0.081
 3616TIP3    H110789   0.098   0.793   0.063
 3616TIP3    H210790  -0.014   0.775   0.163
 3617TIP3   OH210791   6.852   1.354   5.437
 3617TIP3    H110792   6.904   1.319   5.509
 3617TIP3    H210793   6.777   1.295   5.430
 3618TIP3   OH210794   5.526   6.431   2.390
 3618TIP3    H110795   5.561   6.471   2.469
 3618TIP3    H210796   5.439   6.400   2.416
 3619TIP3   OH210797   4.514   3.444   6.737
 3619TIP3    H110798   4.421   3.439   6.714
 3619TIP3    H210799   4.560   3.427   6.655
 3620TIP3   OH210800   4.181   7.812   1.771
 3620TIP3    H110801   4.133   7.729   1.772
 3620TIP3    H210802   4.198   7.831   1.864
 3621TIP3   OH210803   2.892   5.551   4.444
 3621TIP3    H110804   2.908   5.460   4.421
 3621TIP3    H210805   2.925   5.560   4.533
 3622TIP3   OH210806   2.301   6.334   5.116
 3622TIP3    H110807   2.295   6.242   5.090
 3622TIP3    H210808   2.281   6.383   5.037
 3623TIP3   OH210809   5.269   0.298   6.205
 3623TIP3    H110810   5.265   0.291   6.110
 3623TIP3    H210811   5.359   0.273   6.227
 3624TIP3   OH210812   3.996   1.273   4.982
 3624TIP3    H110813   3.982   1.280   4.888
 3624TIP3    H210814   3.999   1.179   4.999
 3625TIP3   OH210815   5.637   2.589   1.995
 3625TIP3    H110816   5.731   2.589   2.012
 3625TIP3    H210817   5.600   2.645   2.064
 3626TIP3   OH210818   2.271   6.172   6.709
 3626TIP3    H110819   2.218   6.156   6.787
 3626TIP3    H210820   2.207   6.197   6.642
 3627TIP3   OH210821   4.077   6.555   1.514
 3627TIP3    H110822   4.149   6.618   1.512
 3627TIP3    H210823   4.018   6.588   1.582
 3628TIP3   OH210824   4.907   0.549   3.533
 3628TIP3    H110825   4.976   0.563   3.468
 3628TIP3    H210826   4.927   0.464   3.572
 3629TIP3   OH210827   6.887   2.050   0.923
 3629TIP3    H110828   6.949   1.988   0.960
 3629TIP3    H210829   6.930   2.084   0.844
 3630TIP3   OH210830   7.424   1.824   1.844
 3630TIP3    H110831   7.493   1.826   1.911
 3630TIP3    H210832   7.375   1.905   1.859
 3631TIP3   OH210833   3.440   4.785   2.090
 3631TIP3    H110834   3.445   4.880   2.080
 3631TIP3    H210835   3.528   4.760   2.121
 3632TIP3   OH210836   7.310   3.844   2.821
 3632TIP3    H110837   7.294   3.754   2.848
 3632TIP3    H210838   7.231   3.891   2.849
 3633TIP3   OH210839   6.984   3.811   0.066
 3633TIP3    H110840   6.972   3.831   0.159
 3633TIP3    H210841   6.896   3.820   0.028
 3634TIP3   OH210842   7.584   1.072   4.436
 3634TIP3    H110843   7.673   1.080   4.399
 3634TIP3    H210844   7.599   1.057   4.529
 3635TIP3   OH210845   0.473   5.831   4.914
 3635TIP3    H110846   0.397   5.881   4.943
 3635TIP3    H210847   0.454   5.807   4.823
 3636TIP3   OH210848   0.443   1.034   5.015
 3636TIP3    H110849   0.502   1.075   4.952
 3636TIP3    H210850   0.459   1.082   5.097
 3637TIP3   OH210851   6.974   4.778   6.774
 3637TIP3    H110852   6.962   4.744   6.685
 3637TIP3    H210853   7.030   4.855   6.762
 3638TIP3   OH210854   2.543   1.374   6.289
 3638TIP3    H110855   2.626   1.367   6.337
 3638TIP3    H210856   2.566   1.350   6.199
 3639TIP3   OH210857   3.190   5.588   2.360
 3639TIP3    H110858   3.264   5.632   2.316
 3639TIP3    H210859   3.231   5.520   2.413
 3640TIP3   OH210860   2.882   3.674   3.662
 3640TIP3    H110861   2.893   3.650   3.570
 3640TIP3    H210862   2.854   3.765   3.660
 3641TIP3   OH210863   5.821   6.929   3.927
 3641TIP3    H110864   5.912   6.954   3.912
 3641TIP3    H210865   5.770   6.991   3.875
 3642TIP3   OH210866   6.287   3.702   0.075
 3642TIP3    H110867   6.247   3.645   0.140
 3642TIP3    H210868   6.337   3.643   0.018
 3643TIP3   OH210869   4.579   6.607   5.619
 3643TIP3    H110870   4.543   6.693   5.642
 3643TIP3    H210871   4.572   6.604   5.523
 3644TIP3   OH210872   5.992   1.559   1.916
 3644TIP3    H110873   5.981   1.554   1.821
 3644TIP3    H210874   5.908   1.594   1.947
 3645TIP3   OH210875   7.444   6.483   2.729
 3645TIP3    H110876   7.472   6.522   2.812
 3645TIP3    H210877   7.522   6.488   2.673
 3646TIP3   OH210878   2.135   4.523   2.398
 3646TIP3    H110879   2.089   4.530   2.315
 3646TIP3    H210880   2.117   4.605   2.443
 3647TIP3   OH210881   6.252   1.820   3.638
 3647TIP3    H110882   6.223   1.911   3.648
 3647TIP3    H210883   6.187   1.781   3.580
 3648TIP3   OH210884   1.235   3.450   3.847
 3648TIP3    H110885   1.202   3.362   3.863
 3648TIP3    H210886   1.324   3.449   3.882
 3649TIP3   OH210887   1.331   6.228   5.271
 3649TIP3    H110888   1.272   6.196   5.340
 3649TIP3    H210889   1.419   6.219   5.308
 3650TIP3   OH210890   0.142   3.873   2.722
 3650TIP3    H110891   0.185   3.872   2.636
 3650TIP3    H210892   0.188   3.806   2.773
 3651TIP3   OH210893   4.200   1.348   5.384
 3651TIP3    H110894   4.279   1.312   5.425
 3651TIP3    H210895   4.233   1.392   5.305
 3652TIP3   OH210896   4.934   7.860   6.861
 3652TIP3    H110897   4.867   7.799   6.829
 3652TIP3    H210898   4.974   7.894   6.781
 3653TIP3   OH210899   5.065   6.901   4.662
 3653TIP3    H110900   5.024   6.986   4.647
 3653TIP3    H210901   5.132   6.895   4.594
 3654TIP3   OH210902   7.472   5.473   2.347
 3654TIP3    H110903   7.551   5.428   2.378
 3654TIP3    H210904   7.404   5.448   2.409
 3655TIP3   OH210905   1.679   4.381   3.325
 3655TIP3    H110906   1.762   4.427   3.308
 3655TIP3    H210907   1.681   4.306   3.266
 3656TIP3   OH210908   5.321   7.382   6.578
 3656TIP3    H110909   5.233   7.344   6.577
 3656TIP3    H210910   5.352   7.373   6.488
 3657TIP3   OH210911   8.157   1.375   4.429
 3657TIP3    H110912   8.154   1.348   4.337
 3657TIP3    H210913   8.230   1.437   4.434
 3658TIP3   OH210914   8.180   4.937   4.431
 3658TIP3    H110915   8.177   4.965   4.340
 3658TIP3    H210916   8.237   4.860   4.430
 3659TIP3   OH210917   6.763   2.835   6.480
 3659TIP3    H110918   6.749   2.899   6.550
 3659TIP3    H210919   6.842   2.788   6.507
 3660TIP3   OH210920   1.071   2.220   3.872
 3660TIP3    H110921   1.144   2.234   3.812
 3660TIP3    H210922   1.022   2.302   3.868
 3661TIP3   OH210923   6.227   0.972   1.136
 3661TIP3    H110924   6.173   0.976   1.215
 3661TIP3    H210925   6.252   0.880   1.129
 3662TIP3   OH210926   1.033   5.326   4.539
 3662TIP3    H110927   1.096   5.320   4.611
 3662TIP3    H210928   0.957   5.277   4.570
 3663TIP3   OH210929   1.601   7.772   6.612
 3663TIP3    H110930   1.542   7.711   6.656
 3663TIP3    H210931   1.687   7.753   6.649
 3664TIP3   OH210932   6.228   7.776   0.053
 3664TIP3    H110933   6.202   7.859   0.094
 3664TIP3    H210934   6.317   7.760   0.086
 3665TIP3   OH210935   2.277   6.906   0.163
 3665TIP3    H110936   2.195   6.931   0.121
 3665TIP3    H210937   2.272   6.943   0.251
 3666TIP3   OH210938   4.826   4.087   5.642
 3666TIP3    H110939   4.862   4.071   5.555
 3666TIP3    H210940   4.732   4.072   5.632
 3667TIP3   OH210941   5.951   3.463   0.129
 3667TIP3    H110942   5.917   3.462   0.218
 3667TIP3    H210943   6.045   3.450   0.139
 3668TIP3   OH210944   0.010   7.191   6.379
 3668TIP3    H110945  -0.006   7.159   6.468
 3668TIP3    H210946  -0.072   7.173   6.332
 3669TIP3   OH210947   7.919   6.838   4.638
 3669TIP3    H110948   7.938   6.883   4.720
 3669TIP3    H210949   8.002   6.798   4.613
 3670TIP3   OH210950   2.918   0.062   1.652
 3670TIP3    H110951   2.840   0.095   1.697
 3670TIP3    H210952   2.895   0.062   1.560
 3671TIP3   OH210953   0.972   6.757   2.999
 3671TIP3    H110954   0.968   6.663   2.982
 3671TIP3    H210955   0.981   6.797   2.913
 3672TIP3   OH210956   3.775   4.975   0.173
 3672TIP3    H110957   3.834   4.904   0.199
 3672TIP3    H210958   3.808   5.004   0.088
 3673TIP3   OH210959   4.531   3.282   3.909
 3673TIP3    H110960   4.523   3.254   3.818
 3673TIP3    H210961   4.597   3.223   3.947
 3674TIP3   OH210962   8.034   1.623   4.466
 3674TIP3    H110963   8.044   1.528   4.458
 3674TIP3    H210964   8.075   1.659   4.387
 3675TIP3   OH210965   2.825   3.578   0.164
 3675TIP3    H110966   2.845   3.669   0.142
 3675TIP3    H210967   2.898   3.551   0.221
 3676TIP3   OH210968   0.861   1.296   5.177
 3676TIP3    H110969   0.832   1.380   5.141
 3676TIP3    H210970   0.951   1.312   5.205
 3677TIP3   OH210971   4.628   4.730   3.305
 3677TIP3    H110972   4.718   4.764   3.304
 3677TIP3    H210973   4.619   4.686   3.389
 3678TIP3   OH210974   1.713   7.341   2.844
 3678TIP3    H110975   1.685   7.428   2.874
 3678TIP3    H210976   1.751   7.300   2.921
 3679TIP3   OH210977   3.172   0.382   3.441
 3679TIP3    H110978   3.249   0.370   3.496
 3679TIP3    H210979   3.165   0.477   3.430
 3680TIP3   OH210980   6.172   6.504   1.742
 3680TIP3    H110981   6.152   6.492   1.649
 3680TIP3    H210982   6.090   6.484   1.787
 3681TIP3   OH210983   7.325   5.362   5.973
 3681TIP3    H110984   7.319   5.362   6.069
 3681TIP3    H210985   7.235   5.355   5.943
 3682TIP3   OH210986   0.839   7.732   0.006
 3682TIP3    H110987   0.867   7.821  -0.015
 3682TIP3    H210988   0.910   7.677  -0.027
 3683TIP3   OH210989   3.071   1.093   1.389
 3683TIP3    H110990   2.991   1.047   1.415
 3683TIP3    H210991   3.060   1.109   1.295
 3684TIP3   OH210992   1.521   6.928   1.045
 3684TIP3    H110993   1.577   6.852   1.063
 3684TIP3    H210994   1.458   6.896   0.980
 3685TIP3   OH210995   4.283   4.785   6.380
 3685TIP3    H110996   4.318   4.805   6.467
 3685TIP3    H210997   4.246   4.697   6.389
 3686TIP3   OH210998   7.056   4.462   1.619
 3686TIP3    H110999   7.110   4.392   1.655
 3686TIP3    H211000   7.114   4.539   1.620
 3687TIP3   OH211001   7.246   2.437   6.212
 3687TIP3    H111002   7.336   2.451   6.243
 3687TIP3    H211003   7.191   2.464   6.286
 3688TIP3   OH211004   1.223   2.545   5.146
 3688TIP3    H111005   1.158   2.480   5.173
 3688TIP3    H211006   1.244   2.522   5.056
 3689TIP3   OH211007   8.155   5.532   2.255
 3689TIP3    H111008   8.060   5.526   2.244
 3689TIP3    H211009   8.190   5.470   2.191
 3690TIP3   OH211010   2.839   2.483   0.017
 3690TIP3    H111011   2.782   2.423  -0.031
 3690TIP3    H211012   2.922   2.482  -0.032
 3691TIP3   OH211013   2.941   0.459   3.628
 3691TIP3    H111014   3.026   0.427   3.659
 3691TIP3    H211015   2.914   0.396   3.562
 3692TIP3   OH211016   1.791   1.983   5.612
 3692TIP3    H111017   1.868   1.975   5.669
 3692TIP3    H211018   1.757   2.070   5.631
 3693TIP3   OH211019   0.576   7.663   5.657
 3693TIP3    H111020   0.608   7.658   5.567
 3693TIP3    H211021   0.488   7.699   5.650
 3694TIP3   OH211022   0.087   1.429   1.226
 3694TIP3    H111023  -0.002   1.412   1.259
 3694TIP3    H211024   0.079   1.419   1.131
 3695TIP3   OH211025   6.991   7.525   1.661
 3695TIP3    H111026   6.925   7.593   1.675
 3695TIP3    H211027   7.033   7.550   1.579
 3696TIP3   OH211028   3.451   1.023   5.609
 3696TIP3    H111029   3.482   0.994   5.695
 3696TIP3    H211030   3.530   1.048   5.561
 3697TIP3   OH211031   3.984   1.321   6.399
 3697TIP3    H111032   3.924   1.390   6.371
 3697TIP3    H211033   4.067   1.343   6.356
 3698TIP3   OH211034   6.751   6.912   1.370
 3698TIP3    H111035   6.700   6.833   1.349
 3698TIP3    H211036   6.715   6.942   1.453
 3699TIP3   OH211037   0.147   1.380   1.914
 3699TIP3    H111038   0.192   1.318   1.856
 3699TIP3    H211039   0.212   1.449   1.930
 3700TIP3   OH211040   6.362   1.824   5.335
 3700TIP3    H111041   6.279   1.829   5.287
 3700TIP3    H211042   6.419   1.770   5.279
 3701TIP3   OH211043   2.122   0.999   0.825
 3701TIP3    H111044   2.165   1.072   0.780
 3701TIP3    H211045   2.194   0.948   0.861
 3702TIP3   OH211046   0.921   6.999   0.219
 3702TIP3    H111047   0.980   6.980   0.292
 3702TIP3    H211048   0.850   7.050   0.258
 3703TIP3   OH211049   8.207   6.897   4.698
 3703TIP3    H111050   8.190   6.876   4.790
 3703TIP3    H211051   8.210   6.813   4.654
 3704TIP3   OH211052   3.742   3.976   2.916
 3704TIP3    H111053   3.761   3.984   2.823
 3704TIP3    H211054   3.656   3.934   2.919
 3705TIP3   OH211055   2.384   2.398   2.278
 3705TIP3    H111056   2.435   2.412   2.198
 3705TIP3    H211057   2.368   2.304   2.280
 3706TIP3   OH211058   4.809   2.517   6.307
 3706TIP3    H111059   4.811   2.588   6.371
 3706TIP3    H211060   4.726   2.528   6.261
 3707TIP3   OH211061   2.022   4.894   3.530
 3707TIP3    H111062   1.969   4.921   3.605
 3707TIP3    H211063   2.056   4.808   3.553
 3708TIP3   OH211064   2.914   5.110   2.253
 3708TIP3    H111065   2.852   5.155   2.196
 3708TIP3    H211066   2.860   5.048   2.302
 3709TIP3   OH211067   6.045   1.928   1.699
 3709TIP3    H111068   6.055   1.837   1.727
 3709TIP3    H211069   6.013   1.923   1.609
 3710TIP3   OH211070   8.224   4.980   3.462
 3710TIP3    H111071   8.251   5.059   3.415
 3710TIP3    H211072   8.216   4.913   3.395
 3711TIP3   OH211073   0.597   4.047   5.504
 3711TIP3    H111074   0.568   4.137   5.489
 3711TIP3    H211075   0.544   3.995   5.443
 3712TIP3   OH211076   7.109   0.567   2.690
 3712TIP3    H111077   7.137   0.502   2.755
 3712TIP3    H211078   7.175   0.559   2.620
 3713TIP3   OH211079   2.039   5.196   5.788
 3713TIP3    H111080   1.990   5.214   5.708
 3713TIP3    H211081   2.064   5.282   5.821
 3714TIP3   OH211082   7.017   3.015   3.203
 3714TIP3    H111083   7.025   2.921   3.186
 3714TIP3    H211084   7.077   3.056   3.141
 3715TIP3   OH211085   7.306   1.160   5.001
 3715TIP3    H111086   7.399   1.170   4.980
 3715TIP3    H211087   7.269   1.116   4.924
 3716TIP3   OH211088   1.535   1.190   1.058
 3716TIP3    H111089   1.457   1.194   1.003
 3716TIP3    H211090   1.526   1.264   1.118
 3717TIP3   OH211091   5.775   6.649   1.232
 3717TIP3    H111092   5.793   6.556   1.219
 3717TIP3    H211093   5.804   6.667   1.322
 3718TIP3   OH211094   7.492   3.859   6.001
 3718TIP3    H111095   7.450   3.918   5.937
 3718TIP3    H211096   7.421   3.835   6.061
 3719TIP3   OH211097   7.105   0.059   3.134
 3719TIP3    H111098   7.019   0.056   3.174
 3719TIP3    H211099   7.140   0.145   3.159
 3720TIP3   OH211100   1.876   0.526   5.294
 3720TIP3    H111101   1.894   0.482   5.378
 3720TIP3    H211102   1.944   0.494   5.236
 3721TIP3   OH211103   7.484   0.427   6.243
 3721TIP3    H111104   7.394   0.440   6.211
 3721TIP3    H211105   7.492   0.333   6.255
 3722TIP3   OH211106   6.990   7.109   5.095
 3722TIP3    H111107   6.988   7.058   5.175
 3722TIP3    H211108   7.055   7.066   5.040
 3723TIP3   OH211109   2.444   6.543   0.572
 3723TIP3    H111110   2.442   6.545   0.668
 3723TIP3    H211111   2.499   6.617   0.548
 3724TIP3   OH211112   5.335   3.406   3.497
 3724TIP3    H111113   5.243   3.402   3.523
 3724TIP3    H211114   5.333   3.431   3.405
 3725TIP3   OH211115   6.431   2.008   5.777
 3725TIP3    H111116   6.451   1.953   5.701
 3725TIP3    H211117   6.360   1.962   5.822
 3726TIP3   OH211118   1.076   3.140   0.580
 3726TIP3    H111119   0.993   3.133   0.628
 3726TIP3    H211120   1.143   3.136   0.648
 3727TIP3   OH211121   3.543   6.373   3.786
 3727TIP3    H111122   3.558   6.453   3.837
 3727TIP3    H211123   3.631   6.338   3.770
 3728TIP3   OH211124   5.195   3.074   6.094
 3728TIP3    H111125   5.252   3.151   6.095
 3728TIP3    H211126   5.109   3.107   6.121
 3729TIP3   OH211127   6.317   3.753   4.186
 3729TIP3    H111128   6.363   3.826   4.146
 3729TIP3    H211129   6.357   3.745   4.273
 3730TIP3   OH211130   3.118   2.429   0.333
 3730TIP3    H111131   3.194   2.454   0.386
 3730TIP3    H211132   3.055   2.500   0.346
 3731TIP3   OH211133   2.283   7.538   6.323
 3731TIP3    H111134   2.238   7.487   6.391
 3731TIP3    H211135   2.225   7.612   6.305
 3732TIP3   OH211136   0.041   6.945   4.470
 3732TIP3    H111137   0.090   6.964   4.550
 3732TIP3    H211138   0.074   6.860   4.441
 3733TIP3   OH211139   6.768   7.402   1.498
 3733TIP3    H111140   6.799   7.442   1.417
 3733TIP3    H211141   6.763   7.308   1.478
 3734TIP3   OH211142   4.506   7.384   2.490
 3734TIP3    H111143   4.474   7.453   2.549
 3734TIP3    H211144   4.472   7.409   2.404
 3735TIP3   OH211145   1.765   1.878   5.935
 3735TIP3    H111146   1.766   1.918   6.022
 3735TIP3    H211147   1.686   1.911   5.893
 3736TIP3   OH211148   1.392   1.538   4.575
 3736TIP3    H111149   1.330   1.498   4.514
 3736TIP3    H211150   1.472   1.486   4.566
 3737TIP3   OH211151   0.456   6.199   4.387
 3737TIP3    H111152   0.520   6.198   4.458
 3737TIP3    H211153   0.478   6.276   4.335
 3738TIP3   OH211154   2.963   1.009   2.691
 3738TIP3    H111155   2.871   1.020   2.667
 3738TIP3    H211156   2.981   1.080   2.752
 3739TIP3   OH211157   7.362   7.695   6.392
 3739TIP3    H111158   7.297   7.702   6.462
 3739TIP3    H211159   7.405   7.610   6.408
 3740TIP3   OH211160   4.796   5.659   3.809
 3740TIP3    H111161   4.706   5.628   3.804
 3740TIP3    H211162   4.804   5.722   3.737
 3741TIP3   OH211163   1.779   5.791   3.614
 3741TIP3    H111164   1.855   5.777   3.557
 3741TIP3    H211165   1.723   5.851   3.564
 3742TIP3   OH211166   2.546   7.550   5.799
 3742TIP3    H111167   2.527   7.575   5.890
 3742TIP3    H211168   2.460   7.542   5.758
 3743TIP3   OH211169   7.283   5.758   2.567
 3743TIP3    H111170   7.342   5.718   2.630
 3743TIP3    H211171   7.203   5.705   2.571
 3744TIP3   OH211172   2.141   0.421   4.239
 3744TIP3    H111173   2.111   0.421   4.148
 3744TIP3    H211174   2.182   0.335   4.251
 3745TIP3   OH211175   1.092   5.668   5.061
 3745TIP3    H111176   1.020   5.722   5.094
 3745TIP3    H211177   1.149   5.729   5.015
 3746TIP3   OH211178   5.822   6.205   2.707
 3746TIP3    H111179   5.837   6.298   2.723
 3746TIP3    H211180   5.855   6.162   2.786
 3747TIP3   OH211181   2.688   7.358   6.128
 3747TIP3    H111182   2.698   7.279   6.075
 3747TIP3    H211183   2.747   7.422   6.087
 3748TIP3   OH211184   7.231   5.155   3.886
 3748TIP3    H111185   7.164   5.100   3.926
 3748TIP3    H211186   7.189   5.241   3.877
 3749TIP3   OH211187   1.641   4.579   6.597
 3749TIP3    H111188   1.554   4.558   6.565
 3749TIP3    H211189   1.636   4.563   6.691
 3750TIP3   OH211190   0.018   3.930   5.731
 3750TIP3    H111191  -0.015   3.937   5.821
 3750TIP3    H211192  -0.036   3.861   5.692
 3751TIP3   OH211193   3.945   5.622   6.412
 3751TIP3    H111194   3.869   5.677   6.429
 3751TIP3    H211195   4.018   5.668   6.453
 3752TIP3   OH211196   0.366   6.475   4.003
 3752TIP3    H111197   0.282   6.484   3.959
 3752TIP3    H211198   0.431   6.480   3.933
 3753TIP3   OH211199   5.137   7.915   5.627
 3753TIP3    H111200   5.059   7.965   5.652
 3753TIP3    H211201   5.104   7.828   5.605
 3754TIP3   OH211202   5.923   4.990   1.976
 3754TIP3    H111203   5.939   5.070   1.926
 3754TIP3    H211204   5.843   4.954   1.939
 3755TIP3   OH211205   4.367   7.475   3.060
 3755TIP3    H111206   4.321   7.554   3.033
 3755TIP3    H211207   4.382   7.488   3.154
 3756TIP3   OH211208   1.110   2.198   1.042
 3756TIP3    H111209   1.181   2.143   1.008
 3756TIP3    H211210   1.155   2.269   1.088
 3757TIP3   OH211211   0.945   5.098   1.554
 3757TIP3    H111212   1.020   5.048   1.521
 3757TIP3    H211213   0.976   5.136   1.636
 3758TIP3   OH211214   7.319   7.102   1.499
 3758TIP3    H111215   7.369   7.074   1.423
 3758TIP3    H211216   7.382   7.101   1.571
 3759TIP3   OH211217   3.848   5.949   1.009
 3759TIP3    H111218   3.787   5.891   1.053
 3759TIP3    H211219   3.900   5.988   1.079
 3760TIP3   OH211220   4.080   7.119   2.906
 3760TIP3    H111221   4.050   7.195   2.956
 3760TIP3    H211222   4.034   7.125   2.823
 3761TIP3   OH211223   3.890   6.198   1.174
 3761TIP3    H111224   3.943   6.240   1.107
 3761TIP3    H211225   3.918   6.239   1.256
 3762TIP3   OH211226   8.085   1.176   6.724
 3762TIP3    H111227   8.091   1.263   6.683
 3762TIP3    H211228   8.124   1.187   6.811
 3763TIP3   OH211229   1.825   6.436   6.162
 3763TIP3    H111230   1.741   6.457   6.203
 3763TIP3    H211231   1.833   6.497   6.089
 3764TIP3   OH211232   6.852   3.673   2.792
 3764TIP3    H111233   6.863   3.579   2.778
 3764TIP3    H211234   6.785   3.698   2.729
 3765TIP3   OH211235   3.879   3.854   1.678
 3765TIP3    H111236   3.819   3.798   1.630
 3765TIP3    H211237   3.833   3.938   1.685
 3766TIP3   OH211238   0.726   2.905   5.553
 3766TIP3    H111239   0.751   2.880   5.464
 3766TIP3    H211240   0.783   2.854   5.609
 3767TIP3   OH211241   2.295   6.942   2.441
 3767TIP3    H111242   2.207   6.906   2.424
 3767TIP3    H211243   2.291   6.971   2.532
 3768TIP3   OH211244   4.348   1.361   2.977
 3768TIP3    H111245   4.350   1.449   2.939
 3768TIP3    H211246   4.440   1.334   2.980
 3769TIP3   OH211247   6.687   0.971   6.288
 3769TIP3    H111248   6.627   0.900   6.310
 3769TIP3    H211249   6.686   0.973   6.192
 3770TIP3   OH211250   4.599   1.151   6.143
 3770TIP3    H111251   4.692   1.155   6.166
 3770TIP3    H211252   4.557   1.116   6.222
 3771TIP3   OH211253   5.316   0.905   0.699
 3771TIP3    H111254   5.342   0.909   0.606
 3771TIP3    H211255   5.228   0.943   0.700
 3772TIP3   OH211256   2.163   5.977   3.834
 3772TIP3    H111257   2.147   6.061   3.789
 3772TIP3    H211258   2.249   5.949   3.804
 3773TIP3   OH211259   3.713   2.653   1.193
 3773TIP3    H111260   3.749   2.568   1.220
 3773TIP3    H211261   3.638   2.630   1.138
 3774TIP3   OH211262   3.934   1.379   5.993
 3774TIP3    H111263   3.879   1.437   5.940
 3774TIP3    H211264   4.021   1.385   5.954
 3775TIP3   OH211265   4.605   0.567   3.980
 3775TIP3    H111266   4.681   0.541   3.928
 3775TIP3    H211267   4.538   0.503   3.958
 3776TIP3   OH211268   2.354   1.271   3.247
 3776TIP3    H111269   2.420   1.203   3.257
 3776TIP3    H211270   2.372   1.333   3.317
 3777TIP3   OH211271   5.489   3.179   1.170
 3777TIP3    H111272   5.501   3.272   1.188
 3777TIP3    H211273   5.532   3.135   1.243
 3778TIP3   OH211274   0.140   7.319   4.894
 3778TIP3    H111275   0.088   7.303   4.972
 3778TIP3    H211276   0.145   7.414   4.888
 3779TIP3   OH211277   5.949   0.154   1.371
 3779TIP3    H111278   5.944   0.068   1.328
 3779TIP3    H211279   5.858   0.185   1.371
 3780TIP3   OH211280   2.363   5.476   4.833
 3780TIP3    H111281   2.279   5.433   4.852
 3780TIP3    H211282   2.429   5.415   4.867
 3781TIP3   OH211283   5.086   3.400   5.260
 3781TIP3    H111284   5.050   3.440   5.181
 3781TIP3    H211285   5.011   3.391   5.319
 3782TIP3   OH211286   3.347   4.675   6.418
 3782TIP3    H111287   3.356   4.750   6.360
 3782TIP3    H211288   3.349   4.599   6.360
 3783TIP3   OH211289   6.036   7.271   4.120
 3783TIP3    H111290   6.080   7.331   4.181
 3783TIP3    H211291   6.083   7.188   4.131
 3784TIP3   OH211292   4.530   4.021   5.134
 3784TIP3    H111293   4.513   4.060   5.219
 3784TIP3    H211294   4.624   4.035   5.120
 3785TIP3   OH211295   0.848   6.935   0.565
 3785TIP3    H111296   0.774   6.995   0.572
 3785TIP3    H211297   0.922   6.990   0.539
 3786TIP3   OH211298   4.421   4.862   6.627
 3786TIP3    H111299   4.464   4.932   6.676
 3786TIP3    H211300   4.331   4.893   6.616
 3787TIP3   OH211301   0.856   2.684   3.062
 3787TIP3    H111302   0.868   2.732   3.145
 3787TIP3    H211303   0.885   2.595   3.081
 3788TIP3   OH211304   4.398   0.176   1.904
 3788TIP3    H111305   4.353   0.102   1.862
 3788TIP3    H211306   4.401   0.153   1.997
 3789TIP3   OH211307   8.207   5.775   0.039
 3789TIP3    H111308   8.272   5.748  -0.026
 3789TIP3    H211309   8.201   5.870   0.029
 3790TIP3   OH211310   3.266   6.172   0.652
 3790TIP3    H111311   3.304   6.131   0.729
 3790TIP3    H211312   3.326   6.244   0.631
 3791TIP3   OH211313   1.719   5.898   6.143
 3791TIP3    H111314   1.799   5.908   6.091
 3791TIP3    H211315   1.663   5.842   6.091
 3792TIP3   OH211316   2.155   0.441   0.550
 3792TIP3    H111317   2.222   0.493   0.506
 3792TIP3    H211318   2.090   0.505   0.580
 3793TIP3   OH211319   6.978   5.007   2.114
 3793TIP3    H111320   6.963   4.952   2.191
 3793TIP3    H211321   6.891   5.028   2.082
 3794TIP3   OH211322   8.070   5.037   0.721
 3794TIP3    H111323   8.104   5.017   0.808
 3794TIP3    H211324   7.977   5.056   0.736
 3795TIP3   OH211325   3.537   1.386   3.688
 3795TIP3    H111326   3.612   1.355   3.637
 3795TIP3    H211327   3.461   1.349   3.643
 3796TIP3   OH211328   5.085   2.583   6.630
 3796TIP3    H111329   4.993   2.600   6.649
 3796TIP3    H211330   5.129   2.667   6.641
 3797TIP3   OH211331   0.615   0.303   4.176
 3797TIP3    H111332   0.620   0.397   4.164
 3797TIP3    H211333   0.522   0.282   4.167
 3798TIP3   OH211334   5.174   5.561   1.870
 3798TIP3    H111335   5.117   5.509   1.926
 3798TIP3    H211336   5.145   5.651   1.883
 3799TIP3   OH211337   4.592   7.705   4.737
 3799TIP3    H111338   4.522   7.742   4.685
 3799TIP3    H211339   4.548   7.666   4.813
 3800TIP3   OH211340   4.462   2.479   4.742
 3800TIP3    H111341   4.535   2.435   4.785
 3800TIP3    H211342   4.397   2.491   4.810
 3801TIP3   OH211343   4.625   3.748   3.496
 3801TIP3    H111344   4.556   3.796   3.543
 3801TIP3    H211345   4.640   3.800   3.417
 3802TIP3   OH211346   4.310   7.372   0.695
 3802TIP3    H111347   4.231   7.415   0.662
 3802TIP3    H211348   4.278   7.313   0.763
 3803TIP3   OH211349   0.620   6.929   1.410
 3803TIP3    H111350   0.548   6.868   1.425
 3803TIP3    H211351   0.625   6.980   1.491
 3804TIP3   OH211352   3.060   2.766   6.092
 3804TIP3    H111353   3.093   2.802   6.174
 3804TIP3    H211354   3.131   2.712   6.058
 3805TIP3   OH211355   1.945   4.040   4.485
 3805TIP3    H111356   1.917   4.078   4.402
 3805TIP3    H211357   2.039   4.058   4.489
 3806TIP3   OH211358   6.697   2.756   2.513
 3806TIP3    H111359   6.689   2.686   2.578
 3806TIP3    H211360   6.781   2.797   2.533
 3807TIP3   OH211361   1.220   1.785   5.429
 3807TIP3    H111362   1.254   1.731   5.359
 3807TIP3    H211363   1.153   1.731   5.471
 3808TIP3   OH211364   0.413   0.234   0.964
 3808TIP3    H111365   0.412   0.330   0.975
 3808TIP3    H211366   0.355   0.218   0.890
 3809TIP3   OH211367   6.961   3.121   4.082
 3809TIP3    H111368   6.988   3.104   4.173
 3809TIP3    H211369   7.032   3.085   4.029
 3810TIP3   OH211370   2.070   3.615   6.016
 3810TIP3    H111371   2.025   3.665   6.084
 3810TIP3    H211372   2.106   3.539   6.061
 3811TIP3   OH211373   7.645   5.437   4.277
 3811TIP3    H111374   7.637   5.416   4.370
 3811TIP3    H211375   7.732   5.407   4.252
 3812TIP3   OH211376   4.827   4.994   2.440
 3812TIP3    H111377   4.780   4.947   2.508
 3812TIP3    H211378   4.840   4.930   2.371
 3813TIP3   OH211379   3.180   3.424   3.049
 3813TIP3    H111380   3.227   3.396   3.127
 3813TIP3    H211381   3.146   3.343   3.011
 3814TIP3   OH211382   4.669   2.953   6.432
 3814TIP3    H111383   4.720   3.026   6.396
 3814TIP3    H211384   4.614   2.924   6.360
 3815TIP3   OH211385   3.777   4.948   2.214
 3815TIP3    H111386   3.702   4.976   2.161
 3815TIP3    H211387   3.783   5.014   2.284
 3816TIP3   OH211388   6.909   1.932   1.567
 3816TIP3    H111389   6.981   1.991   1.545
 3816TIP3    H211390   6.848   1.987   1.616
 3817TIP3   OH211391   1.461   4.978   1.507
 3817TIP3    H111392   1.482   5.010   1.419
 3817TIP3    H211393   1.430   5.055   1.554
 3818TIP3   OH211394   1.722   6.259   0.197
 3818TIP3    H111395   1.722   6.345   0.239
 3818TIP3    H211396   1.801   6.216   0.229
 3819TIP3   OH211397   1.548   6.929   5.807
 3819TIP3    H111398   1.603   6.987   5.858
 3819TIP3    H211399   1.460   6.965   5.815
 3820TIP3   OH211400   3.103   6.854   0.491
 3820TIP3    H111401   3.038   6.884   0.427
 3820TIP3    H211402   3.112   6.761   0.472
 3821TIP3   OH211403   5.263   7.352   2.618
 3821TIP3    H111404   5.238   7.444   2.607
 3821TIP3    H211405   5.181   7.304   2.620
 3822TIP3   OH211406   4.780   6.245   0.157
 3822TIP3    H111407   4.806   6.171   0.212
 3822TIP3    H211408   4.810   6.322   0.204
 3823TIP3   OH211409   5.912   4.474   0.707
 3823TIP3    H111410   5.971   4.455   0.781
 3823TIP3    H211411   5.834   4.511   0.747
 3824TIP3   OH211412   5.379   6.522   5.477
 3824TIP3    H111413   5.395   6.526   5.383
 3824TIP3    H211414   5.466   6.532   5.516
 3825TIP3   OH211415   7.813   4.086   1.334
 3825TIP3    H111416   7.895   4.050   1.300
 3825TIP3    H211417   7.818   4.071   1.428
 3826TIP3   OH211418   1.498   0.115   0.594
 3826TIP3    H111419   1.540   0.103   0.679
 3826TIP3    H211420   1.455   0.032   0.576
 3827TIP3   OH211421   3.695   6.640   3.167
 3827TIP3    H111422   3.700   6.604   3.255
 3827TIP3    H211423   3.730   6.729   3.176
 3828TIP3   OH211424   1.043   4.592   1.001
 3828TIP3    H111425   1.117   4.553   0.954
 3828TIP3    H211426   0.966   4.550   0.963
 3829TIP3   OH211427   1.285   4.750   3.365
 3829TIP3    H111428   1.372   4.712   3.376
 3829TIP3    H211429   1.250   4.706   3.288
 3830TIP3   OH211430   7.118   7.747   6.527
 3830TIP3    H111431   7.070   7.819   6.568
 3830TIP3    H211432   7.067   7.725   6.448
 3831TIP3   OH211433   2.285   0.709   2.373
 3831TIP3    H111434   2.301   0.775   2.306
 3831TIP3    H211435   2.190   0.695   2.370
 3832TIP3   OH211436   5.002   2.441   4.476
 3832TIP3    H111437   5.054   2.503   4.528
 3832TIP3    H211438   4.994   2.483   4.390
 3833TIP3   OH211439   0.215   1.828   0.383
 3833TIP3    H111440   0.167   1.878   0.317
 3833TIP3    H211441   0.162   1.749   0.396
 3834TIP3   OH211442   4.042   7.589   3.129
 3834TIP3    H111443   3.993   7.640   3.194
 3834TIP3    H211444   4.118   7.644   3.109
 3835TIP3   OH211445   0.493   1.593   0.544
 3835TIP3    H111446   0.405   1.556   0.535
 3835TIP3    H211447   0.479   1.684   0.569
 3836TIP3   OH211448   7.719   7.539   5.118
 3836TIP3    H111449   7.685   7.458   5.081
 3836TIP3    H211450   7.777   7.511   5.188
 3837TIP3   OH211451   6.387   3.780   5.069
 3837TIP3    H111452   6.341   3.738   5.141
 3837TIP3    H211453   6.333   3.763   4.992
 3838TIP3   OH211454   3.620   0.577   6.026
 3838TIP3    H111455   3.670   0.578   5.945
 3838TIP3    H211456   3.530   0.593   5.999
 3839TIP3   OH211457   6.325   5.655   5.925
 3839TIP3    H111458   6.374   5.573   5.923
 3839TIP3    H211459   6.271   5.649   6.004
 3840TIP3   OH211460   1.805   7.696   4.132
 3840TIP3    H111461   1.771   7.617   4.173
 3840TIP3    H211462   1.889   7.712   4.176
 3841TIP3   OH211463   4.845   0.698   0.782
 3841TIP3    H111464   4.865   0.785   0.747
 3841TIP3    H211465   4.851   0.640   0.706
 3842TIP3   OH211466   4.132   1.222   4.296
 3842TIP3    H111467   4.047   1.193   4.263
 3842TIP3    H211468   4.157   1.154   4.360
 3843TIP3   OH211469   3.847   1.433   4.044
 3843TIP3    H111470   3.793   1.491   4.098
 3843TIP3    H211471   3.815   1.447   3.954
 3844TIP3   OH211472   8.112   3.793   5.828
 3844TIP3    H111473   8.046   3.862   5.832
 3844TIP3    H211474   8.086   3.739   5.753
 3845TIP3   OH211475   4.056   6.363   2.725
 3845TIP3    H111476   4.141   6.405   2.713
 3845TIP3    H211477   4.008   6.380   2.644
 3846TIP3   OH211478   2.692   1.138   0.741
 3846TIP3    H111479   2.669   1.161   0.651
 3846TIP3    H211480   2.617   1.167   0.793
 3847TIP3   OH211481   2.877   1.287   0.912
 3847TIP3    H111482   2.937   1.359   0.896
 3847TIP3    H211483   2.824   1.282   0.832
 3848TIP3   OH211484   1.800   0.195   2.108
 3848TIP3    H111485   1.883   0.173   2.066
 3848TIP3    H211486   1.733   0.169   2.045
 3849TIP3   OH211487   0.875   6.689   3.492
 3849TIP3    H111488   0.817   6.618   3.519
 3849TIP3    H211489   0.887   6.675   3.398
 3850TIP3   OH211490   5.070   4.672   6.430
 3850TIP3    H111491   5.101   4.583   6.413
 3850TIP3    H211492   5.129   4.704   6.499
 3851TIP3   OH211493   2.381   4.640   1.264
 3851TIP3    H111494   2.351   4.612   1.350
 3851TIP3    H211495   2.459   4.693   1.282
 3852TIP3   OH211496   2.540   4.633   3.775
 3852TIP3    H111497   2.571   4.721   3.755
 3852TIP3    H211498   2.576   4.614   3.862
 3853TIP3   OH211499   3.296   3.764   3.472
 3853TIP3    H111500   3.335   3.831   3.529
 3853TIP3    H211501   3.362   3.749   3.405
 3854TIP3   OH211502   3.188   1.986   2.005
 3854TIP3    H111503   3.250   2.014   2.072
 3854TIP3    H211504   3.201   1.891   1.999
 3855TIP3   OH211505   3.477   3.927   5.832
 3855TIP3    H111506   3.394   3.960   5.866
 3855TIP3    H211507   3.479   3.955   5.741
 3856TIP3   OH211508   6.830   6.752   3.562
 3856TIP3    H111509   6.778   6.730   3.485
 3856TIP3    H211510   6.903   6.804   3.528
 3857TIP3   OH211511   6.353   0.291   3.741
 3857TIP3    H111512   6.361   0.197   3.722
 3857TIP3    H211513   6.280   0.296   3.803
 3858TIP3   OH211514   3.054   5.230   3.472
 3858TIP3    H111515   3.027   5.197   3.386
 3858TIP3    H211516   2.980   5.208   3.530
 3859TIP3   OH211517   3.306   2.659   1.720
 3859TIP3    H111518   3.383   2.629   1.671
 3859TIP3    H211519   3.342   2.705   1.796
 3860TIP3   OH211520   0.761   4.856   3.579
 3860TIP3    H111521   0.676   4.847   3.622
 3860TIP3    H211522   0.825   4.856   3.650
 3861TIP3   OH211523   6.726   3.165   1.402
 3861TIP3    H111524   6.690   3.228   1.465
 3861TIP3    H211525   6.714   3.080   1.445
 3862TIP3   OH211526   5.370   0.267   0.403
 3862TIP3    H111527   5.302   0.236   0.463
 3862TIP3    H211528   5.419   0.188   0.380
 3863TIP3   OH211529   7.661   7.696   5.908
 3863TIP3    H111530   7.715   7.673   5.983
 3863TIP3    H211531   7.574   7.662   5.929
 3864TIP3   OH211532   5.312   3.006   4.421
 3864TIP3    H111533   5.271   3.091   4.405
 3864TIP3    H211534   5.250   2.942   4.387
 3865TIP3   OH211535   1.717   6.251   3.127
 3865TIP3    H111536   1.634   6.205   3.117
 3865TIP3    H211537   1.771   6.219   3.055
 3866TIP3   OH211538   2.152   2.593   3.355
 3866TIP3    H111539   2.213   2.564   3.287
 3866TIP3    H211540   2.207   2.616   3.429
 3867TIP3   OH211541   2.967   2.103   1.712
 3867TIP3    H111542   2.934   2.082   1.800
 3867TIP3    H211543   3.062   2.099   1.721
 3868TIP3   OH211544   0.228   2.989   4.753
 3868TIP3    H111545   0.195   2.941   4.677
 3868TIP3    H211546   0.185   2.948   4.828
 3869TIP3   OH211547   5.043   7.412   3.920
 3869TIP3    H111548   4.984   7.486   3.934
 3869TIP3    H211549   5.016   7.376   3.835
 3870TIP3   OH211550   4.112   7.647   1.523
 3870TIP3    H111551   4.026   7.655   1.482
 3870TIP3    H211552   4.115   7.557   1.554
 3871TIP3   OH211553   1.328   7.843   6.292
 3871TIP3    H111554   1.376   7.863   6.372
 3871TIP3    H211555   1.290   7.927   6.265
 3872TIP3   OH211556   8.232   7.657   0.511
 3872TIP3    H111557   8.246   7.573   0.468
 3872TIP3    H211558   8.319   7.697   0.513
 3873TIP3   OH211559   2.185   6.343   2.966
 3873TIP3    H111560   2.140   6.336   2.881
 3873TIP3    H211561   2.198   6.437   2.977
 3874TIP3   OH211562   3.000   0.740   4.895
 3874TIP3    H111563   3.037   0.653   4.915
 3874TIP3    H211564   2.911   0.737   4.930
 3875TIP3   OH211565   2.059   1.072   2.670
 3875TIP3    H111566   2.086   1.126   2.744
 3875TIP3    H211567   2.136   1.019   2.650
 3876TIP3   OH211568   6.573   0.875   5.013
 3876TIP3    H111569   6.520   0.839   5.084
 3876TIP3    H211570   6.512   0.882   4.939
 3877TIP3   OH211571   0.752   2.447   1.171
 3877TIP3    H111572   0.821   2.511   1.150
 3877TIP3    H211573   0.683   2.500   1.211
 3878TIP3   OH211574   7.033   5.600   4.682
 3878TIP3    H111575   7.057   5.648   4.762
 3878TIP3    H211576   6.940   5.618   4.671
 3879TIP3   OH211577   0.277   5.843   0.142
 3879TIP3    H111578   0.242   5.834   0.053
 3879TIP3    H211579   0.203   5.875   0.194
 3880TIP3   OH211580   2.212   1.910   3.391
 3880TIP3    H111581   2.124   1.904   3.353
 3880TIP3    H211582   2.270   1.871   3.326
 3881TIP3   OH211583   3.653   5.513   0.041
 3881TIP3    H111584   3.656   5.438   0.101
 3881TIP3    H211585   3.745   5.536   0.027
 3882TIP3   OH211586   0.110   0.652   4.078
 3882TIP3    H111587   0.034   0.688   4.123
 3882TIP3    H211588   0.081   0.639   3.988
 3883TIP3   OH211589   3.781   6.305   4.712
 3883TIP3    H111590   3.805   6.282   4.802
 3883TIP3    H211591   3.703   6.359   4.721
 3884TIP3   OH211592   5.714   3.163   3.303
 3884TIP3    H111593   5.751   3.249   3.322
 3884TIP3    H211594   5.673   3.136   3.385
 3885TIP3   OH211595   0.986   0.745   6.402
 3885TIP3    H111596   0.952   0.675   6.459
 3885TIP3    H211597   0.957   0.826   6.443
 3886TIP3   OH211598   5.340   6.520   0.020
 3886TIP3    H111599   5.254   6.503  -0.018
 3886TIP3    H211600   5.327   6.506   0.114
 3887TIP3   OH211601   4.664   6.133   2.551
 3887TIP3    H111602   4.684   6.040   2.535
 3887TIP3    H211603   4.728   6.160   2.617
 3888TIP3   OH211604   5.671   1.167   2.925
 3888TIP3    H111605   5.636   1.251   2.895
 3888TIP3    H211606   5.670   1.111   2.848
 3889TIP3   OH211607   1.619   5.149   5.666
 3889TIP3    H111608   1.611   5.063   5.625
 3889TIP3    H211609   1.591   5.210   5.598
 3890TIP3   OH211610   5.164   3.905   2.249
 3890TIP3    H111611   5.112   3.982   2.269
 3890TIP3    H211612   5.190   3.918   2.157
 3891TIP3   OH211613   0.660   1.487   6.191
 3891TIP3    H111614   0.756   1.486   6.193
 3891TIP3    H211615   0.638   1.520   6.104
 3892TIP3   OH211616   1.215   2.946   1.971
 3892TIP3    H111617   1.143   2.908   2.020
 3892TIP3    H211618   1.203   2.913   1.881
 3893TIP3   OH211619   7.728   3.605   0.643
 3893TIP3    H111620   7.764   3.683   0.687
 3893TIP3    H211621   7.647   3.586   0.691
 3894TIP3   OH211622   7.237   4.352   5.083
 3894TIP3    H111623   7.223   4.433   5.132
 3894TIP3    H211624   7.150   4.315   5.072
 3895TIP3   OH211625   4.821   3.210   3.634
 3895TIP3    H111626   4.785   3.144   3.693
 3895TIP3    H211627   4.816   3.292   3.685
 3896TIP3   OH211628   2.050   5.003   5.978
 3896TIP3    H111629   2.029   5.060   5.904
 3896TIP3    H211630   1.977   5.014   6.039
 3897TIP3   OH211631   1.603   0.573   5.374
 3897TIP3    H111632   1.571   0.489   5.405
 3897TIP3    H211633   1.691   0.554   5.340
 3898TIP3   OH211634   6.398   2.939   3.699
 3898TIP3    H111635   6.454   3.015   3.684
 3898TIP3    H211636   6.367   2.914   3.611
 3899TIP3   OH211637   0.845   1.675   5.339
 3899TIP3    H111638   0.855   1.630   5.255
 3899TIP3    H211639   0.904   1.628   5.399
 3900TIP3   OH211640   3.588   1.618   1.085
 3900TIP3    H111641   3.575   1.557   1.158
 3900TIP3    H211642   3.617   1.562   1.013
 3901TIP3   OH211643   7.979   0.185   1.278
 3901TIP3    H111644   7.998   0.091   1.268
 3901TIP3    H211645   7.921   0.189   1.354
 3902TIP3   OH211646   8.001   4.169   1.913
 3902TIP3    H111647   8.079   4.114   1.924
 3902TIP3    H211648   8.020   4.248   1.964
 3903TIP3   OH211649   7.228   1.191   3.047
 3903TIP3    H111650   7.172   1.163   2.974
 3903TIP3    H211651   7.168   1.238   3.106
 3904TIP3   OH211652   5.127   3.194   2.042
 3904TIP3    H111653   5.112   3.167   2.132
 3904TIP3    H211654   5.186   3.127   2.007
 3905TIP3   OH211655   1.540   0.141   4.023
 3905TIP3    H111656   1.537   0.201   3.948
 3905TIP3    H211657   1.450   0.141   4.057
 3906TIP3   OH211658   4.100   7.273   3.607
 3906TIP3    H111659   4.177   7.323   3.636
 3906TIP3    H211660   4.120   7.248   3.517
 3907TIP3   OH211661   5.977   6.222   1.503
 3907TIP3    H111662   5.926   6.253   1.577
 3907TIP3    H211663   6.028   6.298   1.475
 3908TIP3   OH211664   8.004   5.089   4.895
 3908TIP3    H111665   7.948   5.091   4.973
 3908TIP3    H211666   7.948   5.049   4.828
 3909TIP3   OH211667   4.112   5.373   0.326
 3909TIP3    H111668   4.060   5.347   0.402
 3909TIP3    H211669   4.064   5.446   0.288
 3910TIP3   OH211670   7.470   4.984   0.906
 3910TIP3    H111671   7.492   4.908   0.851
 3910TIP3    H211672   7.529   5.053   0.875
 3911TIP3   OH211673   1.641   2.181   0.489
 3911TIP3    H111674   1.719   2.144   0.529
 3911TIP3    H211675   1.669   2.206   0.401
 3912TIP3   OH211676   5.640   0.363   5.509
 3912TIP3    H111677   5.658   0.455   5.525
 3912TIP3    H211678   5.548   0.352   5.534
 3913TIP3   OH211679   5.141   2.742   3.876
 3913TIP3    H111680   5.132   2.809   3.808
 3913TIP3    H211681   5.079   2.674   3.851
 3914TIP3   OH211682   7.051   5.883   1.653
 3914TIP3    H111683   7.021   5.885   1.743
 3914TIP3    H211684   6.971   5.870   1.601
 3915TIP3   OH211685   1.745   1.830   0.871
 3915TIP3    H111686   1.657   1.793   0.865
 3915TIP3    H211687   1.764   1.829   0.965
 3916TIP3   OH211688   2.555   0.073   4.721
 3916TIP3    H111689   2.497   0.083   4.646
 3916TIP3    H211690   2.642   0.096   4.687
 3917TIP3   OH211691   0.361   3.310   5.084
 3917TIP3    H111692   0.306   3.328   5.007
 3917TIP3    H211693   0.358   3.390   5.136
 3918TIP3   OH211694   0.726   3.144   1.771
 3918TIP3    H111695   0.684   3.058   1.782
 3918TIP3    H211696   0.727   3.158   1.677
 3919TIP3   OH211697   2.158   7.079   1.431
 3919TIP3    H111698   2.101   7.035   1.495
 3919TIP3    H211699   2.220   7.011   1.404
 3920TIP3   OH211700   2.688   6.069   6.160
 3920TIP3    H111701   2.728   6.007   6.222
 3920TIP3    H211702   2.748   6.144   6.160
 3921TIP3   OH211703   1.925   2.744   4.290
 3921TIP3    H111704   1.962   2.833   4.294
 3921TIP3    H211705   1.967   2.704   4.214
 3922TIP3   OH211706   2.403   6.283   3.118
 3922TIP3    H111707   2.485   6.325   3.090
 3922TIP3    H211708   2.352   6.273   3.038
 3923TIP3   OH211709   4.068   1.408   1.565
 3923TIP3    H111710   4.117   1.333   1.598
 3923TIP3    H211711   4.071   1.399   1.470
 3924TIP3   OH211712   0.350   7.401   3.166
 3924TIP3    H111713   0.327   7.384   3.075
 3924TIP3    H211714   0.372   7.494   3.169
 3925TIP3   OH211715   0.607   5.943   4.494
 3925TIP3    H111716   0.574   5.937   4.404
 3925TIP3    H211717   0.622   5.852   4.520
 3926TIP3   OH211718   5.408   0.162   5.968
 3926TIP3    H111719   5.451   0.165   6.054
 3926TIP3    H211720   5.479   0.144   5.907
 3927TIP3   OH211721   8.085   3.179   5.410
 3927TIP3    H111722   8.044   3.095   5.389
 3927TIP3    H211723   8.178   3.158   5.422
 3928TIP3   OH211724   6.518   2.011   3.207
 3928TIP3    H111725   6.609   1.984   3.223
 3928TIP3    H211726   6.471   1.984   3.286
 3929TIP3   OH211727   2.910   6.041   6.668
 3929TIP3    H111728   2.877   6.091   6.594
 3929TIP3    H211729   2.976   5.982   6.630
 3930TIP3   OH211730   2.468   7.701   1.264
 3930TIP3    H111731   2.486   7.795   1.273
 3930TIP3    H211732   2.544   7.659   1.304
 3931TIP3   OH211733   6.401   7.045   1.078
 3931TIP3    H111734   6.313   7.075   1.098
 3931TIP3    H211735   6.432   7.006   1.160
 3932TIP3   OH211736   0.317   1.862   4.590
 3932TIP3    H111737   0.396   1.912   4.612
 3932TIP3    H211738   0.349   1.790   4.535
 3933TIP3   OH211739   5.069   3.858   1.255
 3933TIP3    H111740   4.978   3.870   1.281
 3933TIP3    H211741   5.070   3.776   1.206
 3934TIP3   OH211742   1.904   3.462   5.833
 3934TIP3    H111743   1.821   3.508   5.836
 3934TIP3    H211744   1.967   3.522   5.873
 3935TIP3   OH211745   8.300   4.605   0.242
 3935TIP3    H111746   8.339   4.668   0.182
 3935TIP3    H211747   8.223   4.650   0.277
 3936TIP3   OH211748   0.277   1.236   1.234
 3936TIP3    H111749   0.310   1.249   1.145
 3936TIP3    H211750   0.237   1.319   1.257
 3937TIP3   OH211751   6.976   5.127   4.825
 3937TIP3    H111752   6.987   5.034   4.845
 3937TIP3    H211753   6.882   5.140   4.823
 3938TIP3   OH211754   5.994   1.469   5.745
 3938TIP3    H111755   6.010   1.376   5.725
 3938TIP3    H211756   5.963   1.506   5.663
 3939TIP3   OH211757   5.193   6.396   4.912
 3939TIP3    H111758   5.098   6.392   4.897
 3939TIP3    H211759   5.202   6.415   5.005
 3940TIP3   OH211760   4.717   4.505   5.086
 3940TIP3    H111761   4.644   4.547   5.039
 3940TIP3    H211762   4.773   4.472   5.016
 3941TIP3   OH211763   1.010   3.106   6.427
 3941TIP3    H111764   1.007   3.020   6.469
 3941TIP3    H211765   0.918   3.131   6.415
 3942TIP3   OH211766   6.977   6.368   5.104
 3942TIP3    H111767   6.885   6.388   5.119
 3942TIP3    H211768   7.004   6.316   5.179
 3943TIP3   OH211769   6.762   5.066   3.260
 3943TIP3    H111770   6.808   5.067   3.176
 3943TIP3    H211771   6.830   5.087   3.324
 3944TIP3   OH211772   4.771   7.494   5.698
 3944TIP3    H111773   4.803   7.403   5.705
 3944TIP3    H211774   4.745   7.516   5.787
 3945TIP3   OH211775   8.083   0.808   3.440
 3945TIP3    H111776   8.025   0.883   3.431
 3945TIP3    H211777   8.159   0.830   3.386
 3946TIP3   OH211778   3.807   4.842   2.992
 3946TIP3    H111779   3.782   4.749   2.985
 3946TIP3    H211780   3.881   4.851   2.932
 3947TIP3   OH211781   6.174   1.754   4.036
 3947TIP3    H111782   6.168   1.839   3.993
 3947TIP3    H211783   6.259   1.756   4.080
 3948TIP3   OH211784   2.628   3.640   0.379
 3948TIP3    H111785   2.707   3.695   0.381
 3948TIP3    H211786   2.583   3.666   0.299
 3949TIP3   OH211787   5.408   5.993   4.810
 3949TIP3    H111788   5.442   6.057   4.873
 3949TIP3    H211789   5.438   5.909   4.844
 3950TIP3   OH211790   1.141   6.768   2.362
 3950TIP3    H111791   1.118   6.716   2.439
 3950TIP3    H211792   1.230   6.798   2.379
 3951TIP3   OH211793   4.048   0.259   0.299
 3951TIP3    H111794   3.956   0.283   0.287
 3951TIP3    H211795   4.096   0.340   0.280
 3952TIP3   OH211796   2.303   5.881   0.668
 3952TIP3    H111797   2.307   5.826   0.746
 3952TIP3    H211798   2.263   5.962   0.697
 3953TIP3   OH211799   6.965   3.492   3.734
 3953TIP3    H111800   7.020   3.419   3.762
 3953TIP3    H211801   6.929   3.527   3.816
 3954TIP3   OH211802   0.877   5.121   2.401
 3954TIP3    H111803   0.845   5.064   2.331
 3954TIP3    H211804   0.819   5.197   2.399
 3955TIP3   OH211805   5.638   3.565   3.491
 3955TIP3    H111806   5.682   3.639   3.449
 3955TIP3    H211807   5.663   3.572   3.583
 3956TIP3   OH211808   5.631   5.703   1.356
 3956TIP3    H111809   5.666   5.711   1.267
 3956TIP3    H211810   5.709   5.704   1.412
 3957TIP3   OH211811   5.936   2.064   3.179
 3957TIP3    H111812   5.985   2.048   3.259
 3957TIP3    H211813   5.912   1.977   3.147
 3958TIP3   OH211814   2.990   1.640   2.063
 3958TIP3    H111815   2.992   1.544   2.064
 3958TIP3    H211816   3.066   1.665   2.010
 3959TIP3   OH211817   2.122   7.423   3.422
 3959TIP3    H111818   2.139   7.506   3.466
 3959TIP3    H211819   2.028   7.407   3.436
 3960TIP3   OH211820   2.395   2.704   6.459
 3960TIP3    H111821   2.361   2.731   6.374
 3960TIP3    H211822   2.324   2.722   6.520
 3961TIP3   OH211823   3.337   7.215   5.461
 3961TIP3    H111824   3.383   7.254   5.387
 3961TIP3    H211825   3.318   7.126   5.434
 3962TIP3   OH211826   3.082   3.925   3.335
 3962TIP3    H111827   3.146   3.856   3.354
 3962TIP3    H211828   3.051   3.905   3.247
 3963TIP3   OH211829   5.046   7.200   1.538
 3963TIP3    H111830   5.076   7.271   1.596
 3963TIP3    H211831   5.124   7.174   1.490
 3964TIP3   OH211832   0.629   7.723   2.939
 3964TIP3    H111833   0.584   7.646   2.905
 3964TIP3    H211834   0.568   7.795   2.925
 3965TIP3   OH211835   1.195   7.865   6.731
 3965TIP3    H111836   1.174   7.956   6.753
 3965TIP3    H211837   1.111   7.826   6.706
 3966TIP3   OH211838   1.809   4.764   5.251
 3966TIP3    H111839   1.843   4.676   5.233
 3966TIP3    H211840   1.801   4.768   5.346
 3967TIP3   OH211841   1.216   7.563   5.011
 3967TIP3    H111842   1.225   7.653   5.043
 3967TIP3    H211843   1.181   7.573   4.923
 3968TIP3   OH211844   2.088   7.131   6.063
 3968TIP3    H111845   2.129   7.049   6.092
 3968TIP3    H211846   2.054   7.171   6.143
 3969TIP3   OH211847   3.397   5.676   4.753
 3969TIP3    H111848   3.400   5.668   4.657
 3969TIP3    H211849   3.466   5.616   4.783
 3970TIP3   OH211850   8.268   1.524   4.901
 3970TIP3    H111851   8.292   1.501   4.991
 3970TIP3    H211852   8.291   1.616   4.894
 3971TIP3   OH211853   7.624   3.906   1.618
 3971TIP3    H111854   7.560   3.974   1.596
 3971TIP3    H211855   7.591   3.867   1.699
 3972TIP3   OH211856   8.219   0.829   3.825
 3972TIP3    H111857   8.288   0.773   3.861
 3972TIP3    H211858   8.139   0.777   3.835
 3973TIP3   OH211859   5.243   2.840   6.645
 3973TIP3    H111860   5.267   2.897   6.573
 3973TIP3    H211861   5.323   2.831   6.697
 3974TIP3   OH211862   2.319   1.258   6.412
 3974TIP3    H111863   2.370   1.261   6.492
 3974TIP3    H211864   2.384   1.252   6.342
 3975TIP3   OH211865   1.272   3.600   3.082
 3975TIP3    H111866   1.316   3.594   2.998
 3975TIP3    H211867   1.208   3.671   3.072
 3976TIP3   OH211868   1.203   3.795   5.129
 3976TIP3    H111869   1.185   3.792   5.223
 3976TIP3    H211870   1.120   3.825   5.090
 3977TIP3   OH211871   2.209   3.338   4.960
 3977TIP3    H111872   2.202   3.283   5.038
 3977TIP3    H211873   2.155   3.415   4.980
 3978TIP3   OH211874   7.998   5.486   0.604
 3978TIP3    H111875   7.953   5.456   0.525
 3978TIP3    H211876   8.070   5.423   0.615
 3979TIP3   OH211877   1.729   3.836   1.373
 3979TIP3    H111878   1.778   3.891   1.434
 3979TIP3    H211879   1.777   3.753   1.372
 3980TIP3   OH211880   4.846   5.137   2.881
 3980TIP3    H111881   4.768   5.081   2.878
 3980TIP3    H211882   4.865   5.146   2.975
 3981TIP3   OH211883   0.931   4.880   3.060
 3981TIP3    H111884   0.898   4.790   3.051
 3981TIP3    H211885   0.867   4.934   3.014
 3982TIP3   OH211886   1.539   3.267   4.849
 3982TIP3    H111887   1.516   3.258   4.941
 3982TIP3    H211888   1.552   3.177   4.818
 3983TIP3   OH211889   0.114   3.288   2.048
 3983TIP3    H111890   0.131   3.249   1.963
 3983TIP3    H211891   0.085   3.215   2.103
 3984TIP3   OH211892   8.364   7.660   6.526
 3984TIP3    H111893   8.456   7.634   6.535
 3984TIP3    H211894   8.359   7.701   6.440
 3985TIP3   OH211895   1.893   3.527   2.336
 3985TIP3    H111896   1.822   3.565   2.284
 3985TIP3    H211897   1.967   3.586   2.321
 3986TIP3   OH211898   6.338   1.492   2.267
 3986TIP3    H111899   6.359   1.418   2.209
 3986TIP3    H211900   6.396   1.481   2.342
 3987TIP3   OH211901   1.533   4.591   3.410
 3987TIP3    H111902   1.559   4.506   3.375
 3987TIP3    H211903   1.574   4.595   3.496
 3988TIP3   OH211904   1.362   1.942   1.493
 3988TIP3    H111905   1.321   1.926   1.578
 3988TIP3    H211906   1.376   2.037   1.490
 3989TIP3   OH211907   6.409   0.821   4.568
 3989TIP3    H111908   6.370   0.777   4.492
 3989TIP3    H211909   6.424   0.911   4.539
 3990TIP3   OH211910   2.434   1.918   4.862
 3990TIP3    H111911   2.504   1.930   4.798
 3990TIP3    H211912   2.472   1.946   4.945
 3991TIP3   OH211913   0.365   0.220   2.451
 3991TIP3    H111914   0.413   0.163   2.510
 3991TIP3    H211915   0.308   0.272   2.508
 3992TIP3   OH211916   4.519   2.775   1.403
 3992TIP3    H111917   4.580   2.841   1.369
 3992TIP3    H211918   4.555   2.691   1.375
 3993TIP3   OH211919   7.713   3.037   0.944
 3993TIP3    H111920   7.785   2.987   0.905
 3993TIP3    H211921   7.727   3.126   0.914
 3994TIP3   OH211922   8.045   4.174   4.647
 3994TIP3    H111923   7.962   4.176   4.695
 3994TIP3    H211924   8.019   4.168   4.555
 3995TIP3   OH211925   1.188   3.566   1.415
 3995TIP3    H111926   1.167   3.485   1.368
 3995TIP3    H211927   1.253   3.610   1.360
 3996TIP3   OH211928   2.408   2.167   5.072
 3996TIP3    H111929   2.368   2.199   4.992
 3996TIP3    H211930   2.458   2.242   5.106
 3997TIP3   OH211931   0.423   0.990   6.296
 3997TIP3    H111932   0.380   0.974   6.380
 3997TIP3    H211933   0.441   1.084   6.295
 3998TIP3   OH211934   1.646   5.826   4.232
 3998TIP3    H111935   1.655   5.745   4.283
 3998TIP3    H211936   1.728   5.832   4.183
 3999TIP3   OH211937   6.021   1.568   3.902
 3999TIP3    H111938   6.079   1.629   3.948
 3999TIP3    H211939   6.080   1.504   3.862
 4000TIP3   OH211940   1.277   5.287   1.788
 4000TIP3    H111941   1.211   5.335   1.738
 4000TIP3    H211942   1.263   5.195   1.762
 4001TIP3   OH211943   6.329   4.865   2.333
 4001TIP3    H111944   6.274   4.941   2.313
 4001TIP3    H211945   6.286   4.823   2.407
 4002TIP3   OH211946   6.680   3.151   6.341
 4002TIP3    H111947   6.591   3.159   6.375
 4002TIP3    H211948   6.736   3.152   6.419
 4003TIP3   OH211949   4.130   1.149   2.603
 4003TIP3    H111950   4.140   1.215   2.672
 4003TIP3    H211951   4.084   1.194   2.533
 4004TIP3   OH211952   3.244   1.677   0.019
 4004TIP3    H111953   3.291   1.652  -0.061
 4004TIP3    H211954   3.167   1.620   0.020
 4005TIP3   OH211955   6.927   1.382   2.018
 4005TIP3    H111956   6.971   1.462   2.047
 4005TIP3    H211957   6.991   1.340   1.959
 4006TIP3   OH211958   0.411   1.329   6.046
 4006TIP3    H111959   0.385   1.248   6.002
 4006TIP3    H211960   0.500   1.345   6.016
 4007TIP3   OH211961   0.160   2.103   5.418
 4007TIP3    H111962   0.173   2.182   5.470
 4007TIP3    H211963   0.109   2.045   5.475
 4008TIP3   OH211964   1.802   5.189   3.095
 4008TIP3    H111965   1.799   5.100   3.062
 4008TIP3    H211966   1.824   5.180   3.188
 4009TIP3   OH211967   2.017   0.455   6.522
 4009TIP3    H111968   1.978   0.533   6.562
 4009TIP3    H211969   2.084   0.490   6.463
 4010TIP3   OH211970   6.533   2.855   1.955
 4010TIP3    H111971   6.546   2.927   2.017
 4010TIP3    H211972   6.527   2.777   2.010
 4011TIP3   OH211973   5.438   0.267   1.512
 4011TIP3    H111974   5.468   0.176   1.518
 4011TIP3    H211975   5.367   0.264   1.448
 4012TIP3   OH211976   8.350   4.561   5.420
 4012TIP3    H111977   8.440   4.528   5.426
 4012TIP3    H211978   8.307   4.501   5.360
 4013TIP3   OH211979   5.041   0.837   2.983
 4013TIP3    H111980   5.041   0.836   3.078
 4013TIP3    H211981   5.097   0.911   2.960
 4014TIP3   OH211982   4.855   0.098   3.069
 4014TIP3    H111983   4.865   0.193   3.072
 4014TIP3    H211984   4.866   0.076   2.976
 4015TIP3   OH211985   4.868   2.934   2.489
 4015TIP3    H111986   4.868   3.015   2.539
 4015TIP3    H211987   4.942   2.884   2.523
 4016TIP3   OH211988   0.314   1.249   6.503
 4016TIP3    H111989   0.402   1.271   6.472
 4016TIP3    H211990   0.328   1.211   6.590
 4017TIP3   OH211991   2.264   7.900   0.761
 4017TIP3    H111992   2.175   7.868   0.769
 4017TIP3    H211993   2.319   7.822   0.769
 4018TIP3   OH211994   6.869   1.668   3.907
 4018TIP3    H111995   6.807   1.611   3.861
 4018TIP3    H211996   6.909   1.721   3.838
 4019TIP3   OH211997   3.318   2.404   2.862
 4019TIP3    H111998   3.319   2.498   2.882
 4019TIP3    H211999   3.263   2.366   2.931
 4020TIP3   OH212000   0.417   3.435   5.589
 4020TIP3    H112001   0.404   3.522   5.626
 4020TIP3    H212002   0.512   3.421   5.595
 4021TIP3   OH212003   1.182   2.006   5.029
 4021TIP3    H112004   1.131   2.012   5.109
 4021TIP3    H212005   1.134   2.060   4.966
 4022TIP3   OH212006   1.647   7.328   5.191
 4022TIP3    H112007   1.604   7.397   5.140
 4022TIP3    H212008   1.611   7.337   5.279
 4023TIP3   OH212009   3.865   0.966   3.391
 4023TIP3    H112010   3.896   0.948   3.303
 4023TIP3    H212011   3.842   0.879   3.426
 4024TIP3   OH212012   6.318   3.134   1.943
 4024TIP3    H112013   6.241   3.165   1.896
 4024TIP3    H212014   6.317   3.039   1.930
 4025TIP3   OH212015   8.365   3.074   3.463
 4025TIP3    H112016   8.342   3.016   3.390
 4025TIP3    H212017   8.313   3.042   3.537
 4026TIP3   OH212018   4.982   3.048   4.045
 4026TIP3    H112019   5.029   3.009   4.119
 4026TIP3    H212020   5.041   3.037   3.971
 4027TIP3   OH212021   3.938   6.069   4.250
 4027TIP3    H112022   3.889   6.091   4.330
 4027TIP3    H212023   3.975   5.982   4.269
 4028TIP3   OH212024   3.936   2.332   0.142
 4028TIP3    H112025   3.952   2.317   0.049
 4028TIP3    H212026   3.841   2.331   0.151
 4029TIP3   OH212027   5.154   6.763   4.111
 4029TIP3    H112028   5.233   6.797   4.153
 4029TIP3    H212029   5.186   6.716   4.034
 4030TIP3   OH212030   8.256   1.818   4.119
 4030TIP3    H112031   8.169   1.781   4.133
 4030TIP3    H212032   8.264   1.887   4.185
 4031TIP3   OH212033   1.461   0.907   2.225
 4031TIP3    H112034   1.472   0.949   2.310
 4031TIP3    H212035   1.462   0.813   2.244
 4032TIP3   OH212036   5.504   5.816   5.744
 4032TIP3    H112037   5.518   5.849   5.656
 4032TIP3    H212038   5.459   5.733   5.733
 4033TIP3   OH212039   6.963   6.555   4.135
 4033TIP3    H112040   6.915   6.518   4.209
 4033TIP3    H212041   7.023   6.618   4.175
 4034TIP3   OH212042   3.460   6.907   4.227
 4034TIP3    H112043   3.517   6.902   4.151
 4034TIP3    H212044   3.512   6.871   4.299
 4035TIP3   OH212045   1.192   5.477   4.377
 4035TIP3    H112046   1.151   5.410   4.432
 4035TIP3    H212047   1.142   5.556   4.394
 4036TIP3   OH212048   6.127   4.499   5.761
 4036TIP3    H112049   6.042   4.482   5.720
 4036TIP3    H212050   6.183   4.427   5.732
 4037TIP3   OH212051   6.427   3.000   1.228
 4037TIP3    H112052   6.440   2.945   1.305
 4037TIP3    H212053   6.365   2.951   1.174
 4038TIP3   OH212054   2.559   0.657   0.955
 4038TIP3    H112055   2.515   0.683   1.037
 4038TIP3    H212056   2.641   0.618   0.984
 4039TIP3   OH212057   7.486   7.474   1.374
 4039TIP3    H112058   7.458   7.479   1.466
 4039TIP3    H212059   7.563   7.417   1.376
 4040TIP3   OH212060   0.292   3.676   0.209
 4040TIP3    H112061   0.265   3.688   0.300
 4040TIP3    H212062   0.267   3.586   0.188
 4041TIP3   OH212063   0.553   1.656   1.730
 4041TIP3    H112064   0.634   1.706   1.741
 4041TIP3    H212065   0.483   1.720   1.744
 4042TIP3   OH212066   4.785   6.776   3.101
 4042TIP3    H112067   4.816   6.867   3.094
 4042TIP3    H212068   4.793   6.756   3.194
 4043TIP3   OH212069   7.440   7.372   6.511
 4043TIP3    H112070   7.384   7.410   6.578
 4043TIP3    H212071   7.427   7.277   6.520
 4044TIP3   OH212072   3.226   3.025   4.346
 4044TIP3    H112073   3.274   3.070   4.415
 4044TIP3    H212074   3.159   3.087   4.319
 4045TIP3   OH212075   1.555   5.851   0.022
 4045TIP3    H112076   1.620   5.874   0.089
 4045TIP3    H212077   1.498   5.929   0.016
 4046TIP3   OH212078   1.103   6.363   4.364
 4046TIP3    H112079   1.168   6.371   4.433
 4046TIP3    H212080   1.034   6.424   4.389
 4047TIP3   OH212081   1.655   2.050   6.148
 4047TIP3    H112082   1.563   2.049   6.173
 4047TIP3    H212083   1.688   2.133   6.180
 4048TIP3   OH212084   0.507   3.835   2.238
 4048TIP3    H112085   0.508   3.899   2.309
 4048TIP3    H212086   0.444   3.870   2.175
 4049TIP3   OH212087   0.753   0.770   4.130
 4049TIP3    H112088   0.841   0.732   4.137
 4049TIP3    H212089   0.759   0.828   4.054
 4050TIP3   OH212090   2.051   4.767   5.807
 4050TIP3    H112091   2.045   4.682   5.850
 4050TIP3    H212092   2.055   4.830   5.878
 4051TIP3   OH212093   3.562   4.546   0.748
 4051TIP3    H112094   3.519   4.583   0.825
 4051TIP3    H212095   3.589   4.621   0.696
 4052TIP3   OH212096   5.635   4.895   6.476
 4052TIP3    H112097   5.613   4.985   6.453
 4052TIP3    H212098   5.571   4.871   6.544
 4053TIP3   OH212099   0.297   6.777   4.392
 4053TIP3    H112100   0.390   6.765   4.372
 4053TIP3    H212101   0.283   6.729   4.473
 4054TIP3   OH212102   6.673   5.416   2.425
 4054TIP3    H112103   6.750   5.380   2.469
 4054TIP3    H212104   6.706   5.490   2.374
 4055TIP3   OH212105   8.085   7.873   2.458
 4055TIP3    H112106   8.099   7.880   2.553
 4055TIP3    H212107   8.097   7.962   2.425
 4056TIP3   OH212108   7.394   3.379   5.894
 4056TIP3    H112109   7.447   3.448   5.934
 4056TIP3    H212110   7.457   3.312   5.867
 4057TIP3   OH212111   8.314   4.680   1.097
 4057TIP3    H112112   8.273   4.619   1.035
 4057TIP3    H212113   8.407   4.676   1.076
 4058TIP3   OH212114   7.430   2.934   4.825
 4058TIP3    H112115   7.486   2.991   4.878
 4058TIP3    H212116   7.417   2.983   4.743
 4059TIP3   OH212117   3.808   6.325   3.720
 4059TIP3    H112118   3.873   6.301   3.654
 4059TIP3    H212119   3.854   6.318   3.803
 4060TIP3   OH212120   8.262   6.907   6.831
 4060TIP3    H112121   8.216   6.991   6.836
 4060TIP3    H212122   8.336   6.924   6.773
 4061TIP3   OH212123   0.216   4.312  -0.004
 4061TIP3    H112124   0.271   4.390   0.005
 4061TIP3    H212125   0.161   4.313   0.074
 4062TIP3   OH212126   1.623   4.898   5.897
 4062TIP3    H112127   1.549   4.936   5.943
 4062TIP3    H212128   1.584   4.851   5.823
 4063TIP3   OH212129   7.939   2.724   3.221
 4063TIP3    H112130   8.028   2.693   3.233
 4063TIP3    H212131   7.907   2.677   3.144
 4064TIP3   OH212132   5.424   5.404   3.834
 4064TIP3    H112133   5.407   5.475   3.896
 4064TIP3    H212134   5.340   5.359   3.824
 4065TIP3   OH212135   6.102   0.225   2.468
 4065TIP3    H112136   6.067   0.313   2.485
 4065TIP3    H212137   6.133   0.229   2.378
 4066TIP3   OH212138   0.129   0.446   3.261
 4066TIP3    H112139   0.172   0.530   3.247
 4066TIP3    H212140   0.036   0.465   3.252
 4067TIP3   OH212141   6.902   4.636   4.186
 4067TIP3    H112142   6.997   4.635   4.191
 4067TIP3    H212143   6.878   4.546   4.164
 4068TIP3   OH212144   7.056   5.183   1.325
 4068TIP3    H112145   7.068   5.185   1.420
 4068TIP3    H212146   7.096   5.265   1.294
 4069TIP3   OH212147   7.224   2.253   1.175
 4069TIP3    H112148   7.245   2.275   1.266
 4069TIP3    H212149   7.164   2.322   1.148
 4070TIP3   OH212150   0.187   6.245   4.943
 4070TIP3    H112151   0.205   6.269   4.852
 4070TIP3    H212152   0.258   6.184   4.966
 4071TIP3   OH212153   6.200   1.839   4.858
 4071TIP3    H112154   6.226   1.900   4.789
 4071TIP3    H212155   6.134   1.783   4.817
 4072TIP3   OH212156   5.720   0.199   4.777
 4072TIP3    H112157   5.750   0.123   4.727
 4072TIP3    H212158   5.713   0.270   4.713
 4073TIP3   OH212159   2.822   0.912   3.744
 4073TIP3    H112160   2.813   0.818   3.761
 4073TIP3    H212161   2.761   0.953   3.806
 4074TIP3   OH212162   7.644   3.304   1.458
 4074TIP3    H112163   7.648   3.332   1.550
 4074TIP3    H212164   7.570   3.353   1.422
 4075TIP3   OH212165   4.588   7.627   0.351
 4075TIP3    H112166   4.587   7.717   0.382
 4075TIP3    H212167   4.506   7.617   0.303
 4076TIP3   OH212168   6.446   3.640   0.704
 4076TIP3    H112169   6.478   3.695   0.776
 4076TIP3    H212170   6.448   3.551   0.740
 4077TIP3   OH212171   1.640   3.275   2.795
 4077TIP3    H112172   1.690   3.338   2.743
 4077TIP3    H212173   1.555   3.271   2.752
 4078TIP3   OH212174   7.320   2.269   4.722
 4078TIP3    H112175   7.281   2.244   4.806
 4078TIP3    H212176   7.383   2.199   4.704
 4079TIP3   OH212177   6.289   1.436   3.131
 4079TIP3    H112178   6.368   1.439   3.184
 4079TIP3    H212179   6.278   1.344   3.109
 4080TIP3   OH212180   6.391   0.578   4.953
 4080TIP3    H112181   6.416   0.663   4.917
 4080TIP3    H212182   6.473   0.529   4.956
 4081TIP3   OH212183   4.307   1.530   6.054
 4081TIP3    H112184   4.257   1.465   6.006
 4081TIP3    H212185   4.359   1.575   5.987
 4082TIP3   OH212186   4.948   1.987   1.541
 4082TIP3    H112187   5.003   1.912   1.559
 4082TIP3    H212188   4.980   2.056   1.599
 4083TIP3   OH212189   8.213   7.373   3.119
 4083TIP3    H112190   8.157   7.322   3.178
 4083TIP3    H212191   8.165   7.456   3.107
 4084TIP3   OH212192   7.305   5.855   2.307
 4084TIP3    H112193   7.330   5.780   2.254
 4084TIP3    H212194   7.316   5.825   2.397
 4085TIP3   OH212195   2.064   0.724   5.694
 4085TIP3    H112196   2.094   0.635   5.712
 4085TIP3    H212197   2.014   0.716   5.612
 4086TIP3   OH212198   4.955   5.687   2.575
 4086TIP3    H112199   4.970   5.664   2.667
 4086TIP3    H212200   5.029   5.647   2.528
 4087TIP3   OH212201   7.458   1.788   6.823
 4087TIP3    H112202   7.379   1.809   6.772
 4087TIP3    H212203   7.530   1.805   6.763
 4088TIP3   OH212204   2.665   5.107   1.292
 4088TIP3    H112205   2.748   5.121   1.337
 4088TIP3    H212206   2.688   5.103   1.199
 4089TIP3   OH212207   2.902   2.071   4.940
 4089TIP3    H112208   2.961   2.056   5.014
 4089TIP3    H212209   2.890   1.985   4.901
 4090TIP3   OH212210   6.673   0.936   1.366
 4090TIP3    H112211   6.578   0.933   1.352
 4090TIP3    H212212   6.705   0.997   1.300
 4091TIP3   OH212213   1.414   4.409   6.221
 4091TIP3    H112214   1.347   4.401   6.153
 4091TIP3    H212215   1.494   4.434   6.173
 4092TIP3   OH212216   3.013   1.501   0.580
 4092TIP3    H112217   2.962   1.421   0.597
 4092TIP3    H212218   3.002   1.517   0.487
 4093TIP3   OH212219   3.171   5.786   1.351
 4093TIP3    H112220   3.213   5.716   1.301
 4093TIP3    H212221   3.113   5.742   1.412
 4094TIP3   OH212222   3.144   3.426   5.105
 4094TIP3    H112223   3.168   3.348   5.054
 4094TIP3    H212224   3.087   3.476   5.047
 4095TIP3   OH212225   3.886   4.596   4.821
 4095TIP3    H112226   3.924   4.556   4.899
 4095TIP3    H212227   3.926   4.683   4.816
 4096TIP3   OH212228   6.968   3.049   1.040
 4096TIP3    H112229   6.956   3.119   1.103
 4096TIP3    H212230   6.973   2.969   1.093
 4097TIP3   OH212231   2.859   7.914   6.351
 4097TIP3    H112232   2.862   7.900   6.445
 4097TIP3    H212233   2.940   7.875   6.318
 4098TIP3   OH212234   3.550   1.934   0.330
 4098TIP3    H112235   3.492   1.916   0.256
 4098TIP3    H212236   3.515   1.883   0.402
 4099TIP3   OH212237   4.713   5.859   5.656
 4099TIP3    H112238   4.722   5.940   5.606
 4099TIP3    H212239   4.718   5.886   5.747
 4100TIP3   OH212240   2.916   2.291   3.908
 4100TIP3    H112241   3.008   2.306   3.889
 4100TIP3    H212242   2.884   2.374   3.943
 4101TIP3   OH212243   4.353   3.078   1.356
 4101TIP3    H112244   4.429   3.130   1.329
 4101TIP3    H212245   4.390   2.992   1.378
 4102TIP3   OH212246   1.308   5.334   4.043
 4102TIP3    H112247   1.352   5.410   4.005
 4102TIP3    H212248   1.249   5.370   4.109
 4103TIP3   OH212249   2.776   6.474   4.271
 4103TIP3    H112250   2.730   6.460   4.354
 4103TIP3    H212251   2.860   6.514   4.296
 4104TIP3   OH212252   7.250   4.641   0.127
 4104TIP3    H112253   7.259   4.696   0.049
 4104TIP3    H212254   7.207   4.562   0.095
 4105TIP3   OH212255   3.963   2.589   4.940
 4105TIP3    H112256   4.013   2.660   4.979
 4105TIP3    H212257   3.891   2.573   5.001
 4106TIP3   OH212258   5.721   4.583   0.867
 4106TIP3    H112259   5.659   4.646   0.830
 4106TIP3    H212260   5.683   4.559   0.951
 4107TIP3   OH212261   8.060   0.088   3.609
 4107TIP3    H112262   8.120   0.020   3.637
 4107TIP3    H212263   8.049   0.143   3.687
 4108TIP3   OH212264   7.562   1.830   4.881
 4108TIP3    H112265   7.638   1.875   4.846
 4108TIP3    H212266   7.535   1.882   4.956
 4109TIP3   OH212267   0.464   4.520   1.885
 4109TIP3    H112268   0.549   4.501   1.846
 4109TIP3    H212269   0.461   4.464   1.963
 4110TIP3   OH212270   3.555   5.026   2.003
 4110TIP3    H112271   3.589   4.979   1.927
 4110TIP3    H212272   3.487   5.084   1.968
 4111TIP3   OH212273   4.849   4.957   3.903
 4111TIP3    H112274   4.775   4.937   3.845
 4111TIP3    H212275   4.888   4.871   3.922
 4112TIP3   OH212276   6.886   1.199   4.334
 4112TIP3    H112277   6.884   1.282   4.381
 4112TIP3    H212278   6.966   1.203   4.281
 4113TIP3   OH212279   6.929   6.895   5.962
 4113TIP3    H112280   6.928   6.990   5.955
 4113TIP3    H212281   6.838   6.869   5.946
 4114TIP3   OH212282   2.594   3.313   5.807
 4114TIP3    H112283   2.668   3.358   5.767
 4114TIP3    H212284   2.606   3.221   5.782
 4115TIP3   OH212285   7.632   7.316   0.495
 4115TIP3    H112286   7.568   7.298   0.426
 4115TIP3    H212287   7.618   7.407   0.519
 4116TIP3   OH212288   5.507   4.012   1.627
 4116TIP3    H112289   5.442   3.947   1.599
 4116TIP3    H212290   5.586   3.990   1.579
 4117TIP3   OH212291   4.016   7.717   5.529
 4117TIP3    H112292   3.998   7.797   5.579
 4117TIP3    H212293   4.083   7.744   5.466
 4118TIP3   OH212294   0.620   6.053   5.184
 4118TIP3    H112295   0.709   6.035   5.213
 4118TIP3    H212296   0.621   6.144   5.156
 4119TIP3   OH212297   1.729   2.133   2.031
 4119TIP3    H112298   1.706   2.188   2.106
 4119TIP3    H212299   1.657   2.071   2.022
 4120TIP3   OH212300   0.540   1.905   5.296
 4120TIP3    H112301   0.623   1.921   5.251
 4120TIP3    H212302   0.473   1.928   5.231
 4121TIP3   OH212303   2.097   7.440   6.605
 4121TIP3    H112304   2.124   7.349   6.614
 4121TIP3    H212305   2.048   7.459   6.686
 4122TIP3   OH212306   4.070   0.359   4.083
 4122TIP3    H112307   4.110   0.309   4.012
 4122TIP3    H212308   4.051   0.445   4.044
 4123TIP3   OH212309   0.756   7.676   5.398
 4123TIP3    H112310   0.790   7.762   5.424
 4123TIP3    H212311   0.665   7.692   5.373
 4124TIP3   OH212312   2.058   1.736   1.832
 4124TIP3    H112313   2.106   1.777   1.760
 4124TIP3    H212314   1.969   1.726   1.798
 4125TIP3   OH212315   7.692   2.485   5.716
 4125TIP3    H112316   7.748   2.539   5.771
 4125TIP3    H212317   7.752   2.433   5.663
 4126TIP3   OH212318   8.387   7.187   1.092
 4126TIP3    H112319   8.308   7.239   1.107
 4126TIP3    H212320   8.452   7.251   1.061
 4127TIP3   OH212321   0.417   3.768   5.066
 4127TIP3    H112322   0.327   3.772   5.034
 4127TIP3    H212323   0.470   3.802   4.993
 4128TIP3   OH212324   4.622   5.045   5.223
 4128TIP3    H112325   4.683   5.040   5.150
 4128TIP3    H212326   4.660   5.110   5.282
 4129TIP3   OH212327   3.117   7.518   1.622
 4129TIP3    H112328   3.071   7.476   1.550
 4129TIP3    H212329   3.154   7.598   1.583
 4130TIP3   OH212330   0.237   6.269   4.664
 4130TIP3    H112331   0.239   6.323   4.584
 4130TIP3    H212332   0.328   6.245   4.679
 4131TIP3   OH212333   0.273   5.101   0.273
 4131TIP3    H112334   0.312   5.186   0.254
 4131TIP3    H212335   0.347   5.044   0.292
 4132TIP3   OH212336   7.610   5.462   4.786
 4132TIP3    H112337   7.652   5.468   4.871
 4132TIP3    H212338   7.529   5.414   4.802
 4133TIP3   OH212339   0.080   3.222   4.698
 4133TIP3    H112340   0.002   3.167   4.690
 4133TIP3    H212341   0.147   3.163   4.732
 4134TIP3   OH212342   1.790   5.324   1.293
 4134TIP3    H112343   1.737   5.399   1.318
 4134TIP3    H212344   1.772   5.312   1.199
 4135TIP3   OH212345   6.911   6.821   4.990
 4135TIP3    H112346   6.957   6.815   5.074
 4135TIP3    H212347   6.949   6.752   4.937
 4136TIP3   OH212348   3.984   3.895   4.365
 4136TIP3    H112349   3.988   3.803   4.389
 4136TIP3    H212350   3.948   3.896   4.277
 4137TIP3   OH212351   4.617   4.822   4.015
 4137TIP3    H112352   4.647   4.836   4.105
 4137TIP3    H212353   4.595   4.909   3.983
 4138TIP3   OH212354   3.022   5.897   1.942
 4138TIP3    H112355   2.945   5.897   1.885
 4138TIP3    H212356   3.011   5.819   1.996
 4139TIP3   OH212357   5.296   3.629   5.701
 4139TIP3    H112358   5.282   3.722   5.683
 4139TIP3    H212359   5.353   3.629   5.778
 4140TIP3   OH212360   5.268   0.596   6.479
 4140TIP3    H112361   5.263   0.501   6.490
 4140TIP3    H212362   5.177   0.624   6.471
 4141TIP3   OH212363   7.443   6.580   1.347
 4141TIP3    H112364   7.348   6.589   1.337
 4141TIP3    H212365   7.456   6.490   1.377
 4142TIP3   OH212366   6.097   1.612   5.973
 4142TIP3    H112367   6.084   1.569   5.889
 4142TIP3    H212368   6.040   1.563   6.033
 4143TIP3   OH212369   6.644   1.582   6.726
 4143TIP3    H112370   6.615   1.599   6.636
 4143TIP3    H212371   6.577   1.622   6.781
 4144TIP3   OH212372   3.548   6.119   0.502
 4144TIP3    H112373   3.531   6.173   0.425
 4144TIP3    H212374   3.643   6.103   0.499
 4145TIP3   OH212375   6.676   6.719   3.299
 4145TIP3    H112376   6.617   6.673   3.239
 4145TIP3    H212377   6.618   6.762   3.362
 4146TIP3   OH212378   7.672   1.304   3.726
 4146TIP3    H112379   7.680   1.327   3.634
 4146TIP3    H212380   7.585   1.264   3.733
 4147TIP3   OH212381   1.159   2.309   5.268
 4147TIP3    H112382   1.077   2.266   5.245
 4147TIP3    H212383   1.214   2.239   5.305
 4148TIP3   OH212384   6.180   6.758   4.517
 4148TIP3    H112385   6.116   6.818   4.555
 4148TIP3    H212386   6.257   6.813   4.501
 4149TIP3   OH212387   3.176   4.325   1.475
 4149TIP3    H112388   3.224   4.389   1.422
 4149TIP3    H212389   3.103   4.298   1.419
 4150TIP3   OH212390   6.567   6.350   0.378
 4150TIP3    H112391   6.590   6.391   0.461
 4150TIP3    H212392   6.507   6.411   0.336
 4151TIP3   OH212393   3.771   0.664   5.521
 4151TIP3    H112394   3.723   0.582   5.524
 4151TIP3    H212395   3.703   0.731   5.519
 4152TIP3   OH212396   0.854   1.427   3.557
 4152TIP3    H112397   0.814   1.488   3.495
 4152TIP3    H212398   0.947   1.449   3.555
 4153TIP3   OH212399   3.046   1.476   0.067
 4153TIP3    H112400   2.962   1.432   0.082
 4153TIP3    H212401   3.112   1.409   0.087
 4154TIP3   OH212402   0.308   5.302   4.936
 4154TIP3    H112403   0.369   5.324   4.866
 4154TIP3    H212404   0.360   5.306   5.016
 4155TIP3   OH212405   1.694   3.028   4.181
 4155TIP3    H112406   1.665   2.998   4.095
 4155TIP3    H212407   1.716   3.121   4.168
 4156TIP3   OH212408   6.763   3.135   2.785
 4156TIP3    H112409   6.750   3.215   2.836
 4156TIP3    H212410   6.778   3.167   2.696
 4157TIP3   OH212411   1.679   3.904   4.796
 4157TIP3    H112412   1.623   3.931   4.869
 4157TIP3    H212413   1.765   3.938   4.819
 4158TIP3   OH212414   2.870   7.274   4.320
 4158TIP3    H112415   2.803   7.338   4.298
 4158TIP3    H212416   2.920   7.315   4.390
 4159TIP3   OH212417   4.173   0.700   3.120
 4159TIP3    H112418   4.258   0.703   3.163
 4159TIP3    H212419   4.161   0.607   3.098
 4160TIP3   OH212420   7.523   6.179   1.075
 4160TIP3    H112421   7.442   6.170   1.024
 4160TIP3    H212422   7.494   6.175   1.166
 4161TIP3   OH212423   6.557   7.773   0.714
 4161TIP3    H112424   6.617   7.704   0.742
 4161TIP3    H212425   6.476   7.754   0.761
 4162TIP3   OH212426   0.021   0.529   2.170
 4162TIP3    H112427   0.105   0.486   2.156
 4162TIP3    H212428   0.003   0.575   2.089
 4163TIP3   OH212429   2.548   7.070   3.807
 4163TIP3    H112430   2.558   7.052   3.713
 4163TIP3    H212431   2.632   7.043   3.845
 4164TIP3   OH212432   8.181   0.945   3.130
 4164TIP3    H112433   8.269   0.980   3.122
 4164TIP3    H212434   8.172   0.885   3.056
 4165TIP3   OH212435   8.341   5.380   1.117
 4165TIP3    H112436   8.362   5.343   1.203
 4165TIP3    H212437   8.364   5.473   1.125
 4166TIP3   OH212438   2.644   6.327   5.011
 4166TIP3    H112439   2.629   6.280   4.929
 4166TIP3    H212440   2.617   6.266   5.080
 4167TIP3   OH212441   3.816   2.330   5.271
 4167TIP3    H112442   3.792   2.403   5.214
 4167TIP3    H212443   3.735   2.281   5.284
 4168TIP3   OH212444   5.827   0.018   5.827
 4168TIP3    H112445   5.892  -0.050   5.810
 4168TIP3    H212446   5.765  -0.024   5.887
 4169TIP3   OH212447   4.746   6.864   6.494
 4169TIP3    H112448   4.707   6.902   6.573
 4169TIP3    H212449   4.685   6.887   6.424
 4170TIP3   OH212450   4.613   4.975   4.584
 4170TIP3    H112451   4.581   4.965   4.674
 4170TIP3    H212452   4.630   4.885   4.555
 4171TIP3   OH212453   1.159   4.688   4.560
 4171TIP3    H112454   1.075   4.665   4.519
 4171TIP3    H212455   1.191   4.605   4.595
 4172TIP3   OH212456   3.008   4.904   5.360
 4172TIP3    H112457   3.013   4.999   5.344
 4172TIP3    H212458   2.951   4.871   5.291
 4173TIP3   OH212459   8.201   2.349   4.746
 4173TIP3    H112460   8.124   2.402   4.726
 4173TIP3    H212461   8.211   2.355   4.841
 4174TIP3   OH212462   2.966   4.764   3.399
 4174TIP3    H112463   2.965   4.850   3.355
 4174TIP3    H212464   2.877   4.753   3.431
 4175TIP3   OH212465   3.523   0.228   5.276
 4175TIP3    H112466   3.593   0.286   5.246
 4175TIP3    H212467   3.443   0.266   5.241
 4176TIP3   OH212468   4.253   2.183   0.130
 4176TIP3    H112469   4.326   2.225   0.085
 4176TIP3    H212470   4.283   2.173   0.221
 4177TIP3   OH212471   1.816   0.029   0.962
 4177TIP3    H112472   1.861   0.111   0.984
 4177TIP3    H212473   1.837   0.014   0.870
 4178TIP3   OH212474   1.422   2.687   1.216
 4178TIP3    H112475   1.408   2.775   1.181
 4178TIP3    H212476   1.481   2.645   1.154
 4179TIP3   OH212477   1.253   5.469   2.298
 4179TIP3    H112478   1.235   5.563   2.298
 4179TIP3    H212479   1.181   5.430   2.349
 4180TIP3   OH212480   7.521   0.416   1.905
 4180TIP3    H112481   7.564   0.449   1.826
 4180TIP3    H212482   7.483   0.332   1.878
 4181TIP3   OH212483   4.550   6.617   1.592
 4181TIP3    H112484   4.639   6.585   1.609
 4181TIP3    H212485   4.494   6.541   1.608
 4182TIP3   OH212486   4.578   2.492   0.525
 4182TIP3    H112487   4.505   2.495   0.586
 4182TIP3    H212488   4.615   2.404   0.537
 4183TIP3   OH212489   1.465   6.725   3.384
 4183TIP3    H112490   1.527   6.676   3.330
 4183TIP3    H212491   1.503   6.813   3.389
 4184TIP3   OH212492   8.086   3.508   4.414
 4184TIP3    H112493   8.059   3.599   4.428
 4184TIP3    H212494   8.143   3.488   4.488
 4185TIP3   OH212495   0.599   6.910   6.040
 4185TIP3    H112496   0.656   6.858   6.096
 4185TIP3    H212497   0.602   6.866   5.955
 4186TIP3   OH212498   5.823   7.375   3.215
 4186TIP3    H112499   5.841   7.285   3.240
 4186TIP3    H212500   5.884   7.427   3.269
 4187TIP3   OH212501   2.792   7.807   3.308
 4187TIP3    H112502   2.811   7.893   3.269
 4187TIP3    H212503   2.734   7.827   3.382
 4188TIP3   OH212504   3.688   1.377   2.340
 4188TIP3    H112505   3.595   1.392   2.356
 4188TIP3    H212506   3.693   1.349   2.249
 4189TIP3   OH212507   6.044   7.744   0.495
 4189TIP3    H112508   6.030   7.725   0.402
 4189TIP3    H212509   6.101   7.673   0.525
 4190TIP3   OH212510   6.096   3.412   4.553
 4190TIP3    H112511   6.066   3.370   4.633
 4190TIP3    H212512   6.155   3.348   4.513
 4191TIP3   OH212513   4.938   0.368   0.857
 4191TIP3    H112514   4.901   0.412   0.933
 4191TIP3    H212515   4.867   0.313   0.824
 4192TIP3   OH212516   1.039   2.990   0.939
 4192TIP3    H112517   1.077   2.925   0.879
 4192TIP3    H212518   0.965   3.026   0.891
 4193TIP3   OH212519   6.478   7.906   4.974
 4193TIP3    H112520   6.402   7.852   4.997
 4193TIP3    H212521   6.539   7.894   5.047
 4194TIP3   OH212522   5.904   5.815   5.200
 4194TIP3    H112523   5.926   5.747   5.137
 4194TIP3    H212524   5.854   5.770   5.268
 4195TIP3   OH212525   7.191   7.080   4.072
 4195TIP3    H112526   7.114   7.024   4.072
 4195TIP3    H212527   7.190   7.122   3.986
 4196TIP3   OH212528   1.256   4.439   0.726
 4196TIP3    H112529   1.351   4.433   0.736
 4196TIP3    H212530   1.236   4.531   0.744
 4197TIP3   OH212531   2.157   5.570   1.312
 4197TIP3    H112532   2.100   5.578   1.235
 4197TIP3    H212533   2.245   5.565   1.276
 4198TIP3   OH212534   0.094   7.787   5.993
 4198TIP3    H112535   0.090   7.881   5.974
 4198TIP3    H212536   0.070   7.780   6.085
 4199TIP3   OH212537   5.469   6.173   4.252
 4199TIP3    H112538   5.452   6.196   4.344
 4199TIP3    H212539   5.558   6.139   4.252
 4200TIP3   OH212540   6.529   0.273   2.322
 4200TIP3    H112541   6.464   0.314   2.379
 4200TIP3    H212542   6.601   0.336   2.320
 4201TIP3   OH212543   0.353   1.347   0.993
 4201TIP3    H112544   0.397   1.398   0.925
 4201TIP3    H212545   0.260   1.356   0.974
 4202TIP3   OH212546   7.375   5.618   2.154
 4202TIP3    H112547   7.307   5.553   2.140
 4202TIP3    H212548   7.428   5.582   2.226
 4203TIP3   OH212549   2.389   1.786   2.271
 4203TIP3    H112550   2.320   1.768   2.334
 4203TIP3    H212551   2.345   1.781   2.186
 4204TIP3   OH212552   2.375   2.309   0.588
 4204TIP3    H112553   2.335   2.357   0.516
 4204TIP3    H212554   2.375   2.370   0.661
 4205TIP3   OH212555   7.047   0.742   1.223
 4205TIP3    H112556   7.058   0.807   1.292
 4205TIP3    H212557   7.135   0.732   1.185
 4206TIP3   OH212558   1.818   4.760   4.009
 4206TIP3    H112559   1.792   4.667   4.007
 4206TIP3    H212560   1.816   4.783   4.102
 4207TIP3   OH212561   6.541   5.400   1.168
 4207TIP3    H112562   6.499   5.399   1.082
 4207TIP3    H212563   6.530   5.311   1.201
 4208TIP3   OH212564   0.085   5.035   1.847
 4208TIP3    H112565   0.110   5.126   1.864
 4208TIP3    H212566   0.151   5.004   1.785
 4209TIP3   OH212567   6.720   3.905   2.344
 4209TIP3    H112568   6.659   3.947   2.284
 4209TIP3    H212569   6.699   3.811   2.338
 4210TIP3   OH212570   5.005   0.648   0.510
 4210TIP3    H112571   5.032   0.737   0.534
 4210TIP3    H212572   5.085   0.596   0.514
 4211TIP3   OH212573   5.417   4.525   4.469
 4211TIP3    H112574   5.484   4.527   4.401
 4211TIP3    H212575   5.374   4.440   4.459
 4212TIP3   OH212576   6.466   1.880   1.411
 4212TIP3    H112577   6.537   1.847   1.356
 4212TIP3    H212578   6.394   1.896   1.349
 4213TIP3   OH212579   8.299   0.549   6.021
 4213TIP3    H112580   8.230   0.581   5.963
 4213TIP3    H212581   8.373   0.608   6.007
 4214TIP3   OH212582   4.198   7.086   0.030
 4214TIP3    H112583   4.205   7.040   0.114
 4214TIP3    H212584   4.263   7.045  -0.026
 4215TIP3   OH212585   4.754   1.044   0.493
 4215TIP3    H112586   4.691   0.987   0.537
 4215TIP3    H212587   4.838   1.021   0.531
 4216TIP3   OH212588   0.734   3.053   0.869
 4216TIP3    H112589   0.730   3.101   0.786
 4216TIP3    H212590   0.742   2.961   0.843
 4217TIP3   OH212591   0.021   4.359   0.198
 4217TIP3    H112592   0.091   4.367   0.262
 4217TIP3    H212593  -0.035   4.435   0.214
 4218TIP3   OH212594   5.822   2.922   2.306
 4218TIP3    H112595   5.792   2.832   2.320
 4218TIP3    H212596   5.898   2.931   2.362
 4219TIP3   OH212597   5.799   3.513   4.154
 4219TIP3    H112598   5.812   3.594   4.105
 4219TIP3    H212599   5.813   3.538   4.245
 4220TIP3   OH212600   0.876   2.580   5.495
 4220TIP3    H112601   0.874   2.634   5.574
 4220TIP3    H212602   0.947   2.617   5.442
 4221TIP3   OH212603   6.796   0.028   4.512
 4221TIP3    H112604   6.716   0.080   4.519
 4221TIP3    H212605   6.834   0.030   4.600
 4222TIP3   OH212606   8.356   1.112   6.697
 4222TIP3    H112607   8.281   1.148   6.649
 4222TIP3    H212608   8.372   1.176   6.766
 4223TIP3   OH212609   0.402   1.009   2.346
 4223TIP3    H112610   0.497   1.008   2.359
 4223TIP3    H212611   0.382   0.926   2.304
 4224TIP3   OH212612   2.647   2.645   2.499
 4224TIP3    H112613   2.645   2.665   2.592
 4224TIP3    H212614   2.559   2.615   2.479
 4225TIP3   OH212615   2.451   5.542   4.215
 4225TIP3    H112616   2.406   5.613   4.169
 4225TIP3    H212617   2.380   5.495   4.259
 4226TIP3   OH212618   7.417   4.175   2.669
 4226TIP3    H112619   7.412   4.117   2.593
 4226TIP3    H212620   7.474   4.128   2.731
 4227TIP3   OH212621   7.856   4.532   0.256
 4227TIP3    H112622   7.925   4.578   0.304
 4227TIP3    H212623   7.899   4.499   0.177
 4228TIP3   OH212624   5.460   5.102   6.431
 4228TIP3    H112625   5.405   5.034   6.390
 4228TIP3    H212626   5.455   5.176   6.370
 4229TIP3   OH212627   6.681   3.610   3.032
 4229TIP3    H112628   6.740   3.582   2.961
 4229TIP3    H212629   6.700   3.703   3.043
 4230TIP3   OH212630   7.952   2.332   2.911
 4230TIP3    H112631   8.037   2.287   2.906
 4230TIP3    H212632   7.889   2.262   2.924
 4231TIP3   OH212633   2.980   3.504   4.010
 4231TIP3    H112634   3.047   3.477   4.073
 4231TIP3    H212635   2.958   3.425   3.962
 4232TIP3   OH212636   6.238   6.795   5.886
 4232TIP3    H112637   6.232   6.714   5.936
 4232TIP3    H212638   6.259   6.766   5.797
 4233TIP3   OH212639   3.781   4.471   6.016
 4233TIP3    H112640   3.717   4.438   6.079
 4233TIP3    H212641   3.862   4.478   6.065
 4234TIP3   OH212642   1.002   2.705   3.523
 4234TIP3    H112643   0.942   2.680   3.593
 4234TIP3    H212644   1.039   2.788   3.552
 4235TIP3   OH212645   4.837   4.352   2.361
 4235TIP3    H112646   4.871   4.367   2.449
 4235TIP3    H212647   4.892   4.282   2.325
 4236TIP3   OH212648   2.499   6.256   0.747
 4236TIP3    H112649   2.504   6.276   0.654
 4236TIP3    H212650   2.486   6.341   0.789
 4237TIP3   OH212651   3.310   7.535   2.979
 4237TIP3    H112652   3.342   7.500   3.062
 4237TIP3    H212653   3.388   7.543   2.924
 4238TIP3   OH212654   4.644   2.198   1.454
 4238TIP3    H112655   4.687   2.114   1.436
 4238TIP3    H212656   4.707   2.264   1.424
 4239TIP3   OH212657   6.423   4.711   2.913
 4239TIP3    H112658   6.465   4.786   2.870
 4239TIP3    H212659   6.469   4.702   2.996
 4240TIP3   OH212660   5.411   4.254   5.369
 4240TIP3    H112661   5.352   4.297   5.431
 4240TIP3    H212662   5.386   4.162   5.373
 4241TIP3   OH212663   1.968   6.762   4.867
 4241TIP3    H112664   1.916   6.780   4.789
 4241TIP3    H212665   1.904   6.747   4.936
 4242TIP3   OH212666   8.350   1.473   2.325
 4242TIP3    H112667   8.282   1.407   2.318
 4242TIP3    H212668   8.398   1.449   2.405
 4243TIP3   OH212669   6.582   7.782   5.796
 4243TIP3    H112670   6.596   7.706   5.740
 4243TIP3    H212671   6.641   7.849   5.761
 4244TIP3   OH212672   6.286   1.976   0.570
 4244TIP3    H112673   6.218   1.959   0.635
 4244TIP3    H212674   6.238   2.000   0.491
 4245TIP3   OH212675   0.769   2.480   0.752
 4245TIP3    H112676   0.676   2.492   0.768
 4245TIP3    H212677   0.800   2.428   0.826
 4246TIP3   OH212678   3.112   2.441   2.465
 4246TIP3    H112679   3.160   2.433   2.548
 4246TIP3    H212680   3.117   2.534   2.444
 4247TIP3   OH212681   0.639   0.333   0.055
 4247TIP3    H112682   0.687   0.352   0.136
 4247TIP3    H212683   0.606   0.244   0.068
 4248TIP3   OH212684   5.504   2.263   0.746
 4248TIP3    H112685   5.564   2.308   0.806
 4248TIP3    H212686   5.554   2.252   0.665
 4249TIP3   OH212687   2.702   4.514   0.525
 4249TIP3    H112688   2.791   4.494   0.497
 4249TIP3    H212689   2.657   4.538   0.444
 4250TIP3   OH212690   2.279   1.708   3.597
 4250TIP3    H112691   2.256   1.764   3.522
 4250TIP3    H212692   2.229   1.628   3.584
 4251TIP3   OH212693   7.651   2.476   5.164
 4251TIP3    H112694   7.660   2.402   5.225
 4251TIP3    H212695   7.557   2.492   5.159
 4252TIP3   OH212696   0.705   0.123   6.066
 4252TIP3    H112697   0.677   0.206   6.028
 4252TIP3    H212698   0.703   0.061   5.992
 4253TIP3   OH212699   8.181   2.153   6.470
 4253TIP3    H112700   8.146   2.080   6.521
 4253TIP3    H212701   8.243   2.112   6.410
 4254TIP3   OH212702   7.301   4.910   5.448
 4254TIP3    H112703   7.384   4.898   5.495
 4254TIP3    H212704   7.275   5.000   5.469
 4255TIP3   OH212705   3.852   0.479   6.727
 4255TIP3    H112706   3.774   0.423   6.726
 4255TIP3    H212707   3.820   0.562   6.763
 4256TIP3   OH212708   6.550   7.052   1.925
 4256TIP3    H112709   6.481   7.118   1.923
 4256TIP3    H212710   6.626   7.095   1.887
 4257TIP3   OH212711   2.659   5.706   2.509
 4257TIP3    H112712   2.628   5.797   2.509
 4257TIP3    H212713   2.682   5.689   2.418
 4258TIP3   OH212714   3.538   6.458   4.751
 4258TIP3    H112715   3.490   6.463   4.668
 4258TIP3    H212716   3.470   6.463   4.818
 4259TIP3   OH212717   3.744   3.778   3.698
 4259TIP3    H112718   3.750   3.760   3.604
 4259TIP3    H212719   3.832   3.759   3.731
 4260TIP3   OH212720   0.762   2.865   1.255
 4260TIP3    H112721   0.704   2.906   1.191
 4260TIP3    H212722   0.841   2.844   1.205
 4261TIP3   OH212723   5.692   0.451   2.920
 4261TIP3    H112724   5.761   0.453   2.987
 4261TIP3    H212725   5.616   0.489   2.963
 4262TIP3   OH212726   6.495   4.781   1.643
 4262TIP3    H112727   6.428   4.823   1.696
 4262TIP3    H212728   6.570   4.841   1.646
 4263TIP3   OH212729   3.875   4.480   5.298
 4263TIP3    H112730   3.929   4.429   5.358
 4263TIP3    H212731   3.856   4.420   5.226
 4264TIP3   OH212732   3.456   2.527   2.229
 4264TIP3    H112733   3.365   2.530   2.201
 4264TIP3    H212734   3.472   2.614   2.266
 4265TIP3   OH212735   0.336   6.085   1.103
 4265TIP3    H112736   0.383   6.154   1.149
 4265TIP3    H212737   0.297   6.129   1.027
 4266TIP3   OH212738   3.167   0.658   1.050
 4266TIP3    H112739   3.104   0.660   1.121
 4266TIP3    H212740   3.171   0.566   1.024
 4267TIP3   OH212741   5.203   4.010   6.154
 4267TIP3    H112742   5.187   3.960   6.234
 4267TIP3    H212743   5.235   4.095   6.184
 4268TIP3   OH212744   1.667   7.158   3.387
 4268TIP3    H112745   1.581   7.151   3.345
 4268TIP3    H212746   1.712   7.078   3.362
 4269TIP3   OH212747   5.456   4.970   2.746
 4269TIP3    H112748   5.407   5.017   2.814
 4269TIP3    H212749   5.545   4.961   2.782
 4270TIP3   OH212750   4.451   4.984   0.835
 4270TIP3    H112751   4.382   5.023   0.781
 4270TIP3    H212752   4.491   5.058   0.880
 4271TIP3   OH212753   7.775   5.013   1.614
 4271TIP3    H112754   7.749   5.045   1.527
 4271TIP3    H212755   7.819   4.930   1.597
 4272TIP3   OH212756   4.747   5.250   2.511
 4272TIP3    H112757   4.754   5.157   2.488
 4272TIP3    H212758   4.657   5.261   2.541
 4273TIP3   OH212759   8.244   4.561   1.567
 4273TIP3    H112760   8.194   4.585   1.645
 4273TIP3    H212761   8.307   4.496   1.598
 4274TIP3   OH212762   8.361   4.901   3.218
 4274TIP3    H112763   8.294   4.926   3.154
 4274TIP3    H212764   8.330   4.817   3.253
 4275TIP3   OH212765   3.995   3.442   1.148
 4275TIP3    H112766   4.009   3.533   1.120
 4275TIP3    H212767   3.920   3.446   1.207
 4276TIP3   OH212768   2.044   1.536   4.960
 4276TIP3    H112769   1.949   1.535   4.950
 4276TIP3    H212770   2.060   1.531   5.054
 4277TIP3   OH212771   6.597   6.601   5.876
 4277TIP3    H112772   6.548   6.525   5.844
 4277TIP3    H212773   6.545   6.676   5.848
 4278TIP3   OH212774   4.960   1.839   5.867
 4278TIP3    H112775   5.023   1.773   5.893
 4278TIP3    H212776   4.876   1.792   5.863
 4279TIP3   OH212777   0.509   5.931   5.926
 4279TIP3    H112778   0.560   5.998   5.880
 4279TIP3    H212779   0.509   5.856   5.867
 4280TIP3   OH212780   0.733   5.462   2.729
 4280TIP3    H112781   0.694   5.377   2.748
 4280TIP3    H212782   0.737   5.506   2.814
 4281TIP3   OH212783   6.763   3.877   0.532
 4281TIP3    H112784   6.671   3.850   0.529
 4281TIP3    H212785   6.765   3.944   0.600
 4282TIP3   OH212786   3.614   5.099   5.299
 4282TIP3    H112787   3.636   5.187   5.271
 4282TIP3    H212788   3.609   5.104   5.394
 4283TIP3   OH212789   4.107   6.877   3.688
 4283TIP3    H112790   4.124   6.812   3.756
 4283TIP3    H212791   4.106   6.828   3.606
 4284TIP3   OH212792   5.759   6.313   5.907
 4284TIP3    H112793   5.673   6.332   5.870
 4284TIP3    H212794   5.760   6.218   5.918
 4285TIP3   OH212795   5.605   4.371   6.059
 4285TIP3    H112796   5.626   4.309   6.129
 4285TIP3    H212797   5.574   4.316   5.987
 4286TIP3   OH212798   6.064   0.394   0.648
 4286TIP3    H112799   6.155   0.415   0.627
 4286TIP3    H212800   6.065   0.301   0.670
 4287TIP3   OH212801   6.504   4.614   5.338
 4287TIP3    H112802   6.510   4.536   5.284
 4287TIP3    H212803   6.413   4.617   5.367
 4288TIP3   OH212804   6.717   7.715   2.372
 4288TIP3    H112805   6.789   7.758   2.418
 4288TIP3    H212806   6.685   7.782   2.311
 4289TIP3   OH212807   5.524   0.858   3.711
 4289TIP3    H112808   5.528   0.780   3.767
 4289TIP3    H212809   5.432   0.882   3.709
 4290TIP3   OH212810   2.670   4.650   0.084
 4290TIP3    H112811   2.611   4.616   0.151
 4290TIP3    H212812   2.613   4.700   0.025
 4291TIP3   OH212813   0.566   6.674   1.212
 4291TIP3    H112814   0.541   6.744   1.273
 4291TIP3    H212815   0.586   6.600   1.269
 4292TIP3   OH212816   2.910   1.842   5.699
 4292TIP3    H112817   2.863   1.779   5.753
 4292TIP3    H212818   3.001   1.832   5.723
 4293TIP3   OH212819   4.510   4.802   0.021
 4293TIP3    H112820   4.545   4.717   0.047
 4293TIP3    H212821   4.417   4.798   0.044
 4294TIP3   OH212822   4.815   5.278   5.137
 4294TIP3    H112823   4.893   5.318   5.176
 4294TIP3    H212824   4.744   5.338   5.156
 4295TIP3   OH212825   4.030   4.280   2.572
 4295TIP3    H112826   4.063   4.195   2.601
 4295TIP3    H212827   4.080   4.344   2.622
 4296TIP3   OH212828   8.119   4.275   6.150
 4296TIP3    H112829   8.036   4.247   6.111
 4296TIP3    H212830   8.165   4.320   6.079
 4297TIP3   OH212831   2.220   4.794   3.940
 4297TIP3    H112832   2.219   4.703   3.911
 4297TIP3    H212833   2.131   4.824   3.926
 4298TIP3   OH212834   6.115   6.119   2.577
 4298TIP3    H112835   6.079   6.162   2.655
 4298TIP3    H212836   6.207   6.146   2.576
 4299TIP3   OH212837   8.308   6.471   6.119
 4299TIP3    H112838   8.252   6.402   6.151
 4299TIP3    H212839   8.304   6.463   6.023
 4300TIP3   OH212840   3.032   2.926   4.029
 4300TIP3    H112841   3.032   2.866   3.954
 4300TIP3    H212842   2.940   2.941   4.048
 4301TIP3   OH212843   6.285   2.764   3.496
 4301TIP3    H112844   6.362   2.773   3.441
 4301TIP3    H212845   6.212   2.788   3.439
 4302TIP3   OH212846   4.588   1.435   4.832
 4302TIP3    H112847   4.643   1.484   4.772
 4302TIP3    H212848   4.512   1.491   4.848
 4303TIP3   OH212849   7.583   1.055   0.101
 4303TIP3    H112850   7.641   1.073   0.026
 4303TIP3    H212851   7.636   1.001   0.160
 4304TIP3   OH212852   3.922   4.042   5.523
 4304TIP3    H112853   3.859   4.027   5.453
 4304TIP3    H212854   3.871   4.034   5.604
 4305TIP3   OH212855   5.047   4.678   2.133
 4305TIP3    H112856   5.039   4.601   2.076
 4305TIP3    H212857   5.127   4.661   2.183
 4306TIP3   OH212858   4.443   6.105   1.282
 4306TIP3    H112859   4.444   6.010   1.289
 4306TIP3    H212860   4.535   6.130   1.282
 4307TIP3   OH212861   4.856   1.500   1.399
 4307TIP3    H112862   4.786   1.519   1.461
 4307TIP3    H212863   4.822   1.427   1.346
 4308TIP3   OH212864   0.470   5.814   5.219
 4308TIP3    H112865   0.506   5.899   5.194
 4308TIP3    H212866   0.507   5.752   5.155
 4309TIP3   OH212867   6.835   4.991   0.521
 4309TIP3    H112868   6.741   4.974   0.512
 4309TIP3    H212869   6.864   5.008   0.432
 4310TIP3   OH212870   7.544   3.351   0.094
 4310TIP3    H112871   7.508   3.305   0.170
 4310TIP3    H212872   7.630   3.311   0.081
 4311TIP3   OH212873   6.098   4.997   3.395
 4311TIP3    H112874   6.038   5.002   3.469
 4311TIP3    H212875   6.168   4.939   3.424
 4312TIP3   OH212876   5.881   5.092   0.731
 4312TIP3    H112877   5.910   5.002   0.713
 4312TIP3    H212878   5.861   5.092   0.825
 4313TIP3   OH212879   4.439   6.986   4.889
 4313TIP3    H112880   4.370   7.044   4.921
 4313TIP3    H212881   4.414   6.899   4.920
 4314TIP3   OH212882   2.711   4.178   1.315
 4314TIP3    H112883   2.753   4.148   1.395
 4314TIP3    H212884   2.647   4.243   1.345
 4315TIP3   OH212885   4.445   6.948   2.853
 4315TIP3    H112886   4.375   6.905   2.803
 4315TIP3    H212887   4.413   7.038   2.865
 4316TIP3   OH212888   3.948   1.856   2.161
 4316TIP3    H112889   3.907   1.934   2.200
 4316TIP3    H212890   3.875   1.795   2.150
 4317TIP3   OH212891   0.810   3.618   4.485
 4317TIP3    H112892   0.745   3.547   4.489
 4317TIP3    H212893   0.783   3.671   4.411
 4318TIP3   OH212894   3.141   6.317   3.217
 4318TIP3    H112895   3.156   6.308   3.311
 4318TIP3    H212896   3.213   6.373   3.186
 4319TIP3   OH212897   0.206   2.364   5.459
 4319TIP3    H112898   0.166   2.444   5.494
 4319TIP3    H212899   0.300   2.378   5.469
 4320TIP3   OH212900   5.122   1.817   0.463
 4320TIP3    H112901   5.106   1.836   0.370
 4320TIP3    H212902   5.134   1.722   0.467
 4321TIP3   OH212903   2.644   0.376   3.287
 4321TIP3    H112904   2.574   0.430   3.323
 4321TIP3    H212905   2.608   0.340   3.206
 4322TIP3   OH212906   3.961   2.402   4.330
 4322TIP3    H112907   3.971   2.397   4.425
 4322TIP3    H212908   3.884   2.349   4.311
 4323TIP3   OH212909   4.838   6.630   1.608
 4323TIP3    H112910   4.885   6.706   1.575
 4323TIP3    H212911   4.902   6.559   1.606
 4324TIP3   OH212912   8.001   7.802   3.816
 4324TIP3    H112913   7.958   7.884   3.794
 4324TIP3    H212914   8.001   7.752   3.734
 4325TIP3   OH212915   3.976   2.098   4.862
 4325TIP3    H112916   3.972   2.069   4.771
 4325TIP3    H212917   3.981   2.193   4.857
 4326TIP3   OH212918   3.628   3.760   4.692
 4326TIP3    H112919   3.687   3.832   4.671
 4326TIP3    H212920   3.683   3.682   4.685
 4327TIP3   OH212921   0.335   3.803   0.482
 4327TIP3    H112922   0.280   3.775   0.555
 4327TIP3    H212923   0.425   3.795   0.516
 4328TIP3   OH212924   4.136   1.853   5.699
 4328TIP3    H112925   4.176   1.812   5.623
 4328TIP3    H212926   4.205   1.910   5.734
 4329TIP3   OH212927   2.101   3.806   0.653
 4329TIP3    H112928   2.084   3.841   0.566
 4329TIP3    H212929   2.185   3.760   0.645
 4330TIP3   OH212930   3.633   3.772   2.559
 4330TIP3    H112931   3.547   3.772   2.601
 4330TIP3    H212932   3.617   3.809   2.472
 4331TIP3   OH212933   5.019   7.608   0.344
 4331TIP3    H112934   5.003   7.699   0.369
 4331TIP3    H212935   4.969   7.597   0.263
 4332TIP3   OH212936   0.738   6.628   0.103
 4332TIP3    H112937   0.684   6.653   0.178
 4332TIP3    H212938   0.768   6.712   0.068
 4333TIP3   OH212939   2.201   0.072   4.811
 4333TIP3    H112940   2.180   0.103   4.898
 4333TIP3    H212941   2.241   0.147   4.767
 4334TIP3   OH212942   5.070   5.129   4.726
 4334TIP3    H112943   5.084   5.117   4.632
 4334TIP3    H212944   5.027   5.215   4.733
 4335TIP3   OH212945   2.665   0.576   6.025
 4335TIP3    H112946   2.681   0.569   5.931
 4335TIP3    H212947   2.739   0.530   6.065
 4336TIP3   OH212948   0.539   3.825   2.981
 4336TIP3    H112949   0.597   3.862   3.048
 4336TIP3    H212950   0.598   3.780   2.921
 4337TIP3   OH212951   2.262   7.152   2.261
 4337TIP3    H112952   2.269   7.074   2.315
 4337TIP3    H212953   2.323   7.214   2.300
 4338TIP3   OH212954   6.830   2.136   0.070
 4338TIP3    H112955   6.887   2.061   0.088
 4338TIP3    H212956   6.742   2.098   0.070
 4339TIP3   OH212957   7.748   6.578   6.596
 4339TIP3    H112958   7.724   6.563   6.688
 4339TIP3    H212959   7.668   6.561   6.547
 4340TIP3   OH212960   0.073   7.744   3.709
 4340TIP3    H112961   0.150   7.699   3.745
 4340TIP3    H212962   0.099   7.836   3.703
 4341TIP3   OH212963   6.232   4.841   3.690
 4341TIP3    H112964   6.212   4.782   3.762
 4341TIP3    H212965   6.226   4.787   3.611
 4342TIP3   OH212966   1.691   3.792   3.701
 4342TIP3    H112967   1.741   3.728   3.752
 4342TIP3    H212968   1.719   3.777   3.611
 4343TIP3   OH212969   1.992   7.261   1.744
 4343TIP3    H112970   1.956   7.243   1.831
 4343TIP3    H212971   2.006   7.356   1.743
 4344TIP3   OH212972   7.912   6.333   0.614
 4344TIP3    H112973   7.823   6.300   0.597
 4344TIP3    H212974   7.957   6.259   0.654
 4345TIP3   OH212975   3.269   2.710   2.706
 4345TIP3    H112976   3.353   2.693   2.663
 4345TIP3    H212977   3.205   2.709   2.635
 4346TIP3   OH212978   7.876   2.489   2.584
 4346TIP3    H112979   7.875   2.413   2.643
 4346TIP3    H212980   7.876   2.451   2.496
 4347TIP3   OH212981   3.233   0.349   1.284
 4347TIP3    H112982   3.310   0.341   1.228
 4347TIP3    H212983   3.186   0.425   1.251
 4348TIP3   OH212984   4.554   1.397   6.806
 4348TIP3    H112985   4.515   1.484   6.797
 4348TIP3    H212986   4.503   1.355   6.875
 4349TIP3   OH212987   0.764   1.613   1.298
 4349TIP3    H112988   0.701   1.554   1.257
 4349TIP3    H212989   0.736   1.700   1.271
 4350TIP3   OH212990   0.372   0.423   1.260
 4350TIP3    H112991   0.356   0.328   1.265
 4350TIP3    H212992   0.348   0.456   1.347
 4351TIP3   OH212993   6.998   6.122   0.336
 4351TIP3    H112994   7.071   6.148   0.393
 4351TIP3    H212995   6.988   6.195   0.276
 4352TIP3   OH212996   1.190   7.543   2.074
 4352TIP3    H112997   1.239   7.565   2.153
 4352TIP3    H212998   1.251   7.492   2.020
 4353TIP3   OH212999   1.031   4.627   5.522
 4353TIP3    H113000   1.054   4.635   5.615
 4353TIP3    H213001   1.092   4.561   5.488
 4354TIP3   OH213002   5.392   6.521   6.666
 4354TIP3    H113003   5.440   6.602   6.680
 4354TIP3    H213004   5.442   6.475   6.598
 4355TIP3   OH213005   1.196   1.998   2.931
 4355TIP3    H113006   1.182   2.009   3.025
 4355TIP3    H213007   1.289   1.976   2.922
 4356TIP3   OH213008   5.783   4.406   4.811
 4356TIP3    H113009   5.697   4.447   4.806
 4356TIP3    H213010   5.772   4.323   4.764
 4357TIP3   OH213011   5.046   0.830   6.217
 4357TIP3    H113012   5.120   0.881   6.249
 4357TIP3    H213013   5.079   0.741   6.207
 4358TIP3   OH213014   0.743   2.143   1.285
 4358TIP3    H113015   0.686   2.169   1.213
 4358TIP3    H213016   0.696   2.072   1.328
 4359TIP3   OH213017   7.438   3.057   1.861
 4359TIP3    H113018   7.521   3.032   1.820
 4359TIP3    H213019   7.385   2.977   1.857
 4360TIP3   OH213020   7.740   4.676   4.273
 4360TIP3    H113021   7.742   4.708   4.183
 4360TIP3    H213022   7.789   4.741   4.323
 4361TIP3   OH213023   0.450   1.818   5.586
 4361TIP3    H113024   0.487   1.862   5.510
 4361TIP3    H213025   0.521   1.817   5.650
 4362TIP3   OH213026   5.892   4.806   4.451
 4362TIP3    H113027   5.962   4.852   4.405
 4362TIP3    H213028   5.934   4.727   4.487
 4363TIP3   OH213029   0.676   3.330   2.027
 4363TIP3    H113030   0.735   3.254   2.033
 4363TIP3    H213031   0.681   3.370   2.114
 4364TIP3   OH213032   0.440   2.060   6.286
 4364TIP3    H113033   0.414   1.967   6.285
 4364TIP3    H213034   0.356   2.107   6.285
 4365TIP3   OH213035   1.820   4.011   6.187
 4365TIP3    H113036   1.770   3.977   6.113
 4365TIP3    H213037   1.812   3.943   6.254
 4366TIP3   OH213038   2.664   4.147   1.995
 4366TIP3    H113039   2.699   4.084   1.931
 4366TIP3    H213040   2.569   4.136   1.988
 4367TIP3   OH213041   7.965   3.901   6.583
 4367TIP3    H113042   7.910   3.979   6.578
 4367TIP3    H213043   8.054   3.934   6.596
 4368TIP3   OH213044   5.608   3.154   0.796
 4368TIP3    H113045   5.572   3.238   0.768
 4368TIP3    H213046   5.581   3.092   0.728
 4369TIP3   OH213047   7.658   5.427   6.289
 4369TIP3    H113048   7.614   5.342   6.292
 4369TIP3    H213049   7.730   5.418   6.353
 4370TIP3   OH213050   1.390   6.731   2.142
 4370TIP3    H113051   1.382   6.700   2.052
 4370TIP3    H213052   1.483   6.749   2.153
 4371TIP3   OH213053   5.877   5.830   0.874
 4371TIP3    H113054   5.823   5.794   0.803
 4371TIP3    H213055   5.938   5.889   0.830
 4372TIP3   OH213056   2.022   0.357   6.134
 4372TIP3    H113057   2.040   0.316   6.050
 4372TIP3    H213058   1.961   0.428   6.115
 4373TIP3   OH213059   5.396   5.289   1.597
 4373TIP3    H113060   5.345   5.237   1.535
 4373TIP3    H213061   5.427   5.364   1.546
 4374TIP3   OH213062   1.517   5.642   0.999
 4374TIP3    H113063   1.476   5.561   1.030
 4374TIP3    H213064   1.511   5.635   0.903
 4375TIP3   OH213065   1.604   7.611   1.408
 4375TIP3    H113066   1.627   7.595   1.316
 4375TIP3    H213067   1.509   7.598   1.411
 4376TIP3   OH213068   2.948   2.056   4.038
 4376TIP3    H113069   2.927   2.135   3.989
 4376TIP3    H213070   2.974   1.992   3.971
 4377TIP3   OH213071   6.652   6.191   5.479
 4377TIP3    H113072   6.710   6.266   5.493
 4377TIP3    H213073   6.683   6.125   5.541
 4378TIP3   OH213074   3.231   3.115   4.036
 4378TIP3    H113075   3.296   3.065   4.085
 4378TIP3    H213076   3.164   3.051   4.014
 4379TIP3   OH213077   6.161   7.449   2.257
 4379TIP3    H113078   6.255   7.460   2.246
 4379TIP3    H213079   6.144   7.470   2.348
 4380TIP3   OH213080   2.910   5.062   0.456
 4380TIP3    H113081   2.888   5.125   0.524
 4380TIP3    H213082   2.893   5.108   0.374
 4381TIP3   OH213083   6.923   0.533   6.439
 4381TIP3    H113084   6.882   0.523   6.353
 4381TIP3    H213085   6.850   0.535   6.501
 4382TIP3   OH213086   4.592   5.609   1.396
 4382TIP3    H113087   4.572   5.694   1.357
 4382TIP3    H213088   4.599   5.626   1.490
 4383TIP3   OH213089   1.663   0.040   0.294
 4383TIP3    H113090   1.639   0.013   0.382
 4383TIP3    H213091   1.586   0.087   0.261
 4384TIP3   OH213092   4.925   2.588   3.815
 4384TIP3    H113093   4.859   2.632   3.869
 4384TIP3    H213094   4.876   2.558   3.738
 4385TIP3   OH213095   0.879   5.628   2.555
 4385TIP3    H113096   0.803   5.593   2.601
 4385TIP3    H213097   0.939   5.653   2.625
 4386TIP3   OH213098   3.809   2.350   0.651
 4386TIP3    H113099   3.801   2.308   0.566
 4386TIP3    H213100   3.862   2.428   0.635
 4387TIP3   OH213101   3.428   2.901   1.044
 4387TIP3    H113102   3.350   2.899   1.100
 4387TIP3    H213103   3.413   2.830   0.981
 4388TIP3   OH213104   3.557   4.375   1.061
 4388TIP3    H113105   3.524   4.463   1.041
 4388TIP3    H213106   3.562   4.332   0.975
 4389TIP3   OH213107   3.487   3.187   0.112
 4389TIP3    H113108   3.537   3.268   0.110
 4389TIP3    H213109   3.524   3.134   0.041
 4390TIP3   OH213110   4.960   0.833  -0.003
 4390TIP3    H113111   5.007   0.756   0.029
 4390TIP3    H213112   4.919   0.870   0.075
 4391TIP3   OH213113   3.473   0.272   6.175
 4391TIP3    H113114   3.393   0.277   6.227
 4391TIP3    H213115   3.535   0.328   6.222
 4392TIP3   OH213116   7.119   2.875   6.650
 4392TIP3    H113117   7.078   2.955   6.618
 4392TIP3    H213118   7.193   2.906   6.703
 4393TIP3   OH213119   6.211   6.344   1.050
 4393TIP3    H113120   6.251   6.394   0.979
 4393TIP3    H213121   6.239   6.390   1.130
 4394TIP3   OH213122   1.717   0.421   3.511
 4394TIP3    H113123   1.788   0.421   3.576
 4394TIP3    H213124   1.660   0.493   3.537
 4395TIP3   OH213125   5.207   2.438   2.761
 4395TIP3    H113126   5.275   2.499   2.732
 4395TIP3    H213127   5.142   2.492   2.805
 4396TIP3   OH213128   2.054   6.359   2.709
 4396TIP3    H113129   2.039   6.447   2.674
 4396TIP3    H213130   2.071   6.306   2.631
 4397TIP3   OH213131   4.213   2.069   2.839
 4397TIP3    H113132   4.208   1.981   2.801
 4397TIP3    H213133   4.180   2.127   2.771
 4398TIP3   OH213134   7.478   6.979   5.738
 4398TIP3    H113135   7.467   6.964   5.644
 4398TIP3    H213136   7.510   7.069   5.745
 4399TIP3   OH213137   2.089   3.670   4.822
 4399TIP3    H113138   2.047   3.752   4.798
 4399TIP3    H213139   2.036   3.636   4.894
 4400TIP3   OH213140   7.004   1.082   3.966
 4400TIP3    H113141   6.973   1.014   4.026
 4400TIP3    H213142   7.013   1.160   4.020
 4401TIP3   OH213143   1.621   4.824   1.251
 4401TIP3    H113144   1.691   4.889   1.250
 4401TIP3    H213145   1.540   4.876   1.251
 4402TIP3   OH213146   5.768   7.656   0.521
 4402TIP3    H113147   5.820   7.647   0.442
 4402TIP3    H213148   5.804   7.591   0.582
 4403TIP3   OH213149   7.226   4.915   2.042
 4403TIP3    H113150   7.229   4.827   2.079
 4403TIP3    H213151   7.151   4.957   2.085
 4404TIP3   OH213152   6.419   4.585   5.053
 4404TIP3    H113153   6.474   4.647   5.101
 4404TIP3    H213154   6.363   4.640   4.999
 4405TIP3   OH213155   1.694   7.411   1.710
 4405TIP3    H113156   1.734   7.499   1.713
 4405TIP3    H213157   1.680   7.395   1.617
 4406TIP3   OH213158   5.771   1.522   3.707
 4406TIP3    H113159   5.753   1.609   3.670
 4406TIP3    H213160   5.840   1.537   3.771
 4407TIP3   OH213161   7.499   1.520   1.122
 4407TIP3    H113162   7.590   1.491   1.124
 4407TIP3    H213163   7.458   1.474   1.195
 4408TIP3   OH213164   4.695   2.253   3.984
 4408TIP3    H113165   4.709   2.171   4.031
 4408TIP3    H213166   4.639   2.229   3.911
 4409TIP3   OH213167   4.558   6.163   0.007
 4409TIP3    H113168   4.589   6.075  -0.010
 4409TIP3    H213169   4.618   6.198   0.072
 4410TIP3   OH213170   5.996   2.930   1.141
 4410TIP3    H113171   5.917   2.893   1.180
 4410TIP3    H213172   5.964   2.986   1.070
 4411TIP3   OH213173   7.068   7.773   6.844
 4411TIP3    H113174   7.055   7.742   6.934
 4411TIP3    H213175   7.032   7.703   6.790
 4412TIP3   OH213176   7.680   2.056   3.434
 4412TIP3    H113177   7.676   2.144   3.470
 4412TIP3    H213178   7.613   2.007   3.480
 4413TIP3   OH213179   7.746   1.852   6.530
 4413TIP3    H113180   7.713   1.942   6.529
 4413TIP3    H213181   7.667   1.798   6.538
 4414TIP3   OH213182   4.012   7.768   6.191
 4414TIP3    H113183   4.015   7.673   6.179
 4414TIP3    H213184   3.949   7.798   6.125
 4415TIP3   OH213185   8.359   5.082   4.875
 4415TIP3    H113186   8.417   5.145   4.833
 4415TIP3    H213187   8.272   5.121   4.867
 4416TIP3   OH213188   2.148   2.749   6.658
 4416TIP3    H113189   2.080   2.730   6.593
 4416TIP3    H213190   2.105   2.808   6.721
 4417TIP3   OH213191   7.505   6.557   4.283
 4417TIP3    H113192   7.598   6.578   4.271
 4417TIP3    H213193   7.470   6.558   4.194
 4418TIP3   OH213194   2.694   0.062   0.571
 4418TIP3    H113195   2.655   0.018   0.495
 4418TIP3    H213196   2.710   0.151   0.541
 4419TIP3   OH213197   7.025   4.135   3.350
 4419TIP3    H113198   7.028   4.129   3.255
 4419TIP3    H213199   6.941   4.176   3.370
 4420TIP3   OH213200   3.562   1.434   5.723
 4420TIP3    H113201   3.622   1.479   5.782
 4420TIP3    H213202   3.516   1.504   5.676
 4421TIP3   OH213203   6.004   5.728   0.271
 4421TIP3    H113204   5.911   5.715   0.290
 4421TIP3    H213205   6.039   5.768   0.350
 4422TIP3   OH213206   7.756   3.194   1.211
 4422TIP3    H113207   7.758   3.210   1.306
 4422TIP3    H213208   7.796   3.108   1.201
 4423TIP3   OH213209   5.649   1.473   5.616
 4423TIP3    H113210   5.699   1.395   5.589
 4423TIP3    H213211   5.598   1.444   5.692
 4424TIP3   OH213212   4.454   0.761   4.433
 4424TIP3    H113213   4.490   0.707   4.363
 4424TIP3    H213214   4.442   0.847   4.393
 4425TIP3   OH213215   7.237   6.210   5.993
 4425TIP3    H113216   7.252   6.303   5.975
 4425TIP3    H213217   7.270   6.165   5.916
 4426TIP3   OH213218   4.090   7.235   5.370
 4426TIP3    H113219   4.036   7.246   5.449
 4426TIP3    H213220   4.166   7.290   5.385
 4427TIP3   OH213221   8.157   5.461   6.311
 4427TIP3    H113222   8.121   5.479   6.224
 4427TIP3    H213223   8.247   5.496   6.307
 4428TIP3   OH213224   2.718   1.643   2.538
 4428TIP3    H113225   2.711   1.736   2.560
 4428TIP3    H213226   2.789   1.639   2.473
 4429TIP3   OH213227   7.926   1.865   6.028
 4429TIP3    H113228   7.854   1.903   6.078
 4429TIP3    H213229   7.976   1.940   5.995
 4430TIP3   OH213230   4.360   2.890   4.678
 4430TIP3    H113231   4.402   2.814   4.639
 4430TIP3    H213232   4.356   2.955   4.608
 4431TIP3   OH213233   2.714   4.883   1.612
 4431TIP3    H113234   2.650   4.953   1.625
 4431TIP3    H213235   2.720   4.840   1.697
 4432TIP3   OH213236   5.440   5.789   3.675
 4432TIP3    H113237   5.422   5.882   3.683
 4432TIP3    H213238   5.519   5.775   3.728
 4433TIP3   OH213239   0.122   4.071   1.468
 4433TIP3    H113240   0.081   4.026   1.394
 4433TIP3    H213241   0.090   4.025   1.545
 4434TIP3   OH213242   6.729   3.764   1.466
 4434TIP3    H113243   6.721   3.850   1.506
 4434TIP3    H213244   6.640   3.729   1.465
 4435TIP3   OH213245   5.025   4.357   5.453
 4435TIP3    H113246   5.060   4.394   5.372
 4435TIP3    H213247   4.930   4.360   5.442
 4436TIP3   OH213248   4.219   5.460   3.352
 4436TIP3    H113249   4.200   5.375   3.392
 4436TIP3    H213250   4.177   5.524   3.411
 4437TIP3   OH213251   2.221   6.890   0.800
 4437TIP3    H113252   2.291   6.879   0.736
 4437TIP3    H213253   2.173   6.967   0.770
 4438TIP3   OH213254   6.872   6.139   1.532
 4438TIP3    H113255   6.806   6.086   1.487
 4438TIP3    H213256   6.834   6.157   1.618
 4439TIP3   OH213257   6.332   7.616   3.590
 4439TIP3    H113258   6.369   7.618   3.678
 4439TIP3    H213259   6.296   7.703   3.577
 4440TIP3   OH213260   7.432   7.376   6.196
 4440TIP3    H113261   7.451   7.370   6.290
 4440TIP3    H213262   7.421   7.286   6.168
 4441TIP3   OH213263   4.833   3.064   3.257
 4441TIP3    H113264   4.792   3.145   3.224
 4441TIP3    H213265   4.927   3.080   3.250
 4442TIP3   OH213266   5.683   3.147   6.071
 4442TIP3    H113267   5.665   3.057   6.098
 4442TIP3    H213268   5.712   3.191   6.151
 4443TIP3   OH213269   2.118   6.274   5.576
 4443TIP3    H113270   2.184   6.205   5.567
 4443TIP3    H213271   2.119   6.320   5.492
 4444TIP3   OH213272   7.278   7.261   1.801
 4444TIP3    H113273   7.197   7.217   1.775
 4444TIP3    H213274   7.326   7.195   1.851
 4445TIP3   OH213275   6.189   2.716   2.379
 4445TIP3    H113276   6.240   2.680   2.451
 4445TIP3    H213277   6.164   2.803   2.408
 4446TIP3   OH213278   6.050   4.193   3.311
 4446TIP3    H113279   6.125   4.207   3.253
 4446TIP3    H213280   5.978   4.240   3.268
 4447TIP3   OH213281   1.947   7.696   1.260
 4447TIP3    H113282   2.010   7.723   1.193
 4447TIP3    H213283   1.904   7.619   1.224
 4448TIP3   OH213284   1.947   5.494   2.060
 4448TIP3    H113285   1.989   5.500   1.975
 4448TIP3    H213286   2.012   5.526   2.122
 4449TIP3   OH213287   1.694   1.738   2.362
 4449TIP3    H113288   1.771   1.727   2.417
 4449TIP3    H213289   1.728   1.763   2.277
 4450TIP3   OH213290   1.296   4.419   2.589
 4450TIP3    H113291   1.349   4.454   2.661
 4450TIP3    H213292   1.324   4.469   2.512
 4451TIP3   OH213293   6.935   7.006   6.285
 4451TIP3    H113294   6.985   7.085   6.262
 4451TIP3    H213295   6.857   7.039   6.329
 4452TIP3   OH213296   3.613   6.131   4.215
 4452TIP3    H113297   3.705   6.140   4.193
 4452TIP3    H213298   3.584   6.220   4.235
 4453TIP3   OH213299   4.288   0.251   3.539
 4453TIP3    H113300   4.370   0.271   3.495
 4453TIP3    H213301   4.284   0.155   3.541
 4454TIP3   OH213302   3.511   3.508   4.162
 4454TIP3    H113303   3.526   3.524   4.069
 4454TIP3    H213304   3.523   3.594   4.203
 4455TIP3   OH213305   3.269   2.069   2.722
 4455TIP3    H113306   3.196   2.032   2.673
 4455TIP3    H213307   3.256   2.036   2.812
 4456TIP3   OH213308   2.110   6.767   2.848
 4456TIP3    H113309   2.122   6.726   2.933
 4456TIP3    H213310   2.123   6.697   2.784
 4457TIP3   OH213311   5.453   3.123   4.106
 4457TIP3    H113312   5.516   3.171   4.053
 4457TIP3    H213313   5.489   3.126   4.195
 4458TIP3   OH213314   1.533   1.654   6.177
 4458TIP3    H113315   1.604   1.600   6.143
 4458TIP3    H213316   1.523   1.724   6.112
 4459TIP3   OH213317   3.299   7.820   2.363
 4459TIP3    H113318   3.251   7.872   2.428
 4459TIP3    H213319   3.365   7.880   2.328
 4460TIP3   OH213320   5.077   1.347   3.538
 4460TIP3    H113321   5.029   1.281   3.488
 4460TIP3    H213322   5.103   1.302   3.618
 4461TIP3   OH213323   4.963   4.670   4.021
 4461TIP3    H113324   4.927   4.586   4.049
 4461TIP3    H213325   5.058   4.657   4.020
 4462TIP3   OH213326   2.175   4.397   5.760
 4462TIP3    H113327   2.185   4.461   5.690
 4462TIP3    H213328   2.133   4.445   5.831
 4463TIP3   OH213329   6.400   0.533   1.065
 4463TIP3    H113330   6.442   0.530   0.979
 4463TIP3    H213331   6.374   0.442   1.082
 4464TIP3   OH213332   5.540   4.714   0.695
 4464TIP3    H113333   5.457   4.668   0.701
 4464TIP3    H213334   5.572   4.694   0.607
 4465TIP3   OH213335   6.334   6.171   0.234
 4465TIP3    H113336   6.263   6.114   0.204
 4465TIP3    H213337   6.328   6.249   0.179
 4466TIP3   OH213338   2.976   1.111   5.570
 4466TIP3    H113339   3.028   1.077   5.497
 4466TIP3    H213340   2.945   1.197   5.539
 4467TIP3   OH213341   0.179   2.933   5.649
 4467TIP3    H113342   0.183   3.013   5.598
 4467TIP3    H213343   0.264   2.928   5.693
 4468TIP3   OH213344   1.657   0.663   2.965
 4468TIP3    H113345   1.659   0.628   2.875
 4468TIP3    H213346   1.736   0.717   2.971
 4469TIP3   OH213347   6.696   7.097   3.966
 4469TIP3    H113348   6.646   7.159   3.913
 4469TIP3    H213349   6.774   7.146   3.992
 4470TIP3   OH213350   4.301   2.974   3.695
 4470TIP3    H113351   4.263   2.975   3.783
 4470TIP3    H213352   4.232   2.937   3.640
 4471TIP3   OH213353   6.236   3.637   5.241
 4471TIP3    H113354   6.275   3.686   5.313
 4471TIP3    H213355   6.166   3.694   5.208
 4472TIP3   OH213356   2.194   0.043   1.552
 4472TIP3    H113357   2.105   0.019   1.526
 4472TIP3    H213358   2.250   0.010   1.481
 4473TIP3   OH213359   8.122   7.608   1.991
 4473TIP3    H113360   8.065   7.591   2.066
 4473TIP3    H213361   8.162   7.523   1.971
 4474TIP3   OH213362   3.386   2.216   2.096
 4474TIP3    H113363   3.381   2.294   2.040
 4474TIP3    H213364   3.319   2.231   2.163
 4475TIP3   OH213365   5.585   5.930   5.966
 4475TIP3    H113366   5.502   5.971   5.988
 4475TIP3    H213367   5.569   5.887   5.882
 4476TIP3   OH213368   3.295   0.889   3.759
 4476TIP3    H113369   3.265   0.976   3.788
 4476TIP3    H213370   3.389   0.891   3.773
 4477TIP3   OH213371   4.546   7.218   2.704
 4477TIP3    H113372   4.524   7.286   2.641
 4477TIP3    H213373   4.464   7.170   2.718
 4478TIP3   OH213374   7.274   5.727   2.877
 4478TIP3    H113375   7.353   5.687   2.841
 4478TIP3    H213376   7.226   5.654   2.916
 4479TIP3   OH213377   2.256   6.137   0.763
 4479TIP3    H113378   2.215   6.186   0.834
 4479TIP3    H213379   2.336   6.186   0.743
 4480TIP3   OH213380   8.253   2.091   5.178
 4480TIP3    H113381   8.306   2.069   5.101
 4480TIP3    H213382   8.283   2.177   5.204
 4481TIP3   OH213383   2.571   4.841   1.013
 4481TIP3    H113384   2.622   4.785   1.071
 4481TIP3    H213385   2.486   4.849   1.056
 4482TIP3   OH213386   2.259   2.132   0.032
 4482TIP3    H113387   2.345   2.162   0.061
 4482TIP3    H213388   2.261   2.037   0.046
 4483TIP3   OH213389   4.043   4.762   3.107
 4483TIP3    H113390   4.126   4.790   3.069
 4483TIP3    H213391   3.979   4.825   3.073
 4484TIP3   OH213392   4.907   1.840   3.962
 4484TIP3    H113393   4.946   1.772   4.017
 4484TIP3    H213394   4.981   1.894   3.934
 4485TIP3   OH213395   4.027   6.369   0.576
 4485TIP3    H113396   4.036   6.459   0.606
 4485TIP3    H213397   4.001   6.320   0.654
 4486TIP3   OH213398   1.323   1.634   5.240
 4486TIP3    H113399   1.367   1.699   5.186
 4486TIP3    H213400   1.394   1.586   5.283
 4487TIP3   OH213401   2.773   5.692   2.868
 4487TIP3    H113402   2.736   5.769   2.910
 4487TIP3    H213403   2.851   5.724   2.823
 4488TIP3   OH213404   6.531   1.930   4.376
 4488TIP3    H113405   6.569   1.952   4.291
 4488TIP3    H213406   6.518   2.015   4.419
 4489TIP3   OH213407   7.680   4.461   0.043
 4489TIP3    H113408   7.660   4.538  -0.011
 4489TIP3    H213409   7.738   4.494   0.112
 4490TIP3   OH213410   5.416   4.315   3.858
 4490TIP3    H113411   5.395   4.387   3.918
 4490TIP3    H213412   5.348   4.318   3.791
 4491TIP3   OH213413   0.567   2.934   6.494
 4491TIP3    H113414   0.551   2.862   6.555
 4491TIP3    H213415   0.488   2.987   6.497
 4492TIP3   OH213416   0.950   2.037   6.166
 4492TIP3    H113417   0.858   2.038   6.195
 4492TIP3    H213418   0.956   2.111   6.105
 4493TIP3   OH213419   1.065   0.895   1.986
 4493TIP3    H113420   1.129   0.966   1.997
 4493TIP3    H213421   1.063   0.852   2.072
 4494TIP3   OH213422   3.587   7.595   5.346
 4494TIP3    H113423   3.525   7.664   5.370
 4494TIP3    H213424   3.532   7.519   5.326
 4495TIP3   OH213425   7.624   4.553   0.389
 4495TIP3    H113426   7.704   4.529   0.343
 4495TIP3    H213427   7.575   4.605   0.326
 4496TIP3   OH213428   5.475   2.269   0.422
 4496TIP3    H113429   5.489   2.359   0.452
 4496TIP3    H213430   5.396   2.240   0.466
 4497TIP3   OH213431   6.630   6.056   6.814
 4497TIP3    H113432   6.620   6.020   6.902
 4497TIP3    H213433   6.558   6.018   6.764
 4498TIP3   OH213434   7.537   2.611   6.219
 4498TIP3    H113435   7.524   2.594   6.126
 4498TIP3    H213436   7.592   2.690   6.221
 4499TIP3   OH213437   5.085   1.433   2.034
 4499TIP3    H113438   5.005   1.424   2.087
 4499TIP3    H213439   5.112   1.343   2.017
 4500TIP3   OH213440   3.479   4.090   0.995
 4500TIP3    H113441   3.549   4.088   1.060
 4500TIP3    H213442   3.521   4.124   0.916
 4501TIP3   OH213443   5.870   2.284   4.604
 4501TIP3    H113444   5.776   2.276   4.620
 4501TIP3    H213445   5.910   2.251   4.684
 4502TIP3   OH213446   4.487   0.297   1.641
 4502TIP3    H113447   4.425   0.224   1.631
 4502TIP3    H213448   4.463   0.338   1.724
 4503TIP3   OH213449   3.753   4.885   3.535
 4503TIP3    H113450   3.783   4.856   3.450
 4503TIP3    H213451   3.659   4.865   3.536
 4504TIP3   OH213452   1.115   1.380   5.666
 4504TIP3    H113453   1.036   1.329   5.648
 4504TIP3    H213454   1.167   1.325   5.724
 4505TIP3   OH213455   0.410   0.852   4.425
 4505TIP3    H113456   0.361   0.933   4.440
 4505TIP3    H213457   0.498   0.881   4.400
 4506TIP3   OH213458   0.787   7.052   4.271
 4506TIP3    H113459   0.840   7.132   4.270
 4506TIP3    H213460   0.697   7.083   4.258
 4507TIP3   OH213461   6.648   1.545   3.202
 4507TIP3    H113462   6.702   1.618   3.233
 4507TIP3    H213463   6.570   1.587   3.165
 4508TIP3   OH213464   1.188   6.299   0.165
 4508TIP3    H113465   1.191   6.389   0.134
 4508TIP3    H213466   1.118   6.258   0.113
 4509TIP3   OH213467   1.530   1.357   3.574
 4509TIP3    H113468   1.604   1.406   3.610
 4509TIP3    H213469   1.454   1.411   3.594
 4510TIP3   OH213470   0.064   7.063   2.381
 4510TIP3    H113471   0.070   7.003   2.455
 4510TIP3    H213472   0.087   7.010   2.305
 4511TIP3   OH213473   8.141   4.849   0.219
 4511TIP3    H113474   8.228   4.878   0.247
 4511TIP3    H213475   8.084   4.924   0.236
 4512TIP3   OH213476   0.667   5.664   1.266
 4512TIP3    H113477   0.590   5.615   1.294
 4512TIP3    H213478   0.635   5.719   1.194
 4513TIP3   OH213479   5.540   5.687   0.103
 4513TIP3    H113480   5.463   5.739   0.124
 4513TIP3    H213481   5.544   5.688   0.007
 4514TIP3   OH213482   7.441   0.201   3.796
 4514TIP3    H113483   7.374   0.217   3.729
 4514TIP3    H213484   7.481   0.118   3.771
 4515TIP3   OH213485   3.620   0.458   5.159
 4515TIP3    H113486   3.596   0.539   5.203
 4515TIP3    H213487   3.648   0.485   5.072
 4516TIP3   OH213488   0.673   7.730   1.888
 4516TIP3    H113489   0.710   7.670   1.823
 4516TIP3    H213490   0.579   7.710   1.888
 4517TIP3   OH213491   5.046   7.576   0.969
 4517TIP3    H113492   5.090   7.572   0.884
 4517TIP3    H213493   5.032   7.670   0.984
 4518TIP3   OH213494   1.543   3.490   1.988
 4518TIP3    H113495   1.485   3.429   2.034
 4518TIP3    H213496   1.485   3.556   1.951
 4519TIP3   OH213497   7.554   4.841   3.214
 4519TIP3    H113498   7.550   4.934   3.191
 4519TIP3    H213499   7.551   4.839   3.309
 4520TIP3   OH213500   2.813   6.951   3.842
 4520TIP3    H113501   2.895   6.994   3.817
 4520TIP3    H213502   2.841   6.872   3.889
 4521TIP3   OH213503   3.030   0.344   5.445
 4521TIP3    H113504   3.075   0.269   5.483
 4521TIP3    H213505   3.060   0.347   5.354
 4522TIP3   OH213506   1.337   1.551   2.113
 4522TIP3    H113507   1.284   1.478   2.081
 4522TIP3    H213508   1.306   1.627   2.064
 4523TIP3   OH213509   7.639   7.678   3.642
 4523TIP3    H113510   7.628   7.589   3.609
 4523TIP3    H213511   7.719   7.709   3.600
 4524TIP3   OH213512   5.298   3.270   6.320
 4524TIP3    H113513   5.320   3.347   6.373
 4524TIP3    H213514   5.232   3.301   6.258
 4525TIP3   OH213515   1.816   1.395   5.760
 4525TIP3    H113516   1.825   1.348   5.678
 4525TIP3    H213517   1.819   1.327   5.828
 4526TIP3   OH213518   7.657   4.196   0.278
 4526TIP3    H113519   7.675   4.196   0.372
 4526TIP3    H213520   7.724   4.253   0.240
 4527TIP3   OH213521   6.294   3.894   0.829
 4527TIP3    H113522   6.343   3.832   0.883
 4527TIP3    H213523   6.360   3.933   0.772
 4528TIP3   OH213524   5.324   2.769   5.182
 4528TIP3    H113525   5.385   2.700   5.208
 4528TIP3    H213526   5.379   2.835   5.140
 4529TIP3   OH213527   4.022   2.567   0.657
 4529TIP3    H113528   4.013   2.620   0.736
 4529TIP3    H213529   4.029   2.631   0.586
 4530TIP3   OH213530   7.290   3.495   3.456
 4530TIP3    H113531   7.259   3.427   3.396
 4530TIP3    H213532   7.323   3.564   3.399
 4531TIP3   OH213533   3.000   2.461   5.669
 4531TIP3    H113534   3.003   2.480   5.763
 4531TIP3    H213535   3.077   2.406   5.654
 4532TIP3   OH213536   1.579   4.910   2.890
 4532TIP3    H113537   1.521   4.984   2.910
 4532TIP3    H213538   1.637   4.905   2.966
 4533TIP3   OH213539   5.161   2.911   2.610
 4533TIP3    H113540   5.142   2.831   2.561
 4533TIP3    H213541   5.169   2.884   2.701
 4534TIP3   OH213542   0.164   5.393   5.415
 4534TIP3    H113543   0.158   5.426   5.505
 4534TIP3    H213544   0.162   5.298   5.424
 4535TIP3   OH213545   6.836   1.441   5.709
 4535TIP3    H113546   6.751   1.484   5.698
 4535TIP3    H213547   6.828   1.390   5.789
 4536TIP3   OH213548   4.040   4.251   0.579
 4536TIP3    H113549   4.114   4.199   0.547
 4536TIP3    H213550   4.065   4.276   0.668
 4537TIP3   OH213551   6.533   4.613   2.693
 4537TIP3    H113552   6.466   4.545   2.685
 4537TIP3    H213553   6.517   4.652   2.779
 4538TIP3   OH213554   0.672   4.071   0.868
 4538TIP3    H113555   0.640   4.161   0.873
 4538TIP3    H213556   0.673   4.041   0.959
 4539TIP3   OH213557   6.384   5.785   6.785
 4539TIP3    H113558   6.388   5.875   6.752
 4539TIP3    H213559   6.328   5.790   6.862
 4540TIP3   OH213560   2.022   5.045   0.349
 4540TIP3    H113561   2.005   4.961   0.307
 4540TIP3    H213562   2.039   5.023   0.440
 4541TIP3   OH213563   5.246   3.730   3.536
 4541TIP3    H113564   5.254   3.750   3.443
 4541TIP3    H213565   5.154   3.705   3.548
 4542TIP3   OH213566   7.255   4.213   2.009
 4542TIP3    H113567   7.279   4.289   1.957
 4542TIP3    H213568   7.162   4.225   2.029
 4543TIP3   OH213569   7.864   2.546   0.155
 4543TIP3    H113570   7.891   2.563   0.064
 4543TIP3    H213571   7.799   2.476   0.148
 4544TIP3   OH213572   1.733   0.222   3.305
 4544TIP3    H113573   1.725   0.267   3.221
 4544TIP3    H213574   1.773   0.286   3.364
 4545TIP3   OH213575   8.387   2.916   0.411
 4545TIP3    H113576   8.404   2.933   0.504
 4545TIP3    H213577   8.441   2.839   0.391
 4546TIP3   OH213578   7.644   0.376   3.839
 4546TIP3    H113579   7.559   0.334   3.850
 4546TIP3    H213580   7.692   0.355   3.919
 4547TIP3   OH213581   4.249   4.571   1.149
 4547TIP3    H113582   4.192   4.603   1.078
 4547TIP3    H213583   4.336   4.599   1.124
 4548TIP3   OH213584   5.102   2.023   6.129
 4548TIP3    H113585   5.186   1.982   6.108
 4548TIP3    H213586   5.123   2.116   6.140
 4549TIP3   OH213587   7.988   2.564   5.191
 4549TIP3    H113588   8.065   2.615   5.166
 4549TIP3    H213589   7.943   2.546   5.108
 4550TIP3   OH213590   5.469   7.897   3.237
 4550TIP3    H113591   5.447   7.844   3.161
 4550TIP3    H213592   5.384   7.917   3.276
 4551TIP3   OH213593   6.918   0.067   6.582
 4551TIP3    H113594   6.907   0.051   6.676
 4551TIP3    H213595   6.886  -0.014   6.541
 4552TIP3   OH213596   1.970   0.911   1.243
 4552TIP3    H113597   2.061   0.890   1.223
 4552TIP3    H213598   1.932   0.935   1.159
 4553TIP3   OH213599   0.335   3.326   2.795
 4553TIP3    H113600   0.336   3.378   2.714
 4553TIP3    H213601   0.417   3.277   2.792
 4554TIP3   OH213602   7.331   1.492   3.864
 4554TIP3    H113603   7.349   1.441   3.944
 4554TIP3    H213604   7.307   1.426   3.799
 4555TIP3   OH213605   2.061   3.057   6.571
 4555TIP3    H113606   2.121   3.124   6.603
 4555TIP3    H213607   2.019   3.022   6.649
 4556TIP3   OH213608   2.862   7.695   3.046
 4556TIP3    H113609   2.840   7.755   2.974
 4556TIP3    H213610   2.862   7.750   3.124
 4557TIP3   OH213611   7.456   2.156   4.321
 4557TIP3    H113612   7.519   2.197   4.380
 4557TIP3    H213613   7.506   2.135   4.243
 4558TIP3   OH213614   6.109   0.027   0.964
 4558TIP3    H113615   6.028  -0.017   0.938
 4558TIP3    H213616   6.080   0.101   1.018
 4559TIP3   OH213617   3.728   5.484   3.507
 4559TIP3    H113618   3.780   5.406   3.489
 4559TIP3    H213619   3.772   5.554   3.459
 4560TIP3   OH213620   6.421   6.558   3.199
 4560TIP3    H113621   6.409   6.474   3.154
 4560TIP3    H213622   6.414   6.623   3.129
 4561TIP3   OH213623   4.769   5.422   5.525
 4561TIP3    H113624   4.708   5.483   5.482
 4561TIP3    H213625   4.851   5.432   5.476
 4562TIP3   OH213626   2.521   1.220   6.058
 4562TIP3    H113627   2.612   1.192   6.068
 4562TIP3    H213628   2.470   1.139   6.060
 4563TIP3   OH213629   6.217   2.158   1.260
 4563TIP3    H113630   6.282   2.210   1.308
 4563TIP3    H213631   6.165   2.223   1.213
 4564TIP3   OH213632   4.084   4.316   5.415
 4564TIP3    H113633   4.059   4.235   5.371
 4564TIP3    H213634   4.141   4.288   5.487
 4565TIP3   OH213635   1.572   2.172   3.660
 4565TIP3    H113636   1.572   2.111   3.734
 4565TIP3    H213637   1.560   2.258   3.699
 4566TIP3   OH213638   7.699   0.606   2.642
 4566TIP3    H113639   7.717   0.700   2.637
 4566TIP3    H213640   7.697   0.578   2.551
 4567TIP3   OH213641   0.053   5.819   6.710
 4567TIP3    H113642   0.124   5.758   6.733
 4567TIP3    H213643   0.032   5.797   6.619
 4568TIP3   OH213644   6.728   5.583   2.239
 4568TIP3    H113645   6.693   5.668   2.265
 4568TIP3    H213646   6.744   5.591   2.145
 4569TIP3   OH213647   5.795   2.528   3.013
 4569TIP3    H113648   5.718   2.476   2.992
 4569TIP3    H213649   5.858   2.465   3.049
 4570TIP3   OH213650   3.328   7.855   0.462
 4570TIP3    H113651   3.292   7.842   0.374
 4570TIP3    H213652   3.422   7.845   0.452
 4571TIP3   OH213653   5.147   5.466   6.247
 4571TIP3    H113654   5.052   5.475   6.236
 4571TIP3    H213655   5.181   5.467   6.157
 4572TIP3   OH213656   1.184   4.667   3.115
 4572TIP3    H113657   1.090   4.675   3.129
 4572TIP3    H213658   1.193   4.653   3.021
 4573TIP3   OH213659   1.516   7.215   3.051
 4573TIP3    H113660   1.604   7.197   3.083
 4573TIP3    H213661   1.508   7.310   3.055
 4574TIP3   OH213662   3.206   2.718   3.522
 4574TIP3    H113663   3.187   2.801   3.566
 4574TIP3    H213664   3.287   2.688   3.562
 4575TIP3   OH213665   7.656   4.437   6.564
 4575TIP3    H113666   7.720   4.468   6.499
 4575TIP3    H213667   7.637   4.347   6.538
 4576TIP3   OH213668   6.420   2.557   2.518
 4576TIP3    H113669   6.499   2.587   2.474
 4576TIP3    H213670   6.431   2.583   2.609
 4577TIP3   OH213671   6.369   1.222   5.734
 4577TIP3    H113672   6.337   1.141   5.774
 4577TIP3    H213673   6.289   1.271   5.713
 4578TIP3   OH213674   5.196   2.849   2.892
 4578TIP3    H113675   5.109   2.844   2.932
 4578TIP3    H213676   5.252   2.802   2.953
 4579TIP3   OH213677   5.282   5.706   5.429
 4579TIP3    H113678   5.332   5.675   5.354
 4579TIP3    H213679   5.347   5.737   5.491
 4580TIP3   OH213680   7.236   6.175   6.251
 4580TIP3    H113681   7.239   6.169   6.156
 4580TIP3    H213682   7.201   6.091   6.280
 4581TIP3   OH213683   5.073   3.888   0.226
 4581TIP3    H113684   4.978   3.901   0.225
 4581TIP3    H213685   5.107   3.956   0.167
 4582TIP3   OH213686   1.902   3.651   6.617
 4582TIP3    H113687   1.823   3.623   6.664
 4582TIP3    H213688   1.958   3.689   6.685
 4583TIP3   OH213689   8.023   7.506   1.312
 4583TIP3    H113690   8.109   7.507   1.354
 4583TIP3    H213691   7.997   7.598   1.311
 4584TIP3   OH213692   1.614   3.532   0.236
 4584TIP3    H113693   1.611   3.612   0.184
 4584TIP3    H213694   1.581   3.558   0.322
 4585TIP3   OH213695   7.614   2.461   0.590
 4585TIP3    H113696   7.568   2.388   0.549
 4585TIP3    H213697   7.706   2.434   0.592
 4586TIP3   OH213698   1.626   4.951   2.164
 4586TIP3    H113699   1.611   4.910   2.250
 4586TIP3    H213700   1.558   4.914   2.108
 4587TIP3   OH213701   2.897   2.313   4.814
 4587TIP3    H113702   2.928   2.228   4.845
 4587TIP3    H213703   2.801   2.308   4.822
 4588TIP3   OH213704   7.942   7.080   2.732
 4588TIP3    H113705   7.933   7.085   2.827
 4588TIP3    H213706   7.923   7.168   2.701
 4589TIP3   OH213707   8.144   3.424   0.323
 4589TIP3    H113708   8.124   3.444   0.231
 4589TIP3    H213709   8.135   3.329   0.329
 4590TIP3   OH213710   2.248   1.775   6.334
 4590TIP3    H113711   2.251   1.781   6.238
 4590TIP3    H213712   2.294   1.694   6.354
 4591TIP3   OH213713   5.896   3.497   4.415
 4591TIP3    H113714   5.981   3.473   4.453
 4591TIP3    H213715   5.863   3.566   4.472
 4592TIP3   OH213716   7.752   7.216   3.223
 4592TIP3    H113717   7.791   7.303   3.230
 4592TIP3    H213718   7.669   7.230   3.178
 4593TIP3   OH213719   3.838   2.413   2.054
 4593TIP3    H113720   3.795   2.483   2.104
 4593TIP3    H213721   3.881   2.359   2.120
 4594TIP3   OH213722   5.329   3.818   0.146
 4594TIP3    H113723   5.371   3.873   0.212
 4594TIP3    H213724   5.236   3.837   0.154
 4595TIP3   OH213725   0.546   0.748   2.398
 4595TIP3    H113726   0.594   0.829   2.412
 4595TIP3    H213727   0.503   0.731   2.482
 4596TIP3   OH213728   2.801   3.818   5.872
 4596TIP3    H113729   2.843   3.745   5.917
 4596TIP3    H213730   2.777   3.879   5.941
 4597TIP3   OH213731   0.461   7.302   3.818
 4597TIP3    H113732   0.521   7.265   3.883
 4597TIP3    H213733   0.518   7.327   3.745
 4598TIP3   OH213734   6.713   3.691   2.155
 4598TIP3    H113735   6.672   3.722   2.074
 4598TIP3    H213736   6.801   3.664   2.128
 4599TIP3   OH213737   5.306   4.762   3.620
 4599TIP3    H113738   5.217   4.734   3.640
 4599TIP3    H213739   5.322   4.836   3.679
 4600TIP3   OH213740   3.784   3.388   3.509
 4600TIP3    H113741   3.802   3.362   3.419
 4600TIP3    H213742   3.868   3.379   3.554
 4601TIP3   OH213743   3.600   3.622   6.207
 4601TIP3    H113744   3.508   3.641   6.223
 4601TIP3    H213745   3.613   3.637   6.113
 4602TIP3   OH213746   3.086   6.189   5.366
 4602TIP3    H113747   3.169   6.151   5.395
 4602TIP3    H213748   3.088   6.181   5.271
 4603TIP3   OH213749   6.191   4.460   1.196
 4603TIP3    H113750   6.161   4.370   1.203
 4603TIP3    H213751   6.180   4.496   1.284
 4604TIP3   OH213752   2.050   6.832   6.676
 4604TIP3    H113753   2.003   6.779   6.740
 4604TIP3    H213754   2.077   6.770   6.608
 4605TIP3   OH213755   1.190   1.003   4.452
 4605TIP3    H113756   1.117   1.052   4.490
 4605TIP3    H213757   1.260   1.010   4.517
 4606TIP3   OH213758   3.968   1.023   6.609
 4606TIP3    H113759   4.032   1.075   6.560
 4606TIP3    H213760   3.887   1.072   6.603
 4607TIP3   OH213761   0.269   5.354   6.767
 4607TIP3    H113762   0.360   5.335   6.746
 4607TIP3    H213763   0.224   5.270   6.757
 4608TIP3   OH213764   0.379   5.264   1.361
 4608TIP3    H113765   0.394   5.268   1.456
 4608TIP3    H213766   0.443   5.200   1.330
 4609TIP3   OH213767   1.675   5.415   6.088
 4609TIP3    H113768   1.765   5.443   6.102
 4609TIP3    H213769   1.677   5.370   6.003
 4610TIP3   OH213770   7.850   3.769   1.234
 4610TIP3    H113771   7.765   3.789   1.195
 4610TIP3    H213772   7.834   3.690   1.286
 4611TIP3   OH213773   0.152   4.023   0.599
 4611TIP3    H113774   0.139   4.028   0.505
 4611TIP3    H213775   0.232   4.074   0.615
 4612TIP3   OH213776   6.978   7.807   1.258
 4612TIP3    H113777   6.937   7.775   1.177
 4612TIP3    H213778   7.072   7.806   1.239
 4613TIP3   OH213779   3.626   3.376   0.655
 4613TIP3    H113780   3.711   3.331   0.654
 4613TIP3    H213781   3.566   3.315   0.612
 4614TIP3   OH213782   6.099   4.449   0.927
 4614TIP3    H113783   6.143   4.502   0.994
 4614TIP3    H213784   6.123   4.359   0.948
 4615TIP3   OH213785   2.915   1.290   4.992
 4615TIP3    H113786   2.878   1.378   4.981
 4615TIP3    H213787   2.945   1.265   4.905
 4616TIP3   OH213788   5.370   1.216   5.423
 4616TIP3    H113789   5.290   1.165   5.435
 4616TIP3    H213790   5.378   1.228   5.328
 4617TIP3   OH213791   6.790   3.085   6.605
 4617TIP3    H113792   6.708   3.115   6.644
 4617TIP3    H213793   6.857   3.109   6.669
 4618TIP3   OH213794   1.094   1.751   4.304
 4618TIP3    H113795   1.069   1.832   4.348
 4618TIP3    H213796   1.189   1.757   4.293
 4619TIP3   OH213797   6.396   3.980   0.600
 4619TIP3    H113798   6.447   4.045   0.551
 4619TIP3    H213799   6.412   3.897   0.554
 4620TIP3   OH213800   7.438   2.822   0.063
 4620TIP3    H113801   7.472   2.746   0.016
 4620TIP3    H213802   7.460   2.805   0.154
 4621TIP3   OH213803   6.664   0.603   1.414
 4621TIP3    H113804   6.637   0.589   1.504
 4621TIP3    H213805   6.714   0.685   1.416
 4622TIP3   OH213806   2.287   6.845   3.806
 4622TIP3    H113807   2.375   6.837   3.769
 4622TIP3    H213808   2.238   6.897   3.742
 4623TIP3   OH213809   1.274   2.016   4.397
 4623TIP3    H113810   1.300   1.935   4.442
 4623TIP3    H213811   1.186   2.034   4.428
 4624TIP3   OH213812   3.933   7.320   5.057
 4624TIP3    H113813   3.932   7.233   5.095
 4624TIP3    H213814   3.942   7.305   4.963
 4625TIP3   OH213815   7.818   5.144   3.490
 4625TIP3    H113816   7.814   5.084   3.416
 4625TIP3    H213817   7.816   5.087   3.567
 4626TIP3   OH213818   5.745   3.673   1.897
 4626TIP3    H113819   5.787   3.740   1.842
 4626TIP3    H213820   5.770   3.590   1.857
 4627TIP3   OH213821   3.721   2.193   2.654
 4627TIP3    H113822   3.749   2.229   2.738
 4627TIP3    H213823   3.720   2.269   2.595
 4628TIP3   OH213824   0.212   6.972   4.684
 4628TIP3    H113825   0.149   6.988   4.754
 4628TIP3    H213826   0.217   6.876   4.678
 4629TIP3   OH213827   1.077   3.572   3.650
 4629TIP3    H113828   1.071   3.667   3.660
 4629TIP3    H213829   1.134   3.544   3.722
 4630TIP3   OH213830   4.331   6.045   4.198
 4630TIP3    H113831   4.277   5.974   4.162
 4630TIP3    H213832   4.416   6.003   4.216
 4631TIP3   OH213833   1.295   5.623   2.651
 4631TIP3    H113834   1.315   5.558   2.718
 4631TIP3    H213835   1.366   5.614   2.587
 4632TIP3   OH213836   5.377   5.138   5.873
 4632TIP3    H113837   5.427   5.186   5.807
 4632TIP3    H213838   5.306   5.198   5.896
 4633TIP3   OH213839   1.869   7.472   5.016
 4633TIP3    H113840   1.790   7.482   5.070
 4633TIP3    H213841   1.932   7.428   5.075
 4634TIP3   OH213842   0.739   5.184   6.116
 4634TIP3    H113843   0.790   5.150   6.189
 4634TIP3    H213844   0.741   5.279   6.128
 4635TIP3   OH213845   3.663   2.579   0.761
 4635TIP3    H113846   3.686   2.486   0.766
 4635TIP3    H213847   3.653   2.596   0.668
 4636TIP3   OH213848   6.544   6.314   6.677
 4636TIP3    H113849   6.519   6.293   6.587
 4636TIP3    H213850   6.593   6.238   6.707
 4637TIP3   OH213851   1.802   0.787   4.949
 4637TIP3    H113852   1.788   0.703   4.992
 4637TIP3    H213853   1.893   0.784   4.919
 4638TIP3   OH213854   6.663   1.619   4.276
 4638TIP3    H113855   6.583   1.641   4.229
 4638TIP3    H213856   6.653   1.663   4.361
 4639TIP3   OH213857   7.566   4.192   2.410
 4639TIP3    H113858   7.602   4.210   2.323
 4639TIP3    H213859   7.641   4.158   2.460
 4640TIP3   OH213860   6.405   6.660   4.656
 4640TIP3    H113861   6.320   6.647   4.614
 4640TIP3    H213862   6.428   6.750   4.634
 4641TIP3   OH213863   1.166   6.548   5.420
 4641TIP3    H113864   1.206   6.605   5.355
 4641TIP3    H213865   1.188   6.459   5.391
 4642TIP3   OH213866   2.650   5.375   4.105
 4642TIP3    H113867   2.743   5.397   4.109
 4642TIP3    H213868   2.608   5.439   4.163
 4643TIP3   OH213869   0.495   2.045   4.665
 4643TIP3    H113870   0.510   2.139   4.664
 4643TIP3    H213871   0.485   2.024   4.758
 4644TIP3   OH213872   7.497   1.805   4.156
 4644TIP3    H113873   7.516   1.711   4.152
 4644TIP3    H213874   7.509   1.827   4.248
 4645TIP3   OH213875   2.471   4.284   0.127
 4645TIP3    H113876   2.394   4.227   0.128
 4645TIP3    H213877   2.503   4.280   0.037
 4646TIP3   OH213878   4.800   5.006   3.119
 4646TIP3    H113879   4.832   4.935   3.063
 4646TIP3    H213880   4.816   4.975   3.208
 4647TIP3   OH213881   4.429   4.240   0.377
 4647TIP3    H113882   4.489   4.165   0.382
 4647TIP3    H213883   4.381   4.237   0.459
 4648TIP3   OH213884   5.470   3.804   6.346
 4648TIP3    H113885   5.482   3.883   6.398
 4648TIP3    H213886   5.555   3.760   6.350
 4649TIP3   OH213887   4.000   1.740   3.513
 4649TIP3    H113888   3.983   1.763   3.604
 4649TIP3    H213889   3.926   1.778   3.465
 4650TIP3   OH213890   6.411   0.076   4.147
 4650TIP3    H113891   6.329   0.102   4.104
 4650TIP3    H213892   6.431  -0.009   4.110
 4651TIP3   OH213893   7.447   6.545   5.787
 4651TIP3    H113894   7.443   6.640   5.792
 4651TIP3    H213895   7.358   6.518   5.767
 4652TIP3   OH213896   1.349   0.817   5.055
 4652TIP3    H113897   1.303   0.823   5.139
 4652TIP3    H213898   1.314   0.738   5.014
 4653TIP3   OH213899   1.179   4.971   4.017
 4653TIP3    H113900   1.252   5.015   4.062
 4653TIP3    H213901   1.112   4.961   4.085
 4654TIP3   OH213902   4.071   1.390   1.301
 4654TIP3    H113903   4.005   1.327   1.272
 4654TIP3    H213904   4.068   1.460   1.235
 4655TIP3   OH213905   2.310   0.761   5.476
 4655TIP3    H113906   2.330   0.702   5.403
 4655TIP3    H213907   2.215   0.777   5.469
 4656TIP3   OH213908   8.138   6.325   4.724
 4656TIP3    H113909   8.095   6.252   4.679
 4656TIP3    H213910   8.071   6.393   4.727
 4657TIP3   OH213911   5.272   5.054   1.672
 4657TIP3    H113912   5.366   5.057   1.656
 4657TIP3    H213913   5.235   5.016   1.593
 4658TIP3   OH213914   3.592   5.670   0.525
 4658TIP3    H113915   3.622   5.699   0.439
 4658TIP3    H213916   3.583   5.575   0.517
 4659TIP3   OH213917   2.036   3.584   3.600
 4659TIP3    H113918   2.096   3.644   3.643
 4659TIP3    H213919   2.092   3.530   3.544
 4660TIP3   OH213920   5.875   5.769   6.503
 4660TIP3    H113921   5.788   5.808   6.500
 4660TIP3    H213922   5.873   5.711   6.579
 4661TIP3   OH213923   8.231   2.075   2.943
 4661TIP3    H113924   8.277   2.053   2.862
 4661TIP3    H213925   8.271   2.018   3.009
 4662TIP3   OH213926   4.007   1.800   3.785
 4662TIP3    H113927   4.071   1.742   3.825
 4662TIP3    H213928   4.024   1.886   3.825
 4663TIP3   OH213929   0.951   7.538   1.323
 4663TIP3    H113930   1.016   7.587   1.271
 4663TIP3    H213931   0.868   7.558   1.281
 4664TIP3   OH213932   8.119   4.638   6.601
 4664TIP3    H113933   8.146   4.549   6.626
 4664TIP3    H213934   8.131   4.641   6.507
 4665TIP3   OH213935   0.961   0.978   0.122
 4665TIP3    H113936   0.933   0.895   0.159
 4665TIP3    H213937   1.022   1.014   0.187
 4666TIP3   OH213938   0.599   2.480   2.195
 4666TIP3    H113939   0.667   2.458   2.132
 4666TIP3    H213940   0.538   2.406   2.192
 4667TIP3   OH213941   5.439   6.513   3.085
 4667TIP3    H113942   5.463   6.605   3.090
 4667TIP3    H213943   5.485   6.481   3.007
 4668TIP3   OH213944   8.170   3.139   3.685
 4668TIP3    H113945   8.086   3.172   3.719
 4668TIP3    H213946   8.179   3.052   3.724
 4669TIP3   OH213947   3.297   2.488   5.792
 4669TIP3    H113948   3.364   2.555   5.780
 4669TIP3    H213949   3.333   2.409   5.751
 4670TIP3   OH213950   7.505   6.799   2.639
 4670TIP3    H113951   7.520   6.708   2.662
 4670TIP3    H213952   7.592   6.839   2.638
 4671TIP3   OH213953   4.247   3.946   6.336
 4671TIP3    H113954   4.204   4.028   6.311
 4671TIP3    H213955   4.239   3.890   6.259
 4672TIP3   OH213956   4.770   6.056   3.804
 4672TIP3    H113957   4.783   5.996   3.731
 4672TIP3    H213958   4.811   6.138   3.775
 4673TIP3   OH213959   2.725   4.643   4.632
 4673TIP3    H113960   2.761   4.606   4.552
 4673TIP3    H213961   2.690   4.568   4.680
 4674TIP3   OH213962   7.314   5.732   1.813
 4674TIP3    H113963   7.401   5.699   1.833
 4674TIP3    H213964   7.278   5.667   1.752
 4675TIP3   OH213965   4.195   6.922   0.270
 4675TIP3    H113966   4.187   6.961   0.357
 4675TIP3    H213967   4.113   6.874   0.257
 4676TIP3   OH213968   3.182   4.040   0.497
 4676TIP3    H113969   3.189   4.134   0.479
 4676TIP3    H213970   3.114   4.034   0.565
 4677TIP3   OH213971   5.536   6.669   1.486
 4677TIP3    H113972   5.533   6.731   1.414
 4677TIP3    H213973   5.592   6.712   1.552
 4678TIP3   OH213974   5.980   1.029   5.813
 4678TIP3    H113975   5.928   0.967   5.762
 4678TIP3    H213976   5.934   1.037   5.896
 4679TIP3   OH213977   7.655   4.919   5.289
 4679TIP3    H113978   7.733   4.960   5.254
 4679TIP3    H213979   7.626   4.978   5.359
 4680TIP3   OH213980   6.703   1.374   4.113
 4680TIP3    H113981   6.797   1.379   4.097
 4680TIP3    H213982   6.683   1.450   4.167
 4681TIP3   OH213983   6.553   2.100   0.190
 4681TIP3    H113984   6.550   2.195   0.181
 4681TIP3    H213985   6.464   2.075   0.215
 4682TIP3   OH213986   0.041   0.863   5.175
 4682TIP3    H113987   0.128   0.893   5.149
 4682TIP3    H213988   0.002   0.939   5.217
 4683TIP3   OH213989   6.444   4.782   3.244
 4683TIP3    H113990   6.478   4.700   3.281
 4683TIP3    H213991   6.432   4.839   3.320
 4684TIP3   OH213992   5.194   1.168   2.634
 4684TIP3    H113993   5.175   1.077   2.657
 4684TIP3    H213994   5.185   1.171   2.539
 4685TIP3   OH213995   1.723   0.945   3.419
 4685TIP3    H113996   1.798   0.965   3.364
 4685TIP3    H213997   1.680   0.871   3.376
 4686TIP3   OH213998   3.930   1.736   6.023
 4686TIP3    H113999   3.880   1.802   6.070
 4686TIP3    H214000   4.021   1.752   6.047
 4687TIP3   OH214001   2.326   3.299   0.841
 4687TIP3    H114002   2.382   3.363   0.884
 4687TIP3    H214003   2.253   3.350   0.806
 4688TIP3   OH214004   1.903   7.242   5.265
 4688TIP3    H114005   1.821   7.290   5.253
 4688TIP3    H214006   1.907   7.227   5.359
 4689TIP3   OH214007   6.782   0.383   2.618
 4689TIP3    H114008   6.749   0.432   2.693
 4689TIP3    H214009   6.740   0.423   2.542
 4690TIP3   OH214010   1.498   1.545   5.579
 4690TIP3    H114011   1.433   1.475   5.574
 4690TIP3    H214012   1.533   1.539   5.668
 4691TIP3   OH214013   5.966   0.069   3.704
 4691TIP3    H114014   6.006   0.117   3.632
 4691TIP3    H214015   6.019  -0.010   3.713
 4692TIP3   OH214016   7.576   5.448   5.834
 4692TIP3    H114017   7.597   5.539   5.854
 4692TIP3    H214018   7.490   5.433   5.874
 4693TIP3   OH214019   1.474   3.848   5.549
 4693TIP3    H114020   1.566   3.843   5.575
 4693TIP3    H214021   1.464   3.779   5.483
 4694TIP3   OH214022   2.855   5.429   3.745
 4694TIP3    H114023   2.773   5.401   3.786
 4694TIP3    H214024   2.922   5.414   3.811
 4695TIP3   OH214025   3.124   1.583   4.063
 4695TIP3    H114026   3.045   1.539   4.095
 4695TIP3    H214027   3.149   1.641   4.135
 4696TIP3   OH214028   0.755   6.268   4.674
 4696TIP3    H114029   0.845   6.297   4.690
 4696TIP3    H214030   0.764   6.182   4.633
 4697TIP3   OH214031   6.559   2.077   2.630
 4697TIP3    H114032   6.603   2.056   2.547
 4697TIP3    H214033   6.528   1.992   2.662
 4698TIP3   OH214034   0.408   4.620   2.458
 4698TIP3    H114035   0.445   4.708   2.454
 4698TIP3    H214036   0.483   4.564   2.481
 4699TIP3   OH214037   6.082   2.280   6.338
 4699TIP3    H114038   6.025   2.314   6.408
 4699TIP3    H214039   6.109   2.193   6.369
 4700TIP3   OH214040   1.789   7.732   4.455
 4700TIP3    H114041   1.863   7.674   4.439
 4700TIP3    H214042   1.712   7.676   4.445
 4701TIP3   OH214043   2.796   5.154   6.598
 4701TIP3    H114044   2.806   5.125   6.508
 4701TIP3    H214045   2.762   5.078   6.645
 4702TIP3   OH214046   0.398   6.758   2.479
 4702TIP3    H114047   0.345   6.678   2.476
 4702TIP3    H214048   0.406   6.785   2.387
 4703TIP3   OH214049   2.922   1.211   0.623
 4703TIP3    H114050   2.855   1.159   0.669
 4703TIP3    H214051   3.003   1.162   0.637
 4704TIP3   OH214052   1.681   2.976   6.504
 4704TIP3    H114053   1.725   3.055   6.472
 4704TIP3    H214054   1.677   2.919   6.427
 4705TIP3   OH214055   7.747   3.671   1.585
 4705TIP3    H114056   7.818   3.703   1.640
 4705TIP3    H214057   7.699   3.750   1.559
 4706TIP3   OH214058   0.035   3.377   3.096
 4706TIP3    H114059   0.091   3.318   3.146
 4706TIP3    H214060  -0.047   3.380   3.145
 4707TIP3   OH214061   5.865   5.284   2.730
 4707TIP3    H114062   5.886   5.375   2.750
 4707TIP3    H214063   5.879   5.238   2.813
 4708TIP3   OH214064   4.903   6.232   2.690
 4708TIP3    H114065   4.923   6.287   2.765
 4708TIP3    H214066   4.950   6.150   2.706
 4709TIP3   OH214067   1.976   0.394   3.645
 4709TIP3    H114068   2.030   0.468   3.617
 4709TIP3    H214069   2.019   0.318   3.607
 4710TIP3   OH214070   6.618   5.020   0.851
 4710TIP3    H114071   6.550   5.027   0.784
 4710TIP3    H214072   6.674   5.096   0.836
 4711TIP3   OH214073   4.454   0.595   2.375
 4711TIP3    H114074   4.395   0.599   2.300
 4711TIP3    H214075   4.503   0.677   2.370
 4712TIP3   OH214076   0.184   0.831   4.710
 4712TIP3    H114077   0.137   0.844   4.627
 4712TIP3    H214078   0.197   0.919   4.745
 4713TIP3   OH214079   5.452   5.555   2.055
 4713TIP3    H114080   5.390   5.541   2.127
 4713TIP3    H214081   5.438   5.480   1.997
 4714TIP3   OH214082   3.885   1.491   2.009
 4714TIP3    H114083   3.965   1.473   2.058
 4714TIP3    H214084   3.867   1.584   2.027
 4715TIP3   OH214085   0.009   7.245   2.950
 4715TIP3    H114086  -0.040   7.235   2.869
 4715TIP3    H214087  -0.038   7.312   2.999
 4716TIP3   OH214088   6.591   0.039   6.077
 4716TIP3    H114089   6.659   0.107   6.076
 4716TIP3    H214090   6.511   0.086   6.097
 4717TIP3   OH214091   2.982   3.141   0.527
 4717TIP3    H114092   2.889   3.137   0.546
 4717TIP3    H214093   3.019   3.194   0.597
 4718TIP3   OH214094   3.397   2.289   2.608
 4718TIP3    H114095   3.350   2.220   2.655
 4718TIP3    H214096   3.428   2.348   2.677
 4719TIP3   OH214097   2.431   7.002   5.384
 4719TIP3    H114098   2.391   7.014   5.298
 4719TIP3    H214099   2.524   7.019   5.370
 4720TIP3   OH214100   1.970   4.777   3.255
 4720TIP3    H114101   1.932   4.841   3.316
 4720TIP3    H214102   2.064   4.779   3.275
 4721TIP3   OH214103   2.383   0.941   4.327
 4721TIP3    H114104   2.423   0.858   4.355
 4721TIP3    H214105   2.454   1.005   4.336
 4722TIP3   OH214106   1.272   2.794   5.494
 4722TIP3    H114107   1.333   2.857   5.534
 4722TIP3    H214108   1.327   2.719   5.470
 4723TIP3   OH214109   6.401   7.333   6.790
 4723TIP3    H114110   6.459   7.400   6.756
 4723TIP3    H214111   6.413   7.259   6.731
 4724TIP3   OH214112   4.985   2.273   5.464
 4724TIP3    H114113   5.028   2.336   5.521
 4724TIP3    H214114   4.917   2.234   5.518
 4725TIP3   OH214115   6.036   4.797   6.671
 4725TIP3    H114116   6.070   4.817   6.584
 4725TIP3    H214117   5.977   4.723   6.657
 4726TIP3   OH214118   3.840   6.774   2.839
 4726TIP3    H114119   3.904   6.785   2.910
 4726TIP3    H214120   3.893   6.773   2.759
 4727TIP3   OH214121   6.155   6.074   1.057
 4727TIP3    H114122   6.182   6.166   1.051
 4727TIP3    H214123   6.155   6.055   1.151
 4728TIP3   OH214124   3.679   7.327   0.619
 4728TIP3    H114125   3.617   7.355   0.687
 4728TIP3    H214126   3.763   7.323   0.665
 4729TIP3   OH214127   7.842   3.671   6.757
 4729TIP3    H114128   7.918   3.651   6.702
 4729TIP3    H214129   7.871   3.743   6.814
 4730TIP3   OH214130   4.398   3.978   3.641
 4730TIP3    H114131   4.360   4.061   3.671
 4730TIP3    H214132   4.489   3.982   3.668
 4731TIP3   OH214133   2.703   1.180   4.661
 4731TIP3    H114134   2.634   1.187   4.727
 4731TIP3    H214135   2.660   1.143   4.585
 4732TIP3   OH214136   6.338   5.930   1.649
 4732TIP3    H114137   6.293   5.979   1.580
 4732TIP3    H214138   6.288   5.948   1.729
 4733TIP3   OH214139   0.555   7.688   4.991
 4733TIP3    H114140   0.483   7.626   5.001
 4733TIP3    H214141   0.629   7.647   5.037
 4734TIP3   OH214142   0.604   2.135   0.358
 4734TIP3    H114143   0.633   2.216   0.317
 4734TIP3    H214144   0.515   2.123   0.326
 4735TIP3   OH214145   6.936   5.754   2.869
 4735TIP3    H114146   6.941   5.844   2.901
 4735TIP3    H214147   6.982   5.703   2.935
 4736TIP3   OH214148   4.385   5.477   6.756
 4736TIP3    H114149   4.420   5.433   6.834
 4736TIP3    H214150   4.416   5.424   6.683
 4737TIP3   OH214151   3.794   2.026   1.762
 4737TIP3    H114152   3.802   2.106   1.712
 4737TIP3    H214153   3.754   2.053   1.845
 4738TIP3   OH214154   4.654   5.439   3.444
 4738TIP3    H114155   4.587   5.508   3.445
 4738TIP3    H214156   4.655   5.409   3.353
 4739TIP3   OH214157   3.217   5.598   0.123
 4739TIP3    H114158   3.139   5.562   0.164
 4739TIP3    H214159   3.185   5.660   0.058
 4740TIP3   OH214160   1.498   4.993   0.705
 4740TIP3    H114161   1.456   5.009   0.790
 4740TIP3    H214162   1.592   5.002   0.723
 4741TIP3   OH214163   3.868   6.020   5.029
 4741TIP3    H114164   3.892   6.113   5.019
 4741TIP3    H214165   3.773   6.018   5.015
 4742TIP3   OH214166   5.845   5.816   5.653
 4742TIP3    H114167   5.801   5.748   5.704
 4742TIP3    H214168   5.834   5.789   5.562
 4743TIP3   OH214169   2.618   1.934   6.456
 4743TIP3    H114170   2.563   1.952   6.381
 4743TIP3    H214171   2.655   1.847   6.440
 4744TIP3   OH214172   8.126   7.167   0.749
 4744TIP3    H114173   8.040   7.204   0.763
 4744TIP3    H214174   8.134   7.158   0.654
 4745TIP3   OH214175   3.930   6.081   4.641
 4745TIP3    H114176   3.854   6.022   4.635
 4745TIP3    H214177   3.892   6.169   4.639
 4746TIP3   OH214178   7.010   4.836   1.858
 4746TIP3    H114179   6.984   4.873   1.774
 4746TIP3    H214180   7.099   4.869   1.872
 4747TIP3   OH214181   6.790   5.161   1.894
 4747TIP3    H114182   6.800   5.256   1.898
 4747TIP3    H214183   6.696   5.146   1.907
 4748TIP3   OH214184   3.994   5.698   0.477
 4748TIP3    H114185   4.087   5.685   0.498
 4748TIP3    H214186   3.982   5.653   0.394
 4749TIP3   OH214187   0.909   0.674   5.955
 4749TIP3    H114188   0.934   0.757   5.914
 4749TIP3    H214189   0.981   0.654   6.014
 4750TIP3   OH214190   7.170   3.281   3.339
 4750TIP3    H114191   7.141   3.225   3.411
 4750TIP3    H214192   7.120   3.251   3.263
 4751TIP3   OH214193   3.830   0.912   2.618
 4751TIP3    H114194   3.919   0.883   2.599
 4751TIP3    H214195   3.825   0.999   2.578
 4752TIP3   OH214196   4.256   3.165   6.428
 4752TIP3    H114197   4.213   3.084   6.403
 4752TIP3    H214198   4.303   3.144   6.508
 4753TIP3   OH214199   6.036   6.072   1.858
 4753TIP3    H114200   6.105   6.137   1.842
 4753TIP3    H214201   5.977   6.115   1.921
 4754TIP3   OH214202   4.117   1.008   5.967
 4754TIP3    H114203   4.084   0.921   5.989
 4754TIP3    H214204   4.179   0.993   5.896
 4755TIP3   OH214205   3.979   1.781   1.763
 4755TIP3    H114206   3.909   1.846   1.767
 4755TIP3    H214207   4.013   1.788   1.674
 4756TIP3   OH214208   2.126   5.352   0.953
 4756TIP3    H114209   2.071   5.420   0.991
 4756TIP3    H214210   2.215   5.384   0.965
 4757TIP3   OH214211   5.934   3.596   5.860
 4757TIP3    H114212   5.861   3.597   5.798
 4757TIP3    H214213   5.940   3.506   5.890
 4758TIP3   OH214214   1.055   5.523   5.771
 4758TIP3    H114215   0.977   5.473   5.746
 4758TIP3    H214216   1.048   5.604   5.720
 4759TIP3   OH214217   4.264   6.199   5.661
 4759TIP3    H114218   4.283   6.158   5.577
 4759TIP3    H214219   4.200   6.141   5.702
 4760TIP3   OH214220   4.074   0.583   0.945
 4760TIP3    H114221   4.140   0.544   1.002
 4760TIP3    H214222   4.124   0.641   0.887
 4761TIP3   OH214223   0.815   3.979   2.404
 4761TIP3    H114224   0.868   3.899   2.402
 4761TIP3    H214225   0.858   4.035   2.468
 4762TIP3   OH214226   2.249   7.657   5.205
 4762TIP3    H114227   2.265   7.728   5.143
 4762TIP3    H214228   2.336   7.628   5.232
 4763TIP3   OH214229   4.821   0.473   4.260
 4763TIP3    H114230   4.808   0.411   4.189
 4763TIP3    H214231   4.880   0.429   4.321
 4764TIP3   OH214232   6.282   6.908   2.530
 4764TIP3    H114233   6.197   6.940   2.500
 4764TIP3    H214234   6.286   6.934   2.622
 4765TIP3   OH214235   4.421   4.778   1.380
 4765TIP3    H114236   4.331   4.773   1.349
 4765TIP3    H214237   4.468   4.710   1.330
 4766TIP3   OH214238   5.386   1.174   0.262
 4766TIP3    H114239   5.466   1.128   0.289
 4766TIP3    H214240   5.366   1.138   0.176
 4767TIP3   OH214241   5.352   6.432   6.012
 4767TIP3    H114242   5.338   6.407   6.103
 4767TIP3    H214243   5.264   6.440   5.976
 4768TIP3   OH214244   1.346   6.354   6.458
 4768TIP3    H114245   1.268   6.405   6.480
 4768TIP3    H214246   1.348   6.283   6.522
 4769TIP3   OH214247   4.789   6.454   0.413
 4769TIP3    H114248   4.747   6.490   0.492
 4769TIP3    H214249   4.821   6.368   0.440
 4770TIP3   OH214250   4.313   1.405   4.220
 4770TIP3    H114251   4.263   1.330   4.251
 4770TIP3    H214252   4.248   1.475   4.213
 4771TIP3   OH214253   0.629   5.464   1.900
 4771TIP3    H114254   0.656   5.556   1.900
 4771TIP3    H214255   0.678   5.424   1.972
 4772TIP3   OH214256   5.994   0.297   5.679
 4772TIP3    H114257   5.945   0.261   5.605
 4772TIP3    H214258   6.013   0.387   5.654
 4773TIP3   OH214259   6.992   4.961   3.408
 4773TIP3    H114260   6.933   4.979   3.481
 4773TIP3    H214261   7.078   4.993   3.437
 4774TIP3   OH214262   6.308   7.165   1.925
 4774TIP3    H114263   6.268   7.113   1.856
 4774TIP3    H214264   6.253   7.148   2.002
 4775TIP3   OH214265   1.081   3.198   2.103
 4775TIP3    H114266   1.079   3.238   2.016
 4775TIP3    H214267   1.156   3.139   2.101
 4776TIP3   OH214268   3.168   0.621   2.156
 4776TIP3    H114269   3.150   0.712   2.135
 4776TIP3    H214270   3.168   0.576   2.072
 4777TIP3   OH214271   6.415   6.883   6.422
 4777TIP3    H114272   6.321   6.904   6.419
 4777TIP3    H214273   6.420   6.790   6.400
 4778TIP3   OH214274   2.291   4.500   2.095
 4778TIP3    H114275   2.337   4.541   2.168
 4778TIP3    H214276   2.330   4.537   2.017
 4779TIP3   OH214277   4.954   5.415   1.959
 4779TIP3    H114278   4.894   5.394   1.888
 4779TIP3    H214279   4.912   5.487   2.006
 4780TIP3   OH214280   7.228   3.808   2.239
 4780TIP3    H114281   7.297   3.874   2.237
 4780TIP3    H214282   7.148   3.859   2.252
 4781TIP3   OH214283   3.186   5.545   5.377
 4781TIP3    H114284   3.265   5.595   5.399
 4781TIP3    H214285   3.219   5.467   5.333
 4782TIP3   OH214286   0.286   3.588   2.110
 4782TIP3    H114287   0.356   3.621   2.054
 4782TIP3    H214288   0.310   3.497   2.127
 4783TIP3   OH214289   7.472   4.838   2.445
 4783TIP3    H114290   7.508   4.909   2.498
 4783TIP3    H214291   7.382   4.828   2.475
 4784TIP3   OH214292   2.072   2.499   1.628
 4784TIP3    H114293   2.117   2.584   1.636
 4784TIP3    H214294   2.018   2.493   1.707
 4785TIP3   OH214295   3.152   5.340   6.002
 4785TIP3    H114296   3.162   5.280   5.929
 4785TIP3    H214297   3.100   5.413   5.967
 4786TIP3   OH214298   5.791   0.334   0.064
 4786TIP3    H114299   5.733   0.322   0.139
 4786TIP3    H214300   5.877   0.308   0.096
 4787TIP3   OH214301   3.611   3.146   1.597
 4787TIP3    H114302   3.650   3.225   1.559
 4787TIP3    H214303   3.542   3.122   1.535
 4788TIP3   OH214304   3.586   2.748   4.914
 4788TIP3    H114305   3.660   2.767   4.971
 4788TIP3    H214306   3.577   2.826   4.859
 4789TIP3   OH214307   3.497   2.102   6.350
 4789TIP3    H114308   3.557   2.156   6.299
 4789TIP3    H214309   3.500   2.016   6.308
 4790TIP3   OH214310   5.263   3.450   0.103
 4790TIP3    H114311   5.322   3.480   0.034
 4790TIP3    H214312   5.295   3.493   0.182
 4791TIP3   OH214313   5.381   6.748   3.543
 4791TIP3    H114314   5.439   6.758   3.467
 4791TIP3    H214315   5.438   6.760   3.618
 4792TIP3   OH214316   4.959   5.471   4.419
 4792TIP3    H114317   4.885   5.523   4.386
 4792TIP3    H214318   5.035   5.504   4.372
 4793TIP3   OH214319   5.551   3.380   6.686
 4793TIP3    H114320   5.610   3.398   6.612
 4793TIP3    H214321   5.588   3.431   6.759
 4794TIP3   OH214322   5.386   6.965   6.323
 4794TIP3    H114323   5.347   6.887   6.362
 4794TIP3    H214324   5.441   6.932   6.252
 4795TIP3   OH214325   0.742   2.161   3.929
 4795TIP3    H114326   0.687   2.238   3.921
 4795TIP3    H214327   0.822   2.183   3.881
 4796TIP3   OH214328   3.753   7.327   1.984
 4796TIP3    H114329   3.744   7.235   2.010
 4796TIP3    H214330   3.760   7.375   2.066
 4797TIP3   OH214331   6.937   1.825   0.379
 4797TIP3    H114332   6.957   1.740   0.418
 4797TIP3    H214333   6.901   1.805   0.293
 4798TIP3   OH214334   2.042   4.783   2.901
 4798TIP3    H114335   2.113   4.798   2.964
 4798TIP3    H214336   2.086   4.750   2.823
 4799TIP3   OH214337   6.340   6.233   0.746
 4799TIP3    H114338   6.410   6.210   0.686
 4799TIP3    H214339   6.344   6.166   0.814
 4800TIP3   OH214340   0.387   7.067   3.266
 4800TIP3    H114341   0.321   7.077   3.197
 4800TIP3    H214342   0.359   7.127   3.335
 4801TIP3   OH214343   4.450   6.389   5.388
 4801TIP3    H114344   4.389   6.354   5.323
 4801TIP3    H214345   4.518   6.322   5.395
 4802TIP3   OH214346   1.650   6.306   4.760
 4802TIP3    H114347   1.605   6.323   4.843
 4802TIP3    H214348   1.725   6.367   4.760
 4803TIP3   OH214349   7.988   5.620   0.025
 4803TIP3    H114350   7.907   5.668   0.043
 4803TIP3    H214351   8.057   5.686   0.026
 4804TIP3   OH214352   7.059   2.397   6.578
 4804TIP3    H114353   7.115   2.380   6.654
 4804TIP3    H214354   7.099   2.346   6.508
 4805TIP3   OH214355   2.217   6.028   4.385
 4805TIP3    H114356   2.224   6.048   4.292
 4805TIP3    H214357   2.307   6.008   4.412
 4806TIP3   OH214358   6.902   5.335   3.018
 4806TIP3    H114359   6.806   5.342   3.020
 4806TIP3    H214360   6.921   5.300   2.931
 4807TIP3   OH214361   7.791   2.073   0.540
 4807TIP3    H114362   7.782   1.985   0.503
 4807TIP3    H214363   7.795   2.059   0.635
 4808TIP3   OH214364   1.909   0.517   3.335
 4808TIP3    H114365   1.898   0.455   3.262
 4808TIP3    H214366   1.846   0.488   3.401
 4809TIP3   OH214367   1.917   1.183   2.308
 4809TIP3    H114368   1.836   1.225   2.336
 4809TIP3    H214369   1.982   1.253   2.311
 4810TIP3   OH214370   0.458   3.907   4.797
 4810TIP3    H114371   0.429   3.923   4.707
 4810TIP3    H214372   0.465   3.994   4.835
 4811TIP3   OH214373   5.728   1.936   6.422
 4811TIP3    H114374   5.643   1.939   6.378
 4811TIP3    H214375   5.783   1.884   6.363
 4812TIP3   OH214376   1.034   1.968   1.752
 4812TIP3    H114377   0.959   2.007   1.706
 4812TIP3    H214378   1.086   2.043   1.780
 4813TIP3   OH214379   3.227   3.411   4.085
 4813TIP3    H114380   3.273   3.356   4.022
 4813TIP3    H214381   3.297   3.461   4.128
 4814TIP3   OH214382   6.422   2.625   6.180
 4814TIP3    H114383   6.467   2.664   6.106
 4814TIP3    H214384   6.364   2.559   6.142
 4815TIP3   OH214385   5.694   5.140   4.456
 4815TIP3    H114386   5.703   5.215   4.397
 4815TIP3    H214387   5.619   5.162   4.512
 4816TIP3   OH214388   3.321   0.591   2.791
 4816TIP3    H114389   3.312   0.540   2.710
 4816TIP3    H214390   3.395   0.649   2.774
 4817TIP3   OH214391   0.103   1.263   4.260
 4817TIP3    H114392   0.161   1.298   4.193
 4817TIP3    H214393   0.015   1.282   4.227
 4818TIP3   OH214394   3.869   6.886   5.930
 4818TIP3    H114395   3.858   6.974   5.895
 4818TIP3    H214396   3.927   6.898   6.006
 4819TIP3   OH214397   7.472   1.760   1.550
 4819TIP3    H114398   7.489   1.781   1.642
 4819TIP3    H214399   7.558   1.770   1.507
 4820TIP3   OH214400   1.789   4.361   0.533
 4820TIP3    H114401   1.804   4.296   0.465
 4820TIP3    H214402   1.854   4.342   0.600
 4821TIP3   OH214403   6.256   2.690   6.404
 4821TIP3    H114404   6.299   2.657   6.325
 4821TIP3    H214405   6.179   2.738   6.370
 4822TIP3   OH214406   6.292   0.187   0.289
 4822TIP3    H114407   6.254   0.213   0.373
 4822TIP3    H214408   6.375   0.147   0.312
 4823TIP3   OH214409   0.600   0.506   2.284
 4823TIP3    H114410   0.585   0.593   2.321
 4823TIP3    H214411   0.554   0.508   2.200
 4824TIP3   OH214412   0.048   1.049   3.068
 4824TIP3    H114413   0.081   0.961   3.054
 4824TIP3    H214414   0.116   1.091   3.121
 4825TIP3   OH214415   4.493   3.040   3.105
 4825TIP3    H114416   4.469   3.079   3.021
 4825TIP3    H214417   4.555   3.102   3.144
 4826TIP3   OH214418   4.613   6.594   4.869
 4826TIP3    H114419   4.603   6.642   4.787
 4826TIP3    H214420   4.526   6.597   4.909
 4827TIP3   OH214421   3.563   7.059   0.205
 4827TIP3    H114422   3.471   7.061   0.180
 4827TIP3    H214423   3.568   7.114   0.283
 4828TIP3   OH214424   4.581   0.605   4.248
 4828TIP3    H114425   4.577   0.593   4.153
 4828TIP3    H214426   4.668   0.574   4.272
 4829TIP3   OH214427   3.882   4.712   0.276
 4829TIP3    H114428   3.870   4.669   0.360
 4829TIP3    H214429   3.977   4.715   0.264
 4830TIP3   OH214430   1.113   4.142   0.454
 4830TIP3    H114431   1.182   4.185   0.504
 4830TIP3    H214432   1.158   4.103   0.379
 4831TIP3   OH214433   6.843   2.576   5.651
 4831TIP3    H114434   6.764   2.614   5.690
 4831TIP3    H214435   6.888   2.534   5.724
 4832TIP3   OH214436   5.595   4.619   0.454
 4832TIP3    H114437   5.655   4.639   0.382
 4832TIP3    H214438   5.593   4.523   0.458
 4833TIP3   OH214439   4.699   7.809   0.976
 4833TIP3    H114440   4.606   7.824   0.992
 4833TIP3    H214441   4.742   7.837   1.057
 4834TIP3   OH214442   1.124   1.366   5.205
 4834TIP3    H114443   1.167   1.434   5.257
 4834TIP3    H214444   1.177   1.287   5.220
 4835TIP3   OH214445   8.141   3.901   0.839
 4835TIP3    H114446   8.206   3.972   0.846
 4835TIP3    H214447   8.063   3.936   0.882
 4836TIP3   OH214448   5.386   6.534   1.827
 4836TIP3    H114449   5.297   6.498   1.831
 4836TIP3    H214450   5.373   6.628   1.823
 4837TIP3   OH214451   4.082   3.361   6.371
 4837TIP3    H114452   4.167   3.318   6.372
 4837TIP3    H214453   4.022   3.293   6.340
 4838TIP3   OH214454   6.778   3.655   6.217
 4838TIP3    H114455   6.746   3.568   6.193
 4838TIP3    H214456   6.768   3.659   6.312
 4839TIP3   OH214457   2.139   0.924   4.200
 4839TIP3    H114458   2.225   0.926   4.241
 4839TIP3    H214459   2.088   0.863   4.254
 4840TIP3   OH214460   3.082   0.468   6.518
 4840TIP3    H114461   3.040   0.545   6.479
 4840TIP3    H214462   3.174   0.494   6.527
 4841TIP3   OH214463   1.269   7.558   2.947
 4841TIP3    H114464   1.280   7.653   2.947
 4841TIP3    H214465   1.228   7.539   3.032
 4842TIP3   OH214466   5.647   7.182   1.684
 4842TIP3    H114467   5.572   7.123   1.692
 4842TIP3    H214468   5.626   7.255   1.742
 4843TIP3   OH214469   6.954   4.271   5.783
 4843TIP3    H114470   6.862   4.280   5.756
 4843TIP3    H214471   6.973   4.178   5.773
 4844TIP3   OH214472   1.520   6.538   5.868
 4844TIP3    H114473   1.570   6.460   5.842
 4844TIP3    H214474   1.558   6.609   5.816
 4845TIP3   OH214475   3.980   4.814   2.316
 4845TIP3    H114476   3.912   4.862   2.268
 4845TIP3    H214477   3.936   4.786   2.396
 4846TIP3   OH214478   2.032   7.179   3.190
 4846TIP3    H114479   2.105   7.164   3.130
 4846TIP3    H214480   2.052   7.264   3.230
 4847TIP3   OH214481   0.125   2.928   6.563
 4847TIP3    H114482   0.094   3.014   6.592
 4847TIP3    H214483   0.165   2.889   6.641
 4848TIP3   OH214484   5.580   0.967   0.801
 4848TIP3    H114485   5.629   0.910   0.860
 4848TIP3    H214486   5.489   0.940   0.811
 4849TIP3   OH214487   4.760   0.284   1.335
 4849TIP3    H114488   4.799   0.233   1.406
 4849TIP3    H214489   4.743   0.219   1.266
 4850TIP3   OH214490   7.258   7.636   0.237
 4850TIP3    H114491   7.317   7.679   0.175
 4850TIP3    H214492   7.173   7.635   0.193
 4851TIP3   OH214493   5.586   4.950   6.078
 4851TIP3    H114494   5.672   4.951   6.120
 4851TIP3    H214495   5.562   5.042   6.070
 4852TIP3   OH214496   4.924   6.309   4.931
 4852TIP3    H114497   4.928   6.240   4.997
 4852TIP3    H214498   4.864   6.374   4.969
 4853TIP3   OH214499   8.226   2.862   4.045
 4853TIP3    H114500   8.175   2.796   3.998
 4853TIP3    H214501   8.162   2.925   4.076
 4854TIP3   OH214502   3.293   5.354   0.287
 4854TIP3    H114503   3.326   5.323   0.203
 4854TIP3    H214504   3.215   5.405   0.265
 4855TIP3   OH214505   7.686   3.393   2.450
 4855TIP3    H114506   7.606   3.436   2.480
 4855TIP3    H214507   7.744   3.465   2.427
 4856TIP3   OH214508   5.818   1.365   4.042
 4856TIP3    H114509   5.846   1.453   4.019
 4856TIP3    H214510   5.899   1.320   4.067
 4857TIP3   OH214511   0.853   5.821   1.403
 4857TIP3    H114512   0.785   5.792   1.343
 4857TIP3    H214513   0.931   5.773   1.376
 4858TIP3   OH214514   7.058   4.831   3.178
 4858TIP3    H114515   7.135   4.774   3.171
 4858TIP3    H214516   7.055   4.856   3.270
 4859TIP3   OH214517   5.389   5.014   5.546
 4859TIP3    H114518   5.456   4.948   5.562
 4859TIP3    H214519   5.325   5.000   5.617
 4860TIP3   OH214520   2.277   0.082   3.680
 4860TIP3    H114521   2.234   0.065   3.597
 4860TIP3    H214522   2.290   0.177   3.681
 4861TIP3   OH214523   3.437   1.858   5.839
 4861TIP3    H114524   3.373   1.915   5.797
 4861TIP3    H214525   3.506   1.917   5.870
 4862TIP3   OH214526   6.073   4.564   2.183
 4862TIP3    H114527   6.162   4.583   2.151
 4862TIP3    H214528   6.024   4.644   2.166
 4863TIP3   OH214529   2.941   2.940   3.258
 4863TIP3    H114530   2.930   2.931   3.352
 4863TIP3    H214531   3.023   2.894   3.239
 4864TIP3   OH214532   7.066   6.384   4.680
 4864TIP3    H114533   7.009   6.393   4.604
 4864TIP3    H214534   7.127   6.315   4.655
 4865TIP3   OH214535   3.608   6.793   0.266
 4865TIP3    H114536   3.631   6.876   0.225
 4865TIP3    H214537   3.592   6.815   0.358
 4866TIP3   OH214538   6.854   6.893   1.093
 4866TIP3    H114539   6.814   6.816   1.052
 4866TIP3    H214540   6.814   6.898   1.180
 4867TIP3   OH214541   0.576   2.690   5.383
 4867TIP3    H114542   0.550   2.668   5.473
 4867TIP3    H214543   0.669   2.712   5.390
 4868TIP3   OH214544   7.881   5.986   4.259
 4868TIP3    H114545   7.814   5.931   4.217
 4868TIP3    H214546   7.933   6.019   4.186
 4869TIP3   OH214547   4.520   4.567   4.166
 4869TIP3    H114548   4.575   4.633   4.124
 4869TIP3    H214549   4.582   4.502   4.200
 4870TIP3   OH214550   3.452   5.785   5.905
 4870TIP3    H114551   3.473   5.814   5.817
 4870TIP3    H214552   3.527   5.812   5.958
 4871TIP3   OH214553   2.959   5.176   3.969
 4871TIP3    H114554   2.941   5.241   4.037
 4871TIP3    H214555   3.027   5.216   3.915
 4872TIP3   OH214556   1.990   0.221   3.013
 4872TIP3    H114557   1.986   0.298   2.957
 4872TIP3    H214558   2.074   0.229   3.059
 4873TIP3   OH214559   0.132   6.898   5.723
 4873TIP3    H114560   0.118   6.965   5.790
 4873TIP3    H214561   0.044   6.863   5.705
 4874TIP3   OH214562   8.280   7.369   1.404
 4874TIP3    H114563   8.338   7.293   1.401
 4874TIP3    H214564   8.227   7.356   1.482
 4875TIP3   OH214565   2.342   1.076   4.616
 4875TIP3    H114566   2.344   1.031   4.532
 4875TIP3    H214567   2.249   1.087   4.636
 4876TIP3   OH214568   4.265   2.251   3.449
 4876TIP3    H114569   4.281   2.161   3.477
 4876TIP3    H214570   4.173   2.253   3.426
 4877TIP3   OH214571   3.109   5.784   4.086
 4877TIP3    H114572   3.179   5.849   4.073
 4877TIP3    H214573   3.075   5.768   3.998
 4878TIP3   OH214574   1.232   3.835   1.305
 4878TIP3    H114575   1.326   3.824   1.319
 4878TIP3    H214576   1.197   3.856   1.392
 4879TIP3   OH214577   6.490   3.049   0.532
 4879TIP3    H114578   6.415   3.107   0.540
 4879TIP3    H214579   6.461   2.980   0.473
 4880TIP3   OH214580   7.346   0.926   3.147
 4880TIP3    H114581   7.327   1.009   3.191
 4880TIP3    H214582   7.272   0.912   3.089
 4881TIP3   OH214583   5.325   2.002   3.950
 4881TIP3    H114584   5.233   2.031   3.954
 4881TIP3    H214585   5.364   2.037   4.030
 4882TIP3   OH214586   0.176   7.053   0.100
 4882TIP3    H114587   0.204   7.112   0.170
 4882TIP3    H214588   0.138   7.111   0.034
 4883TIP3   OH214589   3.968   0.761   6.672
 4883TIP3    H114590   3.973   0.856   6.666
 4883TIP3    H214591   3.914   0.735   6.597
 4884TIP3   OH214592   4.392   5.948   0.650
 4884TIP3    H114593   4.484   5.965   0.668
 4884TIP3    H214594   4.345   6.005   0.711
 4885TIP3   OH214595   2.443   7.252   4.268
 4885TIP3    H114596   2.486   7.244   4.353
 4885TIP3    H214597   2.515   7.258   4.206
 4886TIP3   OH214598   3.789   2.789   2.476
 4886TIP3    H114599   3.747   2.873   2.495
 4886TIP3    H214600   3.863   2.784   2.537
 4887TIP3   OH214601   2.838   5.340   2.847
 4887TIP3    H114602   2.751   5.377   2.834
 4887TIP3    H214603   2.895   5.415   2.857
 4888TIP3   OH214604   5.762   7.612   0.990
 4888TIP3    H114605   5.844   7.609   0.942
 4888TIP3    H214606   5.759   7.700   1.028
 4889TIP3   OH214607   3.760   2.288   1.066
 4889TIP3    H114608   3.666   2.306   1.060
 4889TIP3    H214609   3.774   2.261   1.157
 4890TIP3   OH214610   4.334   4.164   1.656
 4890TIP3    H114611   4.421   4.195   1.680
 4890TIP3    H214612   4.274   4.224   1.701
 4891TIP3   OH214613   0.789   5.700   5.736
 4891TIP3    H114614   0.833   5.756   5.800
 4891TIP3    H214615   0.696   5.705   5.758
 4892TIP3   OH214616   0.377   3.449   5.950
 4892TIP3    H114617   0.356   3.364   5.911
 4892TIP3    H214618   0.297   3.500   5.941
 4893TIP3   OH214619   0.006   7.779   3.993
 4893TIP3    H114620  -0.074   7.733   4.016
 4893TIP3    H214621   0.044   7.728   3.921
 4894TIP3   OH214622   6.298   1.543   6.145
 4894TIP3    H114623   6.244   1.555   6.067
 4894TIP3    H214624   6.247   1.583   6.216
 4895TIP3   OH214625   2.892   1.779   0.061
 4895TIP3    H114626   2.870   1.856   0.010
 4895TIP3    H214627   2.948   1.811   0.131
 4896TIP3   OH214628   4.925   6.331   5.528
 4896TIP3    H114629   4.907   6.413   5.575
 4896TIP3    H214630   5.021   6.330   5.518
 4897TIP3   OH214631   2.913   6.924   3.392
 4897TIP3    H114632   2.890   6.969   3.310
 4897TIP3    H214633   3.006   6.941   3.404
 4898TIP3   OH214634   3.304   3.617   3.706
 4898TIP3    H114635   3.297   3.655   3.618
 4898TIP3    H214636   3.234   3.551   3.709
 4899TIP3   OH214637   4.386   6.003   4.746
 4899TIP3    H114638   4.465   5.993   4.693
 4899TIP3    H214639   4.413   6.058   4.819
 4900TIP3   OH214640   7.836   7.724   5.467
 4900TIP3    H114641   7.847   7.728   5.562
 4900TIP3    H214642   7.741   7.723   5.455
 4901TIP3   OH214643   5.696   5.545   4.848
 4901TIP3    H114644   5.653   5.475   4.897
 4901TIP3    H214645   5.769   5.572   4.904
 4902TIP3   OH214646   0.544   5.452   6.329
 4902TIP3    H114647   0.550   5.540   6.365
 4902TIP3    H214648   0.555   5.465   6.234
 4903TIP3   OH214649   8.273   1.812   4.756
 4903TIP3    H114650   8.329   1.866   4.812
 4903TIP3    H214651   8.326   1.796   4.678
 4904TIP3   OH214652   5.914   4.261   5.022
 4904TIP3    H114653   5.868   4.345   5.029
 4904TIP3    H214654   6.002   4.285   4.993
 4905TIP3   OH214655   8.180   4.069   6.524
 4905TIP3    H114656   8.109   4.115   6.479
 4905TIP3    H214657   8.253   4.073   6.463
 4906TIP3   OH214658   8.039   5.327   2.810
 4906TIP3    H114659   7.988   5.387   2.865
 4906TIP3    H214660   8.073   5.381   2.739
 4907TIP3   OH214661   4.610   2.444   2.829
 4907TIP3    H114662   4.690   2.452   2.881
 4907TIP3    H214663   4.567   2.528   2.838
 4908TIP3   OH214664   6.173   2.581   0.674
 4908TIP3    H114665   6.093   2.631   0.695
 4908TIP3    H214666   6.241   2.648   0.666
 4909TIP3   OH214667   4.861   4.098   6.225
 4909TIP3    H114668   4.901   4.160   6.164
 4909TIP3    H214669   4.904   4.116   6.308
 4910TIP3   OH214670   6.333   0.927   3.664
 4910TIP3    H114671   6.366   0.975   3.740
 4910TIP3    H214672   6.313   0.839   3.698
 4911TIP3   OH214673   3.390   1.813   6.516
 4911TIP3    H114674   3.418   1.739   6.570
 4911TIP3    H214675   3.299   1.828   6.539
 4912TIP3   OH214676   8.329   5.670   6.473
 4912TIP3    H114677   8.357   5.579   6.485
 4912TIP3    H214678   8.246   5.676   6.519
 4913TIP3   OH214679   5.261   6.781   1.753
 4913TIP3    H114680   5.240   6.702   1.703
 4913TIP3    H214681   5.318   6.831   1.695
 4914TIP3   OH214682   2.353   0.468   1.925
 4914TIP3    H114683   2.370   0.545   1.980
 4914TIP3    H214684   2.279   0.424   1.966
 4915TIP3   OH214685   6.613   7.045   6.171
 4915TIP3    H114686   6.520   7.025   6.181
 4915TIP3    H214687   6.638   7.086   6.253
 4916TIP3   OH214688   3.740   3.329   4.220
 4916TIP3    H114689   3.658   3.376   4.209
 4916TIP3    H214690   3.744   3.270   4.144
 4917TIP3   OH214691   0.108   5.027   5.477
 4917TIP3    H114692   0.072   5.092   5.416
 4917TIP3    H214693   0.073   4.943   5.446
 4918TIP3   OH214694   8.387   5.842   1.234
 4918TIP3    H114695   8.413   5.758   1.195
 4918TIP3    H214696   8.411   5.907   1.168
 4919TIP3   OH214697   0.919   6.799   4.262
 4919TIP3    H114698   0.908   6.888   4.230
 4919TIP3    H214699   1.008   6.797   4.297
 4920TIP3   OH214700   2.166   5.024   6.263
 4920TIP3    H114701   2.182   5.033   6.169
 4920TIP3    H214702   2.176   4.930   6.279
 4921TIP3   OH214703   3.359   3.390   6.593
 4921TIP3    H114704   3.359   3.451   6.667
 4921TIP3    H214705   3.451   3.371   6.577
 4922TIP3   OH214706   1.723   1.809   1.168
 4922TIP3    H114707   1.792   1.850   1.220
 4922TIP3    H214708   1.659   1.878   1.153
 4923TIP3   OH214709   1.190   3.141   2.989
 4923TIP3    H114710   1.152   3.152   2.902
 4923TIP3    H214711   1.258   3.075   2.978
 4924TIP3   OH214712   2.856   3.124   3.086
 4924TIP3    H114713   2.929   3.072   3.119
 4924TIP3    H214714   2.810   3.066   3.025
 4925TIP3   OH214715   0.350   4.562   3.749
 4925TIP3    H114716   0.317   4.483   3.705
 4925TIP3    H214717   0.401   4.607   3.682
 4926TIP3   OH214718   4.899   1.508   3.275
 4926TIP3    H114719   4.844   1.430   3.277
 4926TIP3    H214720   4.947   1.506   3.358
 4927TIP3   OH214721   4.277   2.149   6.519
 4927TIP3    H114722   4.350   2.150   6.581
 4927TIP3    H214723   4.200   2.171   6.572
 4928TIP3   OH214724   1.003   5.689   1.681
 4928TIP3    H114725   1.067   5.750   1.716
 4928TIP3    H214726   0.948   5.742   1.624
 4929TIP3   OH214727   1.841   5.754   0.730
 4929TIP3    H114728   1.936   5.749   0.721
 4929TIP3    H214729   1.809   5.752   0.640
 4930TIP3   OH214730   2.295   4.666   4.352
 4930TIP3    H114731   2.277   4.661   4.446
 4930TIP3    H214732   2.211   4.646   4.311
 4931TIP3   OH214733   1.900   0.465   1.930
 4931TIP3    H114734   1.905   0.439   1.839
 4931TIP3    H214735   1.858   0.551   1.928
 4932TIP3   OH214736   6.798   7.856   6.236
 4932TIP3    H114737   6.746   7.810   6.170
 4932TIP3    H214738   6.881   7.809   6.240
 4933TIP3   OH214739   1.328   5.585   6.552
 4933TIP3    H114740   1.309   5.532   6.630
 4933TIP3    H214741   1.338   5.521   6.482
 4934TIP3   OH214742   3.527   3.637   3.896
 4934TIP3    H114743   3.465   3.621   3.825
 4934TIP3    H214744   3.611   3.652   3.852
 4935TIP3   OH214745   6.178   7.848   1.744
 4935TIP3    H114746   6.178   7.846   1.839
 4935TIP3    H214747   6.243   7.783   1.718
 4936TIP3   OH214748   7.162   0.654   5.943
 4936TIP3    H114749   7.096   0.722   5.947
 4936TIP3    H214750   7.240   0.698   5.908
 4937TIP3   OH214751   7.005   4.120   3.080
 4937TIP3    H114752   6.952   4.118   3.000
 4937TIP3    H214753   7.076   4.182   3.059
 4938TIP3   OH214754   1.502   5.638   5.717
 4938TIP3    H114755   1.535   5.649   5.627
 4938TIP3    H214756   1.420   5.687   5.719
 4939TIP3   OH214757   3.395   4.490   5.257
 4939TIP3    H114758   3.335   4.422   5.288
 4939TIP3    H214759   3.339   4.567   5.245
 4940TIP3   OH214760   5.166   2.872   5.653
 4940TIP3    H114761   5.171   2.892   5.560
 4940TIP3    H214762   5.195   2.952   5.696
 4941TIP3   OH214763   3.148   6.312   4.209
 4941TIP3    H114764   3.186   6.262   4.137
 4941TIP3    H214765   3.139   6.401   4.175
 4942TIP3   OH214766   5.979   5.793   1.884
 4942TIP3    H114767   6.014   5.882   1.893
 4942TIP3    H214768   6.039   5.738   1.935
 4943TIP3   OH214769   0.494   0.106   0.050
 4943TIP3    H114770   0.403   0.111   0.081
 4943TIP3    H214771   0.488   0.062  -0.035
 4944TIP3   OH214772   7.239   6.655   0.817
 4944TIP3    H114773   7.150   6.630   0.796
 4944TIP3    H214774   7.292   6.579   0.793
 4945TIP3   OH214775   7.914   1.572   2.051
 4945TIP3    H114776   7.868   1.640   2.003
 4945TIP3    H214777   7.998   1.611   2.074
 4946TIP3   OH214778   0.565   6.121   0.478
 4946TIP3    H114779   0.539   6.030   0.490
 4946TIP3    H214780   0.659   6.122   0.497
 4947TIP3   OH214781   6.151   5.479   2.323
 4947TIP3    H114782   6.122   5.439   2.241
 4947TIP3    H214783   6.112   5.424   2.391
 4948TIP3   OH214784   0.766   4.788   4.790
 4948TIP3    H114785   0.690   4.739   4.821
 4948TIP3    H214786   0.836   4.764   4.850
 4949TIP3   OH214787   5.135   7.020   5.465
 4949TIP3    H114788   5.042   7.014   5.484
 4949TIP3    H214789   5.161   6.930   5.445
 4950TIP3   OH214790   7.292   3.072   2.401
 4950TIP3    H114791   7.367   3.037   2.448
 4950TIP3    H214792   7.308   3.047   2.310
 4951TIP3   OH214793   5.623   3.150   1.938
 4951TIP3    H114794   5.656   3.062   1.957
 4951TIP3    H214795   5.570   3.172   2.015
 4952TIP3   OH214796   1.022   4.433   1.448
 4952TIP3    H114797   1.107   4.392   1.461
 4952TIP3    H214798   1.038   4.503   1.385
 4953TIP3   OH214799   7.998   2.396   6.673
 4953TIP3    H114800   7.970   2.353   6.592
 4953TIP3    H214801   8.061   2.335   6.711
 4954TIP3   OH214802   4.743   3.889   2.947
 4954TIP3    H114803   4.742   3.889   2.852
 4954TIP3    H214804   4.689   3.964   2.971
 4955TIP3   OH214805   1.959   4.239   6.091
 4955TIP3    H114806   1.924   4.154   6.117
 4955TIP3    H214807   1.944   4.295   6.168
 4956TIP3   OH214808   4.427   0.011   2.761
 4956TIP3    H114809   4.485   0.038   2.832
 4956TIP3    H214810   4.454   0.064   2.686
 4957TIP3   OH214811   6.441   5.714   1.459
 4957TIP3    H114812   6.392   5.732   1.378
 4957TIP3    H214813   6.395   5.764   1.526
 4958TIP3   OH214814   3.964   0.024   4.111
 4958TIP3    H114815   3.949   0.077   4.189
 4958TIP3    H214816   4.022   0.077   4.056
 4959TIP3   OH214817   4.861   0.496   3.856
 4959TIP3    H114818   4.930   0.550   3.894
 4959TIP3    H214819   4.870   0.507   3.762
 4960TIP3   OH214820   5.689   4.420   4.464
 4960TIP3    H114821   5.768   4.377   4.495
 4960TIP3    H214822   5.720   4.496   4.415
 4961TIP3   OH214823   0.621   2.246   3.021
 4961TIP3    H114824   0.669   2.265   2.940
 4961TIP3    H214825   0.685   2.199   3.076
 4962TIP3   OH214826   7.709   0.022   2.027
 4962TIP3    H114827   7.794   0.025   1.983
 4962TIP3    H214828   7.660  -0.046   1.982
 4963TIP3   OH214829   8.155   7.357   1.085
 4963TIP3    H114830   8.204   7.415   1.026
 4963TIP3    H214831   8.141   7.408   1.164
 4964TIP3   OH214832   7.585   1.910   2.491
 4964TIP3    H114833   7.630   1.827   2.507
 4964TIP3    H214834   7.643   1.957   2.431
 4965TIP3   OH214835   3.572   6.826   5.215
 4965TIP3    H114836   3.632   6.873   5.273
 4965TIP3    H214837   3.627   6.798   5.142
 4966TIP3   OH214838   6.523   0.802   2.624
 4966TIP3    H114839   6.540   0.784   2.532
 4966TIP3    H214840   6.536   0.896   2.633
 4967TIP3   OH214841   3.174   1.864   1.638
 4967TIP3    H114842   3.212   1.940   1.595
 4967TIP3    H214843   3.177   1.795   1.571
 4968TIP3   OH214844   3.359   1.832   5.392
 4968TIP3    H114845   3.273   1.790   5.403
 4968TIP3    H214846   3.345   1.922   5.422
 4969TIP3   OH214847   7.412   0.232   5.891
 4969TIP3    H114848   7.489   0.236   5.833
 4969TIP3    H214849   7.358   0.307   5.864
 4970TIP3   OH214850   5.683   5.938   4.608
 4970TIP3    H114851   5.686   5.849   4.573
 4970TIP3    H214852   5.726   5.932   4.694
 4971TIP3   OH214853   5.801   1.781   3.751
 4971TIP3    H114854   5.720   1.768   3.799
 4971TIP3    H214855   5.830   1.869   3.777
 4972TIP3   OH214856   2.433   7.554   6.089
 4972TIP3    H114857   2.496   7.483   6.081
 4972TIP3    H214858   2.400   7.547   6.179
 4973TIP3   OH214859   7.096   3.754   3.354
 4973TIP3    H114860   7.186   3.778   3.330
 4973TIP3    H214861   7.050   3.745   3.270
 4974TIP3   OH214862   6.922   4.889   2.770
 4974TIP3    H114863   6.874   4.914   2.691
 4974TIP3    H214864   7.012   4.874   2.740
 4975TIP3   OH214865   3.866   4.247   2.356
 4975TIP3    H114866   3.907   4.215   2.437
 4975TIP3    H214867   3.918   4.206   2.286
 4976TIP3   OH214868   4.729   0.893   2.523
 4976TIP3    H114869   4.711   0.871   2.432
 4976TIP3    H214870   4.666   0.842   2.573
 4977TIP3   OH214871   4.458   2.430   4.474
 4977TIP3    H114872   4.395   2.500   4.458
 4977TIP3    H214873   4.473   2.433   4.569
 4978TIP3   OH214874   1.886   4.927   4.686
 4978TIP3    H114875   1.972   4.971   4.683
 4978TIP3    H214876   1.872   4.909   4.779
 4979TIP3   OH214877   6.432   0.536   2.098
 4979TIP3    H114878   6.434   0.625   2.061
 4979TIP3    H214879   6.425   0.479   2.022
 4980TIP3   OH214880   7.089   0.267   2.004
 4980TIP3    H114881   7.083   0.231   1.916
 4980TIP3    H214882   7.075   0.361   1.993
 4981TIP3   OH214883   4.949   1.451   3.882
 4981TIP3    H114884   5.021   1.395   3.851
 4981TIP3    H214885   4.908   1.400   3.951
 4982TIP3   OH214886   2.378   5.658   2.347
 4982TIP3    H114887   2.355   5.725   2.283
 4982TIP3    H214888   2.468   5.634   2.325
 4983TIP3   OH214889   1.964   0.607   0.673
 4983TIP3    H114890   1.929   0.694   0.654
 4983TIP3    H214891   1.960   0.599   0.768
 4984TIP3   OH214892   1.138   4.915   1.425
 4984TIP3    H114893   1.217   4.941   1.379
 4984TIP3    H214894   1.132   4.820   1.413
 4985TIP3   OH214895   7.439   0.761   6.502
 4985TIP3    H114896   7.375   0.732   6.436
 4985TIP3    H214897   7.503   0.690   6.505
 4986TIP3   OH214898   6.372   0.543   2.746
 4986TIP3    H114899   6.397   0.556   2.838
 4986TIP3    H214900   6.329   0.625   2.721
 4987TIP3   OH214901   2.498   0.309   0.937
 4987TIP3    H114902   2.460   0.254   1.005
 4987TIP3    H214903   2.425   0.329   0.877
 4988TIP3   OH214904   3.157   6.970   5.712
 4988TIP3    H114905   3.102   6.903   5.670
 4988TIP3    H214906   3.209   7.007   5.641
 4989TIP3   OH214907   6.332   1.408   1.328
 4989TIP3    H114908   6.372   1.477   1.276
 4989TIP3    H214909   6.292   1.453   1.402
 4990TIP3   OH214910   0.883   4.832   1.808
 4990TIP3    H114911   0.835   4.787   1.877
 4990TIP3    H214912   0.842   4.804   1.726
 4991TIP3   OH214913   0.561   2.178   0.006
 4991TIP3    H114914   0.615   2.257   0.014
 4991TIP3    H214915   0.489   2.204  -0.052
 4992TIP3   OH214916   8.112   2.021   0.645
 4992TIP3    H114917   8.199   2.047   0.674
 4992TIP3    H214918   8.128   1.950   0.583
 4993TIP3   OH214919   3.563   1.448   2.612
 4993TIP3    H114920   3.532   1.453   2.521
 4993TIP3    H214921   3.485   1.428   2.663
 4994TIP3   OH214922   2.569   1.473   6.646
 4994TIP3    H114923   2.611   1.408   6.702
 4994TIP3    H214924   2.481   1.484   6.683
 4995TIP3   OH214925   1.280   7.841   3.108
 4995TIP3    H114926   1.196   7.813   3.072
 4995TIP3    H214927   1.258   7.914   3.166
 4996TIP3   OH214928   5.302   2.496   4.306
 4996TIP3    H114929   5.304   2.500   4.401
 4996TIP3    H214930   5.343   2.578   4.278
 4997TIP3   OH214931   4.922   4.077   1.962
 4997TIP3    H114932   4.989   4.119   2.016
 4997TIP3    H214933   4.948   4.095   1.872
 4998TIP3   OH214934   1.801   0.773   0.368
 4998TIP3    H114935   1.741   0.700   0.353
 4998TIP3    H214936   1.795   0.790   0.462
 4999TIP3   OH214937   2.315   1.816   6.076
 4999TIP3    H114938   2.409   1.804   6.064
 4999TIP3    H214939   2.300   1.908   6.055
 5000TIP3   OH214940   7.865   7.384   2.349
 5000TIP3    H114941   7.883   7.448   2.281
 5000TIP3    H214942   7.770   7.383   2.357
 5001TIP3   OH214943   4.993   4.560   4.679
 5001TIP3    H114944   4.998   4.538   4.586
 5001TIP3    H214945   5.008   4.654   4.683
 5002TIP3   OH214946   3.834   4.882   5.731
 5002TIP3    H114947   3.822   4.899   5.824
 5002TIP3    H214948   3.907   4.939   5.705
 5003TIP3   OH214949   1.498   5.394   2.720
 5003TIP3    H114950   1.586   5.425   2.699
 5003TIP3    H214951   1.452   5.397   2.636
 5004TIP3   OH214952   4.367   1.288   2.123
 5004TIP3    H114953   4.417   1.209   2.100
 5004TIP3    H214954   4.321   1.310   2.042
 5005TIP3   OH214955   6.068   1.771   6.794
 5005TIP3    H114956   5.983   1.729   6.806
 5005TIP3    H214957   6.102   1.782   6.882
 5006TIP3   OH214958   0.970   2.060   0.646
 5006TIP3    H114959   1.049   2.107   0.669
 5006TIP3    H214960   0.911   2.127   0.611
 5007TIP3   OH214961   2.133   2.279   0.329
 5007TIP3    H114962   2.221   2.310   0.350
 5007TIP3    H214963   2.121   2.303   0.237
 5008TIP3   OH214964   7.235   3.820   5.681
 5008TIP3    H114965   7.268   3.844   5.595
 5008TIP3    H214966   7.311   3.823   5.738
 5009TIP3   OH214967   6.925   6.343   2.420
 5009TIP3    H114968   6.954   6.290   2.494
 5009TIP3    H214969   6.954   6.295   2.343
 5010TIP3   OH214970   7.685   3.457   3.960
 5010TIP3    H114971   7.679   3.461   3.865
 5010TIP3    H214972   7.779   3.449   3.978
 5011TIP3   OH214973   5.516   7.385   2.339
 5011TIP3    H114974   5.545   7.435   2.415
 5011TIP3    H214975   5.533   7.443   2.265
 5012TIP3   OH214976   1.676   4.242   6.313
 5012TIP3    H114977   1.610   4.232   6.245
 5012TIP3    H214978   1.752   4.194   6.281
 5013TIP3   OH214979   1.506   2.393   6.338
 5013TIP3    H114980   1.583   2.366   6.388
 5013TIP3    H214981   1.445   2.428   6.404
 5014TIP3   OH214982   6.260   6.186   2.850
 5014TIP3    H114983   6.344   6.227   2.833
 5014TIP3    H214984   6.257   6.175   2.945
 5015TIP3   OH214985   8.303   4.215   2.986
 5015TIP3    H114986   8.321   4.163   2.907
 5015TIP3    H214987   8.356   4.294   2.975
 5016TIP3   OH214988   0.432   0.115   5.886
 5016TIP3    H114989   0.505   0.057   5.867
 5016TIP3    H214990   0.469   0.203   5.880
 5017TIP3   OH214991   1.689   5.293   2.472
 5017TIP3    H114992   1.728   5.346   2.542
 5017TIP3    H214993   1.723   5.205   2.488
 5018TIP3   OH214994   7.458   7.211   0.289
 5018TIP3    H114995   7.424   7.300   0.299
 5018TIP3    H214996   7.440   7.189   0.197
 5019TIP3   OH214997   0.453   7.812   2.212
 5019TIP3    H114998   0.528   7.770   2.170
 5019TIP3    H214999   0.450   7.772   2.299
 5020TIP3   OH215000   5.324   2.489   3.075
 5020TIP3    H115001   5.331   2.583   3.059
 5020TIP3    H215002   5.406   2.452   3.043
 5021TIP3   OH215003   7.725   3.624   3.227
 5021TIP3    H115004   7.762   3.562   3.165
 5021TIP3    H215005   7.800   3.677   3.255
 5022TIP3   OH215006   3.946   1.124   0.700
 5022TIP3    H115007   4.008   1.072   0.650
 5022TIP3    H215008   4.000   1.191   0.742
 5023TIP3   OH215009   0.967   0.593   3.846
 5023TIP3    H115010   0.975   0.654   3.920
 5023TIP3    H215011   0.924   0.644   3.777
 5024TIP3   OH215012   0.901   6.987   5.667
 5024TIP3    H115013   0.881   7.080   5.678
 5024TIP3    H215014   0.833   6.943   5.717
 5025TIP3   OH215015   6.664   1.065   0.973
 5025TIP3    H115016   6.707   1.123   1.036
 5025TIP3    H215017   6.572   1.065   1.000
 5026TIP3   OH215018   3.766   1.144   2.505
 5026TIP3    H115019   3.679   1.113   2.481
 5026TIP3    H215020   3.782   1.217   2.446
 5027TIP3   OH215021   3.571   7.761   2.500
 5027TIP3    H115022   3.480   7.751   2.529
 5027TIP3    H215023   3.564   7.808   2.417
 5028TIP3   OH215024   7.205   7.601   2.697
 5028TIP3    H115025   7.211   7.585   2.603
 5028TIP3    H215026   7.236   7.691   2.709
 5029TIP3   OH215027   5.165   7.555   1.912
 5029TIP3    H115028   5.249   7.550   1.956
 5029TIP3    H215029   5.138   7.647   1.922
 5030TIP3   OH215030   1.978   4.834   1.492
 5030TIP3    H115031   1.962   4.740   1.499
 5030TIP3    H215032   2.068   4.840   1.459
 5031TIP3   OH215033   5.502   4.244   5.821
 5031TIP3    H115034   5.419   4.240   5.868
 5031TIP3    H215035   5.489   4.309   5.753
 5032TIP3   OH215036   2.571   6.465   3.451
 5032TIP3    H115037   2.653   6.469   3.402
 5032TIP3    H215038   2.593   6.418   3.531
 5033TIP3   OH215039   6.730   4.783   3.283
 5033TIP3    H115040   6.747   4.874   3.305
 5033TIP3    H215041   6.745   4.777   3.189
 5034TIP3   OH215042   7.920   3.978   5.793
 5034TIP3    H115043   7.922   4.074   5.801
 5034TIP3    H215044   7.830   3.959   5.765
 5035TIP3   OH215045   3.435   5.224   1.859
 5035TIP3    H115046   3.347   5.187   1.853
 5035TIP3    H215047   3.423   5.310   1.899
 5036TIP3   OH215048   7.783   6.502   4.209
 5036TIP3    H115049   7.838   6.570   4.170
 5036TIP3    H215050   7.837   6.464   4.278
 5037TIP3   OH215051   3.190   2.265   4.665
 5037TIP3    H115052   3.210   2.303   4.580
 5037TIP3    H215053   3.102   2.229   4.655
 5038TIP3   OH215054   6.850   2.703   0.054
 5038TIP3    H115055   6.812   2.751   0.128
 5038TIP3    H215056   6.805   2.619   0.053
 5039TIP3   OH215057   7.956   3.032   3.494
 5039TIP3    H115058   8.008   3.104   3.528
 5039TIP3    H215059   7.943   2.974   3.569
 5040TIP3   OH215060   5.981   3.832   3.779
 5040TIP3    H115061   5.957   3.914   3.734
 5040TIP3    H215062   6.037   3.786   3.717
 5041TIP3   OH215063   1.256   4.231   1.377
 5041TIP3    H115064   1.189   4.191   1.321
 5041TIP3    H215065   1.324   4.165   1.383
 5042TIP3   OH215066   3.201   0.955   1.854
 5042TIP3    H115067   3.190   0.962   1.949
 5042TIP3    H215068   3.126   1.003   1.818
 5043TIP3   OH215069   0.595   4.251   6.439
 5043TIP3    H115070   0.670   4.298   6.401
 5043TIP3    H215071   0.631   4.169   6.471
 5044TIP3   OH215072   2.384   3.806   1.493
 5044TIP3    H115073   2.378   3.725   1.544
 5044TIP3    H215074   2.355   3.781   1.406
 5045TIP3   OH215075   3.069   0.868   6.781
 5045TIP3    H115076   3.115   0.873   6.865
 5045TIP3    H215077   2.989   0.919   6.795
 5046TIP3   OH215078   3.971   6.260   3.964
 5046TIP3    H115079   3.908   6.191   3.982
 5046TIP3    H215080   4.053   6.214   3.947
 5047TIP3   OH215081   2.539   2.328   2.647
 5047TIP3    H115082   2.485   2.403   2.622
 5047TIP3    H215083   2.618   2.335   2.593
 5048TIP3   OH215084   6.269   7.505   5.447
 5048TIP3    H115085   6.236   7.445   5.381
 5048TIP3    H215086   6.316   7.449   5.509
 5049TIP3   OH215087   0.681   5.187   4.518
 5049TIP3    H115088   0.714   5.099   4.500
 5049TIP3    H215089   0.713   5.207   4.606
 5050TIP3   OH215090   4.800   5.336   1.058
 5050TIP3    H115091   4.807   5.423   1.017
 5050TIP3    H215092   4.809   5.352   1.152
 5051TIP3   OH215093   7.300   0.555   0.978
 5051TIP3    H115094   7.313   0.607   0.900
 5051TIP3    H215095   7.276   0.618   1.046
 5052TIP3   OH215096   0.923   6.510   2.929
 5052TIP3    H115097   0.853   6.445   2.939
 5052TIP3    H215098   0.982   6.470   2.865
 5053TIP3   OH215099   1.785   1.581   6.100
 5053TIP3    H115100   1.808   1.500   6.146
 5053TIP3    H215101   1.867   1.609   6.059
 5054TIP3   OH215102   1.494   2.943   5.546
 5054TIP3    H115103   1.442   3.022   5.561
 5054TIP3    H215104   1.508   2.942   5.451
 5055TIP3   OH215105   3.100   2.142   5.496
 5055TIP3    H115106   3.151   2.134   5.416
 5055TIP3    H215107   3.013   2.169   5.467
 5056TIP3   OH215108   8.389   6.037   3.244
 5056TIP3    H115109   8.411   6.089   3.321
 5056TIP3    H215110   8.412   6.094   3.170
 5057TIP3   OH215111   4.113   4.307   0.838
 5057TIP3    H115112   4.066   4.323   0.920
 5057TIP3    H215113   4.204   4.329   0.858
 5058TIP3   OH215114   7.576   0.736   5.370
 5058TIP3    H115115   7.571   0.803   5.439
 5058TIP3    H215116   7.514   0.668   5.398
 5059TIP3   OH215117   0.478   2.877   6.060
 5059TIP3    H115118   0.421   2.879   5.983
 5059TIP3    H215119   0.419   2.852   6.132
 5060TIP3   OH215120   4.591   6.656   3.595
 5060TIP3    H115121   4.621   6.570   3.624
 5060TIP3    H215122   4.662   6.689   3.539
 5061TIP3   OH215123   7.704   1.544   5.855
 5061TIP3    H115124   7.726   1.634   5.832
 5061TIP3    H215125   7.788   1.499   5.862
 5062TIP3   OH215126   1.315   7.157   6.450
 5062TIP3    H115127   1.225   7.131   6.471
 5062TIP3    H215128   1.325   7.138   6.357
 5063TIP3   OH215129   5.136   5.600   4.282
 5063TIP3    H115130   5.130   5.665   4.351
 5063TIP3    H215131   5.070   5.627   4.218
 5064TIP3   OH215132   3.649   0.176   2.082
 5064TIP3    H115133   3.711   0.229   2.131
 5064TIP3    H215134   3.703   0.109   2.040
 5065TIP3   OH215135   2.040   3.066   5.764
 5065TIP3    H115136   1.974   3.010   5.723
 5065TIP3    H215137   2.068   3.125   5.694
 5066TIP3   OH215138   4.319   2.032   3.589
 5066TIP3    H115139   4.381   2.014   3.660
 5066TIP3    H215140   4.309   1.948   3.544
 5067TIP3   OH215141   2.846   7.437   0.636
 5067TIP3    H115142   2.854   7.519   0.589
 5067TIP3    H215143   2.778   7.453   0.701
 5068TIP3   OH215144   0.245   4.733   0.227
 5068TIP3    H115145   0.165   4.727   0.174
 5068TIP3    H215146   0.271   4.642   0.241
 5069TIP3   OH215147   5.008   7.001   6.230
 5069TIP3    H115148   4.936   6.989   6.168
 5069TIP3    H215149   4.980   7.074   6.285
 5070TIP3   OH215150   4.922   3.112   1.875
 5070TIP3    H115151   5.000   3.155   1.910
 5070TIP3    H215152   4.898   3.047   1.941
 5071TIP3   OH215153   3.812   0.110   3.121
 5071TIP3    H115154   3.829   0.189   3.070
 5071TIP3    H215155   3.831   0.135   3.211
 5072TIP3   OH215156   4.777   3.132   6.706
 5072TIP3    H115157   4.738   3.163   6.624
 5072TIP3    H215158   4.857   3.087   6.679
 5073TIP3   OH215159   6.117   2.097   2.785
 5073TIP3    H115160   6.171   2.167   2.820
 5073TIP3    H215161   6.103   2.038   2.859
 5074TIP3   OH215162   4.183   7.030   5.797
 5074TIP3    H115163   4.172   7.124   5.786
 5074TIP3    H215164   4.125   6.991   5.732
 5075TIP3   OH215165   2.638   3.054   3.264
 5075TIP3    H115166   2.720   3.008   3.282
 5075TIP3    H215167   2.650   3.092   3.176
 5076TIP3   OH215168   4.632   6.390   6.359
 5076TIP3    H115169   4.610   6.483   6.365
 5076TIP3    H215170   4.548   6.345   6.372
 5077TIP3   OH215171   2.323   3.296   6.189
 5077TIP3    H115172   2.319   3.209   6.229
 5077TIP3    H215173   2.234   3.313   6.160
 5078TIP3   OH215174   5.374   1.512   5.527
 5078TIP3    H115175   5.415   1.429   5.504
 5078TIP3    H215176   5.382   1.565   5.447
 5079TIP3   OH215177   7.585   7.270   5.739
 5079TIP3    H115178   7.623   7.268   5.827
 5079TIP3    H215179   7.579   7.363   5.718
 5080TIP3   OH215180   4.879   0.390   3.087
 5080TIP3    H115181   4.809   0.422   3.143
 5080TIP3    H215182   4.940   0.463   3.080
 5081TIP3   OH215183   5.920   4.905   5.930
 5081TIP3    H115184   5.891   4.819   5.899
 5081TIP3    H215185   5.910   4.900   6.025
 5082TIP3   OH215186   3.264   1.595   1.536
 5082TIP3    H115187   3.343   1.540   1.537
 5082TIP3    H215188   3.202   1.548   1.591
 5083TIP3   OH215189   1.227   5.970   2.074
 5083TIP3    H115190   1.180   6.014   2.003
 5083TIP3    H215191   1.316   6.005   2.071
 5084TIP3   OH215192   7.357   7.061   0.497
 5084TIP3    H115193   7.409   7.098   0.426
 5084TIP3    H215194   7.383   7.111   0.575
 5085TIP3   OH215195   8.253   7.401   4.640
 5085TIP3    H115196   8.184   7.428   4.701
 5085TIP3    H215197   8.267   7.308   4.661
 5086TIP3   OH215198   6.074   5.052   3.695
 5086TIP3    H115199   5.990   5.023   3.731
 5086TIP3    H215200   6.128   4.973   3.694
 5087TIP3   OH215201   4.111   3.831   5.400
 5087TIP3    H115202   4.137   3.751   5.446
 5087TIP3    H215203   4.023   3.849   5.434
 5088TIP3   OH215204   0.318   2.307   2.809
 5088TIP3    H115205   0.269   2.238   2.763
 5088TIP3    H215206   0.405   2.303   2.770
 5089TIP3   OH215207   6.374   0.951   0.118
 5089TIP3    H115208   6.459   0.924   0.154
 5089TIP3    H215209   6.396   0.996   0.037
 5090TIP3   OH215210   0.761   3.764   4.248
 5090TIP3    H115211   0.767   3.687   4.192
 5090TIP3    H215212   0.747   3.837   4.187
 5091TIP3   OH215213   7.039   7.514   1.013
 5091TIP3    H115214   7.054   7.485   1.104
 5091TIP3    H215215   7.077   7.443   0.960
 5092TIP3   OH215216   5.492   0.340   6.771
 5092TIP3    H115217   5.528   0.272   6.828
 5092TIP3    H215218   5.555   0.411   6.776
 5093TIP3   OH215219   6.566   7.498   6.636
 5093TIP3    H115220   6.637   7.525   6.695
 5093TIP3    H215221   6.597   7.521   6.549
 5094TIP3   OH215222   3.531   2.804   2.861
 5094TIP3    H115223   3.539   2.752   2.782
 5094TIP3    H215224   3.464   2.760   2.914
 5095TIP3   OH215225   3.423   0.180   3.357
 5095TIP3    H115226   3.346   0.220   3.317
 5095TIP3    H215227   3.416   0.087   3.336
 5096TIP3   OH215228   8.227   7.097   4.422
 5096TIP3    H115229   8.184   7.129   4.501
 5096TIP3    H215230   8.303   7.048   4.453
 5097TIP3   OH215231   7.012   0.984   3.232
 5097TIP3    H115232   6.983   0.961   3.321
 5097TIP3    H215233   7.014   0.900   3.186
 5098TIP3   OH215234   2.634   4.558   1.139
 5098TIP3    H115235   2.543   4.533   1.120
 5098TIP3    H215236   2.647   4.529   1.230
 5099TIP3   OH215237   6.064   2.569   6.222
 5099TIP3    H115238   6.064   2.476   6.243
 5099TIP3    H215239   5.987   2.604   6.268
 5100TIP3   OH215240   1.582   3.468   0.563
 5100TIP3    H115241   1.550   3.398   0.506
 5100TIP3    H215242   1.535   3.546   0.534
 5101TIP3   OH215243   1.740   1.782   2.096
 5101TIP3    H115244   1.707   1.854   2.044
 5101TIP3    H215245   1.673   1.714   2.089
 5102TIP3   OH215246   5.238   2.187   0.576
 5102TIP3    H115247   5.164   2.127   0.589
 5102TIP3    H215248   5.238   2.242   0.654
 5103TIP3   OH215249   3.389   3.265   1.048
 5103TIP3    H115250   3.383   3.210   0.969
 5103TIP3    H215251   3.446   3.215   1.107
 5104TIP3   OH215252   1.977   3.030   4.305
 5104TIP3    H115253   1.920   3.057   4.232
 5104TIP3    H215254   2.011   3.112   4.341
 5105TIP3   OH215255   1.466   7.603   6.150
 5105TIP3    H115256   1.394   7.598   6.212
 5105TIP3    H215257   1.430   7.570   6.068
 5106TIP3   OH215258   1.599   1.603   4.316
 5106TIP3    H115259   1.680   1.558   4.341
 5106TIP3    H215260   1.603   1.608   4.221
 5107TIP3   OH215261   3.496   0.557   3.122
 5107TIP3    H115262   3.524   0.519   3.205
 5107TIP3    H215263   3.519   0.491   3.056
 5108TIP3   OH215264   1.250   4.868   5.641
 5108TIP3    H115265   1.244   4.918   5.560
 5108TIP3    H215266   1.162   4.836   5.658
 5109TIP3   OH215267   1.362   0.217   0.310
 5109TIP3    H115268   1.377   0.143   0.369
 5109TIP3    H215269   1.444   0.266   0.312
 5110TIP3   OH215270   7.291   4.065   5.000
 5110TIP3    H115271   7.306   4.160   5.001
 5110TIP3    H215272   7.250   4.046   5.084
 5111TIP3   OH215273   2.313   0.326   0.738
 5111TIP3    H115274   2.271   0.247   0.771
 5111TIP3    H215275   2.262   0.350   0.661
 5112TIP3   OH215276   5.456   5.496   1.433
 5112TIP3    H115277   5.530   5.549   1.404
 5112TIP3    H215278   5.407   5.478   1.353
 5113TIP3   OH215279   1.771   1.051   6.725
 5113TIP3    H115280   1.865   1.048   6.707
 5113TIP3    H215281   1.755   0.973   6.780
 5114TIP3   OH215282   0.049   5.922   0.257
 5114TIP3    H115283   0.001   6.005   0.246
 5114TIP3    H215284   0.002   5.877   0.327
 5115TIP3   OH215285   0.892   3.810   2.183
 5115TIP3    H115286   0.918   3.898   2.209
 5115TIP3    H215287   0.817   3.823   2.126
 5116TIP3   OH215288   6.207   2.651   4.747
 5116TIP3    H115289   6.149   2.599   4.693
 5116TIP3    H215290   6.220   2.732   4.698
 5117TIP3   OH215291   4.594   1.827   2.017
 5117TIP3    H115292   4.662   1.879   2.060
 5117TIP3    H215293   4.546   1.787   2.089
 5118TIP3   OH215294   7.797   6.460   0.161
 5118TIP3    H115295   7.846   6.382   0.135
 5118TIP3    H215296   7.768   6.443   0.250
 5119TIP3   OH215297   1.476   6.998   3.741
 5119TIP3    H115298   1.494   7.035   3.827
 5119TIP3    H215299   1.525   6.916   3.739
 5120TIP3   OH215300   7.275   0.829   5.646
 5120TIP3    H115301   7.318   0.903   5.603
 5120TIP3    H215302   7.329   0.811   5.723
 5121TIP3   OH215303   6.415   5.491   3.098
 5121TIP3    H115304   6.334   5.452   3.064
 5121TIP3    H215305   6.404   5.491   3.193
 5122TIP3   OH215306   2.061   2.798   5.921
 5122TIP3    H115307   2.126   2.864   5.944
 5122TIP3    H215308   2.086   2.721   5.972
 5123TIP3   OH215309   6.933   7.909   4.560
 5123TIP3    H115310   6.946   7.827   4.608
 5123TIP3    H215311   6.864   7.954   4.609
 5124TIP3   OH215312   0.445   1.594   5.766
 5124TIP3    H115313   0.432   1.513   5.814
 5124TIP3    H215314   0.361   1.640   5.773
 5125TIP3   OH215315   3.012   2.952   1.539
 5125TIP3    H115316   2.978   2.880   1.486
 5125TIP3    H215317   2.985   2.931   1.629
 5126TIP3   OH215318   7.440   3.764   4.179
 5126TIP3    H115319   7.486   3.813   4.248
 5126TIP3    H215320   7.465   3.673   4.194
 5127TIP3   OH215321   1.602   7.393   5.884
 5127TIP3    H115322   1.529   7.389   5.822
 5127TIP3    H215323   1.562   7.370   5.968
 5128TIP3   OH215324   6.901   4.552   3.014
 5128TIP3    H115325   6.850   4.543   2.933
 5128TIP3    H215326   6.885   4.642   3.042
 5129TIP3   OH215327   5.357   5.229   2.861
 5129TIP3    H115328   5.445   5.250   2.829
 5129TIP3    H215329   5.368   5.222   2.956
 5130TIP3   OH215330   0.637   0.493   6.259
 5130TIP3    H115331   0.585   0.551   6.315
 5130TIP3    H215332   0.727   0.511   6.284
 5131TIP3   OH215333   4.982   6.429   0.189
 5131TIP3    H115334   4.927   6.445   0.265
 5131TIP3    H215335   4.971   6.507   0.134
 5132TIP3   OH215336   0.391   7.210   1.498
 5132TIP3    H115337   0.425   7.147   1.561
 5132TIP3    H215338   0.461   7.219   1.433
 5133TIP3   OH215339   3.031   5.899   6.139
 5133TIP3    H115340   3.120   5.862   6.136
 5133TIP3    H215341   3.040   5.986   6.102
 5134TIP3   OH215342   8.176   2.056   2.124
 5134TIP3    H115343   8.099   2.096   2.084
 5134TIP3    H215344   8.180   2.094   2.212
 5135TIP3   OH215345   2.514   4.275   6.589
 5135TIP3    H115346   2.489   4.367   6.597
 5135TIP3    H215347   2.592   4.266   6.644
 5136TIP3   OH215348   5.266   7.653   2.611
 5136TIP3    H115349   5.282   7.692   2.525
 5136TIP3    H215350   5.349   7.663   2.658
 5137TIP3   OH215351   5.704   2.591   4.156
 5137TIP3    H115352   5.760   2.604   4.233
 5137TIP3    H215353   5.765   2.590   4.082
 5138TIP3   OH215354   7.779   2.825   6.192
 5138TIP3    H115355   7.773   2.894   6.257
 5138TIP3    H215356   7.738   2.862   6.113
 5139TIP3   OH215357   7.122   0.737   1.731
 5139TIP3    H115358   7.063   0.721   1.658
 5139TIP3    H215359   7.125   0.655   1.780
 5140TIP3   OH215360   1.558   4.842   5.114
 5140TIP3    H115361   1.539   4.926   5.157
 5140TIP3    H215362   1.632   4.806   5.162
 5141TIP3   OH215363   2.539   7.299   4.779
 5141TIP3    H115364   2.499   7.213   4.794
 5141TIP3    H215365   2.469   7.361   4.795
 5142TIP3   OH215366   0.170   4.025   6.657
 5142TIP3    H115367   0.255   4.060   6.684
 5142TIP3    H215368   0.188   3.981   6.573
 5143TIP3   OH215369   3.228   2.253   1.562
 5143TIP3    H115370   3.194   2.179   1.512
 5143TIP3    H215371   3.255   2.215   1.646
 5144TIP3   OH215372   7.823   1.424   6.830
 5144TIP3    H115373   7.735   1.459   6.835
 5144TIP3    H215374   7.852   1.445   6.741
 5145TIP3   OH215375   7.908   4.393   4.907
 5145TIP3    H115376   7.862   4.469   4.871
 5145TIP3    H215377   7.847   4.320   4.897
 5146TIP3   OH215378   2.112   7.706   2.492
 5146TIP3    H115379   2.194   7.752   2.477
 5146TIP3    H215380   2.106   7.643   2.420
 5147TIP3   OH215381   6.400   3.733   5.449
 5147TIP3    H115382   6.416   3.811   5.502
 5147TIP3    H215383   6.329   3.687   5.494
 5148TIP3   OH215384   0.839   6.183   2.381
 5148TIP3    H115385   0.859   6.273   2.405
 5148TIP3    H215386   0.748   6.184   2.353
 5149TIP3   OH215387   5.676   2.065   0.057
 5149TIP3    H115388   5.625   2.029   0.129
 5149TIP3    H215389   5.661   2.005  -0.016
 5150TIP3   OH215390   0.475   4.954   5.934
 5150TIP3    H115391   0.447   4.900   6.008
 5150TIP3    H215392   0.549   4.907   5.897
 5151TIP3   OH215393   5.167   5.970   4.685
 5151TIP3    H115394   5.242   5.976   4.744
 5151TIP3    H215395   5.106   5.911   4.729
 5152TIP3   OH215396   0.833   7.470   4.000
 5152TIP3    H115397   0.768   7.505   4.060
 5152TIP3    H215398   0.917   7.493   4.040
 5153TIP3   OH215399   3.260   3.987   3.790
 5153TIP3    H115400   3.332   3.982   3.727
 5153TIP3    H215401   3.219   3.901   3.787
 5154TIP3   OH215402   0.873   7.573   6.734
 5154TIP3    H115403   0.874   7.507   6.665
 5154TIP3    H215404   0.966   7.589   6.753
 5155TIP3   OH215405   1.054   6.975   3.639
 5155TIP3    H115406   1.051   6.886   3.673
 5155TIP3    H215407   1.068   6.964   3.544
 5156TIP3   OH215408   3.308   6.000   4.954
 5156TIP3    H115409   3.229   6.045   4.983
 5156TIP3    H215410   3.339   5.952   5.031
 5157TIP3   OH215411   7.667   0.113   1.739
 5157TIP3    H115412   7.714   0.109   1.823
 5157TIP3    H215413   7.587   0.161   1.759
 5158TIP3   OH215414   7.809   5.005   2.419
 5158TIP3    H115415   7.850   4.928   2.378
 5158TIP3    H215416   7.845   5.079   2.371
 5159TIP3   OH215417   4.207   2.534   2.886
 5159TIP3    H115418   4.263   2.503   2.957
 5159TIP3    H215419   4.164   2.455   2.852
 5160TIP3   OH215420   8.166   6.801   1.909
 5160TIP3    H115421   8.243   6.745   1.912
 5160TIP3    H215422   8.201   6.890   1.901
 5161TIP3   OH215423   3.078   4.748   0.059
 5161TIP3    H115424   3.160   4.776   0.018
 5161TIP3    H215425   3.091   4.768   0.152
 5162TIP3   OH215426   3.652   0.035   5.075
 5162TIP3    H115427   3.658   0.085   4.993
 5162TIP3    H215428   3.573   0.069   5.118
 5163TIP3   OH215429   1.851   5.319   4.637
 5163TIP3    H115430   1.930   5.372   4.649
 5163TIP3    H215431   1.838   5.275   4.721
 5164TIP3   OH215432   6.249   5.655   4.079
 5164TIP3    H115433   6.283   5.653   4.169
 5164TIP3    H215434   6.239   5.747   4.058
 5165TIP3   OH215435   7.271   6.111   4.308
 5165TIP3    H115436   7.359   6.073   4.301
 5165TIP3    H215437   7.279   6.197   4.267
 5166TIP3   OH215438   1.527   4.392   2.219
 5166TIP3    H115439   1.492   4.307   2.245
 5166TIP3    H215440   1.622   4.379   2.218
 5167TIP3   OH215441   4.694   5.751   1.910
 5167TIP3    H115442   4.733   5.838   1.905
 5167TIP3    H215443   4.769   5.691   1.911
 5168TIP3   OH215444   6.347   4.667   4.245
 5168TIP3    H115445   6.295   4.730   4.195
 5168TIP3    H215446   6.351   4.704   4.333
 5169TIP3   OH215447   1.368   6.409   1.024
 5169TIP3    H115448   1.402   6.436   1.109
 5169TIP3    H215449   1.441   6.364   0.982
 5170TIP3   OH215450   5.954   3.787   6.130
 5170TIP3    H115451   6.001   3.840   6.066
 5170TIP3    H215452   5.949   3.843   6.208
 5171TIP3   OH215453   6.950   3.875   0.347
 5171TIP3    H115454   6.871   3.858   0.399
 5171TIP3    H215455   7.022   3.847   0.403
 5172TIP3   OH215456   4.527   2.037   0.193
 5172TIP3    H115457   4.569   1.951   0.196
 5172TIP3    H215458   4.511   2.052   0.100
 5173TIP3   OH215459   2.293   0.178   4.237
 5173TIP3    H115460   2.230   0.132   4.181
 5173TIP3    H215461   2.363   0.203   4.177
 5174TIP3   OH215462   8.250   3.231   1.751
 5174TIP3    H115463   8.323   3.170   1.744
 5174TIP3    H215464   8.230   3.235   1.844
 5175TIP3   OH215465   0.724   3.489   5.541
 5175TIP3    H115466   0.780   3.544   5.596
 5175TIP3    H215467   0.674   3.550   5.488
 5176TIP3   OH215468   6.449   3.233   2.860
 5176TIP3    H115469   6.357   3.207   2.871
 5176TIP3    H215470   6.490   3.158   2.817
 5177TIP3   OH215471   4.059   1.596   1.013
 5177TIP3    H115472   4.113   1.526   0.976
 5177TIP3    H215473   3.970   1.576   0.985
 5178TIP3   OH215474   1.147   0.947   0.709
 5178TIP3    H115475   1.226   0.974   0.662
 5178TIP3    H215476   1.099   1.029   0.723
 5179TIP3   OH215477   4.255   4.077   0.561
 5179TIP3    H115478   4.278   4.018   0.633
 5179TIP3    H215479   4.293   4.036   0.483
 5180TIP3   OH215480   6.499   5.325   4.245
 5180TIP3    H115481   6.501   5.419   4.261
 5180TIP3    H215482   6.408   5.307   4.220
 5181TIP3   OH215483   0.959   0.486   4.982
 5181TIP3    H115484   0.970   0.396   5.012
 5181TIP3    H215485   0.888   0.482   4.918
 5182TIP3   OH215486   4.902   6.118   5.152
 5182TIP3    H115487   4.842   6.147   5.220
 5182TIP3    H215488   4.977   6.081   5.199
 5183TIP3   OH215489   1.382   4.069   4.110
 5183TIP3    H115490   1.325   4.062   4.033
 5183TIP3    H215491   1.470   4.057   4.076
 5184TIP3   OH215492   1.438   1.380   1.328
 5184TIP3    H115493   1.367   1.316   1.335
 5184TIP3    H215494   1.406   1.456   1.377
 5185TIP3   OH215495   8.164   2.233   0.128
 5185TIP3    H115496   8.215   2.193   0.199
 5185TIP3    H215497   8.074   2.204   0.143
 5186TIP3   OH215498   2.088   2.838   3.157
 5186TIP3    H115499   2.125   2.767   3.104
 5186TIP3    H215500   2.023   2.879   3.101
 5187TIP3   OH215501   2.503   4.340   3.405
 5187TIP3    H115502   2.504   4.432   3.430
 5187TIP3    H215503   2.576   4.331   3.344
 5188TIP3   OH215504   7.587   0.295   3.090
 5188TIP3    H115505   7.604   0.364   3.155
 5188TIP3    H215506   7.671   0.250   3.082
 5189TIP3   OH215507   3.784   5.211   3.114
 5189TIP3    H115508   3.873   5.180   3.132
 5189TIP3    H215509   3.727   5.140   3.143
 5190TIP3   OH215510   0.013   6.359   5.202
 5190TIP3    H115511   0.029   6.402   5.118
 5190TIP3    H215512  -0.022   6.273   5.178
 5191TIP3   OH215513   7.215   1.836   2.643
 5191TIP3    H115514   7.129   1.810   2.676
 5191TIP3    H215515   7.277   1.809   2.711
 5192TIP3   OH215516   2.913   5.018   2.713
 5192TIP3    H115517   2.957   4.960   2.776
 5192TIP3    H215518   2.981   5.079   2.685
 5193TIP3   OH215519   7.485   3.548   5.515
 5193TIP3    H115520   7.403   3.505   5.540
 5193TIP3    H215521   7.530   3.484   5.460
 5194TIP3   OH215522   5.859   6.553   6.508
 5194TIP3    H115523   5.773   6.546   6.466
 5194TIP3    H215524   5.885   6.644   6.495
 5195TIP3   OH215525   6.068   2.075   5.518
 5195TIP3    H115526   6.019   2.051   5.597
 5195TIP3    H215527   6.136   2.135   5.549
 5196TIP3   OH215528   0.097   2.902   1.388
 5196TIP3    H115529   0.095   2.806   1.388
 5196TIP3    H215530   0.022   2.928   1.441
 5197TIP3   OH215531   5.531   6.374   5.807
 5197TIP3    H115532   5.476   6.363   5.885
 5197TIP3    H215533   5.514   6.464   5.779
 5198TIP3   OH215534   3.325   5.985   2.467
 5198TIP3    H115535   3.241   5.998   2.512
 5198TIP3    H215536   3.303   5.987   2.374
 5199TIP3   OH215537   7.070   6.368   0.179
 5199TIP3    H115538   6.994   6.425   0.192
 5199TIP3    H215539   7.133   6.424   0.133
 5200TIP3   OH215540   4.940   4.674   1.405
 5200TIP3    H115541   4.969   4.585   1.389
 5200TIP3    H215542   4.949   4.718   1.320
 5201TIP3   OH215543   0.984   4.916   0.190
 5201TIP3    H115544   1.067   4.942   0.231
 5201TIP3    H215545   0.990   4.949   0.100
 5202TIP3   OH215546   6.432   1.862   3.426
 5202TIP3    H115547   6.401   1.864   3.517
 5202TIP3    H215548   6.424   1.771   3.400
 5203TIP3   OH215549   1.704   6.109   6.290
 5203TIP3    H115550   1.788   6.152   6.274
 5203TIP3    H215551   1.710   6.026   6.242
 5204TIP3   OH215552   6.962   0.891   0.796
 5204TIP3    H115553   6.884   0.928   0.754
 5204TIP3    H215554   6.927   0.830   0.861
 5205TIP3   OH215555   5.436   4.748   1.800
 5205TIP3    H115556   5.393   4.747   1.885
 5205TIP3    H215557   5.365   4.755   1.737
 5206TIP3   OH215558   2.836   7.256   1.540
 5206TIP3    H115559   2.878   7.301   1.467
 5206TIP3    H215560   2.810   7.327   1.600
 5207TIP3   OH215561   4.921   5.409   5.878
 5207TIP3    H115562   4.915   5.492   5.829
 5207TIP3    H215563   4.849   5.356   5.843
 5208TIP3   OH215564   0.361   5.361   5.218
 5208TIP3    H115565   0.442   5.344   5.265
 5208TIP3    H215566   0.295   5.371   5.286
 5209TIP3   OH215567   4.011   7.605   0.832
 5209TIP3    H115568   4.017   7.539   0.901
 5209TIP3    H215569   4.011   7.553   0.751
 5210TIP3   OH215570   0.250   1.043   3.346
 5210TIP3    H115571   0.293   1.058   3.431
 5210TIP3    H215572   0.291   1.106   3.287
 5211TIP3   OH215573   7.109   6.607   6.455
 5211TIP3    H115574   7.132   6.655   6.375
 5211TIP3    H215575   7.021   6.639   6.476
 5212TIP3   OH215576   1.744   3.488   1.722
 5212TIP3    H115577   1.826   3.485   1.771
 5212TIP3    H215578   1.695   3.412   1.753
 5213TIP3   OH215579   2.590   6.012   5.867
 5213TIP3    H115580   2.636   5.945   5.917
 5213TIP3    H215581   2.584   5.975   5.778
 5214TIP3   OH215582   7.400   1.178   3.772
 5214TIP3    H115583   7.369   1.108   3.715
 5214TIP3    H215584   7.455   1.133   3.836
 5215TIP3   OH215585   5.973   1.852   1.024
 5215TIP3    H115586   6.004   1.762   1.038
 5215TIP3    H215587   5.887   1.841   0.981
 5216TIP3   OH215588   5.017   0.034   3.589
 5216TIP3    H115589   5.074   0.009   3.516
 5216TIP3    H215590   5.074   0.038   3.665
 5217TIP3   OH215591   3.767   0.624   0.319
 5217TIP3    H115592   3.695   0.614   0.381
 5217TIP3    H215593   3.813   0.703   0.347
 5218TIP3   OH215594   4.633   6.136   2.262
 5218TIP3    H115595   4.690   6.120   2.337
 5218TIP3    H215596   4.646   6.229   2.241
 5219TIP3   OH215597   1.306   0.799   1.309
 5219TIP3    H115598   1.315   0.826   1.217
 5219TIP3    H215599   1.360   0.861   1.358
 5220TIP3   OH215600   6.465   2.177   4.505
 5220TIP3    H115601   6.378   2.216   4.494
 5220TIP3    H215602   6.480   2.177   4.600
 5221TIP3   OH215603   0.115   5.832   4.330
 5221TIP3    H115604   0.138   5.924   4.317
 5221TIP3    H215605   0.101   5.824   4.424
 5222TIP3   OH215606   2.901   7.701   1.285
 5222TIP3    H115607   2.975   7.756   1.308
 5222TIP3    H215608   2.876   7.729   1.197
 5223TIP3   OH215609   6.911   1.714   4.206
 5223TIP3    H115610   6.824   1.679   4.225
 5223TIP3    H215611   6.927   1.689   4.115
 5224TIP3   OH215612   3.099   1.091   4.459
 5224TIP3    H115613   3.036   1.162   4.447
 5224TIP3    H215614   3.164   1.127   4.519
 5225TIP3   OH215615   7.190   7.671   4.297
 5225TIP3    H115616   7.109   7.721   4.307
 5225TIP3    H215617   7.259   7.731   4.325
 5226TIP3   OH215618   3.777   4.327   2.686
 5226TIP3    H115619   3.866   4.330   2.651
 5226TIP3    H215620   3.743   4.242   2.660
 5227TIP3   OH215621   3.580   6.841   0.522
 5227TIP3    H115622   3.589   6.787   0.600
 5227TIP3    H215623   3.504   6.896   0.539
 5228TIP3   OH215624   4.563   0.656   5.616
 5228TIP3    H115625   4.653   0.655   5.582
 5228TIP3    H215626   4.511   0.621   5.544
 5229TIP3   OH215627   6.820   2.765   1.868
 5229TIP3    H115628   6.880   2.692   1.883
 5229TIP3    H215629   6.743   2.744   1.921
 5230TIP3   OH215630   7.786   0.797   4.547
 5230TIP3    H115631   7.806   0.794   4.640
 5230TIP3    H215632   7.730   0.721   4.532
 5231TIP3   OH215633   6.763   3.376   6.176
 5231TIP3    H115634   6.733   3.316   6.245
 5231TIP3    H215635   6.845   3.337   6.145
 5232TIP3   OH215636   1.978   2.924   6.230
 5232TIP3    H115637   2.014   2.852   6.179
 5232TIP3    H215638   1.984   3.000   6.171
 5233TIP3   OH215639   3.426   7.573   4.435
 5233TIP3    H115640   3.353   7.519   4.404
 5233TIP3    H215641   3.395   7.663   4.427
 5234TIP3   OH215642   5.116   3.272   3.747
 5234TIP3    H115643   5.080   3.304   3.664
 5234TIP3    H215644   5.051   3.297   3.813
 5235TIP3   OH215645   1.972   2.137   3.750
 5235TIP3    H115646   1.924   2.197   3.806
 5235TIP3    H215647   1.905   2.092   3.700
 5236TIP3   OH215648   3.382   3.932   2.656
 5236TIP3    H115649   3.298   3.957   2.694
 5236TIP3    H215650   3.376   3.959   2.564
 5237TIP3   OH215651   5.778   6.531   0.822
 5237TIP3    H115652   5.780   6.622   0.850
 5237TIP3    H215653   5.687   6.504   0.836
 5238TIP3   OH215654   1.423   0.610   2.037
 5238TIP3    H115655   1.369   0.579   1.964
 5238TIP3    H215656   1.481   0.536   2.058
 5239TIP3   OH215657   5.833   4.940   1.205
 5239TIP3    H115658   5.884   4.930   1.285
 5239TIP3    H215659   5.872   4.879   1.143
 5240TIP3   OH215660   4.368   4.392   4.019
 5240TIP3    H115661   4.432   4.456   4.051
 5240TIP3    H215662   4.413   4.348   3.946
 5241TIP3   OH215663   4.250   2.105   3.133
 5241TIP3    H115664   4.168   2.146   3.158
 5241TIP3    H215665   4.244   2.094   3.038
 5242TIP3   OH215666   3.196   3.168   3.391
 5242TIP3    H115667   3.180   3.142   3.301
 5242TIP3    H215668   3.246   3.249   3.384
 5243TIP3   OH215669   3.194   1.902   1.135
 5243TIP3    H115670   3.197   1.809   1.155
 5243TIP3    H215671   3.286   1.930   1.134
 5244TIP3   OH215672   1.304   5.389   3.662
 5244TIP3    H115673   1.270   5.343   3.585
 5244TIP3    H215674   1.228   5.432   3.700
 5245TIP3   OH215675   0.061   7.835   0.725
 5245TIP3    H115676   0.006   7.889   0.668
 5245TIP3    H215677   0.050   7.873   0.812
 5246TIP3   OH215678   7.400   3.533   1.895
 5246TIP3    H115679   7.463   3.517   1.966
 5246TIP3    H215680   7.375   3.445   1.865
 5247TIP3   OH215681   5.847   5.666   1.530
 5247TIP3    H115682   5.864   5.755   1.563
 5247TIP3    H215683   5.934   5.632   1.509
 5248TIP3   OH215684   1.819   4.861   2.734
 5248TIP3    H115685   1.867   4.825   2.809
 5248TIP3    H215686   1.730   4.875   2.767
 5249TIP3   OH215687   7.389   3.930   0.491
 5249TIP3    H115688   7.452   3.919   0.563
 5249TIP3    H215689   7.435   3.899   0.413
 5250TIP3   OH215690   3.594   6.952   1.702
 5250TIP3    H115691   3.584   7.025   1.641
 5250TIP3    H215692   3.526   6.967   1.768
 5251TIP3   OH215693   6.038   7.899   4.099
 5251TIP3    H115694   6.040   7.806   4.119
 5251TIP3    H215695   5.972   7.935   4.158
 5252TIP3   OH215696   5.769   1.610   2.922
 5252TIP3    H115697   5.731   1.526   2.895
 5252TIP3    H215698   5.738   1.622   3.012
 5253TIP3   OH215699   4.449   7.586   5.736
 5253TIP3    H115700   4.497   7.575   5.654
 5253TIP3    H215701   4.447   7.499   5.774
 5254TIP3   OH215702   5.172   1.384   1.556
 5254TIP3    H115703   5.107   1.390   1.626
 5254TIP3    H215704   5.255   1.410   1.597
 5255TIP3   OH215705   4.182   2.494   0.117
 5255TIP3    H115706   4.107   2.444   0.086
 5255TIP3    H215707   4.168   2.582   0.082
 5256TIP3   OH215708   0.036   0.753   5.925
 5256TIP3    H115709  -0.004   0.819   5.869
 5256TIP3    H215710   0.090   0.804   5.986
 5257TIP3   OH215711   3.011   1.338   5.300
 5257TIP3    H115712   3.033   1.248   5.274
 5257TIP3    H215713   3.087   1.367   5.351
 5258TIP3   OH215714   4.324   6.689   5.697
 5258TIP3    H115715   4.300   6.614   5.752
 5258TIP3    H215716   4.244   6.713   5.652
 5259TIP3   OH215717   8.130   7.129   6.606
 5259TIP3    H115718   8.110   7.194   6.539
 5259TIP3    H215719   8.221   7.147   6.631
 5260TIP3   OH215720   2.751   3.953   6.335
 5260TIP3    H115721   2.690   3.881   6.321
 5260TIP3    H215722   2.829   3.928   6.285
 5261TIP3   OH215723   8.294   0.903   0.927
 5261TIP3    H115724   8.321   0.820   0.965
 5261TIP3    H215725   8.315   0.895   0.834
 5262TIP3   OH215726   6.178   4.312   5.553
 5262TIP3    H115727   6.086   4.323   5.530
 5262TIP3    H215728   6.184   4.223   5.588
 5263TIP3   OH215729   5.521   3.443   0.726
 5263TIP3    H115730   5.565   3.466   0.808
 5263TIP3    H215731   5.432   3.475   0.738
 5264TIP3   OH215732   7.837   2.620   2.980
 5264TIP3    H115733   7.841   2.544   2.923
 5264TIP3    H215734   7.876   2.691   2.929
 5265TIP3   OH215735   4.782   6.824   5.182
 5265TIP3    H115736   4.796   6.736   5.145
 5265TIP3    H215737   4.742   6.807   5.268
 5266TIP3   OH215738   4.486   0.782   0.453
 5266TIP3    H115739   4.499   0.813   0.363
 5266TIP3    H215740   4.516   0.692   0.452
 5267TIP3   OH215741   8.131   4.350   6.650
 5267TIP3    H115742   8.210   4.296   6.639
 5267TIP3    H215743   8.119   4.356   6.744
 5268TIP3   OH215744   0.354   3.018   2.153
 5268TIP3    H115745   0.289   2.970   2.205
 5268TIP3    H215746   0.328   3.002   2.062
 5269TIP3   OH215747   5.127   4.704   0.749
 5269TIP3    H115748   5.163   4.793   0.744
 5269TIP3    H215749   5.161   4.669   0.831
 5270TIP3   OH215750   8.222   5.025   5.933
 5270TIP3    H115751   8.147   5.072   5.969
 5270TIP3    H215752   8.188   4.982   5.855
 5271TIP3   OH215753   1.564   5.403   3.471
 5271TIP3    H115754   1.627   5.437   3.535
 5271TIP3    H215755   1.488   5.376   3.524
 5272TIP3   OH215756   7.673   4.310   3.033
 5272TIP3    H115757   7.591   4.352   3.009
 5272TIP3    H215758   7.660   4.217   3.010
 5273TIP3   OH215759   7.688   5.381   2.695
 5273TIP3    H115760   7.728   5.446   2.752
 5273TIP3    H215761   7.617   5.344   2.748
 5274TIP3   OH215762   2.334   6.516   5.569
 5274TIP3    H115763   2.322   6.592   5.626
 5274TIP3    H215764   2.379   6.452   5.624
 5275TIP3   OH215765   4.626   1.737   6.606
 5275TIP3    H115766   4.596   1.797   6.537
 5275TIP3    H215767   4.692   1.683   6.562
 5276TIP3   OH215768   1.050   3.604   6.147
 5276TIP3    H115769   1.138   3.629   6.120
 5276TIP3    H215770   1.061   3.520   6.191
 5277TIP3   OH215771   7.628   3.242   6.234
 5277TIP3    H115772   7.623   3.297   6.313
 5277TIP3    H215773   7.653   3.302   6.164
 5278TIP3   OH215774   8.127   3.015   2.913
 5278TIP3    H115775   8.102   3.098   2.872
 5278TIP3    H215776   8.099   3.024   3.004
 5279TIP3   OH215777   4.716   4.995   1.427
 5279TIP3    H115778   4.754   4.986   1.340
 5279TIP3    H215779   4.689   4.906   1.451
 5280TIP3   OH215780   7.105   6.751   4.735
 5280TIP3    H115781   7.195   6.736   4.706
 5280TIP3    H215782   7.090   6.686   4.803
 5281TIP3   OH215783   6.893   5.358   6.688
 5281TIP3    H115784   6.976   5.326   6.653
 5281TIP3    H215785   6.830   5.340   6.618
 5282TIP3   OH215786   5.302   5.725   6.472
 5282TIP3    H115787   5.285   5.631   6.475
 5282TIP3    H215788   5.216   5.765   6.488
 5283TIP3   OH215789   5.271   7.253   6.321
 5283TIP3    H115790   5.304   7.166   6.298
 5283TIP3    H215791   5.206   7.237   6.389
 5284TIP3   OH215792   2.244   7.555   0.186
 5284TIP3    H115793   2.310   7.613   0.147
 5284TIP3    H215794   2.172   7.613   0.209
 5285TIP3   OH215795   2.931   2.003   2.393
 5285TIP3    H115796   2.904   1.969   2.307
 5285TIP3    H215797   2.918   2.098   2.386
 5286TIP3   OH215798   0.737   1.968   2.149
 5286TIP3    H115799   0.771   1.902   2.210
 5286TIP3    H215800   0.784   1.951   2.068
 5287TIP3   OH215801   7.609   0.623   4.435
 5287TIP3    H115802   7.568   0.538   4.454
 5287TIP3    H215803   7.539   0.675   4.395
 5288TIP3   OH215804   6.132   2.707   1.665
 5288TIP3    H115805   6.186   2.688   1.589
 5288TIP3    H215806   6.043   2.712   1.631
 5289TIP3   OH215807   5.992   3.539   6.286
 5289TIP3    H115808   5.986   3.617   6.230
 5289TIP3    H215809   5.901   3.517   6.306
 5290TIP3   OH215810   2.197   2.722   6.245
 5290TIP3    H115811   2.111   2.681   6.235
 5290TIP3    H215812   2.253   2.675   6.183
 5291TIP3   OH215813   7.818   3.291   0.840
 5291TIP3    H115814   7.857   3.333   0.917
 5291TIP3    H215815   7.725   3.308   0.848
 5292TIP3   OH215816   7.957   5.200   0.955
 5292TIP3    H115817   7.908   5.118   0.962
 5292TIP3    H215818   8.005   5.205   1.038
 5293TIP3   OH215819   7.983   2.385   3.385
 5293TIP3    H115820   7.896   2.408   3.354
 5293TIP3    H215821   7.982   2.289   3.391
 5294TIP3   OH215822   1.269   7.599   4.414
 5294TIP3    H115823   1.282   7.692   4.431
 5294TIP3    H215824   1.347   7.571   4.365
 5295TIP3   OH215825   4.397   6.102   2.106
 5295TIP3    H115826   4.456   6.108   2.181
 5295TIP3    H215827   4.455   6.082   2.032
 5296TIP3   OH215828   3.199   7.606   6.168
 5296TIP3    H115829   3.202   7.630   6.075
 5296TIP3    H215830   3.236   7.682   6.213
 5297TIP3   OH215831   5.176   1.470   4.212
 5297TIP3    H115832   5.213   1.477   4.300
 5297TIP3    H215833   5.202   1.383   4.182
 5298TIP3   OH215834   2.925   1.913   6.414
 5298TIP3    H115835   2.858   1.853   6.380
 5298TIP3    H215836   3.002   1.858   6.426
 5299TIP3   OH215837   4.124   1.254   1.858
 5299TIP3    H115838   4.108   1.341   1.822
 5299TIP3    H215839   4.157   1.203   1.784
 5300TIP3   OH215840   5.652   5.789   2.570
 5300TIP3    H115841   5.609   5.708   2.540
 5300TIP3    H215842   5.630   5.854   2.503
 5301TIP3   OH215843   0.886   0.626   1.195
 5301TIP3    H115844   0.887   0.721   1.203
 5301TIP3    H215845   0.850   0.610   1.108
 5302TIP3   OH215846   4.036   5.065   3.202
 5302TIP3    H115847   4.034   5.065   3.298
 5302TIP3    H215848   4.130   5.070   3.181
 5303TIP3   OH215849   6.038   6.598   3.631
 5303TIP3    H115850   5.983   6.579   3.708
 5303TIP3    H215851   5.986   6.659   3.579
 5304TIP3   OH215852   3.047   5.817   5.740
 5304TIP3    H115853   3.052   5.728   5.706
 5304TIP3    H215854   3.139   5.845   5.746
 5305TIP3   OH215855   8.137   3.675   5.283
 5305TIP3    H115856   8.063   3.690   5.225
 5305TIP3    H215857   8.204   3.736   5.253
 5306TIP3   OH215858   2.947   5.613   5.109
 5306TIP3    H115859   3.023   5.660   5.142
 5306TIP3    H215860   2.880   5.626   5.175
 5307TIP3   OH215861   3.050   0.241   2.460
 5307TIP3    H115862   3.092   0.321   2.428
 5307TIP3    H215863   3.049   0.182   2.385
 5308TIP3   OH215864   8.381   4.988   0.320
 5308TIP3    H115865   8.476   4.985   0.308
 5308TIP3    H215866   8.366   5.069   0.368
 5309TIP3   OH215867   0.593   7.160   2.631
 5309TIP3    H115868   0.532   7.086   2.623
 5309TIP3    H215869   0.604   7.191   2.541
 5310TIP3   OH215870   7.837   3.998   5.058
 5310TIP3    H115871   7.880   4.029   5.137
 5310TIP3    H215872   7.745   3.990   5.082
 5311TIP3   OH215873   5.150   3.998   4.873
 5311TIP3    H115874   5.174   4.083   4.834
 5311TIP3    H215875   5.161   4.012   4.967
 5312TIP3   OH215876   0.871   5.470   0.749
 5312TIP3    H115877   0.799   5.411   0.726
 5312TIP3    H215878   0.888   5.520   0.669
 5313TIP3   OH215879   7.147   3.754   6.489
 5313TIP3    H115880   7.164   3.838   6.446
 5313TIP3    H215881   7.094   3.778   6.566
 5314TIP3   OH215882   0.088   0.401   0.329
 5314TIP3    H115883   0.085   0.495   0.349
 5314TIP3    H215884   0.146   0.395   0.253
 5315TIP3   OH215885   0.600   0.786   0.739
 5315TIP3    H115886   0.633   0.873   0.717
 5315TIP3    H215887   0.563   0.796   0.827
 5316TIP3   OH215888   2.650   1.654   2.181
 5316TIP3    H115889   2.627   1.688   2.267
 5316TIP3    H215890   2.588   1.696   2.121
 5317TIP3   OH215891   3.559   0.008   6.179
 5317TIP3    H115892   3.640  -0.034   6.152
 5317TIP3    H215893   3.574   0.101   6.166
 5318TIP3   OH215894   4.723   2.845   0.143
 5318TIP3    H115895   4.696   2.861   0.233
 5318TIP3    H215896   4.784   2.916   0.123
 5319TIP3   OH215897   7.952   3.237   6.594
 5319TIP3    H115898   7.975   3.273   6.679
 5319TIP3    H215899   7.857   3.249   6.587
 5320TIP3   OH215900   1.049   7.876   2.343
 5320TIP3    H115901   1.094   7.818   2.405
 5320TIP3    H215902   1.105   7.877   2.266
 5321TIP3   OH215903   1.616   4.931   0.210
 5321TIP3    H115904   1.697   4.956   0.165
 5321TIP3    H215905   1.547   4.952   0.147
 5322TIP3   OH215906   7.122   3.608   4.200
 5322TIP3    H115907   7.052   3.617   4.135
 5322TIP3    H215908   7.093   3.537   4.257
 5323TIP3   OH215909   0.077   2.151   0.445
 5323TIP3    H115910   0.131   2.213   0.397
 5323TIP3    H215911   0.032   2.101   0.377
 5324TIP3   OH215912   4.550   6.997   6.371
 5324TIP3    H115913   4.548   7.088   6.401
 5324TIP3    H215914   4.458   6.970   6.373
 5325TIP3   OH215915   1.429   7.707   3.332
 5325TIP3    H115916   1.395   7.749   3.253
 5325TIP3    H215917   1.369   7.633   3.346
 5326TIP3   OH215918   8.275   6.485   5.420
 5326TIP3    H115919   8.180   6.485   5.433
 5326TIP3    H215920   8.292   6.410   5.363
 5327TIP3   OH215921   0.635   5.446   5.236
 5327TIP3    H115922   0.623   5.456   5.330
 5327TIP3    H215923   0.613   5.531   5.200
 5328TIP3   OH215924   5.917   7.238   3.874
 5328TIP3    H115925   5.971   7.163   3.847
 5328TIP3    H215926   5.944   7.256   3.964
 5329TIP3   OH215927   2.266   5.094   1.720
 5329TIP3    H115928   2.261   5.086   1.815
 5329TIP3    H215929   2.177   5.076   1.689
 5330TIP3   OH215930   8.350   0.575   0.626
 5330TIP3    H115931   8.260   0.590   0.653
 5330TIP3    H215932   8.381   0.661   0.598
 5331TIP3   OH215933   0.737   4.800   0.076
 5331TIP3    H115934   0.778   4.847   0.148
 5331TIP3    H215935   0.739   4.861   0.003
 5332TIP3   OH215936   7.280   5.543   4.861
 5332TIP3    H115937   7.306   5.598   4.934
 5332TIP3    H215938   7.204   5.494   4.893
 5333TIP3   OH215939   1.218   1.641   4.788
 5333TIP3    H115940   1.288   1.643   4.723
 5333TIP3    H215941   1.207   1.549   4.809
 5334TIP3   OH215942   1.422   0.699   0.648
 5334TIP3    H115943   1.445   0.717   0.739
 5334TIP3    H215944   1.408   0.785   0.608
 5335TIP3   OH215945   1.692   4.650   5.506
 5335TIP3    H115946   1.635   4.711   5.554
 5335TIP3    H215947   1.634   4.610   5.441
 5336TIP3   OH215948   1.882   5.982   1.944
 5336TIP3    H115949   1.806   5.951   1.994
 5336TIP3    H215950   1.861   6.072   1.921
 5337TIP3   OH215951   4.641   7.502   4.965
 5337TIP3    H115952   4.662   7.509   5.058
 5337TIP3    H215953   4.636   7.408   4.949
 5338TIP3   OH215954   3.047   0.629   1.299
 5338TIP3    H115955   2.965   0.585   1.320
 5338TIP3    H215956   3.079   0.661   1.384
 5339TIP3   OH215957   8.320   1.226   3.615
 5339TIP3    H115958   8.335   1.163   3.545
 5339TIP3    H215959   8.378   1.300   3.594
 5340TIP3   OH215960   3.901   3.926   1.339
 5340TIP3    H115961   3.922   4.007   1.385
 5340TIP3    H215962   3.981   3.904   1.291
 5341TIP3   OH215963   7.104   3.176   4.965
 5341TIP3    H115964   7.183   3.181   5.020
 5341TIP3    H215965   7.130   3.120   4.891
 5342TIP3   OH215966   5.327   7.467   3.235
 5342TIP3    H115967   5.300   7.415   3.160
 5342TIP3    H215968   5.258   7.532   3.246
 5343TIP3   OH215969   5.073   0.337   4.724
 5343TIP3    H115970   5.119   0.302   4.801
 5343TIP3    H215971   5.099   0.279   4.653
 5344TIP3   OH215972   5.532   2.857   2.731
 5344TIP3    H115973   5.483   2.927   2.774
 5344TIP3    H215974   5.501   2.858   2.640
 5345TIP3   OH215975   0.861   1.586   5.068
 5345TIP3    H115976   0.828   1.653   5.007
 5345TIP3    H215977   0.953   1.606   5.078
 5346TIP3   OH215978   5.632   7.238   3.076
 5346TIP3    H115979   5.559   7.251   3.137
 5346TIP3    H215980   5.703   7.290   3.114
 5347TIP3   OH215981   0.163   4.079   5.073
 5347TIP3    H115982   0.154   4.133   4.994
 5347TIP3    H215983   0.147   3.990   5.043
 5348TIP3   OH215984   2.831   6.802   0.070
 5348TIP3    H115985   2.747   6.843   0.088
 5348TIP3    H215986   2.810   6.731   0.010
 5349TIP3   OH215987   7.516   5.424   3.385
 5349TIP3    H115988   7.487   5.502   3.337
 5349TIP3    H215989   7.471   5.431   3.470
 5350TIP3   OH215990   4.862   3.696   6.435
 5350TIP3    H115991   4.896   3.768   6.382
 5350TIP3    H215992   4.826   3.738   6.513
 5351TIP3   OH215993   4.114   3.643   2.447
 5351TIP3    H115994   4.159   3.565   2.414
 5351TIP3    H215995   4.125   3.638   2.542
 5352TIP3   OH215996   6.062   3.195   6.100
 5352TIP3    H115997   6.000   3.227   6.035
 5352TIP3    H215998   6.008   3.170   6.175
 5353TIP3   OH215999   1.911   2.626   2.172
 5353TIP3    H116000   1.962   2.706   2.180
 5353TIP3    H216001   1.959   2.561   2.223
 5354TIP3   OH216002   5.698   6.592   2.231
 5354TIP3    H116003   5.633   6.524   2.250
 5354TIP3    H216004   5.707   6.639   2.314
 5355TIP3   OH216005   6.256   2.914   6.108
 5355TIP3    H116006   6.339   2.905   6.155
 5355TIP3    H216007   6.252   3.006   6.083
 5356TIP3   OH216008   2.242   3.838   0.409
 5356TIP3    H116009   2.258   3.757   0.459
 5356TIP3    H216010   2.273   3.818   0.321
 5357TIP3   OH216011   7.147   7.368   4.497
 5357TIP3    H116012   7.189   7.307   4.436
 5357TIP3    H216013   7.064   7.391   4.454
 5358TIP3   OH216014   5.060   2.215   2.502
 5358TIP3    H116015   5.037   2.252   2.417
 5358TIP3    H216016   4.987   2.237   2.559
 5359TIP3   OH216017   3.292   2.474   0.068
 5359TIP3    H116018   3.209   2.437   0.099
 5359TIP3    H216019   3.326   2.523   0.142
 5360TIP3   OH216020   3.002   4.150   0.687
 5360TIP3    H116021   2.957   4.234   0.684
 5360TIP3    H216022   3.077   4.165   0.744
 5361TIP3   OH216023   3.090   0.115   3.273
 5361TIP3    H116024   3.044   0.190   3.311
 5361TIP3    H216025   3.085   0.129   3.178
 5362TIP3   OH216026   5.175   4.586   4.308
 5362TIP3    H116027   5.229   4.640   4.366
 5362TIP3    H216028   5.098   4.564   4.361
 5363TIP3   OH216029   8.357   7.653   5.802
 5363TIP3    H116030   8.425   7.694   5.857
 5363TIP3    H216031   8.400   7.576   5.765
 5364TIP3   OH216032   1.536   0.323   0.864
 5364TIP3    H116033   1.495   0.243   0.898
 5364TIP3    H216034   1.627   0.298   0.847
 5365TIP3   OH216035   5.227   4.661   6.147
 5365TIP3    H116036   5.315   4.651   6.184
 5365TIP3    H216037   5.173   4.598   6.195
 5366TIP3   OH216038   1.910   4.207   0.860
 5366TIP3    H116039   1.894   4.113   0.862
 5366TIP3    H216040   1.833   4.246   0.902
 5367TIP3   OH216041   7.784   1.129   2.005
 5367TIP3    H116042   7.870   1.160   2.031
 5367TIP3    H216043   7.723   1.194   2.041
 5368TIP3   OH216044   5.729   3.882   2.422
 5368TIP3    H116045   5.808   3.918   2.383
 5368TIP3    H216046   5.691   3.828   2.354
 5369TIP3   OH216047   1.084   5.476   3.790
 5369TIP3    H116048   1.002   5.436   3.819
 5369TIP3    H216049   1.123   5.512   3.870
 5370TIP3   OH216050   5.136   1.925   3.672
 5370TIP3    H116051   5.114   1.994   3.735
 5370TIP3    H216052   5.160   1.850   3.727
 5371TIP3   OH216053   4.314   4.204   1.361
 5371TIP3    H116054   4.320   4.190   1.455
 5371TIP3    H216055   4.311   4.299   1.351
 5372TIP3   OH216056   4.516   5.001   3.419
 5372TIP3    H116057   4.489   4.944   3.491
 5372TIP3    H216058   4.552   4.942   3.354
 5373TIP3   OH216059   1.374   4.169   2.811
 5373TIP3    H116060   1.282   4.149   2.792
 5373TIP3    H216061   1.380   4.264   2.801
 5374TIP3   OH216062   2.074   3.773   5.455
 5374TIP3    H116063   2.144   3.814   5.507
 5374TIP3    H216064   2.068   3.684   5.490
 5375TIP3   OH216065   4.638   2.545   1.325
 5375TIP3    H116066   4.703   2.475   1.327
 5375TIP3    H216067   4.556   2.501   1.305
 5376TIP3   OH216068   3.174   0.635   4.618
 5376TIP3    H116069   3.192   0.709   4.560
 5376TIP3    H216070   3.250   0.578   4.608
 5377TIP3   OH216071   5.660   6.323   6.336
 5377TIP3    H116072   5.640   6.250   6.277
 5377TIP3    H216073   5.702   6.281   6.412
 5378TIP3   OH216074   2.533   7.348   3.832
 5378TIP3    H116075   2.537   7.252   3.837
 5378TIP3    H216076   2.624   7.375   3.821
 5379TIP3   OH216077   5.312   0.658   5.228
 5379TIP3    H116078   5.348   0.622   5.147
 5379TIP3    H216079   5.334   0.751   5.224
 5380TIP3   OH216080   3.484   6.760   3.361
 5380TIP3    H116081   3.527   6.820   3.301
 5380TIP3    H216082   3.485   6.805   3.445
 5381TIP3   OH216083   7.262   7.212   4.307
 5381TIP3    H116084   7.313   7.147   4.356
 5381TIP3    H216085   7.230   7.165   4.231
 5382TIP3   OH216086   1.011   7.891   3.516
 5382TIP3    H116087   0.993   7.802   3.484
 5382TIP3    H216088   1.087   7.882   3.572
 5383TIP3   OH216089   5.428   2.571   6.556
 5383TIP3    H116090   5.445   2.498   6.497
 5383TIP3    H216091   5.366   2.626   6.509
 5384TIP3   OH216092   5.308   2.155   1.564
 5384TIP3    H116093   5.301   2.240   1.521
 5384TIP3    H216094   5.246   2.160   1.637
 5385TIP3   OH216095   1.437   3.702   3.392
 5385TIP3    H116096   1.409   3.652   3.468
 5385TIP3    H216097   1.521   3.662   3.367
 5386TIP3   OH216098   3.023   3.267   1.183
 5386TIP3    H116099   2.986   3.245   1.098
 5386TIP3    H216100   3.028   3.363   1.183
 5387TIP3   OH216101   3.362   5.061   2.771
 5387TIP3    H116102   3.429   5.005   2.810
 5387TIP3    H216103   3.393   5.076   2.681
 5388TIP3   OH216104   5.837   6.933   4.882
 5388TIP3    H116105   5.832   6.838   4.895
 5388TIP3    H216106   5.815   6.970   4.967
 5389TIP3   OH216107   6.603   1.318   0.637
 5389TIP3    H116108   6.540   1.274   0.580
 5389TIP3    H216109   6.551   1.351   0.710
 5390TIP3   OH216110   6.569   1.003   1.679
 5390TIP3    H116111   6.619   0.922   1.694
 5390TIP3    H216112   6.564   1.011   1.584
 5391TIP3   OH216113   2.602   5.738   5.032
 5391TIP3    H116114   2.608   5.718   4.938
 5391TIP3    H216115   2.508   5.731   5.051
 5392TIP3   OH216116   6.867   7.887   5.916
 5392TIP3    H116117   6.952   7.916   5.884
 5392TIP3    H216118   6.809   7.895   5.841
 5393TIP3   OH216119   3.816   0.762   6.442
 5393TIP3    H116120   3.728   0.741   6.473
 5393TIP3    H216121   3.808   0.848   6.400
 5394TIP3   OH216122   6.124   4.076   5.291
 5394TIP3    H116123   6.110   4.085   5.197
 5394TIP3    H216124   6.171   4.155   5.316
 5395TIP3   OH216125   0.935   4.032   0.707
 5395TIP3    H116126   0.848   4.057   0.737
 5395TIP3    H216127   0.984   4.114   0.705
 5396TIP3   OH216128   2.234   2.147   1.663
 5396TIP3    H116129   2.147   2.163   1.701
 5396TIP3    H216130   2.216   2.111   1.576
 5397TIP3   OH216131   2.543   2.365   2.921
 5397TIP3    H116132   2.633   2.395   2.933
 5397TIP3    H216133   2.539   2.338   2.829
 5398TIP3   OH216134   3.157   7.533   0.427
 5398TIP3    H116135   3.212   7.475   0.376
 5398TIP3    H216136   3.166   7.619   0.385
 5399TIP3   OH216137   7.167   5.360   2.791
 5399TIP3    H116138   7.186   5.401   2.875
 5399TIP3    H216139   7.114   5.284   2.812
 5400TIP3   OH216140   2.424   5.302   2.808
 5400TIP3    H116141   2.481   5.364   2.763
 5400TIP3    H216142   2.478   5.266   2.878
 5401TIP3   OH216143   6.604   2.776   6.033
 5401TIP3    H116144   6.579   2.842   6.098
 5401TIP3    H216145   6.646   2.826   5.963
 5402TIP3   OH216146   5.748   3.389   1.229
 5402TIP3    H116147   5.745   3.375   1.323
 5402TIP3    H216148   5.823   3.337   1.199
 5403TIP3   OH216149   5.928   2.518   1.375
 5403TIP3    H116150   5.923   2.435   1.420
 5403TIP3    H216151   5.920   2.496   1.282
 5404TIP3   OH216152   2.210   2.383   2.942
 5404TIP3    H116153   2.268   2.421   2.876
 5404TIP3    H216154   2.144   2.450   2.958
 5405TIP3   OH216155   0.883   0.981   5.530
 5405TIP3    H116156   0.844   0.900   5.561
 5405TIP3    H216157   0.885   0.973   5.435
 5406TIP3   OH216158   5.474   0.285   4.818
 5406TIP3    H116159   5.442   0.214   4.762
 5406TIP3    H216160   5.569   0.273   4.819
 5407TIP3   OH216161   1.859   7.097   4.493
 5407TIP3    H116162   1.877   7.095   4.399
 5407TIP3    H216163   1.930   7.149   4.530
 5408TIP3   OH216164   2.293   0.761   2.929
 5408TIP3    H116165   2.255   0.748   2.842
 5408TIP3    H216166   2.231   0.818   2.974
 5409TIP3   OH216167   8.397   5.782   6.222
 5409TIP3    H116168   8.361   5.764   6.309
 5409TIP3    H216169   8.320   5.780   6.165
 5410TIP3   OH216170   4.642   4.950   2.826
 5410TIP3    H116171   4.591   4.884   2.873
 5410TIP3    H216172   4.654   4.914   2.738
 5411TIP3   OH216173   4.848   2.022   5.317
 5411TIP3    H116174   4.787   1.987   5.252
 5411TIP3    H216175   4.797   2.025   5.398
 5412TIP3   OH216176   1.539   3.616   1.090
 5412TIP3    H116177   1.581   3.623   1.004
 5412TIP3    H216178   1.472   3.685   1.089
 5413TIP3   OH216179   4.227   6.787   4.771
 5413TIP3    H116180   4.192   6.700   4.789
 5413TIP3    H216181   4.152   6.845   4.779
 5414TIP3   OH216182   2.604   2.921   5.344
 5414TIP3    H116183   2.560   3.002   5.318
 5414TIP3    H216184   2.641   2.940   5.430
 5415TIP3   OH216185   2.156   2.408   0.071
 5415TIP3    H116186   2.173   2.317   0.050
 5415TIP3    H216187   2.182   2.457  -0.007
 5416TIP3   OH216188   4.990   0.092   1.113
 5416TIP3    H116189   5.006  -0.003   1.112
 5416TIP3    H216190   5.062   0.128   1.061
 5417TIP3   OH216191   1.882   2.865   3.946
 5417TIP3    H116192   1.874   2.806   4.021
 5417TIP3    H216193   1.807   2.924   3.954
 5418TIP3   OH216194   3.496   6.601   5.329
 5418TIP3    H116195   3.403   6.626   5.333
 5418TIP3    H216196   3.531   6.648   5.254
 5419TIP3   OH216197   1.449   1.519   2.604
 5419TIP3    H116198   1.398   1.438   2.608
 5419TIP3    H216199   1.485   1.521   2.515
 5420TIP3   OH216200   6.616   5.261   2.972
 5420TIP3    H116201   6.558   5.188   2.996
 5420TIP3    H216202   6.556   5.329   2.942
 5421TIP3   OH216203   1.756   5.858   5.220
 5421TIP3    H116204   1.829   5.912   5.251
 5421TIP3    H216205   1.681   5.885   5.273
 5422TIP3   OH216206   2.154   0.090   0.753
 5422TIP3    H116207   2.181   0.037   0.827
 5422TIP3    H216208   2.066   0.120   0.775
 5423TIP3   OH216209   3.324   6.047   6.098
 5423TIP3    H116210   3.344   5.954   6.086
 5423TIP3    H216211   3.247   6.062   6.043
 5424TIP3   OH216212   7.943   7.393   2.908
 5424TIP3    H116213   7.878   7.440   2.960
 5424TIP3    H216214   7.950   7.307   2.950
 5425TIP3   OH216215   2.155   4.433   3.019
 5425TIP3    H116216   2.111   4.351   2.999
 5425TIP3    H216217   2.094   4.501   2.989
 5426TIP3   OH216218   4.270   3.686   5.872
 5426TIP3    H116219   4.319   3.719   5.797
 5426TIP3    H216220   4.179   3.706   5.853
 5427TIP3   OH216221   5.398   0.383   5.629
 5427TIP3    H116222   5.333   0.314   5.642
 5427TIP3    H216223   5.346   0.460   5.605
 5428TIP3   OH216224   0.027   3.571   3.333
 5428TIP3    H116225   0.073   3.503   3.382
 5428TIP3    H216226   0.096   3.628   3.299
 5429TIP3   OH216227   5.788   7.823   5.136
 5429TIP3    H116228   5.793   7.728   5.130
 5429TIP3    H216229   5.874   7.850   5.167
 5430TIP3   OH216230   8.134   5.475   2.548
 5430TIP3    H116231   8.073   5.414   2.507
 5430TIP3    H216232   8.085   5.557   2.555
 5431TIP3   OH216233   4.639   7.175   0.513
 5431TIP3    H116234   4.626   7.183   0.418
 5431TIP3    H216235   4.670   7.085   0.525
 5432TIP3   OH216236   2.927   2.065   3.281
 5432TIP3    H116237   2.917   2.153   3.318
 5432TIP3    H216238   2.860   2.013   3.324
 5433TIP3   OH216239   5.708   7.797   2.151
 5433TIP3    H116240   5.767   7.777   2.078
 5433TIP3    H216241   5.767   7.817   2.224
 5434TIP3   OH216242   5.225   4.303   6.030
 5434TIP3    H116243   5.215   4.382   5.976
 5434TIP3    H216244   5.164   4.240   5.992
 5435TIP3   OH216245   2.634   4.111   5.577
 5435TIP3    H116246   2.622   4.017   5.585
 5435TIP3    H216247   2.546   4.148   5.578
 5436TIP3   OH216248   7.389   0.536   2.564
 5436TIP3    H116249   7.427   0.522   2.651
 5436TIP3    H216250   7.428   0.467   2.510
 5437TIP3   OH216251   4.464   5.114   1.215
 5437TIP3    H116252   4.538   5.080   1.165
 5437TIP3    H216253   4.398   5.044   1.210
 5438TIP3   OH216254   7.412   5.966   3.211
 5438TIP3    H116255   7.494   6.014   3.226
 5438TIP3    H216256   7.356   5.990   3.284
 5439TIP3   OH216257   3.767   2.473   5.572
 5439TIP3    H116258   3.672   2.467   5.586
 5439TIP3    H216259   3.777   2.468   5.477
 5440TIP3   OH216260   5.395   7.335   5.782
 5440TIP3    H116261   5.472   7.279   5.786
 5440TIP3    H216262   5.369   7.334   5.690
 5441TIP3   OH216263   6.730   7.553   0.098
 5441TIP3    H116264   6.795   7.623   0.096
 5441TIP3    H216265   6.686   7.559   0.013
 5442TIP3   OH216266   8.054   5.698   1.659
 5442TIP3    H116267   8.003   5.778   1.643
 5442TIP3    H216268   8.104   5.686   1.579
 5443TIP3   OH216269   7.942   6.350   5.933
 5443TIP3    H116270   7.873   6.396   5.885
 5443TIP3    H216271   8.008   6.330   5.866
 5444TIP3   OH216272   2.300   0.008   1.289
 5444TIP3    H116273   2.233  -0.035   1.236
 5444TIP3    H216274   2.348  -0.064   1.330
 5445TIP3   OH216275   3.661   7.456   3.887
 5445TIP3    H116276   3.692   7.544   3.866
 5445TIP3    H216277   3.627   7.463   3.976
 5446TIP3   OH216278   6.203   1.789   3.241
 5446TIP3    H116279   6.212   1.873   3.287
 5446TIP3    H216280   6.161   1.731   3.305
 5447TIP3   OH216281   0.184   7.193   4.220
 5447TIP3    H116282   0.202   7.153   4.305
 5447TIP3    H216283   0.186   7.121   4.158
 5448TIP3   OH216284   5.247   6.468   0.276
 5448TIP3    H116285   5.257   6.383   0.319
 5448TIP3    H216286   5.157   6.469   0.244
 5449TIP3   OH216287   6.024   5.578   1.730
 5449TIP3    H116288   6.115   5.606   1.727
 5449TIP3    H216289   5.978   5.648   1.775
 5450TIP3   OH216290   1.116   5.727   2.220
 5450TIP3    H116291   1.203   5.725   2.182
 5450TIP3    H216292   1.058   5.696   2.150
 5451TIP3   OH216293   2.807   0.616   2.967
 5451TIP3    H116294   2.861   0.693   2.954
 5451TIP3    H216295   2.717   0.649   2.966
 5452TIP3   OH216296   5.122   0.216   2.387
 5452TIP3    H116297   5.031   0.185   2.392
 5452TIP3    H216298   5.116   0.303   2.347
 5453TIP3   OH216299   6.047   5.154   3.179
 5453TIP3    H116300   6.055   5.228   3.239
 5453TIP3    H216301   6.061   5.077   3.234
 5454TIP3   OH216302   5.627   4.912   0.859
 5454TIP3    H116303   5.606   4.847   0.792
 5454TIP3    H216304   5.721   4.900   0.876
 5455TIP3   OH216305   2.984   1.389   2.504
 5455TIP3    H116306   2.943   1.438   2.433
 5455TIP3    H216307   2.999   1.302   2.467
 5456TIP3   OH216308   6.538   6.671   0.794
 5456TIP3    H116309   6.505   6.761   0.793
 5456TIP3    H216310   6.597   6.667   0.719
 5457TIP3   OH216311   4.672   5.952   0.719
 5457TIP3    H116312   4.749   5.944   0.774
 5457TIP3    H216313   4.686   6.033   0.669
 5458TIP3   OH216314   7.012   1.130   2.865
 5458TIP3    H116315   6.916   1.139   2.865
 5458TIP3    H216316   7.027   1.044   2.828
 5459TIP3   OH216317   5.088   5.301   4.054
 5459TIP3    H116318   5.057   5.387   4.081
 5459TIP3    H216319   5.155   5.319   3.989
 5460TIP3   OH216320   2.114   0.238   4.465
 5460TIP3    H116321   2.082   0.167   4.409
 5460TIP3    H216322   2.066   0.316   4.435
 5461TIP3   OH216323   8.077   7.586   4.247
 5461TIP3    H116324   8.145   7.596   4.314
 5461TIP3    H216325   8.008   7.647   4.275
 5462TIP3   OH216326   5.159   2.258   4.220
 5462TIP3    H116327   5.100   2.306   4.162
 5462TIP3    H216328   5.196   2.325   4.277
 5463TIP3   OH216329   7.881   5.427   2.194
 5463TIP3    H116330   7.859   5.427   2.287
 5463TIP3    H216331   7.815   5.370   2.153
 5464TIP3   OH216332   7.918   6.405   2.580
 5464TIP3    H116333   7.963   6.441   2.656
 5464TIP3    H216334   7.962   6.322   2.564
 5465TIP3   OH216335   0.631   5.291   3.539
 5465TIP3    H116336   0.577   5.362   3.505
 5465TIP3    H216337   0.720   5.328   3.543
 5466TIP3   OH216338   0.602   0.120   5.638
 5466TIP3    H116339   0.610   0.025   5.628
 5466TIP3    H216340   0.666   0.142   5.706
 5467TIP3   OH216341   8.301   7.432   3.795
 5467TIP3    H116342   8.266   7.517   3.820
 5467TIP3    H216343   8.278   7.374   3.868
 5468TIP3   OH216344   7.347   5.166   3.226
 5468TIP3    H116345   7.376   5.113   3.300
 5468TIP3    H216346   7.394   5.249   3.236
 5469TIP3   OH216347   4.751   1.214   3.898
 5469TIP3    H116348   4.682   1.261   3.945
 5469TIP3    H216349   4.814   1.188   3.966
 5470TIP3   OH216350   6.664   0.657   0.623
 5470TIP3    H116351   6.668   0.736   0.569
 5470TIP3    H216352   6.648   0.586   0.561
 5471TIP3   OH216353   4.168   5.202   6.087
 5471TIP3    H116354   4.115   5.141   6.036
 5471TIP3    H216355   4.110   5.232   6.157
 5472TIP3   OH216356   2.815   2.521   3.991
 5472TIP3    H116357   2.798   2.598   4.045
 5472TIP3    H216358   2.736   2.510   3.938
 5473TIP3   OH216359   5.625   1.059   3.159
 5473TIP3    H116360   5.672   1.118   3.218
 5473TIP3    H216361   5.652   1.087   3.071
 5474TIP3   OH216362   6.082   2.721   0.151
 5474TIP3    H116363   6.104   2.720   0.244
 5474TIP3    H216364   6.127   2.798   0.117
 5475TIP3   OH216365   1.218   5.039   1.705
 5475TIP3    H116366   1.216   4.973   1.637
 5475TIP3    H216367   1.176   4.997   1.780
 5476TIP3   OH216368   7.870   2.053   6.298
 5476TIP3    H116369   7.943   2.089   6.349
 5476TIP3    H216370   7.793   2.100   6.330
 5477TIP3   OH216371   3.330   5.496   1.611
 5477TIP3    H116372   3.304   5.543   1.532
 5477TIP3    H216373   3.249   5.453   1.641
 5478TIP3   OH216374   1.468   5.047   2.608
 5478TIP3    H116375   1.415   5.067   2.685
 5478TIP3    H216376   1.477   5.132   2.563
 5479TIP3   OH216377   1.788   4.651   4.542
 5479TIP3    H116378   1.829   4.706   4.476
 5479TIP3    H216379   1.694   4.665   4.531
 5480TIP3   OH216380   5.712   2.227   3.061
 5480TIP3    H116381   5.643   2.250   3.123
 5480TIP3    H216382   5.775   2.178   3.112
 5481TIP3   OH216383   6.689   1.741   4.556
 5481TIP3    H116384   6.760   1.804   4.566
 5481TIP3    H216385   6.615   1.792   4.522
 5482TIP3   OH216386   8.195   0.021   0.843
 5482TIP3    H116387   8.102   0.043   0.849
 5482TIP3    H216388   8.211   0.007   0.750
 5483TIP3   OH216389   4.600   7.028   6.694
 5483TIP3    H116390   4.505   7.040   6.698
 5483TIP3    H216391   4.624   6.999   6.782
 5484TIP3   OH216392   2.369   6.987   1.991
 5484TIP3    H116393   2.436   6.952   1.932
 5484TIP3    H216394   2.396   6.958   2.078
 5485TIP3   OH216395   4.768   5.450   1.728
 5485TIP3    H116396   4.685   5.439   1.776
 5485TIP3    H216397   4.770   5.377   1.667
 5486TIP3   OH216398   2.286   0.839   2.141
 5486TIP3    H116399   2.198   0.815   2.170
 5486TIP3    H216400   2.278   0.853   2.047
 5487TIP3   OH216401   1.423   7.575   6.718
 5487TIP3    H116402   1.445   7.627   6.795
 5487TIP3    H216403   1.416   7.486   6.750
 5488TIP3   OH216404   7.199   3.088   0.474
 5488TIP3    H116405   7.109   3.064   0.497
 5488TIP3    H216406   7.236   3.008   0.436
 5489TIP3   OH216407   0.832   7.805   1.626
 5489TIP3    H116408   0.794   7.887   1.658
 5489TIP3    H216409   0.916   7.830   1.588
 5490TIP3   OH216410   7.060   3.686   1.516
 5490TIP3    H116411   7.075   3.591   1.517
 5490TIP3    H216412   7.125   3.721   1.577
 5491TIP3   OH216413   7.989   0.168   1.721
 5491TIP3    H116414   7.946   0.231   1.778
 5491TIP3    H216415   7.993   0.087   1.772
 5492TIP3   OH216416   4.806   1.347   0.906
 5492TIP3    H116417   4.773   1.267   0.946
 5492TIP3    H216418   4.888   1.320   0.863
 5493TIP3   OH216419   5.248   2.590   1.028
 5493TIP3    H116420   5.300   2.592   0.948
 5493TIP3    H216421   5.244   2.682   1.056
 5494TIP3   OH216422   4.307   0.600   2.139
 5494TIP3    H116423   4.287   0.693   2.123
 5494TIP3    H216424   4.279   0.555   2.059
 5495TIP3   OH216425   0.773   5.506   0.006
 5495TIP3    H116426   0.683   5.475   0.020
 5495TIP3    H216427   0.774   5.593   0.048
 5496TIP3   OH216428   6.415   7.507   6.152
 5496TIP3    H116429   6.368   7.449   6.091
 5496TIP3    H216430   6.396   7.471   6.238
 5497TIP3   OH216431   5.361   2.631   4.829
 5497TIP3    H116432   5.433   2.638   4.891
 5497TIP3    H216433   5.373   2.707   4.771
 5498TIP3   OH216434   2.528   7.570   4.970
 5498TIP3    H116435   2.506   7.615   4.888
 5498TIP3    H216436   2.454   7.512   4.986
 5499TIP3   OH216437   2.934   0.581   5.245
 5499TIP3    H116438   2.951   0.648   5.312
 5499TIP3    H216439   2.851   0.607   5.205
 5500TIP3   OH216440   7.025   7.366   5.156
 5500TIP3    H116441   7.085   7.359   5.230
 5500TIP3    H216442   7.011   7.276   5.128
 5501TIP3   OH216443   5.525   3.752   4.978
 5501TIP3    H116444   5.465   3.826   4.989
 5501TIP3    H216445   5.480   3.695   4.915
 5502TIP3   OH216446   5.332   0.805   1.238
 5502TIP3    H116447   5.298   0.767   1.157
 5502TIP3    H216448   5.289   0.755   1.308
 5503TIP3   OH216449   3.406   5.134   5.122
 5503TIP3    H116450   3.457   5.071   5.173
 5503TIP3    H216451   3.467   5.206   5.106
 5504TIP3   OH216452   1.167   2.914   3.242
 5504TIP3    H116453   1.225   2.927   3.167
 5504TIP3    H216454   1.224   2.925   3.318
 5505TIP3   OH216455   3.631   5.269   2.098
 5505TIP3    H116456   3.550   5.287   2.146
 5505TIP3    H216457   3.616   5.183   2.058
 5506TIP3   OH216458   6.077   1.679   1.487
 5506TIP3    H116459   6.095   1.717   1.401
 5506TIP3    H216460   6.163   1.652   1.520
 5507TIP3   OH216461   7.800   0.932   1.106
 5507TIP3    H116462   7.816   0.912   1.198
 5507TIP3    H216463   7.728   0.995   1.107
 5508TIP3   OH216464   7.479   1.656   6.346
 5508TIP3    H116465   7.480   1.561   6.338
 5508TIP3    H216466   7.489   1.672   6.440
 5509TIP3   OH216467   8.232   2.695   5.570
 5509TIP3    H116468   8.176   2.738   5.506
 5509TIP3    H216469   8.269   2.767   5.622
 5510TIP3   OH216470   1.120   3.013   1.393
 5510TIP3    H116471   1.198   3.068   1.402
 5510TIP3    H216472   1.058   3.049   1.456
 5511TIP3   OH216473   7.659   5.284   3.220
 5511TIP3    H116474   7.743   5.323   3.196
 5511TIP3    H216475   7.628   5.336   3.294
 5512TIP3   OH216476   3.165   1.056   0.719
 5512TIP3    H116477   3.209   1.127   0.764
 5512TIP3    H216478   3.217   1.040   0.640
 5513TIP3   OH216479   1.361   1.454   0.062
 5513TIP3    H116480   1.417   1.524   0.027
 5513TIP3    H216481   1.303   1.499   0.123
 5514TIP3   OH216482   6.998   6.225   3.774
 5514TIP3    H116483   6.989   6.263   3.686
 5514TIP3    H216484   7.047   6.144   3.760
 5515TIP3   OH216485   6.915   4.641   0.964
 5515TIP3    H116486   6.892   4.551   0.987
 5515TIP3    H216487   6.848   4.668   0.901
 5516TIP3   OH216488   2.499   2.265   6.755
 5516TIP3    H116489   2.460   2.346   6.722
 5516TIP3    H216490   2.438   2.235   6.823
 5517TIP3   OH216491   2.775   3.024   3.809
 5517TIP3    H116492   2.781   2.932   3.783
 5517TIP3    H216493   2.682   3.037   3.829
 5518TIP3   OH216494   2.924   5.702   2.421
 5518TIP3    H116495   3.013   5.667   2.414
 5518TIP3    H216496   2.878   5.638   2.476
 5519TIP3   OH216497   6.675   4.299   4.320
 5519TIP3    H116498   6.601   4.241   4.339
 5519TIP3    H216499   6.751   4.241   4.315
 5520TIP3   OH216500   4.973   7.164   4.660
 5520TIP3    H116501   4.888   7.194   4.693
 5520TIP3    H216502   5.031   7.169   4.736
 5521TIP3   OH216503   3.596   2.167   4.607
 5521TIP3    H116504   3.513   2.122   4.625
 5521TIP3    H216505   3.626   2.197   4.693
 5522TIP3   OH216506   4.033   1.229   3.963
 5522TIP3    H116507   3.942   1.218   3.934
 5522TIP3    H216508   4.030   1.301   4.026
 5523TIP3   OH216509   1.767   2.826   4.681
 5523TIP3    H116510   1.687   2.831   4.733
 5523TIP3    H216511   1.759   2.745   4.631
 5524TIP3   OH216512   1.738   1.565   4.917
 5524TIP3    H116513   1.748   1.658   4.898
 5524TIP3    H216514   1.760   1.557   5.009
 5525TIP3   OH216515   3.325   7.640   1.161
 5525TIP3    H116516   3.337   7.589   1.241
 5525TIP3    H216517   3.301   7.576   1.094
 5526TIP3   OH216518   3.667   2.413   4.481
 5526TIP3    H116519   3.647   2.326   4.516
 5526TIP3    H216520   3.746   2.440   4.527
 5527TIP3   OH216521   2.692   3.009   4.857
 5527TIP3    H116522   2.605   3.039   4.830
 5527TIP3    H216523   2.738   3.090   4.880
 5528TIP3   OH216524   5.026   1.755   3.218
 5528TIP3    H116525   5.087   1.755   3.292
 5528TIP3    H216526   4.991   1.666   3.217
 5529TIP3   OH216527   2.017   0.862   6.172
 5529TIP3    H116528   2.048   0.918   6.100
 5529TIP3    H216529   2.006   0.776   6.132
 5530TIP3   OH216530   7.022   1.705   3.212
 5530TIP3    H116531   7.052   1.776   3.156
 5530TIP3    H216532   7.034   1.737   3.301
 5531TIP3   OH216533   7.547   1.533   2.523
 5531TIP3    H116534   7.638   1.512   2.543
 5531TIP3    H216535   7.528   1.481   2.445
 5532TIP3   OH216536   6.294   2.464   3.546
 5532TIP3    H116537   6.374   2.444   3.595
 5532TIP3    H216538   6.284   2.559   3.556
 5533TIP3   OH216539   0.475   1.258   5.593
 5533TIP3    H116540   0.559   1.293   5.622
 5533TIP3    H216541   0.473   1.169   5.629
 5534TIP3   OH216542   4.107   1.960   1.533
 5534TIP3    H116543   4.181   1.941   1.475
 5534TIP3    H216544   4.146   2.010   1.606
 5535TIP3   OH216545   0.186   4.231   3.304
 5535TIP3    H116546   0.254   4.234   3.236
 5535TIP3    H216547   0.154   4.141   3.301
 5536TIP3   OH216548   3.450   5.982   4.546
 5536TIP3    H116549   3.413   5.897   4.570
 5536TIP3    H216550   3.380   6.027   4.499
 5537TIP3   OH216551   0.302   7.324   1.201
 5537TIP3    H116552   0.256   7.371   1.131
 5537TIP3    H216553   0.375   7.281   1.157
 5538TIP3   OH216554   6.755   0.331   5.882
 5538TIP3    H116555   6.671   0.376   5.892
 5538TIP3    H216556   6.821   0.400   5.890
 5539TIP3   OH216557   2.224   6.095   2.005
 5539TIP3    H116558   2.191   6.153   1.936
 5539TIP3    H216559   2.313   6.074   1.978
 5540TIP3   OH216560   3.030   0.126   1.328
 5540TIP3    H116561   3.098   0.059   1.317
 5540TIP3    H216562   3.078   0.207   1.341
 5541TIP3   OH216563   6.900   5.907   4.406
 5541TIP3    H116564   6.945   5.954   4.336
 5541TIP3    H216565   6.953   5.829   4.421
 5542TIP3   OH216566   6.187   3.863   1.115
 5542TIP3    H116567   6.256   3.929   1.116
 5542TIP3    H216568   6.136   3.884   1.036
 5543TIP3   OH216569   4.548   4.572   1.816
 5543TIP3    H116570   4.607   4.647   1.828
 5543TIP3    H216571   4.516   4.552   1.904
 5544TIP3   OH216572   3.281   7.836   6.304
 5544TIP3    H116573   3.367   7.795   6.293
 5544TIP3    H216574   3.287   7.880   6.389
 5545TIP3   OH216575   0.956   4.836   4.212
 5545TIP3    H116576   0.933   4.774   4.281
 5545TIP3    H216577   0.918   4.798   4.132
 5546TIP3   OH216578   5.267   6.715   6.381
 5546TIP3    H116579   5.227   6.709   6.468
 5546TIP3    H216580   5.324   6.639   6.375
 5547TIP3   OH216581   3.661   7.177   4.069
 5547TIP3    H116582   3.725   7.248   4.067
 5547TIP3    H216583   3.706   7.103   4.028
 5548TIP3   OH216584   0.816   4.734   1.348
 5548TIP3    H116585   0.747   4.678   1.314
 5548TIP3    H216586   0.808   4.816   1.299
 5549TIP3   OH216587   5.002   6.073   1.134
 5549TIP3    H116588   4.996   6.047   1.226
 5549TIP3    H216589   4.995   6.169   1.136
 5550TIP3   OH216590   1.002   7.603   4.764
 5550TIP3    H116591   0.995   7.554   4.682
 5550TIP3    H216592   0.983   7.693   4.740
 5551TIP3   OH216593   6.856   2.078   6.454
 5551TIP3    H116594   6.860   2.159   6.405
 5551TIP3    H216595   6.764   2.069   6.479
 5552TIP3   OH216596   5.795   5.004   5.454
 5552TIP3    H116597   5.780   5.066   5.382
 5552TIP3    H216598   5.834   5.057   5.523
 5553TIP3   OH216599   2.859   5.864   4.533
 5553TIP3    H116600   2.807   5.896   4.606
 5553TIP3    H216601   2.863   5.769   4.547
 5554TIP3   OH216602   6.839   7.360   5.445
 5554TIP3    H116603   6.774   7.335   5.380
 5554TIP3    H216604   6.845   7.283   5.503
 5555TIP3   OH216605   1.326   1.542   4.259
 5555TIP3    H116606   1.264   1.490   4.310
 5555TIP3    H216607   1.407   1.540   4.310
 5556TIP3   OH216608   3.014   3.650   2.057
 5556TIP3    H116609   2.960   3.721   2.091
 5556TIP3    H216610   3.013   3.663   1.962
 5557TIP3   OH216611   1.233   0.536   4.929
 5557TIP3    H116612   1.138   0.530   4.940
 5557TIP3    H216613   1.268   0.515   5.015
 5558TIP3   OH216614   4.377   2.308   1.507
 5558TIP3    H116615   4.384   2.339   1.416
 5558TIP3    H216616   4.453   2.251   1.518
 5559TIP3   OH216617   1.997   7.003   2.828
 5559TIP3    H116618   1.925   6.989   2.889
 5559TIP3    H216619   2.042   6.918   2.825
 5560TIP3   OH216620   1.068   3.415   0.638
 5560TIP3    H116621   1.056   3.337   0.583
 5560TIP3    H216622   1.017   3.396   0.717
 5561TIP3   OH216623   5.240   4.963   6.269
 5561TIP3    H116624   5.199   5.028   6.211
 5561TIP3    H216625   5.220   4.879   6.228
 5562TIP3   OH216626   5.169   5.828   3.591
 5562TIP3    H116627   5.131   5.766   3.529
 5562TIP3    H216628   5.263   5.812   3.587
 5563TIP3   OH216629   7.262   4.298   1.691
 5563TIP3    H116630   7.303   4.326   1.609
 5563TIP3    H216631   7.276   4.371   1.751
 5564TIP3   OH216632   6.280   4.082   3.889
 5564TIP3    H116633   6.304   4.030   3.812
 5564TIP3    H216634   6.185   4.086   3.888
 5565TIP3   OH216635   1.337   0.709   6.444
 5565TIP3    H116636   1.298   0.643   6.386
 5565TIP3    H216637   1.343   0.788   6.391
 5566TIP3   OH216638   0.099   4.580   6.835
 5566TIP3    H116639   0.147   4.602   6.756
 5566TIP3    H216640   0.153   4.514   6.879
 5567TIP3   OH216641   6.381   6.850   6.126
 5567TIP3    H116642   6.331   6.843   6.044
 5567TIP3    H216643   6.357   6.771   6.175
 5568TIP3   OH216644   7.912   5.385   4.266
 5568TIP3    H116645   7.916   5.478   4.284
 5568TIP3    H216646   7.984   5.369   4.204
 5569TIP3   OH216647   7.158   0.904   2.351
 5569TIP3    H116648   7.198   0.850   2.419
 5569TIP3    H216649   7.147   0.844   2.277
 5570TIP3   OH216650   0.147   2.569   6.532
 5570TIP3    H116651   0.208   2.568   6.459
 5570TIP3    H216652   0.181   2.505   6.594
 5571TIP3   OH216653   2.647   0.044   3.752
 5571TIP3    H116654   2.666  -0.032   3.808
 5571TIP3    H216655   2.695   0.025   3.671
 5572TIP3   OH216656   0.252   1.410   6.794
 5572TIP3    H116657   0.316   1.453   6.738
 5572TIP3    H216658   0.304   1.372   6.865
 5573TIP3   OH216659   0.595   6.956   0.369
 5573TIP3    H116660   0.605   6.862   0.380
 5573TIP3    H216661   0.510   6.966   0.325
 5574TIP3   OH216662   2.989   0.601   5.929
 5574TIP3    H116663   3.062   0.616   5.990
 5574TIP3    H216664   2.938   0.682   5.934
 5575TIP3   OH216665   4.593   4.719   4.438
 5575TIP3    H116666   4.506   4.690   4.409
 5575TIP3    H216667   4.630   4.643   4.483
 5576TIP3   OH216668   4.568   0.748   1.588
 5576TIP3    H116669   4.618   0.720   1.664
 5576TIP3    H216670   4.605   0.696   1.515
 5577TIP3   OH216671   1.974   1.324   2.559
 5577TIP3    H116672   1.981   1.239   2.602
 5577TIP3    H216673   2.046   1.375   2.595
 5578TIP3   OH216674   1.067   4.438   5.129
 5578TIP3    H116675   1.094   4.399   5.212
 5578TIP3    H216676   1.006   4.508   5.153
 5579TIP3   OH216677   1.129   4.408   4.358
 5579TIP3    H116678   1.169   4.325   4.387
 5579TIP3    H216679   1.197   4.449   4.305
 5580TIP3   OH216680   1.020   7.779   6.350
 5580TIP3    H116681   1.072   7.841   6.300
 5580TIP3    H216682   1.029   7.696   6.302
 5581TIP3   OH216683   7.704   2.556   4.715
 5581TIP3    H116684   7.632   2.620   4.714
 5581TIP3    H216685   7.707   2.521   4.626
 5582TIP3   OH216686   0.560   5.649   6.500
 5582TIP3    H116687   0.617   5.619   6.571
 5582TIP3    H216688   0.555   5.744   6.513
 5583TIP3   OH216689   5.251   0.671   3.577
 5583TIP3    H116690   5.166   0.635   3.603
 5583TIP3    H216691   5.314   0.606   3.606
 5584TIP3   OH216692   5.222   3.701   6.823
 5584TIP3    H116693   5.304   3.697   6.872
 5584TIP3    H216694   5.211   3.613   6.787
 5585TIP3   OH216695   2.506   1.921   5.146
 5585TIP3    H116696   2.486   2.014   5.136
 5585TIP3    H216697   2.570   1.918   5.217
 5586TIP3   OH216698   4.438   7.868   1.036
 5586TIP3    H116699   4.399   7.788   1.002
 5586TIP3    H216700   4.391   7.939   0.991
 5587TIP3   OH216701   3.109   5.260   2.374
 5587TIP3    H116702   3.093   5.351   2.353
 5587TIP3    H216703   3.037   5.212   2.332
 5588TIP3   OH216704   7.392   2.116   6.718
 5588TIP3    H116705   7.435   2.062   6.784
 5588TIP3    H216706   7.327   2.058   6.678
 5589TIP3   OH216707   3.106   4.961   4.554
 5589TIP3    H116708   3.078   5.013   4.630
 5589TIP3    H216709   3.201   4.968   4.554
 5590TIP3   OH216710   6.259   3.655   3.337
 5590TIP3    H116711   6.206   3.577   3.321
 5590TIP3    H216712   6.297   3.676   3.252
 5591TIP3   OH216713   5.425   2.754   5.589
 5591TIP3    H116714   5.434   2.670   5.633
 5591TIP3    H216715   5.341   2.789   5.618
 5592TIP3   OH216716   0.517   2.561   0.821
 5592TIP3    H116717   0.523   2.656   0.809
 5592TIP3    H216718   0.431   2.538   0.784
 5593TIP3   OH216719   2.525   3.148   3.880
 5593TIP3    H116720   2.510   3.238   3.910
 5593TIP3    H216721   2.451   3.099   3.916
 5594TIP3   OH216722   5.161   0.309   3.224
 5594TIP3    H116723   5.162   0.388   3.279
 5594TIP3    H216724   5.092   0.324   3.160
 5595TIP3   OH216725   3.411   5.758   2.287
 5595TIP3    H116726   3.481   5.795   2.340
 5595TIP3    H216727   3.435   5.778   2.197
 5596TIP3   OH216728   5.347   2.417   3.455
 5596TIP3    H116729   5.260   2.391   3.485
 5596TIP3    H216730   5.347   2.397   3.362
 5597TIP3   OH216731   6.231   0.024   2.048
 5597TIP3    H116732   6.170   0.094   2.027
 5597TIP3    H216733   6.216  -0.043   1.981
 5598TIP3   OH216734   1.940   3.675   3.174
 5598TIP3    H116735   1.940   3.639   3.085
 5598TIP3    H216736   1.849   3.698   3.191
 5599TIP3   OH216737   7.539   7.548   5.667
 5599TIP3    H116738   7.564   7.633   5.631
 5599TIP3    H216739   7.546   7.559   5.762
 5600TIP3   OH216740   6.067   6.769   3.068
 5600TIP3    H116741   6.080   6.731   3.155
 5600TIP3    H216742   5.981   6.739   3.041
 5601TIP3   OH216743   4.293   3.322   0.078
 5601TIP3    H116744   4.198   3.324   0.070
 5601TIP3    H216745   4.309   3.295   0.168
 5602TIP3   OH216746   3.136   4.262   5.615
 5602TIP3    H116747   3.082   4.189   5.585
 5602TIP3    H216748   3.098   4.287   5.699
 5603TIP3   OH216749   1.787   6.929   6.327
 5603TIP3    H116750   1.771   6.844   6.367
 5603TIP3    H216751   1.772   6.915   6.234
 5604TIP3   OH216752   5.570   1.642   3.426
 5604TIP3    H116753   5.511   1.678   3.492
 5604TIP3    H216754   5.533   1.671   3.343
 5605TIP3   OH216755   1.248   4.561   4.994
 5605TIP3    H116756   1.201   4.492   5.040
 5605TIP3    H216757   1.248   4.534   4.902
 5606TIP3   OH216758   6.233   5.119   6.093
 5606TIP3    H116759   6.280   5.137   6.175
 5606TIP3    H216760   6.269   5.182   6.030
 5607TIP3   OH216761   3.845   6.109   1.696
 5607TIP3    H116762   3.798   6.190   1.711
 5607TIP3    H216763   3.779   6.041   1.703
 5608TIP3   OH216764   0.516   2.624   5.650
 5608TIP3    H116765   0.436   2.626   5.702
 5608TIP3    H216766   0.512   2.541   5.603
 5609TIP3   OH216767   7.793   0.464   1.477
 5609TIP3    H116768   7.801   0.377   1.514
 5609TIP3    H216769   7.716   0.459   1.421
 5610TIP3   OH216770   0.184   1.686   1.241
 5610TIP3    H116771   0.236   1.634   1.303
 5610TIP3    H216772   0.111   1.629   1.217
 5611TIP3   OH216773   4.235   5.222   1.402
 5611TIP3    H116774   4.262   5.248   1.314
 5611TIP3    H216775   4.198   5.301   1.440
 5612TIP3   OH216776   2.945   2.298   2.698
 5612TIP3    H116777   2.918   2.353   2.625
 5612TIP3    H216778   2.921   2.209   2.671
 5613TIP3   OH216779   1.463   1.855   5.992
 5613TIP3    H116780   1.402   1.831   5.922
 5613TIP3    H216781   1.419   1.925   6.040
 5614TIP3   OH216782   2.470   0.539   3.437
 5614TIP3    H116783   2.395   0.592   3.408
 5614TIP3    H216784   2.432   0.474   3.495
 5615TIP3   OH216785   4.224   4.846   3.773
 5615TIP3    H116786   4.133   4.822   3.755
 5615TIP3    H216787   4.221   4.892   3.857
 5616TIP3   OH216788   0.451   3.917   5.279
 5616TIP3    H116789   0.481   3.999   5.240
 5616TIP3    H216790   0.447   3.855   5.206
 5617TIP3   OH216791   3.587   0.699   1.854
 5617TIP3    H116792   3.652   0.689   1.784
 5617TIP3    H216793   3.592   0.617   1.904
 5618TIP3   OH216794   0.679   1.395   3.226
 5618TIP3    H116795   0.655   1.475   3.273
 5618TIP3    H216796   0.769   1.410   3.197
 5619TIP3   OH216797   1.895   0.778   1.466
 5619TIP3    H116798   1.905   0.802   1.374
 5619TIP3    H216799   1.975   0.810   1.508
 5620TIP3   OH216800   7.367   6.272   2.381
 5620TIP3    H116801   7.291   6.217   2.398
 5620TIP3    H216802   7.343   6.323   2.303
 5621TIP3   OH216803   7.199   1.900   5.676
 5621TIP3    H116804   7.266   1.898   5.744
 5621TIP3    H216805   7.212   1.819   5.627
 5622TIP3   OH216806   1.436   1.844   5.147
 5622TIP3    H116807   1.497   1.904   5.191
 5622TIP3    H216808   1.370   1.902   5.109
 5623TIP3   OH216809   0.416   6.763   1.492
 5623TIP3    H116810   0.378   6.827   1.552
 5623TIP3    H216811   0.464   6.703   1.548
 5624TIP3   OH216812   1.902   0.916   2.505
 5624TIP3    H116813   1.890   0.979   2.435
 5624TIP3    H216814   1.950   0.964   2.573
 5625TIP3   OH216815   1.839   3.256   4.184
 5625TIP3    H116816   1.788   3.298   4.115
 5625TIP3    H216817   1.820   3.307   4.262
 5626TIP3   OH216818   5.585   3.724   2.729
 5626TIP3    H116819   5.491   3.709   2.731
 5626TIP3    H216820   5.594   3.817   2.711
 5627TIP3   OH216821   1.760   5.239   6.398
 5627TIP3    H116822   1.800   5.322   6.372
 5627TIP3    H216823   1.833   5.177   6.402
 5628TIP3   OH216824   8.269   2.259   3.274
 5628TIP3    H116825   8.182   2.231   3.304
 5628TIP3    H216826   8.257   2.279   3.181
 5629TIP3   OH216827   3.561   0.391   5.543
 5629TIP3    H116828   3.540   0.354   5.457
 5629TIP3    H216829   3.629   0.334   5.578
 5630TIP3   OH216830   1.535   1.648   3.444
 5630TIP3    H116831   1.542   1.739   3.415
 5630TIP3    H216832   1.444   1.639   3.471
 5631TIP3   OH216833   1.232   0.478   1.879
 5631TIP3    H116834   1.147   0.508   1.846
 5631TIP3    H216835   1.280   0.452   1.801
 5632TIP3   OH216836   0.017   6.192   3.481
 5632TIP3    H116837   0.027   6.287   3.484
 5632TIP3    H216838  -0.063   6.174   3.530
 5633TIP3   OH216839   6.032   6.713   4.175
 5633TIP3    H116840   6.000   6.663   4.250
 5633TIP3    H216841   6.025   6.805   4.202
 5634TIP3   OH216842   7.754   1.753   1.502
 5634TIP3    H116843   7.834   1.769   1.553
 5634TIP3    H216844   7.745   1.658   1.501
 5635TIP3   OH216845   6.592   4.428   6.504
 5635TIP3    H116846   6.580   4.421   6.409
 5635TIP3    H216847   6.687   4.425   6.516
 5636TIP3   OH216848   0.289   5.533   0.695
 5636TIP3    H116849   0.352   5.544   0.767
 5636TIP3    H216850   0.316   5.451   0.653
 5637TIP3   OH216851   6.923   6.402   1.749
 5637TIP3    H116852   6.873   6.460   1.806
 5637TIP3    H216853   7.015   6.424   1.768
 5638TIP3   OH216854   6.753   3.664   3.366
 5638TIP3    H116855   6.702   3.696   3.441
 5638TIP3    H216856   6.819   3.607   3.405
 5639TIP3   OH216857   7.405   7.042   4.539
 5639TIP3    H116858   7.435   7.132   4.548
 5639TIP3    H216859   7.360   7.024   4.621
 5640TIP3   OH216860   1.134   3.501   2.446
 5640TIP3    H116861   1.221   3.472   2.470
 5640TIP3    H216862   1.120   3.466   2.358
 5641TIP3   OH216863   1.281   4.153   5.831
 5641TIP3    H116864   1.207   4.094   5.844
 5641TIP3    H216865   1.261   4.228   5.886
 5642TIP3   OH216866   0.617   6.386   2.725
 5642TIP3    H116867   0.612   6.482   2.725
 5642TIP3    H216868   0.660   6.364   2.808
 5643TIP3   OH216869   8.294   4.266   5.040
 5643TIP3    H116870   8.254   4.304   5.118
 5643TIP3    H216871   8.289   4.335   4.974
 5644TIP3   OH216872   1.447   3.423   1.730
 5644TIP3    H116873   1.486   3.348   1.684
 5644TIP3    H216874   1.488   3.422   1.817
 5645TIP3   OH216875   5.444   6.501   6.397
 5645TIP3    H116876   5.511   6.434   6.393
 5645TIP3    H216877   5.370   6.465   6.348
 5646TIP3   OH216878   7.106   4.527   2.837
 5646TIP3    H116879   7.041   4.551   2.904
 5646TIP3    H216880   7.088   4.586   2.764
 5647TIP3   OH216881   0.799   1.392   1.604
 5647TIP3    H116882   0.864   1.325   1.581
 5647TIP3    H216883   0.848   1.474   1.600
 5648TIP3   OH216884   5.769   1.341   1.952
 5648TIP3    H116885   5.861   1.352   1.930
 5648TIP3    H216886   5.751   1.408   2.018
 5649TIP3   OH216887   6.155   5.928   4.024
 5649TIP3    H116888   6.214   5.965   3.958
 5649TIP3    H216889   6.172   5.979   4.103
 5650TIP3   OH216890   7.182   0.015   5.045
 5650TIP3    H116891   7.240   0.075   4.998
 5650TIP3    H216892   7.202  -0.072   5.008
 5651TIP3   OH216893   5.155   7.482   6.818
 5651TIP3    H116894   5.122   7.448   6.902
 5651TIP3    H216895   5.157   7.406   6.760
 5652TIP3   OH216896   5.585   3.011   1.652
 5652TIP3    H116897   5.549   3.037   1.737
 5652TIP3    H216898   5.509   3.009   1.594
 5653TIP3   OH216899   0.028   0.154   0.890
 5653TIP3    H116900   0.089   0.140   0.818
 5653TIP3    H216901  -0.043   0.093   0.874
 5654TIP3   OH216902   1.408   0.010   3.304
 5654TIP3    H116903   1.453  -0.008   3.221
 5654TIP3    H216904   1.403   0.106   3.308
 5655TIP3   OH216905   0.765   4.521   3.463
 5655TIP3    H116906   0.747   4.465   3.387
 5655TIP3    H216907   0.852   4.558   3.445
 5656TIP3   OH216908   2.991   0.189   0.885
 5656TIP3    H116909   2.977   0.230   0.970
 5656TIP3    H216910   2.906   0.193   0.841
 5657TIP3   OH216911   0.593   5.739   2.967
 5657TIP3    H116912   0.685   5.717   2.954
 5657TIP3    H216913   0.548   5.701   2.892
 5658TIP3   OH216914   4.769   3.440   0.598
 5658TIP3    H116915   4.864   3.428   0.590
 5658TIP3    H216916   4.757   3.471   0.688
 5659TIP3   OH216917   0.985   0.601   5.639
 5659TIP3    H116918   0.914   0.625   5.698
 5659TIP3    H216919   1.014   0.515   5.669
 5660TIP3   OH216920   0.466   7.912   3.047
 5660TIP3    H116921   0.394   7.891   2.987
 5660TIP3    H216922   0.455   8.005   3.066
 5661TIP3   OH216923   1.713   3.622   2.163
 5661TIP3    H116924   1.674   3.567   2.095
 5661TIP3    H216925   1.747   3.698   2.115
 5662TIP3   OH216926   1.811   7.830   0.983
 5662TIP3    H116927   1.746   7.760   0.990
 5662TIP3    H216928   1.862   7.808   0.905
 5663TIP3   OH216929   3.715   0.003   1.044
 5663TIP3    H116930   3.699   0.068   0.975
 5663TIP3    H216931   3.796  -0.039   1.018
 5664TIP3   OH216932   0.897   3.533   1.271
 5664TIP3    H116933   0.803   3.527   1.290
 5664TIP3    H216934   0.925   3.443   1.255
 5665TIP3   OH216935   2.244   1.050   5.734
 5665TIP3    H116936   2.335   1.069   5.711
 5665TIP3    H216937   2.250   0.990   5.808
 5666TIP3   OH216938   7.238   5.747   4.112
 5666TIP3    H116939   7.259   5.660   4.147
 5666TIP3    H216940   7.287   5.752   4.030
 5667TIP3   OH216941   1.183   0.515   3.629
 5667TIP3    H116942   1.145   0.579   3.570
 5667TIP3    H216943   1.150   0.540   3.716
 5668TIP3   OH216944   3.666   7.514   2.574
 5668TIP3    H116945   3.579   7.475   2.584
 5668TIP3    H216946   3.651   7.591   2.520
 5669TIP3   OH216947   2.163   7.757   4.559
 5669TIP3    H116948   2.111   7.795   4.630
 5669TIP3    H216949   2.153   7.663   4.570
 5670TIP3   OH216950   7.271   7.871   2.733
 5670TIP3    H116951   7.239   7.922   2.807
 5670TIP3    H216952   7.329   7.930   2.685
 5671TIP3   OH216953   3.976   6.641   4.071
 5671TIP3    H116954   4.064   6.622   4.104
 5671TIP3    H216955   3.919   6.583   4.121
 5672TIP3   OH216956   3.630   1.538   1.792
 5672TIP3    H116957   3.650   1.583   1.874
 5672TIP3    H216958   3.705   1.556   1.736
 5673TIP3   OH216959   5.565   3.782   4.338
 5673TIP3    H116960   5.558   3.699   4.290
 5673TIP3    H216961   5.575   3.848   4.270
 5674TIP3   OH216962   0.318   1.247   3.184
 5674TIP3    H116963   0.280   1.301   3.114
 5674TIP3    H216964   0.312   1.302   3.262
 5675TIP3   OH216965   3.622   1.076   6.078
 5675TIP3    H116966   3.639   0.987   6.109
 5675TIP3    H216967   3.703   1.123   6.096
 5676TIP3   OH216968   5.089   3.641   3.974
 5676TIP3    H116969   5.175   3.602   3.959
 5676TIP3    H216970   5.093   3.724   3.926
 5677TIP3   OH216971   0.516   1.729   2.441
 5677TIP3    H116972   0.545   1.732   2.533
 5677TIP3    H216973   0.502   1.821   2.418
 5678TIP3   OH216974   0.504   6.609   5.907
 5678TIP3    H116975   0.501   6.559   5.826
 5678TIP3    H216976   0.422   6.658   5.909
 5679TIP3   OH216977   0.039   1.021   2.229
 5679TIP3    H116978   0.095   0.964   2.176
 5679TIP3    H216979   0.086   1.104   2.233
 5680TIP3   OH216980   1.841   0.624   6.344
 5680TIP3    H116981   1.929   0.611   6.308
 5680TIP3    H216982   1.855   0.633   6.438
 5681TIP3   OH216983   0.725   2.658   6.648
 5681TIP3    H116984   0.729   2.606   6.728
 5681TIP3    H216985   0.715   2.748   6.678
 5682TIP3   OH216986   1.668   7.081   5.070
 5682TIP3    H116987   1.594   7.082   5.009
 5682TIP3    H216988   1.657   7.161   5.121
 5683TIP3   OH216989   1.905   7.371   3.717
 5683TIP3    H116990   1.885   7.388   3.625
 5683TIP3    H216991   1.826   7.330   3.751
 5684TIP3   OH216992   7.143   0.212   5.238
 5684TIP3    H116993   7.199   0.205   5.315
 5684TIP3    H216994   7.184   0.154   5.173
 5685TIP3   OH216995   3.970   7.583   2.820
 5685TIP3    H116996   3.916   7.634   2.760
 5685TIP3    H216997   3.938   7.607   2.907
 5686TIP3   OH216998   7.498   7.443   1.646
 5686TIP3    H116999   7.425   7.387   1.672
 5686TIP3    H217000   7.575   7.402   1.686
 5687TIP3   OH217001   2.249   5.390   0.239
 5687TIP3    H117002   2.216   5.309   0.279
 5687TIP3    H217003   2.225   5.381   0.146
 5688TIP3   OH217004   3.714   6.022   4.429
 5688TIP3    H117005   3.642   5.976   4.472
 5688TIP3    H217006   3.687   6.028   4.338
 5689TIP3   OH217007   0.682   5.293   0.976
 5689TIP3    H117008   0.625   5.349   0.924
 5689TIP3    H217009   0.768   5.299   0.933
 5690TIP3   OH217010   2.939   6.301   3.026
 5690TIP3    H117011   3.017   6.287   3.080
 5690TIP3    H217012   2.960   6.378   2.973
 5691TIP3   OH217013   8.062   0.693   0.894
 5691TIP3    H117014   8.140   0.675   0.946
 5691TIP3    H217015   8.073   0.783   0.864
 5692TIP3   OH217016   4.233   6.818   0.955
 5692TIP3    H117017   4.311   6.827   1.010
 5692TIP3    H217018   4.220   6.723   0.948
 5693TIP3   OH217019   0.557   1.202   5.223
 5693TIP3    H117020   0.543   1.182   5.316
 5693TIP3    H217021   0.652   1.202   5.212
 5694TIP3   OH217022   3.942   6.190   5.543
 5694TIP3    H117023   3.872   6.127   5.561
 5694TIP3    H217024   4.020   6.150   5.582
 5695TIP3   OH217025   5.235   2.049   2.897
 5695TIP3    H117026   5.189   1.992   2.836
 5695TIP3    H217027   5.263   2.124   2.845
 5696TIP3   OH217028   5.894   2.497   6.441
 5696TIP3    H117029   5.914   2.471   6.531
 5696TIP3    H217030   5.833   2.430   6.410
 5697TIP3   OH217031   6.807   3.026   4.640
 5697TIP3    H117032   6.722   3.003   4.676
 5697TIP3    H217033   6.862   2.949   4.657
 5698TIP3   OH217034   3.330   5.436   1.019
 5698TIP3    H117035   3.395   5.444   0.949
 5698TIP3    H217036   3.318   5.342   1.030
 5699TIP3   OH217037   7.348   0.617   3.576
 5699TIP3    H117038   7.342   0.675   3.500
 5699TIP3    H217039   7.296   0.541   3.553
 5700TIP3   OH217040   4.766   1.642   5.341
 5700TIP3    H117041   4.722   1.637   5.256
 5700TIP3    H217042   4.825   1.566   5.341
 5701TIP3   OH217043   6.146   7.329   6.726
 5701TIP3    H117044   6.239   7.333   6.748
 5701TIP3    H217045   6.106   7.399   6.778
 5702TIP3   OH217046   2.807   5.469   2.493
 5702TIP3    H117047   2.741   5.413   2.534
 5702TIP3    H217048   2.877   5.477   2.558
 5703TIP3   OH217049   6.201   2.515   2.876
 5703TIP3    H117050   6.196   2.428   2.915
 5703TIP3    H217051   6.199   2.575   2.951
 5704TIP3   OH217052   1.655   0.805   4.448
 5704TIP3    H117053   1.695   0.756   4.376
 5704TIP3    H217054   1.627   0.887   4.408
 5705TIP3   OH217055   0.765   0.027   1.269
 5705TIP3    H117056   0.676   0.061   1.273
 5705TIP3    H217057   0.800   0.040   1.358
 5706TIP3   OH217058   3.621   6.688   1.735
 5706TIP3    H117059   3.554   6.633   1.694
 5706TIP3    H217060   3.600   6.777   1.706
 5707TIP3   OH217061   4.827   7.178   3.514
 5707TIP3    H117062   4.741   7.171   3.556
 5707TIP3    H217063   4.864   7.090   3.520
 5708TIP3   OH217064   4.132   2.517   5.332
 5708TIP3    H117065   4.116   2.591   5.391
 5708TIP3    H217066   4.103   2.550   5.246
 5709TIP3   OH217067   2.886   0.487   0.422
 5709TIP3    H117068   2.947   0.483   0.496
 5709TIP3    H217069   2.933   0.538   0.356
 5710TIP3   OH217070   0.943   7.597   2.026
 5710TIP3    H117071   0.904   7.548   1.953
 5710TIP3    H217072   1.029   7.557   2.038
 5711TIP3   OH217073   6.711   2.517   6.102
 5711TIP3    H117074   6.786   2.562   6.141
 5711TIP3    H217075   6.648   2.587   6.086
 5712TIP3   OH217076   1.908   5.815   4.106
 5712TIP3    H117077   1.956   5.733   4.109
 5712TIP3    H217078   1.897   5.834   4.013
 5713TIP3   OH217079   4.680   1.945   1.740
 5713TIP3    H117080   4.634   2.021   1.705
 5713TIP3    H217081   4.638   1.928   1.824
 5714TIP3   OH217082   5.574   2.698   3.647
 5714TIP3    H117083   5.637   2.684   3.718
 5714TIP3    H217084   5.551   2.610   3.617
 5715TIP3   OH217085   0.418   7.483   0.218
 5715TIP3    H117086   0.479   7.450   0.283
 5715TIP3    H217087   0.332   7.455   0.248
 5716TIP3   OH217088   0.885   5.174   0.393
 5716TIP3    H117089   0.934   5.117   0.333
 5716TIP3    H217090   0.923   5.260   0.380
 5717TIP3   OH217091   2.479   5.531   0.326
 5717TIP3    H117092   2.558   5.480   0.340
 5717TIP3    H217093   2.413   5.467   0.298
 5718TIP3   OH217094   3.984   2.495   3.468
 5718TIP3    H117095   4.032   2.576   3.452
 5718TIP3    H217096   4.013   2.467   3.555
 5719TIP3   OH217097   4.005   3.610   1.730
 5719TIP3    H117098   3.956   3.692   1.740
 5719TIP3    H217099   4.086   3.636   1.687
 5720TIP3   OH217100   5.738   4.595   1.736
 5720TIP3    H117101   5.706   4.671   1.785
 5720TIP3    H217102   5.692   4.521   1.776
 5721TIP3   OH217103   3.331   7.063   4.748
 5721TIP3    H117104   3.366   7.060   4.837
 5721TIP3    H217105   3.390   7.009   4.696
 5722TIP3   OH217106   2.492   6.802   3.615
 5722TIP3    H117107   2.586   6.803   3.634
 5722TIP3    H217108   2.487   6.802   3.519
 5723TIP3   OH217109   4.135   4.468   5.079
 5723TIP3    H117110   4.148   4.536   5.144
 5723TIP3    H217111   4.111   4.390   5.130
 5724TIP3   OH217112   4.223   2.898   3.367
 5724TIP3    H117113   4.306   2.879   3.410
 5724TIP3    H217114   4.243   2.968   3.305
 5725TIP3   OH217115   3.548   5.754   1.353
 5725TIP3    H117116   3.611   5.683   1.360
 5725TIP3    H217117   3.470   5.715   1.315
 5726TIP3   OH217118   0.708   4.317   0.354
 5726TIP3    H117119   0.799   4.291   0.338
 5726TIP3    H217120   0.706   4.338   0.447
 5727TIP3   OH217121   2.213   5.954   2.472
 5727TIP3    H117122   2.307   5.933   2.477
 5727TIP3    H217123   2.182   5.904   2.396
 5728TIP3   OH217124   2.819   0.373   2.515
 5728TIP3    H117125   2.911   0.348   2.519
 5728TIP3    H217126   2.810   0.439   2.584
 5729TIP3   OH217127   0.869   1.771   0.082
 5729TIP3    H117128   0.798   1.829   0.052
 5729TIP3    H217129   0.890   1.802   0.170
 5730TIP3   OH217130   7.191   5.622   6.159
 5730TIP3    H117131   7.192   5.604   6.253
 5730TIP3    H217132   7.269   5.674   6.143
 5731TIP3   OH217133   5.932   0.638   6.357
 5731TIP3    H117134   5.966   0.571   6.297
 5731TIP3    H217135   5.916   0.592   6.439
 5732TIP3   OH217136   0.391   1.116   3.930
 5732TIP3    H117137   0.460   1.182   3.919
 5732TIP3    H217138   0.370   1.120   4.023
 5733TIP3   OH217139   5.610   7.119   6.381
 5733TIP3    H117140   5.528   7.069   6.387
 5733TIP3    H217141   5.605   7.182   6.452
 5734TIP3   OH217142   1.952   5.694   1.519
 5734TIP3    H117143   1.996   5.629   1.463
 5734TIP3    H217144   1.993   5.777   1.496
 5735TIP3   OH217145   5.054   4.863   4.750
 5735TIP3    H117146   5.041   4.840   4.842
 5735TIP3    H217147   5.069   4.958   4.751
 5736TIP3   OH217148   1.799   7.795   1.481
 5736TIP3    H117149   1.722   7.755   1.441
 5736TIP3    H217150   1.872   7.770   1.423
 5737TIP3   OH217151   4.059   7.026   1.125
 5737TIP3    H117152   4.099   7.042   1.211
 5737TIP3    H217153   4.081   6.935   1.105
 5738TIP3   OH217154   1.955   2.384   0.850
 5738TIP3    H117155   1.982   2.362   0.761
 5738TIP3    H217156   1.937   2.299   0.891
 5739TIP3   OH217157   6.350   0.017   2.290
 5739TIP3    H117158   6.311  -0.007   2.205
 5739TIP3    H217159   6.399   0.097   2.272
 5740TIP3   OH217160   6.333   1.661   1.505
 5740TIP3    H117161   6.382   1.736   1.472
 5740TIP3    H217162   6.395   1.613   1.559
 5741TIP3   OH217163   8.110   1.202   2.628
 5741TIP3    H117164   8.138   1.133   2.689
 5741TIP3    H217165   8.068   1.267   2.684
 5742TIP3   OH217166   7.042   1.057   6.790
 5742TIP3    H117167   7.020   1.093   6.704
 5742TIP3    H217168   7.045   1.133   6.848
 5743TIP3   OH217169   0.996   4.499   6.089
 5743TIP3    H117170   0.971   4.422   6.038
 5743TIP3    H217171   0.940   4.569   6.056
 5744TIP3   OH217172   7.018   2.626   4.399
 5744TIP3    H117173   7.045   2.686   4.329
 5744TIP3    H217174   6.931   2.596   4.372
 5745TIP3   OH217175   1.914   4.500   5.568
 5745TIP3    H117176   1.875   4.427   5.617
 5745TIP3    H217177   1.840   4.557   5.547
 5746TIP3   OH217178   2.918   2.851   0.087
 5746TIP3    H117179   2.910   2.762   0.123
 5746TIP3    H217180   2.888   2.908   0.157
 5747TIP3   OH217181   7.209   3.447   3.108
 5747TIP3    H117182   7.257   3.517   3.153
 5747TIP3    H217183   7.117   3.461   3.131
 5748TIP3   OH217184   8.371   1.776   1.438
 5748TIP3    H117185   8.398   1.701   1.491
 5748TIP3    H217186   8.441   1.787   1.374
 5749TIP3   OH217187   0.364   3.602   4.230
 5749TIP3    H117188   0.404   3.527   4.274
 5749TIP3    H217189   0.437   3.645   4.186
 5750TIP3   OH217190   1.099   3.822   3.943
 5750TIP3    H117191   1.061   3.871   4.016
 5750TIP3    H217192   1.126   3.739   3.983
 5751TIP3   OH217193   0.019   7.310   3.274
 5751TIP3    H117194  -0.051   7.330   3.212
 5751TIP3    H217195   0.047   7.396   3.307
 5752TIP3   OH217196   6.500   0.531   0.824
 5752TIP3    H117197   6.561   0.602   0.804
 5752TIP3    H217198   6.414   0.563   0.795
 5753TIP3   OH217199   5.789   4.388   2.629
 5753TIP3    H117200   5.723   4.458   2.631
 5753TIP3    H217201   5.804   4.372   2.536
 5754TIP3   OH217202   7.815   7.596   1.884
 5754TIP3    H117203   7.763   7.665   1.843
 5754TIP3    H217204   7.841   7.539   1.812
 5755TIP3   OH217205   6.562   3.160   4.349
 5755TIP3    H117206   6.653   3.129   4.349
 5755TIP3    H217207   6.536   3.158   4.441
 5756TIP3   OH217208   8.360   0.274   2.281
 5756TIP3    H117209   8.357   0.364   2.250
 5756TIP3    H217210   8.380   0.281   2.375
 5757TIP3   OH217211   6.182   5.636   3.300
 5757TIP3    H117212   6.152   5.708   3.356
 5757TIP3    H217213   6.276   5.631   3.316
 5758TIP3   OH217214   2.013   4.171   5.669
 5758TIP3    H117215   2.076   4.227   5.714
 5758TIP3    H217216   2.021   4.086   5.712
 5759TIP3   OH217217   2.993   1.905   3.074
 5759TIP3    H117218   2.974   1.984   3.124
 5759TIP3    H217219   2.947   1.835   3.120
 5760TIP3   OH217220   3.511   2.310   1.129
 5760TIP3    H117221   3.479   2.399   1.122
 5760TIP3    H217222   3.488   2.283   1.218
 5761TIP3   OH217223   5.802   0.996   3.406
 5761TIP3    H117224   5.835   0.978   3.494
 5761TIP3    H217225   5.838   1.082   3.385
 5762TIP3   OH217226   5.133   6.597   3.594
 5762TIP3    H117227   5.074   6.629   3.662
 5762TIP3    H217228   5.202   6.663   3.588
 5763TIP3   OH217229   3.835   0.447   0.928
 5763TIP3    H117230   3.928   0.467   0.923
 5763TIP3    H217231   3.792   0.532   0.936
 5764TIP3   OH217232   0.614   7.006   1.165
 5764TIP3    H117233   0.619   6.981   1.257
 5764TIP3    H217234   0.701   7.042   1.145
 5765TIP3   OH217235   1.548   4.124   3.455
 5765TIP3    H117236   1.583   4.182   3.523
 5765TIP3    H217237   1.600   4.146   3.377
 5766TIP3   OH217238   7.628   0.390   5.416
 5766TIP3    H117239   7.613   0.361   5.506
 5766TIP3    H217240   7.684   0.467   5.424
 5767TIP3   OH217241   1.215   5.776   3.769
 5767TIP3    H117242   1.214   5.719   3.847
 5767TIP3    H217243   1.292   5.749   3.720
 5768TIP3   OH217244   7.403   7.620   3.850
 5768TIP3    H117245   7.307   7.615   3.848
 5768TIP3    H217246   7.428   7.622   3.758
 5769TIP3   OH217247   2.447   2.108   3.355
 5769TIP3    H117248   2.487   2.175   3.410
 5769TIP3    H217249   2.365   2.147   3.325
 5770TIP3   OH217250   0.032   0.293   6.823
 5770TIP3    H117251   0.035   0.389   6.820
 5770TIP3    H217252  -0.047   0.271   6.773
 5771TIP3   OH217253   8.219   7.389   2.488
 5771TIP3    H117254   8.205   7.482   2.505
 5771TIP3    H217255   8.312   7.374   2.505
 5772TIP3   OH217256   1.521   6.780   2.686
 5772TIP3    H117257   1.598   6.724   2.695
 5772TIP3    H217258   1.511   6.823   2.771
 5773TIP3   OH217259   1.674   0.498   6.162
 5773TIP3    H117260   1.723   0.462   6.088
 5773TIP3    H217261   1.739   0.542   6.216
 5774TIP3   OH217262   8.207   2.220   5.693
 5774TIP3    H117263   8.290   2.254   5.660
 5774TIP3    H217264   8.232   2.165   5.767
 5775TIP3   OH217265   2.579   0.744   2.858
 5775TIP3    H117266   2.485   0.747   2.876
 5775TIP3    H217267   2.585   0.763   2.764
 5776TIP3   OH217268   4.892   2.180   3.702
 5776TIP3    H117269   4.839   2.101   3.692
 5776TIP3    H217270   4.844   2.247   3.654
 5777TIP3   OH217271   4.450   7.484   1.339
 5777TIP3    H117272   4.529   7.532   1.363
 5777TIP3    H217273   4.412   7.457   1.423
 5778TIP3   OH217274   2.355   3.637   3.541
 5778TIP3    H117275   2.337   3.595   3.457
 5778TIP3    H217276   2.449   3.655   3.539
 5779TIP3   OH217277   1.813   1.921   5.209
 5779TIP3    H117278   1.755   1.871   5.266
 5779TIP3    H217279   1.894   1.869   5.205
 5780TIP3   OH217280   3.703   7.397   0.170
 5780TIP3    H117281   3.727   7.329   0.106
 5780TIP3    H217282   3.611   7.415   0.152
 5781TIP3   OH217283   0.304   3.144   0.921
 5781TIP3    H117284   0.209   3.134   0.920
 5781TIP3    H217285   0.319   3.228   0.964
 5782TIP3   OH217286   3.791   3.210   6.056
 5782TIP3    H117287   3.699   3.184   6.063
 5782TIP3    H217288   3.791   3.303   6.080
 5783TIP3   OH217289   4.485   4.121   6.696
 5783TIP3    H117290   4.536   4.089   6.622
 5783TIP3    H217291   4.394   4.106   6.672
 5784TIP3   OH217292   7.667   0.454   0.153
 5784TIP3    H117293   7.660   0.362   0.178
 5784TIP3    H217294   7.723   0.453   0.074
 5785TIP3   OH217295   1.105   1.679   5.067
 5785TIP3    H117296   1.165   1.700   4.996
 5785TIP3    H217297   1.162   1.653   5.140
 5786TIP3   OH217298   0.800   7.043   3.333
 5786TIP3    H117299   0.868   6.980   3.354
 5786TIP3    H217300   0.847   7.120   3.301
 5787TIP3   OH217301   6.787   1.124   3.158
 5787TIP3    H117302   6.875   1.092   3.177
 5787TIP3    H217303   6.755   1.160   3.241
 5788TIP3   OH217304   8.181   3.916   4.056
 5788TIP3    H117305   8.197   3.899   3.963
 5788TIP3    H217306   8.168   4.011   4.061
 5789TIP3   OH217307   4.791   0.547   1.771
 5789TIP3    H117308   4.844   0.468   1.773
 5789TIP3    H217309   4.746   0.544   1.686
 5790TIP3   OH217310   1.848   7.472   2.337
 5790TIP3    H117311   1.840   7.402   2.402
 5790TIP3    H217312   1.941   7.495   2.338
 5791TIP3   OH217313   0.900   3.793   3.733
 5791TIP3    H117314   0.822   3.824   3.779
 5791TIP3    H217315   0.969   3.793   3.799
 5792TIP3   OH217316   6.639   3.086   6.841
 5792TIP3    H117317   6.589   3.090   6.923
 5792TIP3    H217318   6.633   2.994   6.814
 5793TIP3   OH217319   2.943   1.652   1.348
 5793TIP3    H117320   2.916   1.561   1.359
 5793TIP3    H217321   2.911   1.697   1.426
 5794TIP3   OH217322   7.378   0.194   2.908
 5794TIP3    H117323   7.452   0.223   2.961
 5794TIP3    H217324   7.314   0.265   2.916
 5795TIP3   OH217325   3.939   5.015   5.988
 5795TIP3    H117326   3.993   4.943   5.955
 5795TIP3    H217327   3.909   4.986   6.074
 5796TIP3   OH217328   5.520   1.487   6.453
 5796TIP3    H117329   5.474   1.499   6.536
 5796TIP3    H217330   5.478   1.411   6.413
 5797TIP3   OH217331   2.005   5.746   0.281
 5797TIP3    H117332   1.939   5.741   0.349
 5797TIP3    H217333   2.083   5.707   0.320
 5798TIP3   OH217334   7.926   1.087   5.020
 5798TIP3    H117335   7.931   1.147   5.095
 5798TIP3    H217336   7.918   1.144   4.944
 5799TIP3   OH217337   6.526   5.405   5.279
 5799TIP3    H117338   6.496   5.484   5.323
 5799TIP3    H217339   6.496   5.333   5.335
 5800TIP3   OH217340   1.761   1.213   0.261
 5800TIP3    H117341   1.714   1.130   0.257
 5800TIP3    H217342   1.693   1.279   0.271
 5801TIP3   OH217343   1.585   1.694   0.436
 5801TIP3    H117344   1.659   1.753   0.448
 5801TIP3    H217345   1.522   1.721   0.503
 5802TIP3   OH217346   2.570   1.903   2.467
 5802TIP3    H117347   2.529   1.988   2.484
 5802TIP3    H217348   2.499   1.849   2.432
 5803TIP3   OH217349   6.118   6.088   3.686
 5803TIP3    H117350   6.194   6.144   3.700
 5803TIP3    H217351   6.139   6.007   3.732
 5804TIP3   OH217352   2.547   4.577   6.328
 5804TIP3    H117353   2.578   4.489   6.307
 5804TIP3    H217354   2.587   4.596   6.413
 5805TIP3   OH217355   0.926   3.655   5.647
 5805TIP3    H117356   0.943   3.666   5.740
 5805TIP3    H217357   0.894   3.741   5.618
 5806TIP3   OH217358   1.557   5.522   0.221
 5806TIP3    H117359   1.597   5.602   0.253
 5806TIP3    H217360   1.624   5.455   0.232
 5807TIP3   OH217361   2.759   6.081   0.191
 5807TIP3    H117362   2.833   6.074   0.131
 5807TIP3    H217363   2.706   6.004   0.172
 5808TIP3   OH217364   5.810   0.564   4.219
 5808TIP3    H117365   5.878   0.542   4.283
 5808TIP3    H217366   5.828   0.507   4.144
 5809TIP3   OH217367   8.115   5.019   3.177
 5809TIP3    H117368   8.109   5.026   3.082
 5809TIP3    H217369   8.114   5.110   3.208
 5810TIP3   OH217370   7.407   4.023   2.224
 5810TIP3    H117371   7.418   4.072   2.305
 5810TIP3    H217372   7.395   4.090   2.157
 5811TIP3   OH217373   1.315   4.338   1.967
 5811TIP3    H117374   1.269   4.306   2.045
 5811TIP3    H217375   1.319   4.261   1.910
 5812TIP3   OH217376   2.141   1.226   1.862
 5812TIP3    H117377   2.233   1.235   1.837
 5812TIP3    H217378   2.110   1.316   1.873
 5813TIP3   OH217379   5.585   4.540   5.088
 5813TIP3    H117380   5.573   4.445   5.078
 5813TIP3    H217381   5.567   4.575   5.001
 5814TIP3   OH217382   3.312   0.956   1.338
 5814TIP3    H117383   3.393   0.979   1.383
 5814TIP3    H217384   3.245   1.011   1.381
 5815TIP3   OH217385   0.417   5.668   3.211
 5815TIP3    H117386   0.443   5.582   3.245
 5815TIP3    H217387   0.484   5.689   3.146
 5816TIP3   OH217388   1.741   2.302   5.556
 5816TIP3    H117389   1.747   2.265   5.468
 5816TIP3    H217390   1.648   2.321   5.568
 5817TIP3   OH217391   0.275   0.141   4.558
 5817TIP3    H117392   0.197   0.085   4.566
 5817TIP3    H217393   0.247   0.226   4.592
 5818TIP3   OH217394   6.007   5.093   4.322
 5818TIP3    H117395   6.090   5.125   4.285
 5818TIP3    H217396   5.940   5.137   4.270
 5819TIP3   OH217397   8.275   3.321   4.901
 5819TIP3    H117398   8.206   3.350   4.840
 5819TIP3    H217399   8.307   3.239   4.863
 5820TIP3   OH217400   3.038   6.563   1.831
 5820TIP3    H117401   3.009   6.574   1.921
 5820TIP3    H217402   2.993   6.632   1.782
 5821TIP3   OH217403   4.011   3.218   2.491
 5821TIP3    H117404   3.924   3.208   2.451
 5821TIP3    H217405   4.000   3.184   2.580
 5822TIP3   OH217406   0.995   2.364   3.543
 5822TIP3    H117407   0.972   2.448   3.582
 5822TIP3    H217408   1.071   2.334   3.593
 5823TIP3   OH217409   7.296   4.673   3.649
 5823TIP3    H117410   7.217   4.686   3.701
 5823TIP3    H217411   7.265   4.656   3.561
 5824TIP3   OH217412   1.237   2.437   1.118
 5824TIP3    H117413   1.241   2.489   1.198
 5824TIP3    H217414   1.328   2.425   1.092
 5825TIP3   OH217415   6.268   5.903   1.981
 5825TIP3    H117416   6.288   5.994   2.000
 5825TIP3    H217417   6.218   5.873   2.058
 5826TIP3   OH217418   3.128   1.687   5.302
 5826TIP3    H117419   3.155   1.621   5.366
 5826TIP3    H217420   3.043   1.719   5.333
 5827TIP3   OH217421   0.019   4.736   6.449
 5827TIP3    H117422  -0.006   4.776   6.533
 5827TIP3    H217423   0.012   4.642   6.465
 5828TIP3   OH217424   7.096   1.207   4.556
 5828TIP3    H117425   7.053   1.184   4.473
 5828TIP3    H217426   7.143   1.127   4.581
 5829TIP3   OH217427   6.163   7.073   2.156
 5829TIP3    H117428   6.205   6.987   2.155
 5829TIP3    H217429   6.208   7.121   2.226
 5830TIP3   OH217430   6.042   1.092   6.749
 5830TIP3    H117431   6.027   1.055   6.836
 5830TIP3    H217432   6.136   1.081   6.734
 5831TIP3   OH217433   8.190   1.833   0.126
 5831TIP3    H117434   8.202   1.875   0.040
 5831TIP3    H217435   8.143   1.753   0.107
 5832TIP3   OH217436   5.489   1.029   1.285
 5832TIP3    H117437   5.482   1.095   1.216
 5832TIP3    H217438   5.412   0.974   1.273
 5833TIP3   OH217439   6.842   5.809   2.628
 5833TIP3    H117440   6.876   5.791   2.715
 5833TIP3    H217441   6.747   5.807   2.638
 5834TIP3   OH217442   3.751   1.615   5.515
 5834TIP3    H117443   3.700   1.671   5.574
 5834TIP3    H217444   3.836   1.606   5.559
 5835TIP3   OH217445   0.934   5.312   0.120
 5835TIP3    H117446   0.950   5.362   0.200
 5835TIP3    H217447   0.913   5.378   0.054
 5836TIP3   OH217448   5.009   2.547   4.214
 5836TIP3    H117449   5.097   2.582   4.201
 5836TIP3    H217450   4.996   2.486   4.142
 5837TIP3   OH217451   3.197   1.945   4.422
 5837TIP3    H117452   3.126   2.006   4.440
 5837TIP3    H217453   3.243   1.937   4.505
 5838TIP3   OH217454   4.655   5.227   2.011
 5838TIP3    H117455   4.625   5.262   2.095
 5838TIP3    H217456   4.697   5.144   2.033
 5839TIP3   OH217457   5.807   0.730   5.301
 5839TIP3    H117458   5.779   0.647   5.263
 5839TIP3    H217459   5.729   0.764   5.345
 5840TIP3   OH217460   6.622   4.124   0.467
 5840TIP3    H117461   6.604   4.061   0.398
 5840TIP3    H217462   6.654   4.202   0.421
 5841TIP3   OH217463   5.585   2.233   1.705
 5841TIP3    H117464   5.498   2.201   1.679
 5841TIP3    H217465   5.638   2.154   1.712
 5842TIP3   OH217466   1.138   7.678   5.387
 5842TIP3    H117467   1.162   7.735   5.460
 5842TIP3    H217468   1.090   7.735   5.327
 5843TIP3   OH217469   7.401   5.643   4.336
 5843TIP3    H117470   7.462   5.580   4.299
 5843TIP3    H217471   7.409   5.633   4.431
 5844TIP3   OH217472   0.478   4.621   2.809
 5844TIP3    H117473   0.474   4.612   2.905
 5844TIP3    H217474   0.568   4.646   2.791
 5845TIP3   OH217475   6.324   3.646   2.814
 5845TIP3    H117476   6.315   3.727   2.864
 5845TIP3    H217477   6.240   3.602   2.825
 5846TIP3   OH217478   5.045   5.389   5.380
 5846TIP3    H117479   5.086   5.474   5.362
 5846TIP3    H217480   5.119   5.328   5.389
 5847TIP3   OH217481   6.416   1.147   5.322
 5847TIP3    H117482   6.359   1.087   5.370
 5847TIP3    H217483   6.366   1.228   5.317
 5848TIP3   OH217484   3.774   4.087   5.764
 5848TIP3    H117485   3.732   4.171   5.745
 5848TIP3    H217486   3.834   4.105   5.837
 5849TIP3   OH217487   8.187   3.244   3.996
 5849TIP3    H117488   8.244   3.187   4.047
 5849TIP3    H217489   8.146   3.301   4.061
 5850TIP3   OH217490   6.196   3.764   4.834
 5850TIP3    H117491   6.101   3.773   4.838
 5850TIP3    H217492   6.213   3.721   4.750
 5851TIP3   OH217493   0.431   2.117   5.611
 5851TIP3    H117494   0.453   2.054   5.680
 5851TIP3    H217495   0.422   2.064   5.532
 5852TIP3   OH217496   2.653   0.090   5.892
 5852TIP3    H117497   2.721   0.138   5.939
 5852TIP3    H217498   2.694   0.063   5.810
 5853TIP3   OH217499   4.605   2.517   4.099
 5853TIP3    H117500   4.619   2.599   4.051
 5853TIP3    H217501   4.648   2.450   4.046
 5854TIP3   OH217502   4.965   1.449   5.683
 5854TIP3    H117503   4.878   1.491   5.687
 5854TIP3    H217504   4.954   1.377   5.621
 5855TIP3   OH217505   1.716   6.195   4.509
 5855TIP3    H117506   1.646   6.154   4.458
 5855TIP3    H217507   1.671   6.235   4.583
 5856TIP3   OH217508   6.115   7.226   5.936
 5856TIP3    H117509   6.106   7.218   5.841
 5856TIP3    H217510   6.181   7.294   5.948
 5857TIP3   OH217511   8.270   2.181   0.913
 5857TIP3    H117512   8.303   2.150   0.829
 5857TIP3    H217513   8.235   2.269   0.894
 5858TIP3   OH217514   4.045   4.554   2.246
 5858TIP3    H117515   4.011   4.634   2.288
 5858TIP3    H217516   3.973   4.492   2.250
 5859TIP3   OH217517   7.727   1.362   1.043
 5859TIP3    H117518   7.684   1.279   1.063
 5859TIP3    H217519   7.817   1.337   1.021
 5860TIP3   OH217520   4.131   0.502   3.480
 5860TIP3    H117521   4.104   0.433   3.420
 5860TIP3    H217522   4.224   0.485   3.497
 5861TIP3   OH217523   2.657   3.074   5.698
 5861TIP3    H117524   2.642   3.051   5.790
 5861TIP3    H217525   2.676   2.991   5.655
 5862TIP3   OH217526   5.286   0.716   0.972
 5862TIP3    H117527   5.311   0.679   0.887
 5862TIP3    H217528   5.231   0.791   0.950
 5863TIP3   OH217529   0.839   1.907   5.206
 5863TIP3    H117530   0.841   1.825   5.256
 5863TIP3    H217531   0.920   1.952   5.232
 5864TIP3   OH217532   1.734   6.757   1.094
 5864TIP3    H117533   1.721   6.693   1.024
 5864TIP3    H217534   1.814   6.803   1.070
 5865TIP3   OH217535   0.529   2.182   6.794
 5865TIP3    H117536   0.517   2.171   6.700
 5865TIP3    H217537   0.547   2.093   6.826
 5866TIP3   OH217538   1.983   5.460   4.339
 5866TIP3    H117539   2.003   5.515   4.263
 5866TIP3    H217540   1.904   5.499   4.377
 5867TIP3   OH217541   7.286   5.557   1.579
 5867TIP3    H117542   7.222   5.491   1.604
 5867TIP3    H217543   7.370   5.511   1.581
 5868TIP3   OH217544   1.952   5.593   3.469
 5868TIP3    H117545   1.926   5.570   3.380
 5868TIP3    H217546   1.975   5.509   3.509
 5869TIP3   OH217547   2.052   6.857   2.340
 5869TIP3    H117548   2.037   6.799   2.265
 5869TIP3    H217549   1.965   6.870   2.378
 5870TIP3   OH217550   1.512   1.557   1.759
 5870TIP3    H117551   1.425   1.548   1.721
 5870TIP3    H217552   1.557   1.475   1.737
 5871TIP3   OH217553   2.399   0.775   3.257
 5871TIP3    H117554   2.315   0.788   3.213
 5871TIP3    H217555   2.404   0.848   3.320
 5872TIP3   OH217556   5.175   4.918   0.016
 5872TIP3    H117557   5.196   4.958   0.100
 5872TIP3    H217558   5.255   4.925  -0.035
 5873TIP3   OH217559   4.628   0.473   2.729
 5873TIP3    H117560   4.608   0.434   2.644
 5873TIP3    H217561   4.722   0.464   2.739
 5874TIP3   OH217562   7.601   4.442   5.192
 5874TIP3    H117563   7.525   4.432   5.251
 5874TIP3    H217564   7.570   4.409   5.108
 5875TIP3   OH217565   4.560   0.937   0.701
 5875TIP3    H117566   4.558   0.908   0.792
 5875TIP3    H217567   4.563   0.856   0.649
 5876TIP3   OH217568   5.755   1.906   0.468
 5876TIP3    H117569   5.788   1.844   0.404
 5876TIP3    H217570   5.672   1.937   0.431
 5877TIP3   OH217571   0.389   5.577   1.934
 5877TIP3    H117572   0.476   5.540   1.920
 5877TIP3    H217573   0.328   5.509   1.906
 5878TIP3   OH217574   1.630   7.048   0.531
 5878TIP3    H117575   1.554   7.060   0.588
 5878TIP3    H217576   1.605   6.978   0.471
 5879TIP3   OH217577   1.342   6.597   1.889
 5879TIP3    H117578   1.248   6.615   1.889
 5879TIP3    H217579   1.347   6.502   1.875
 5880TIP3   OH217580   4.193   7.685   2.694
 5880TIP3    H117581   4.155   7.768   2.667
 5880TIP3    H217582   4.120   7.636   2.731
 5881TIP3   OH217583   1.916   0.408   1.670
 5881TIP3    H117584   1.913   0.376   1.580
 5881TIP3    H217585   1.970   0.487   1.665
 5882TIP3   OH217586   7.105   1.979   6.379
 5882TIP3    H117587   7.142   2.066   6.392
 5882TIP3    H217588   7.010   1.993   6.381
 5883TIP3   OH217589   6.237   1.295   1.737
 5883TIP3    H117590   6.266   1.385   1.750
 5883TIP3    H217591   6.151   1.302   1.697
 5884TIP3   OH217592   3.620   5.302   4.212
 5884TIP3    H117593   3.641   5.246   4.138
 5884TIP3    H217594   3.627   5.246   4.289
 5885TIP3   OH217595   5.789   1.586   5.891
 5885TIP3    H117596   5.765   1.647   5.820
 5885TIP3    H217597   5.870   1.545   5.861
 5886TIP3   OH217598   6.370   2.167   5.043
 5886TIP3    H117599   6.385   2.156   5.137
 5886TIP3    H217600   6.388   2.081   5.006
 5887TIP3   OH217601   6.668   1.538   1.926
 5887TIP3    H117602   6.748   1.493   1.955
 5887TIP3    H217603   6.627   1.477   1.864
 5888TIP3   OH217604   8.070   7.551   2.718
 5888TIP3    H117605   8.004   7.498   2.763
 5888TIP3    H217606   8.022   7.628   2.688
 5889TIP3   OH217607   1.571   5.514   6.363
 5889TIP3    H117608   1.504   5.567   6.320
 5889TIP3    H217609   1.602   5.455   6.294
 5890TIP3   OH217610   5.697   0.450   2.636
 5890TIP3    H117611   5.729   0.403   2.713
 5890TIP3    H217612   5.701   0.386   2.565
 5891TIP3   OH217613   1.597   5.594   2.866
 5891TIP3    H117614   1.610   5.557   2.954
 5891TIP3    H217615   1.529   5.539   2.827
 5892TIP3   OH217616   2.986   4.538   3.153
 5892TIP3    H117617   2.947   4.613   3.198
 5892TIP3    H217618   3.062   4.515   3.206
 5893TIP3   OH217619   0.492   2.742   3.052
 5893TIP3    H117620   0.427   2.687   3.008
 5893TIP3    H217621   0.558   2.680   3.085
 5894TIP3   OH217622   4.006   2.045   4.553
 5894TIP3    H117623   4.095   2.012   4.544
 5894TIP3    H217624   3.956   2.001   4.484
 5895TIP3   OH217625   4.448   7.248   3.461
 5895TIP3    H117626   4.420   7.158   3.478
 5895TIP3    H217627   4.491   7.245   3.376
 5896TIP3   OH217628   5.451   5.105   4.585
 5896TIP3    H117629   5.435   5.033   4.647
 5896TIP3    H217630   5.373   5.160   4.593
 5897TIP3   OH217631   2.178   5.192   2.892
 5897TIP3    H117632   2.221   5.253   2.832
 5897TIP3    H217633   2.091   5.178   2.855
 5898TIP3   OH217634   1.354   3.367   2.129
 5898TIP3    H117635   1.361   3.272   2.139
 5898TIP3    H217636   1.260   3.382   2.117
 5899TIP3   OH217637   6.224   2.353   0.831
 5899TIP3    H117638   6.220   2.260   0.810
 5899TIP3    H217639   6.195   2.397   0.751
 5900TIP3   OH217640   1.762   5.909   0.183
 5900TIP3    H117641   1.833   5.856   0.149
 5900TIP3    H217642   1.745   5.873   0.270
 5901TIP3   OH217643   0.173   1.526   4.435
 5901TIP3    H117644   0.164   1.482   4.520
 5901TIP3    H217645   0.153   1.459   4.370
 5902TIP3   OH217646   3.059   1.448   3.504
 5902TIP3    H117647   3.051   1.365   3.457
 5902TIP3    H217648   3.013   1.433   3.587
 5903TIP3   OH217649   6.531   4.100   5.808
 5903TIP3    H117650   6.522   4.176   5.751
 5903TIP3    H217651   6.592   4.042   5.763
 5904TIP3   OH217652   3.456   4.243   1.515
 5904TIP3    H117653   3.364   4.268   1.520
 5904TIP3    H217654   3.479   4.251   1.422
 5905TIP3   OH217655   6.852   0.977   2.506
 5905TIP3    H117656   6.855   0.896   2.557
 5905TIP3    H217657   6.941   0.988   2.473
 5906TIP3   OH217658   6.526   1.636   6.026
 5906TIP3    H117659   6.448   1.606   6.072
 5906TIP3    H217660   6.599   1.593   6.072
 5907TIP3   OH217661   4.546   0.888   3.895
 5907TIP3    H117662   4.484   0.855   3.960
 5907TIP3    H217663   4.520   0.980   3.881
 5908TIP3   OH217664   2.552   2.787   5.106
 5908TIP3    H117665   2.588   2.825   5.186
 5908TIP3    H217666   2.468   2.831   5.094
 5909TIP3   OH217667   1.107   7.617   5.700
 5909TIP3    H117668   1.054   7.584   5.773
 5909TIP3    H217669   1.071   7.703   5.681
 5910TIP3   OH217670   6.474   0.118   1.348
 5910TIP3    H117671   6.483   0.144   1.439
 5910TIP3    H217672   6.563   0.123   1.312
 5911TIP3   OH217673   6.294   4.951   5.406
 5911TIP3    H117674   6.299   4.899   5.486
 5911TIP3    H217675   6.208   4.993   5.411
 5912TIP3   OH217676   5.375   4.002   3.573
 5912TIP3    H117677   5.469   4.019   3.573
 5912TIP3    H217678   5.369   3.907   3.565
 5913TIP3   OH217679   3.723   1.146   6.599
 5913TIP3    H117680   3.680   1.226   6.570
 5913TIP3    H217681   3.658   1.102   6.655
 5914TIP3   OH217682   3.726   2.537   2.762
 5914TIP3    H117683   3.711   2.480   2.837
 5914TIP3    H217684   3.789   2.489   2.708
 5915TIP3   OH217685   5.019   0.664   4.184
 5915TIP3    H117686   5.050   0.623   4.264
 5915TIP3    H217687   4.931   0.696   4.206
 5916TIP3   OH217688   7.199   1.416   1.277
 5916TIP3    H117689   7.131   1.351   1.298
 5916TIP3    H217690   7.244   1.430   1.361
 5917TIP3   OH217691   1.052   5.369   1.403
 5917TIP3    H117692   0.966   5.349   1.366
 5917TIP3    H217693   1.115   5.338   1.338
 5918TIP3   OH217694   7.175   0.872   2.752
 5918TIP3    H117695   7.122   0.792   2.752
 5918TIP3    H217696   7.200   0.884   2.660
 5919TIP3   OH217697   7.392   6.636   4.040
 5919TIP3    H117698   7.415   6.611   3.951
 5919TIP3    H217699   7.396   6.732   4.039
 5920TIP3   OH217700   1.851   1.455   4.368
 5920TIP3    H117701   1.877   1.464   4.459
 5920TIP3    H217702   1.906   1.519   4.321
 5921TIP3   OH217703   1.664   3.294   3.963
 5921TIP3    H117704   1.626   3.233   3.900
 5921TIP3    H217705   1.588   3.333   4.007
 5922TIP3   OH217706   6.051   2.318   1.572
 5922TIP3    H117707   6.008   2.348   1.652
 5922TIP3    H217708   6.039   2.223   1.573
 5923TIP3   OH217709   2.574   2.590   1.595
 5923TIP3    H117710   2.508   2.560   1.533
 5923TIP3    H217711   2.626   2.653   1.547
 5924TIP3   OH217712   0.282   7.207   6.192
 5924TIP3    H117713   0.196   7.201   6.151
 5924TIP3    H217714   0.309   7.116   6.205
 5925TIP3   OH217715   0.214   0.360   2.112
 5925TIP3    H117716   0.304   0.328   2.126
 5925TIP3    H217717   0.165   0.282   2.086
 5926TIP3   OH217718   4.881   7.768   4.345
 5926TIP3    H117719   4.857   7.818   4.267
 5926TIP3    H217720   4.862   7.677   4.322
 5927TIP3   OH217721   5.897   7.678   1.978
 5927TIP3    H117722   5.992   7.687   1.985
 5927TIP3    H217723   5.880   7.678   1.883
 5928TIP3   OH217724   4.609   4.253   2.222
 5928TIP3    H117725   4.691   4.275   2.265
 5928TIP3    H217726   4.559   4.336   2.221
 5929TIP3   OH217727   0.507   0.549   6.562
 5929TIP3    H117728   0.467   0.591   6.486
 5929TIP3    H217729   0.560   0.618   6.602
 5930TIP3   OH217730   7.055   6.543   1.069
 5930TIP3    H117731   7.141   6.584   1.059
 5930TIP3    H217732   7.008   6.566   0.989
 5931TIP3   OH217733   0.616   2.424   0.385
 5931TIP3    H117734   0.699   2.470   0.395
 5931TIP3    H217735   0.551   2.485   0.420
 5932TIP3   OH217736   5.458   4.125   0.319
 5932TIP3    H117737   5.459   4.164   0.231
 5932TIP3    H217738   5.523   4.055   0.314
 5933TIP3   OH217739   6.881   4.305   2.719
 5933TIP3    H117740   6.845   4.284   2.634
 5933TIP3    H217741   6.868   4.400   2.728
 5934TIP3   OH217742   4.811   0.977   2.941
 5934TIP3    H117743   4.812   1.045   3.008
 5934TIP3    H217744   4.883   0.919   2.966
 5935TIP3   OH217745   1.637   4.461   5.804
 5935TIP3    H117746   1.699   4.388   5.805
 5935TIP3    H217747   1.593   4.453   5.719
 5936TIP3   OH217748   6.124   2.705   3.726
 5936TIP3    H117749   6.191   2.750   3.676
 5936TIP3    H217750   6.041   2.741   3.694
 5937TIP3   OH217751   5.270   6.591   1.539
 5937TIP3    H117752   5.358   6.593   1.501
 5937TIP3    H217753   5.245   6.499   1.537
 5938TIP3   OH217754   1.748   3.201   6.659
 5938TIP3    H117755   1.801   3.185   6.581
 5938TIP3    H217756   1.704   3.118   6.676
 5939TIP3   OH217757   0.983   4.759   4.944
 5939TIP3    H117758   1.038   4.682   4.938
 5939TIP3    H217759   0.949   4.757   5.034
 5940TIP3   OH217760   4.361   3.284   0.339
 5940TIP3    H117761   4.455   3.292   0.358
 5940TIP3    H217762   4.318   3.301   0.422
 5941TIP3   OH217763   5.165   1.222   0.485
 5941TIP3    H117764   5.100   1.261   0.426
 5941TIP3    H217765   5.202   1.150   0.435
 5942TIP3   OH217766   8.366   3.198   5.496
 5942TIP3    H117767   8.444   3.240   5.533
 5942TIP3    H217768   8.334   3.142   5.566
 5943TIP3   OH217769   1.264   2.295   3.672
 5943TIP3    H117770   1.346   2.333   3.705
 5943TIP3    H217771   1.293   2.234   3.603
 5944TIP3   OH217772   6.462   1.803   2.645
 5944TIP3    H117773   6.543   1.802   2.696
 5944TIP3    H217774   6.488   1.774   2.558
 5945TIP3   OH217775   0.265   7.579   2.145
 5945TIP3    H117776   0.204   7.648   2.119
 5945TIP3    H217777   0.281   7.596   2.238
 5946TIP3   OH217778   1.908   7.402   5.713
 5946TIP3    H117779   1.866   7.482   5.746
 5946TIP3    H217780   1.891   7.404   5.619
 5947TIP3   OH217781   8.065   2.454   4.082
 5947TIP3    H117782   8.115   2.518   4.032
 5947TIP3    H217783   8.096   2.369   4.050
 5948TIP3   OH217784   4.386   1.998   1.534
 5948TIP3    H117785   4.424   2.072   1.580
 5948TIP3    H217786   4.461   1.944   1.508
 5949TIP3   OH217787   5.039   6.063   5.399
 5949TIP3    H117788   5.130   6.058   5.429
 5949TIP3    H217789   5.003   6.139   5.445
 5950TIP3   OH217790   3.404   0.063   6.435
 5950TIP3    H117791   3.483   0.096   6.476
 5950TIP3    H217792   3.412   0.089   6.343
 5951TIP3   OH217793   2.177   5.758   0.045
 5951TIP3    H117794   2.113   5.781   0.112
 5951TIP3    H217795   2.226   5.685   0.082
 5952TIP3   OH217796   0.806   5.861   6.350
 5952TIP3    H117797   0.781   5.782   6.302
 5952TIP3    H217798   0.749   5.930   6.315
 5953TIP3   OH217799   3.573   3.360   3.695
 5953TIP3    H117800   3.510   3.419   3.654
 5953TIP3    H217801   3.647   3.359   3.634
 5954TIP3   OH217802   1.830   7.402   3.441
 5954TIP3    H117803   1.786   7.323   3.410
 5954TIP3    H217804   1.770   7.473   3.420
 5955TIP3   OH217805   5.655   1.593   5.383
 5955TIP3    H117806   5.633   1.555   5.468
 5955TIP3    H217807   5.625   1.684   5.389
 5956TIP3   OH217808   3.073   0.538   0.630
 5956TIP3    H117809   3.007   0.506   0.690
 5956TIP3    H217810   3.070   0.634   0.639
 5957TIP3   OH217811   2.158   1.250   2.858
 5957TIP3    H117812   2.236   1.204   2.889
 5957TIP3    H217813   2.117   1.285   2.937
 5958TIP3   OH217814   4.829   2.352   1.308
 5958TIP3    H117815   4.889   2.361   1.382
 5958TIP3    H217816   4.874   2.293   1.248
 5959TIP3   OH217817   3.542   1.023   4.867
 5959TIP3    H117818   3.576   1.108   4.839
 5959TIP3    H217819   3.501   1.041   4.952
 5960TIP3   OH217820   4.755   5.610   3.014
 5960TIP3    H117821   4.834   5.637   2.968
 5960TIP3    H217822   4.730   5.527   2.974
 5961TIP3   OH217823   0.735   4.453   6.277
 5961TIP3    H117824   0.743   4.502   6.195
 5961TIP3    H217825   0.824   4.422   6.294
 5962TIP3   OH217826   6.822   3.205   3.685
 5962TIP3    H117827   6.802   3.294   3.714
 5962TIP3    H217828   6.913   3.191   3.712
 5963TIP3   OH217829   2.590   0.863   2.140
 5963TIP3    H117830   2.528   0.790   2.140
 5963TIP3    H217831   2.535   0.941   2.134
 5964TIP3   OH217832   7.125   6.179   2.565
 5964TIP3    H117833   7.178   6.117   2.614
 5964TIP3    H217834   7.063   6.124   2.516
 5965TIP3   OH217835   0.443   3.300   2.176
 5965TIP3    H117836   0.420   3.208   2.189
 5965TIP3    H217837   0.501   3.299   2.100
 5966TIP3   OH217838   7.612   5.761   2.139
 5966TIP3    H117839   7.654   5.728   2.219
 5966TIP3    H217840   7.529   5.712   2.135
 5967TIP3   OH217841   5.623   2.181   2.323
 5967TIP3    H117842   5.603   2.124   2.249
 5967TIP3    H217843   5.687   2.243   2.289
 5968TIP3   OH217844   5.432   0.868   2.502
 5968TIP3    H117845   5.493   0.911   2.442
 5968TIP3    H217846   5.397   0.795   2.451
 5969TIP3   OH217847   5.750   7.652   5.643
 5969TIP3    H117848   5.797   7.569   5.655
 5969TIP3    H217849   5.660   7.633   5.670
 5970TIP3   OH217850   7.325   1.277   5.534
 5970TIP3    H117851   7.396   1.333   5.566
 5970TIP3    H217852   7.331   1.283   5.438
 5971TIP3   OH217853   2.253   1.511   2.206
 5971TIP3    H117854   2.180   1.557   2.247
 5971TIP3    H217855   2.234   1.514   2.113
 5972TIP3   OH217856   7.390   1.650   0.190
 5972TIP3    H117857   7.361   1.704   0.263
 5972TIP3    H217858   7.410   1.565   0.229
 5973TIP3   OH217859   2.684   3.837   4.399
 5973TIP3    H117860   2.734   3.763   4.431
 5973TIP3    H217861   2.606   3.799   4.360
 5974TIP3   OH217862   3.974   5.941   3.354
 5974TIP3    H117863   4.065   5.914   3.369
 5974TIP3    H217864   3.952   5.995   3.430
 5975TIP3   OH217865   6.289   7.427   3.879
 5975TIP3    H117866   6.364   7.393   3.831
 5975TIP3    H217867   6.260   7.354   3.933
 5976TIP3   OH217868   6.310   0.306   3.345
 5976TIP3    H117869   6.341   0.216   3.350
 5976TIP3    H217870   6.355   0.343   3.268
 5977TIP3   OH217871   4.675   0.475   1.515
 5977TIP3    H117872   4.693   0.429   1.433
 5977TIP3    H217873   4.632   0.409   1.570
 5978TIP3   OH217874   7.686   6.002   3.337
 5978TIP3    H117875   7.718   6.008   3.426
 5978TIP3    H217876   7.686   6.093   3.305
 5979TIP3   OH217877   3.033   4.072   5.030
 5979TIP3    H117878   3.008   4.141   4.969
 5979TIP3    H217879   2.952   4.047   5.073
 5980TIP3   OH217880   6.478   5.544   6.347
 5980TIP3    H117881   6.507   5.552   6.256
 5980TIP3    H217882   6.474   5.634   6.379
 5981TIP3   OH217883   7.900   6.944   5.942
 5981TIP3    H117884   7.872   6.868   5.992
 5981TIP3    H217885   7.825   7.004   5.945
 5982TIP3   OH217886   3.518   6.893   6.231
 5982TIP3    H117887   3.507   6.805   6.193
 5982TIP3    H217888   3.568   6.878   6.311
 5983TIP3   OH217889   4.291   3.647   4.649
 5983TIP3    H117890   4.260   3.732   4.616
 5983TIP3    H217891   4.249   3.638   4.735
 5984TIP3   OH217892   7.325   4.222   4.521
 5984TIP3    H117893   7.400   4.199   4.466
 5984TIP3    H217894   7.290   4.138   4.550
 5985TIP3   OH217895   6.078   6.271   6.162
 5985TIP3    H117896   6.155   6.328   6.168
 5985TIP3    H217897   6.004   6.332   6.157
 5986TIP3   OH217898   1.727   6.206   1.850
 5986TIP3    H117899   1.720   6.276   1.786
 5986TIP3    H217900   1.656   6.222   1.912
 5987TIP3   OH217901   5.938   7.117   3.261
 5987TIP3    H117902   5.969   7.040   3.309
 5987TIP3    H217903   6.008   7.136   3.198
 5988TIP3   OH217904   0.150   1.891   4.805
 5988TIP3    H117905   0.178   1.907   4.715
 5988TIP3    H217906   0.193   1.809   4.830
 5989TIP3   OH217907   2.315   1.742   4.380
 5989TIP3    H117908   2.296   1.798   4.304
 5989TIP3    H217909   2.410   1.745   4.389
 5990TIP3   OH217910   4.463   1.095   2.561
 5990TIP3    H117911   4.406   1.070   2.634
 5990TIP3    H217912   4.546   1.118   2.603
 5991TIP3   OH217913   8.097   0.170   4.566
 5991TIP3    H117914   8.023   0.112   4.548
 5991TIP3    H217915   8.110   0.163   4.661
 5992TIP3   OH217916   7.569   1.637   5.319
 5992TIP3    H117917   7.631   1.631   5.246
 5992TIP3    H217918   7.619   1.604   5.394
 5993TIP3   OH217919   7.318   5.419   0.606
 5993TIP3    H117920   7.294   5.415   0.514
 5993TIP3    H217921   7.238   5.397   0.653
 5994TIP3   OH217922   5.865   0.942   5.553
 5994TIP3    H117923   5.909   0.863   5.524
 5994TIP3    H217924   5.830   0.981   5.473
 5995TIP3   OH217925   8.257   7.060   1.722
 5995TIP3    H117926   8.168   7.047   1.753
 5995TIP3    H217927   8.250   7.054   1.626
 5996TIP3   OH217928   7.919   0.656   2.860
 5996TIP3    H117929   7.854   0.602   2.814
 5996TIP3    H217930   7.964   0.704   2.791
 5997TIP3   OH217931   1.015   6.422   5.657
 5997TIP3    H117932   1.106   6.450   5.658
 5997TIP3    H217933   0.981   6.455   5.574
 5998TIP3   OH217934   4.723   2.967   3.503
 5998TIP3    H117935   4.772   3.026   3.447
 5998TIP3    H217936   4.779   2.954   3.580
 5999TIP3   OH217937   5.940   0.276   2.216
 5999TIP3    H117938   6.033   0.273   2.240
 5999TIP3    H217939   5.939   0.255   2.123
 6000TIP3   OH217940   7.611   5.718   5.446
 6000TIP3    H117941   7.591   5.628   5.421
 6000TIP3    H217942   7.593   5.769   5.368
 6001TIP3   OH217943   5.480   0.267   3.216
 6001TIP3    H117944   5.417   0.290   3.285
 6001TIP3    H217945   5.440   0.298   3.135
 6002TIP3   OH217946   4.056   2.687   3.823
 6002TIP3    H117947   4.060   2.607   3.771
 6002TIP3    H217948   4.073   2.757   3.760
 6003TIP3   OH217949   3.272   7.046   2.877
 6003TIP3    H117950   3.286   7.107   2.804
 6003TIP3    H217951   3.342   6.982   2.868
 6004TIP3   OH217952   8.253   5.526   0.425
 6004TIP3    H117953   8.310   5.489   0.492
 6004TIP3    H217954   8.169   5.483   0.438
 6005TIP3   OH217955   0.122   3.849   1.929
 6005TIP3    H117956   0.142   3.757   1.944
 6005TIP3    H217957   0.178   3.896   1.990
 6006TIP3   OH217958   6.295   5.655   1.867
 6006TIP3    H117959   6.305   5.749   1.879
 6006TIP3    H217960   6.263   5.622   1.951
 6007TIP3   OH217961   4.216   0.272   0.915
 6007TIP3    H117962   4.143   0.251   0.857
 6007TIP3    H217963   4.282   0.205   0.895
 6008TIP3   OH217964   3.880   4.497   0.503
 6008TIP3    H117965   3.950   4.559   0.518
 6008TIP3    H217966   3.902   4.422   0.559
 6009TIP3   OH217967   2.650   4.661   0.741
 6009TIP3    H117968   2.574   4.632   0.792
 6009TIP3    H217969   2.658   4.596   0.671
 6010TIP3   OH217970   7.041   7.131   1.755
 6010TIP3    H117971   7.021   7.039   1.773
 6010TIP3    H217972   6.964   7.179   1.785
 6011TIP3   OH217973   4.262   6.023   3.360
 6011TIP3    H117974   4.317   6.100   3.374
 6011TIP3    H217975   4.318   5.961   3.315
 6012TIP3   OH217976   5.169   2.420   1.216
 6012TIP3    H117977   5.180   2.470   1.135
 6012TIP3    H217978   5.099   2.358   1.196
 6013TIP3   OH217979   1.670   1.260   1.402
 6013TIP3    H117980   1.590   1.302   1.371
 6013TIP3    H217981   1.730   1.265   1.327
 6014TIP3   OH217982   1.799   7.511   2.084
 6014TIP3    H117983   1.793   7.482   2.175
 6014TIP3    H217984   1.848   7.442   2.040
 6015TIP3   OH217985   1.330   0.563   4.037
 6015TIP3    H117986   1.247   0.516   4.038
 6015TIP3    H217987   1.340   0.596   4.127
 6016TIP3   OH217988   8.195   1.263   5.802
 6016TIP3    H117989   8.162   1.179   5.769
 6016TIP3    H217990   8.213   1.247   5.894
 6017TIP3   OH217991   5.948   3.303   1.089
 6017TIP3    H117992   5.940   3.383   1.037
 6017TIP3    H217993   5.932   3.232   1.027
 6018TIP3   OH217994   2.585   3.715   0.121
 6018TIP3    H117995   2.672   3.681   0.101
 6018TIP3    H217996   2.547   3.736   0.036
 6019TIP3   OH217997   4.770   3.575   5.607
 6019TIP3    H117998   4.865   3.576   5.605
 6019TIP3    H217999   4.747   3.617   5.690
 6020TIP3   OH218000   2.274   4.843   1.398
 6020TIP3    H118001   2.290   4.932   1.366
 6020TIP3    H218002   2.298   4.787   1.324
 6021TIP3   OH218003   2.666   0.464   6.406
 6021TIP3    H118004   2.731   0.532   6.427
 6021TIP3    H218005   2.612   0.457   6.485
 6022TIP3   OH218006   6.489   5.487   1.804
 6022TIP3    H118007   6.440   5.426   1.860
 6022TIP3    H218008   6.434   5.566   1.801
 6023TIP3   OH218009   1.364   4.507   1.365
 6023TIP3    H118010   1.350   4.520   1.271
 6023TIP3    H218011   1.328   4.420   1.382
 6024TIP3   OH218012   2.212   7.740   1.171
 6024TIP3    H118013   2.296   7.723   1.213
 6024TIP3    H218014   2.206   7.675   1.101
 6025TIP3   OH218015   1.221   5.794   4.181
 6025TIP3    H118016   1.198   5.828   4.267
 6025TIP3    H218017   1.180   5.855   4.119
 6026TIP3   OH218018   3.471   4.632   1.007
 6026TIP3    H118019   3.386   4.652   1.047
 6026TIP3    H218020   3.530   4.699   1.042
 6027TIP3   OH218021   8.318   2.379   2.091
 6027TIP3    H118022   8.252   2.350   2.028
 6027TIP3    H218023   8.296   2.471   2.108
 6028TIP3   OH218024   1.686   7.042   0.849
 6028TIP3    H118025   1.681   6.995   0.765
 6028TIP3    H218026   1.646   6.982   0.912
 6029TIP3   OH218027   8.356   3.141   4.188
 6029TIP3    H118028   8.402   3.169   4.267
 6029TIP3    H218029   8.402   3.063   4.159
 6030TIP3   OH218030   7.510   7.413   0.890
 6030TIP3    H118031   7.480   7.406   0.981
 6030TIP3    H218032   7.581   7.477   0.893
 6031TIP3   OH218033   1.531   5.418   4.819
 6031TIP3    H118034   1.472   5.457   4.883
 6031TIP3    H218035   1.618   5.446   4.846
 6032TIP3   OH218036   7.941   1.254   4.752
 6032TIP3    H118037   8.013   1.315   4.769
 6032TIP3    H218038   7.976   1.194   4.686
 6033TIP3   OH218039   6.194   7.685   1.995
 6033TIP3    H118040   6.234   7.717   2.076
 6033TIP3    H218041   6.259   7.623   1.959
 6034TIP3   OH218042   0.852   2.984   0.258
 6034TIP3    H118043   0.829   2.917   0.322
 6034TIP3    H218044   0.769   3.006   0.216
 6035TIP3   OH218045   6.829   4.353   0.798
 6035TIP3    H118046   6.865   4.361   0.886
 6035TIP3    H218047   6.894   4.394   0.741
 6036TIP3   OH218048   6.631   5.838   4.672
 6036TIP3    H118049   6.639   5.882   4.757
 6036TIP3    H218050   6.684   5.890   4.613
 6037TIP3   OH218051   1.897   3.353   2.556
 6037TIP3    H118052   1.952   3.371   2.632
 6037TIP3    H218053   1.896   3.434   2.506
 6038TIP3   OH218054   6.465   3.445   2.712
 6038TIP3    H118055   6.449   3.526   2.760
 6038TIP3    H218056   6.474   3.378   2.780
 6039TIP3   OH218057   2.586   7.059   0.922
 6039TIP3    H118058   2.536   7.091   0.846
 6039TIP3    H218059   2.595   6.965   0.906
 6040TIP3   OH218060   7.342   2.981   1.103
 6040TIP3    H118061   7.413   3.033   1.139
 6040TIP3    H218062   7.310   2.929   1.177
 6041TIP3   OH218063   6.798   1.009   1.925
 6041TIP3    H118064   6.731   0.944   1.905
 6041TIP3    H218065   6.867   0.995   1.860
 6042TIP3   OH218066   2.329   7.851   0.359
 6042TIP3    H118067   2.256   7.801   0.395
 6042TIP3    H218068   2.407   7.812   0.398
 6043TIP3   OH218069   0.838   1.447   4.318
 6043TIP3    H118070   0.758   1.487   4.283
 6043TIP3    H218071   0.854   1.372   4.260
 6044TIP3   OH218072   1.182   6.276   0.434
 6044TIP3    H118073   1.087   6.268   0.443
 6044TIP3    H218074   1.198   6.265   0.341
 6045TIP3   OH218075   3.664   6.368   5.372
 6045TIP3    H118076   3.605   6.304   5.332
 6045TIP3    H218077   3.618   6.452   5.361
 6046TIP3   OH218078   5.021   0.706   5.671
 6046TIP3    H118079   5.072   0.697   5.752
 6046TIP3    H218080   5.015   0.801   5.658
 6047TIP3   OH218081   5.258   3.020   1.838
 6047TIP3    H118082   5.267   2.992   1.929
 6047TIP3    H218083   5.260   2.939   1.787
 6048TIP3   OH218084   8.396   1.732   6.080
 6048TIP3    H118085   8.442   1.700   6.157
 6048TIP3    H218086   8.327   1.668   6.065
 6049TIP3   OH218087   2.190   0.592   3.589
 6049TIP3    H118088   2.155   0.641   3.514
 6049TIP3    H218089   2.217   0.660   3.651
 6050TIP3   OH218090   1.764   1.031   2.855
 6050TIP3    H118091   1.676   1.023   2.892
 6050TIP3    H218092   1.754   1.093   2.783
 6051TIP3   OH218093   6.958   7.158   4.310
 6051TIP3    H118094   7.024   7.165   4.379
 6051TIP3    H218095   6.894   7.096   4.345
 6052TIP3   OH218096   2.320   1.509   6.766
 6052TIP3    H118097   2.302   1.595   6.728
 6052TIP3    H218098   2.244   1.456   6.741
 6053TIP3   OH218099   2.623   7.656   0.371
 6053TIP3    H118100   2.618   7.685   0.280
 6053TIP3    H218101   2.700   7.599   0.374
 6054TIP3   OH218102   1.517   0.653   2.388
 6054TIP3    H118103   1.545   0.568   2.355
 6054TIP3    H218104   1.422   0.646   2.393
 6055TIP3   OH218105   4.879   6.354   3.396
 6055TIP3    H118106   4.887   6.449   3.385
 6055TIP3    H218107   4.925   6.318   3.320
 6056TIP3   OH218108   0.285   0.960   2.631
 6056TIP3    H118109   0.217   0.916   2.581
 6056TIP3    H218110   0.309   1.036   2.578
 6057TIP3   OH218111   1.150   1.552   6.819
 6057TIP3    H118112   1.188   1.610   6.752
 6057TIP3    H218113   1.207   1.562   6.895
 6058TIP3   OH218114   5.431   6.477   2.719
 6058TIP3    H118115   5.449   6.494   2.812
 6058TIP3    H218116   5.502   6.521   2.673
 6059TIP3   OH218117   1.728   0.383   3.110
 6059TIP3    H118118   1.696   0.335   3.033
 6059TIP3    H218119   1.724   0.475   3.084
 6060TIP3   OH218120   6.150   0.290   1.286
 6060TIP3    H118121   6.086   0.223   1.310
 6060TIP3    H218122   6.221   0.241   1.245
 6061TIP3   OH218123   7.426   4.373   1.020
 6061TIP3    H118124   7.425   4.376   0.925
 6061TIP3    H218125   7.428   4.465   1.047
 6062TIP3   OH218126   0.109   3.594   0.435
 6062TIP3    H118127   0.035   3.565   0.488
 6062TIP3    H218128   0.101   3.689   0.431
 6063TIP3   OH218129   5.774   1.779   6.718
 6063TIP3    H118130   5.771   1.854   6.658
 6063TIP3    H218131   5.784   1.703   6.661
 6064TIP3   OH218132   2.966   7.774   3.734
 6064TIP3    H118133   2.953   7.867   3.712
 6064TIP3    H218134   3.059   7.769   3.758
 6065TIP3   OH218135   8.135   6.561   4.362
 6065TIP3    H118136   8.068   6.580   4.295
 6065TIP3    H218137   8.218   6.561   4.314
 6066TIP3   OH218138   2.485   3.947   6.128
 6066TIP3    H118139   2.470   4.006   6.202
 6066TIP3    H218140   2.528   4.001   6.062
 6067TIP3   OH218141   4.240   1.158   1.624
 6067TIP3    H118142   4.324   1.115   1.640
 6067TIP3    H218143   4.207   1.117   1.544
 6068TIP3   OH218144   6.668   3.682   5.400
 6068TIP3    H118145   6.673   3.590   5.426
 6068TIP3    H218146   6.577   3.707   5.415
 6069TIP3   OH218147   2.419   5.079   3.534
 6069TIP3    H118148   2.386   5.027   3.608
 6069TIP3    H218149   2.355   5.150   3.525
 6070TIP3   OH218150   4.943   3.348   4.872
 6070TIP3    H118151   4.959   3.255   4.889
 6070TIP3    H218152   4.927   3.354   4.778
 6071TIP3   OH218153   5.698   7.858   2.679
 6071TIP3    H118154   5.678   7.944   2.715
 6071TIP3    H218155   5.671   7.864   2.587
 6072TIP3   OH218156   5.122   5.424   5.671
 6072TIP3    H118157   5.136   5.366   5.597
 6072TIP3    H218158   5.081   5.369   5.737
 6073TIP3   OH218159   3.871   1.756   4.425
 6073TIP3    H118160   3.833   1.810   4.495
 6073TIP3    H218161   3.959   1.736   4.456
 6074TIP3   OH218162   6.919   2.125   3.185
 6074TIP3    H118163   6.863   2.168   3.121
 6074TIP3    H218164   6.981   2.193   3.213
 6075TIP3   OH218165   8.076   6.129   0.679
 6075TIP3    H118166   8.018   6.077   0.624
 6075TIP3    H218167   8.163   6.094   0.662
 6076TIP3   OH218168   7.746   1.969   5.248
 6076TIP3    H118169   7.658   1.941   5.224
 6076TIP3    H218170   7.740   2.065   5.254
 6077TIP3   OH218171   7.134   3.808   0.550
 6077TIP3    H118172   7.210   3.861   0.573
 6077TIP3    H218173   7.065   3.837   0.611
 6078TIP3   OH218174   3.462   2.251   4.162
 6078TIP3    H118175   3.472   2.291   4.075
 6078TIP3    H218176   3.370   2.224   4.165
 6079TIP3   OH218177   7.776   7.871   3.422
 6079TIP3    H118178   7.726   7.818   3.361
 6079TIP3    H218179   7.867   7.841   3.411
 6080TIP3   OH218180   1.720   6.680   6.421
 6080TIP3    H118181   1.686   6.599   6.383
 6080TIP3    H218182   1.677   6.686   6.507
 6081TIP3   OH218183   3.500   3.040   0.350
 6081TIP3    H118184   3.480   3.095   0.274
 6081TIP3    H218185   3.551   2.967   0.314
 6082TIP3   OH218186   8.056   4.891   1.825
 6082TIP3    H118187   8.068   4.976   1.866
 6082TIP3    H218188   7.961   4.876   1.828
 6083TIP3   OH218189   1.668   4.508   0.078
 6083TIP3    H118190   1.651   4.438   0.014
 6083TIP3    H218191   1.702   4.580   0.025
 6084TIP3   OH218192   0.229   7.829   5.302
 6084TIP3    H118193   0.139   7.842   5.332
 6084TIP3    H218194   0.240   7.894   5.232
 6085TIP3   OH218195   0.699   1.535   2.602
 6085TIP3    H118196   0.652   1.609   2.640
 6085TIP3    H218197   0.661   1.458   2.645
 6086TIP3   OH218198   2.775   2.964   6.180
 6086TIP3    H118199   2.701   2.957   6.240
 6086TIP3    H218200   2.788   2.875   6.147
 6087TIP3   OH218201   4.704   2.870   1.951
 6087TIP3    H118202   4.651   2.924   2.009
 6087TIP3    H218203   4.661   2.877   1.866
 6088TIP3   OH218204   5.853   6.617   5.630
 6088TIP3    H118205   5.829   6.632   5.539
 6088TIP3    H218206   5.837   6.701   5.673
 6089TIP3   OH218207   8.094   3.420   0.034
 6089TIP3    H118208   8.116   3.495  -0.022
 6089TIP3    H218209   8.081   3.348  -0.027
 6090TIP3   OH218210   4.478   3.562   0.624
 6090TIP3    H118211   4.477   3.622   0.699
 6090TIP3    H218212   4.425   3.488   0.652
 6091TIP3   OH218213   4.834   0.299   4.029
 6091TIP3    H118214   4.927   0.280   4.041
 6091TIP3    H218215   4.833   0.372   3.967
 6092TIP3   OH218216   2.231   7.024   0.441
 6092TIP3    H118217   2.256   7.112   0.468
 6092TIP3    H218218   2.143   7.035   0.404
 6093TIP3   OH218219   4.848   3.162   2.644
 6093TIP3    H118220   4.883   3.251   2.651
 6093TIP3    H218221   4.760   3.173   2.610
 6094TIP3   OH218222   1.406   6.784   4.643
 6094TIP3    H118223   1.395   6.816   4.732
 6094TIP3    H218224   1.317   6.778   4.608
 6095TIP3   OH218225   1.687   3.536   6.752
 6095TIP3    H118226   1.732   3.464   6.796
 6095TIP3    H218227   1.624   3.494   6.694
 6096TIP3   OH218228   7.348   3.677   3.224
 6096TIP3    H118229   7.407   3.694   3.151
 6096TIP3    H218230   7.375   3.739   3.291
 6097TIP3   OH218231   1.945   6.210   6.196
 6097TIP3    H118232   1.900   6.293   6.179
 6097TIP3    H218233   2.018   6.209   6.134
 6098TIP3   OH218234   7.788   1.167   3.926
 6098TIP3    H118235   7.749   1.239   3.876
 6098TIP3    H218236   7.726   1.095   3.914
 6099TIP3   OH218237   0.876   0.894   4.687
 6099TIP3    H118238   0.894   0.986   4.705
 6099TIP3    H218239   0.883   0.851   4.773
 6100TIP3   OH218240   4.365   0.937   3.571
 6100TIP3    H118241   4.341   0.889   3.650
 6100TIP3    H218242   4.292   0.921   3.510
 6101TIP3   OH218243   5.993   6.441   5.212
 6101TIP3    H118244   5.920   6.478   5.162
 6101TIP3    H218245   5.956   6.364   5.255
 6102TIP3   OH218246   7.704   5.050   3.103
 6102TIP3    H118247   7.687   5.134   3.145
 6102TIP3    H218248   7.748   4.998   3.171
 6103TIP3   OH218249   5.309   1.122   4.757
 6103TIP3    H118250   5.264   1.114   4.673
 6103TIP3    H218251   5.383   1.063   4.751
 6104TIP3   OH218252   0.729   5.711   3.482
 6104TIP3    H118253   0.726   5.651   3.407
 6104TIP3    H218254   0.709   5.655   3.558
 6105TIP3   OH218255   6.396   2.517   5.532
 6105TIP3    H118256   6.445   2.501   5.452
 6105TIP3    H218257   6.306   2.534   5.502
 6106TIP3   OH218258   5.151   1.533   6.300
 6106TIP3    H118259   5.191   1.597   6.358
 6106TIP3    H218260   5.089   1.583   6.247
 6107TIP3   OH218261   0.625   3.248   0.528
 6107TIP3    H118262   0.554   3.256   0.591
 6107TIP3    H218263   0.621   3.328   0.476
 6108TIP3   OH218264   5.245   1.997   6.571
 6108TIP3    H118265   5.155   2.029   6.566
 6108TIP3    H218266   5.243   1.911   6.529
 6109TIP3   OH218267   0.887   5.074   6.779
 6109TIP3    H118268   0.980   5.082   6.801
 6109TIP3    H218269   0.854   5.163   6.785
 6110TIP3   OH218270   2.851   4.308   5.286
 6110TIP3    H118271   2.855   4.366   5.210
 6110TIP3    H218272   2.814   4.362   5.356
 6111TIP3   OH218273   3.583   7.843   0.325
 6111TIP3    H118274   3.626   7.870   0.244
 6111TIP3    H218275   3.611   7.752   0.338
 6112TIP3   OH218276   5.068   3.422   3.499
 6112TIP3    H118277   4.977   3.418   3.526
 6112TIP3    H218278   5.067   3.398   3.406
 6113TIP3   OH218279   5.018   2.386   4.945
 6113TIP3    H118280   4.967   2.365   5.023
 6113TIP3    H218281   5.052   2.474   4.963
 6114TIP3   OH218282   3.584   0.382   6.787
 6114TIP3    H118283   3.498   0.419   6.806
 6114TIP3    H218284   3.566   0.292   6.762
 6115TIP3   OH218285   3.810   2.924   6.481
 6115TIP3    H118286   3.788   2.832   6.490
 6115TIP3    H218287   3.733   2.971   6.513
 6116TIP3   OH218288   3.834   2.911   3.517
 6116TIP3    H118289   3.804   2.858   3.443
 6116TIP3    H218290   3.758   2.917   3.575
 6117TIP3   OH218291   2.343   2.053   0.652
 6117TIP3    H118292   2.344   2.148   0.638
 6117TIP3    H218293   2.389   2.018   0.576
 6118TIP3   OH218294   1.751   3.545   4.137
 6118TIP3    H118295   1.669   3.573   4.178
 6118TIP3    H218296   1.818   3.599   4.180
 6119TIP3   OH218297   3.123   2.304   6.652
 6119TIP3    H118298   3.201   2.249   6.648
 6119TIP3    H218299   3.051   2.247   6.625
 6120TIP3   OH218300   4.831   6.673   2.483
 6120TIP3    H118301   4.804   6.651   2.572
 6120TIP3    H218302   4.803   6.598   2.430
 6121TIP3   OH218303   4.277   5.770   0.256
 6121TIP3    H118304   4.286   5.858   0.291
 6121TIP3    H218305   4.366   5.736   0.252
 6122TIP3   OH218306   0.271   1.457   3.726
 6122TIP3    H118307   0.223   1.446   3.644
 6122TIP3    H218308   0.223   1.526   3.772
 6123TIP3   OH218309   7.584   4.207   4.431
 6123TIP3    H118310   7.638   4.281   4.400
 6123TIP3    H218311   7.541   4.174   4.352
 6124TIP3   OH218312   0.321   0.291   4.293
 6124TIP3    H118313   0.291   0.209   4.332
 6124TIP3    H218314   0.395   0.318   4.347
 6125TIP3   OH218315   6.904   2.822   5.888
 6125TIP3    H118316   6.939   2.734   5.902
 6125TIP3    H218317   6.958   2.859   5.819
 6126TIP3   OH218318   0.649   1.946   4.268
 6126TIP3    H118319   0.667   1.908   4.354
 6126TIP3    H218320   0.554   1.957   4.267
 6127TIP3   OH218321   1.195   0.431   2.480
 6127TIP3    H118322   1.164   0.387   2.402
 6127TIP3    H218323   1.179   0.369   2.551
 6128TIP3   OH218324   5.567   4.483   2.306
 6128TIP3    H118325   5.574   4.401   2.354
 6128TIP3    H218326   5.623   4.471   2.229
 6129TIP3   OH218327   1.480   5.388   0.498
 6129TIP3    H118328   1.532   5.315   0.462
 6129TIP3    H218329   1.440   5.429   0.421
 6130TIP3   OH218330   1.551   6.099   1.336
 6130TIP3    H118331   1.540   6.173   1.395
 6130TIP3    H218332   1.466   6.088   1.294
 6131TIP3   OH218333   7.266   5.825   1.500
 6131TIP3    H118334   7.288   5.732   1.511
 6131TIP3    H218335   7.200   5.841   1.567
 6132TIP3   OH218336   6.961   2.672   6.572
 6132TIP3    H118337   7.003   2.589   6.594
 6132TIP3    H218338   7.030   2.737   6.583
 6133TIP3   OH218339   1.187   5.892   2.913
 6133TIP3    H118340   1.167   5.863   3.003
 6133TIP3    H218341   1.222   5.980   2.924
 6134TIP3   OH218342   4.363   4.747   0.960
 6134TIP3    H118343   4.280   4.748   0.912
 6134TIP3    H218344   4.402   4.832   0.941
 6135TIP3   OH218345   4.922   6.818   2.141
 6135TIP3    H118346   4.912   6.911   2.163
 6135TIP3    H218347   4.990   6.817   2.074
 6136TIP3   OH218348   4.220   4.062   5.304
 6136TIP3    H118349   4.305   4.043   5.343
 6136TIP3    H218350   4.160   4.001   5.346
 6137TIP3   OH218351   5.418   6.028   1.772
 6137TIP3    H118352   5.498   6.034   1.721
 6137TIP3    H218353   5.410   6.113   1.815
 6138TIP3   OH218354   2.508   3.483   0.949
 6138TIP3    H118355   2.548   3.535   1.019
 6138TIP3    H218356   2.517   3.537   0.871
 6139TIP3   OH218357   4.195   5.851   4.019
 6139TIP3    H118358   4.210   5.934   3.973
 6139TIP3    H218359   4.123   5.810   3.971
 6140TIP3   OH218360   4.209   0.773   0.398
 6140TIP3    H118361   4.276   0.783   0.466
 6140TIP3    H218362   4.220   0.850   0.342
 6141TIP3   OH218363   6.654   2.797   4.757
 6141TIP3    H118364   6.615   2.776   4.672
 6141TIP3    H218365   6.687   2.713   4.789
 6142TIP3   OH218366   6.610   7.885   3.501
 6142TIP3    H118367   6.549   7.952   3.533
 6142TIP3    H218368   6.649   7.924   3.423
 6143TIP3   OH218369   1.801   1.920   6.555
 6143TIP3    H118370   1.726   1.960   6.598
 6143TIP3    H218371   1.764   1.880   6.475
 6144TIP3   OH218372   7.071   0.444   6.763
 6144TIP3    H118373   7.065   0.370   6.704
 6144TIP3    H218374   7.096   0.518   6.707
 6145TIP3   OH218375   8.235   7.292   4.031
 6145TIP3    H118376   8.218   7.198   4.026
 6145TIP3    H218377   8.288   7.302   4.110
 6146TIP3   OH218378   7.676   5.415   5.084
 6146TIP3    H118379   7.759   5.389   5.043
 6146TIP3    H218380   7.680   5.510   5.088
 6147TIP3   OH218381   8.384   3.249   6.670
 6147TIP3    H118382   8.420   3.327   6.629
 6147TIP3    H218383   8.449   3.223   6.734
 6148TIP3   OH218384   7.861   2.776   6.605
 6148TIP3    H118385   7.774   2.815   6.595
 6148TIP3    H218386   7.862   2.744   6.695
 6149TIP3   OH218387   0.601   6.080   0.069
 6149TIP3    H118388   0.601   5.994   0.110
 6149TIP3    H218389   0.540   6.131   0.122
 6150TIP3   OH218390   3.866   4.384   5.765
 6150TIP3    H118391   3.818   4.402   5.846
 6150TIP3    H218392   3.958   4.382   5.792
 6151TIP3   OH218393   4.874   3.813   2.049
 6151TIP3    H118394   4.941   3.755   2.012
 6151TIP3    H218395   4.901   3.901   2.022
 6152TIP3   OH218396   6.970   0.048   4.276
 6152TIP3    H118397   7.037   0.111   4.304
 6152TIP3    H218398   6.899   0.060   4.338
 6153TIP3   OH218399   4.001   4.761   5.035
 6153TIP3    H118400   3.910   4.786   5.049
 6153TIP3    H218401   4.038   4.833   4.983
 6154TIP3   OH218402   0.571   1.129   3.266
 6154TIP3    H118403   0.608   1.210   3.301
 6154TIP3    H218404   0.516   1.158   3.193
 6155TIP3   OH218405   1.878   6.840   4.586
 6155TIP3    H118406   1.973   6.841   4.594
 6155TIP3    H218407   1.856   6.928   4.554
 6156TIP3   OH218408   6.247   6.458   5.293
 6156TIP3    H118409   6.247   6.362   5.299
 6156TIP3    H218410   6.159   6.480   5.262
 6157TIP3   OH218411   7.087   7.157   0.536
 6157TIP3    H118412   7.051   7.075   0.568
 6157TIP3    H218413   7.165   7.132   0.487
 6158TIP3   OH218414   2.047   1.799   2.741
 6158TIP3    H118415   2.136   1.769   2.762
 6158TIP3    H218416   2.046   1.891   2.767
 6159TIP3   OH218417   3.063   5.665   3.791
 6159TIP3    H118418   3.084   5.624   3.707
 6159TIP3    H218419   3.099   5.753   3.785
 6160TIP3   OH218420   7.988   7.083   5.327
 6160TIP3    H118421   7.932   7.064   5.402
 6160TIP3    H218422   8.076   7.092   5.364
 6161TIP3   OH218423   4.394   1.155   5.571
 6161TIP3    H118424   4.364   1.092   5.636
 6161TIP3    H218425   4.383   1.110   5.487
 6162TIP3   OH218426   5.503   0.466   4.603
 6162TIP3    H118427   5.453   0.441   4.681
 6162TIP3    H218428   5.497   0.561   4.601
 6163TIP3   OH218429   4.407   6.631   0.432
 6163TIP3    H118430   4.451   6.608   0.513
 6163TIP3    H218431   4.399   6.726   0.435
 6164TIP3   OH218432   0.784   3.478   0.766
 6164TIP3    H118433   0.796   3.521   0.681
 6164TIP3    H218434   0.695   3.503   0.793
 6165TIP3   OH218435   3.010   2.286   2.271
 6165TIP3    H118436   3.086   2.228   2.272
 6165TIP3    H218437   3.015   2.334   2.354
 6166TIP3   OH218438   8.008   1.800   4.709
 6166TIP3    H118439   8.101   1.808   4.727
 6166TIP3    H218440   8.004   1.769   4.618
 6167TIP3   OH218441   1.047   7.226   4.956
 6167TIP3    H118442   1.086   7.279   4.887
 6167TIP3    H218443   1.071   7.271   5.037
 6168TIP3   OH218444   6.764   6.059   5.675
 6168TIP3    H118445   6.834   5.999   5.647
 6168TIP3    H218446   6.770   6.060   5.770
 6169TIP3   OH218447   2.926   1.367   1.302
 6169TIP3    H118448   2.982   1.341   1.229
 6169TIP3    H218449   2.912   1.286   1.352
 6170TIP3   OH218450   0.092   3.157   1.174
 6170TIP3    H118451   0.161   3.099   1.208
 6170TIP3    H218452   0.126   3.245   1.188
 6171TIP3   OH218453   4.792   2.597   5.235
 6171TIP3    H118454   4.866   2.552   5.195
 6171TIP3    H218455   4.783   2.678   5.185
 6172TIP3   OH218456   1.848   5.281   0.576
 6172TIP3    H118457   1.829   5.344   0.506
 6172TIP3    H218458   1.941   5.295   0.595
 6173TIP3   OH218459   4.343   0.457   3.936
 6173TIP3    H118460   4.312   0.397   4.004
 6173TIP3    H218461   4.262   0.493   3.899
 6174TIP3   OH218462   8.074   0.522   1.704
 6174TIP3    H118463   8.084   0.536   1.610
 6174TIP3    H218464   8.127   0.444   1.722
 6175TIP3   OH218465   4.314   3.468   5.160
 6175TIP3    H118466   4.409   3.466   5.164
 6175TIP3    H218467   4.291   3.392   5.107
 6176TIP3   OH218468   4.491   5.292   2.588
 6176TIP3    H118469   4.441   5.237   2.527
 6176TIP3    H218470   4.451   5.378   2.580
 6177TIP3   OH218471   5.455   2.619   6.100
 6177TIP3    H118472   5.440   2.679   6.026
 6177TIP3    H218473   5.532   2.569   6.074
 6178TIP3   OH218474   2.658   1.567   5.393
 6178TIP3    H118475   2.567   1.557   5.364
 6178TIP3    H218476   2.655   1.634   5.461
 6179TIP3   OH218477   6.175   0.141   0.711
 6179TIP3    H118478   6.139   0.081   0.775
 6179TIP3    H218479   6.162   0.097   0.627
 6180TIP3   OH218480   8.208   6.491   2.095
 6180TIP3    H118481   8.265   6.445   2.157
 6180TIP3    H218482   8.266   6.550   2.047
 6181TIP3   OH218483   7.774   5.514   6.061
 6181TIP3    H118484   7.747   5.479   6.146
 6181TIP3    H218485   7.713   5.586   6.044
 6182TIP3   OH218486   6.285   0.699   3.451
 6182TIP3    H118487   6.300   0.633   3.519
 6182TIP3    H218488   6.214   0.753   3.486
 6183TIP3   OH218489   5.974   2.491   5.938
 6183TIP3    H118490   5.930   2.457   6.016
 6183TIP3    H218491   6.024   2.566   5.970
 6184TIP3   OH218492   1.427   4.899   1.976
 6184TIP3    H118493   1.456   4.813   2.008
 6184TIP3    H218494   1.332   4.890   1.967
 6185TIP3   OH218495   6.545   0.091   6.657
 6185TIP3    H118496   6.475   0.054   6.602
 6185TIP3    H218497   6.582   0.015   6.703
 6186TIP3   OH218498   1.564   4.698   2.689
 6186TIP3    H118499   1.551   4.623   2.749
 6186TIP3    H218500   1.546   4.775   2.743
 6187TIP3   OH218501   5.070   3.286   0.172
 6187TIP3    H118502   5.134   3.355   0.156
 6187TIP3    H218503   5.068   3.276   0.267
 6188TIP3   OH218504   1.582   4.572   6.060
 6188TIP3    H118505   1.604   4.546   5.971
 6188TIP3    H218506   1.492   4.606   6.054
 6189TIP3   OH218507   1.277   5.675   5.899
 6189TIP3    H118508   1.227   5.755   5.914
 6189TIP3    H218509   1.212   5.605   5.902
 6190TIP3   OH218510   2.306   2.878   5.171
 6190TIP3    H118511   2.288   2.826   5.250
 6190TIP3    H218512   2.235   2.855   5.111
 6191TIP3   OH218513   0.023   2.376   6.212
 6191TIP3    H118514   0.001   2.434   6.139
 6191TIP3    H218515   0.002   2.426   6.290
 6192TIP3   OH218516   6.562   5.797   2.620
 6192TIP3    H118517   6.540   5.890   2.622
 6192TIP3    H218518   6.562   5.773   2.527
 6193TIP3   OH218519   7.922   1.825   2.479
 6193TIP3    H118520   7.916   1.807   2.573
 6193TIP3    H218521   7.953   1.744   2.440
 6194TIP3   OH218522   1.027   1.177   4.586
 6194TIP3    H118523   1.085   1.210   4.655
 6194TIP3    H218524   0.945   1.223   4.601
 6195TIP3   OH218525   2.929   2.506   1.213
 6195TIP3    H118526   2.956   2.512   1.121
 6195TIP3    H218527   2.987   2.440   1.251
 6196TIP3   OH218528   7.871   2.572   4.946
 6196TIP3    H118529   7.795   2.584   4.889
 6196TIP3    H218530   7.926   2.649   4.929
 6197TIP3   OH218531   1.126   6.130   5.447
 6197TIP3    H118532   1.122   6.121   5.542
 6197TIP3    H218533   1.045   6.173   5.423
 6198TIP3   OH218534   0.405   5.030   4.922
 6198TIP3    H118535   0.350   5.067   4.990
 6198TIP3    H218536   0.358   5.046   4.841
 6199TIP3   OH218537   7.130   7.036   6.678
 6199TIP3    H118538   7.188   6.961   6.692
 6199TIP3    H218539   7.043   7.003   6.699
 6200TIP3   OH218540   1.493   2.735   6.101
 6200TIP3    H118541   1.419   2.794   6.118
 6200TIP3    H218542   1.468   2.688   6.022
 6201TIP3   OH218543   5.296   5.671   0.906
 6201TIP3    H118544   5.345   5.604   0.954
 6201TIP3    H218545   5.358   5.743   0.895
 6202TIP3   OH218546   2.552   1.169   4.375
 6202TIP3    H118547   2.617   1.214   4.320
 6202TIP3    H218548   2.513   1.239   4.428
 6203TIP3   OH218549   1.766   0.752   1.067
 6203TIP3    H118550   1.697   0.799   1.115
 6203TIP3    H218551   1.818   0.822   1.027
 6204TIP3   OH218552   5.429   3.443   1.201
 6204TIP3    H118553   5.430   3.439   1.297
 6204TIP3    H218554   5.420   3.536   1.181
 6205TIP3   OH218555   0.008   5.094   3.836
 6205TIP3    H118556   0.002   5.025   3.769
 6205TIP3    H218557   0.092   5.136   3.819
 6206TIP3   OH218558   4.080   7.548   1.804
 6206TIP3    H118559   4.093   7.494   1.882
 6206TIP3    H218560   4.111   7.493   1.732
 6207TIP3   OH218561   2.816   1.147   3.432
 6207TIP3    H118562   2.748   1.205   3.397
 6207TIP3    H218563   2.828   1.081   3.364
 6208TIP3   OH218564   6.888   1.341   4.647
 6208TIP3    H118565   6.807   1.295   4.671
 6208TIP3    H218566   6.948   1.271   4.621
 6209TIP3   OH218567   1.971   3.066   2.468
 6209TIP3    H118568   2.006   3.111   2.391
 6209TIP3    H218569   1.880   3.094   2.473
 6210TIP3   OH218570   5.466   5.999   1.259
 6210TIP3    H118571   5.505   5.942   1.325
 6210TIP3    H218572   5.529   6.070   1.248
 6211TIP3   OH218573   8.178   1.892   1.126
 6211TIP3    H118574   8.123   1.910   1.049
 6211TIP3    H218575   8.197   1.978   1.162
 6212TIP3   OH218576   4.621   1.533   0.496
 6212TIP3    H118577   4.553   1.574   0.550
 6212TIP3    H218578   4.701   1.540   0.548
 6213TIP3   OH218579   2.858   0.950   4.503
 6213TIP3    H118580   2.914   0.981   4.432
 6213TIP3    H218581   2.914   0.954   4.581
 6214TIP3   OH218582   3.453   0.550   5.721
 6214TIP3    H118583   3.479   0.501   5.643
 6214TIP3    H218584   3.447   0.483   5.790
 6215TIP3   OH218585   4.265   0.743   2.850
 6215TIP3    H118586   4.193   0.741   2.913
 6215TIP3    H218587   4.340   0.776   2.900
 6216TIP3   OH218588   3.708   3.805   0.527
 6216TIP3    H118589   3.613   3.810   0.518
 6216TIP3    H218590   3.733   3.889   0.567
 6217TIP3   OH218591   1.647   0.807   0.041
 6217TIP3    H118592   1.605   0.830  -0.042
 6217TIP3    H218593   1.725   0.758   0.016
 6218TIP3   OH218594   5.914   6.188   3.832
 6218TIP3    H118595   5.979   6.126   3.799
 6218TIP3    H218596   5.964   6.267   3.851
 6219TIP3   OH218597   4.562   6.734   4.017
 6219TIP3    H118598   4.594   6.645   4.025
 6219TIP3    H218599   4.546   6.763   4.107
 6220TIP3   OH218600   1.680   5.865   3.139
 6220TIP3    H118601   1.713   5.775   3.141
 6220TIP3    H218602   1.705   5.898   3.053
 6221TIP3   OH218603   3.552   2.284   3.167
 6221TIP3    H118604   3.554   2.380   3.175
 6221TIP3    H218605   3.582   2.253   3.252
 6222TIP3   OH218606   8.400   0.625   3.832
 6222TIP3    H118607   8.383   0.618   3.738
 6222TIP3    H218608   8.385   0.536   3.865
 6223TIP3   OH218609   4.791   1.173   4.681
 6223TIP3    H118610   4.868   1.223   4.705
 6223TIP3    H218611   4.730   1.237   4.645
 6224TIP3   OH218612   2.379   4.120   3.171
 6224TIP3    H118613   2.287   4.148   3.166
 6224TIP3    H218614   2.386   4.078   3.256
 6225TIP3   OH218615   0.854   5.989   0.492
 6225TIP3    H118616   0.875   5.935   0.416
 6225TIP3    H218617   0.902   6.070   0.477
 6226TIP3   OH218618   2.298   0.324   4.719
 6226TIP3    H118619   2.344   0.406   4.703
 6226TIP3    H218620   2.210   0.338   4.686
 6227TIP3   OH218621   5.954   7.819   1.545
 6227TIP3    H118622   5.982   7.911   1.547
 6227TIP3    H218623   6.001   7.779   1.618
 6228TIP3   OH218624   7.112   1.198   0.583
 6228TIP3    H118625   7.180   1.263   0.566
 6228TIP3    H218626   7.030   1.244   0.564
 6229TIP3   OH218627   5.422   5.958   4.502
 6229TIP3    H118628   5.374   5.993   4.577
 6229TIP3    H218629   5.514   5.980   4.519
 6230TIP3   OH218630   3.522   6.450   2.962
 6230TIP3    H118631   3.565   6.516   3.017
 6230TIP3    H218632   3.508   6.375   3.020
 6231TIP3   OH218633   5.527   2.508   0.528
 6231TIP3    H118634   5.492   2.595   0.542
 6231TIP3    H218635   5.621   2.520   0.521
 6232TIP3   OH218636   7.845   0.288   4.025
 6232TIP3    H118637   7.898   0.274   4.103
 6232TIP3    H218638   7.832   0.200   3.989
 6233TIP3   OH218639   2.708   5.329   6.205
 6233TIP3    H118640   2.783   5.387   6.220
 6233TIP3    H218641   2.747   5.243   6.188
 6234TIP3   OH218642   0.231   7.663   1.007
 6234TIP3    H118643   0.263   7.737   0.955
 6234TIP3    H218644   0.294   7.656   1.079
 6235TIP3   OH218645   6.010   7.119   4.488
 6235TIP3    H118646   5.984   7.207   4.516
 6235TIP3    H218647   6.051   7.080   4.565
 6236TIP3   OH218648   7.507   4.904   1.294
 6236TIP3    H118649   7.520   4.981   1.238
 6236TIP3    H218650   7.463   4.939   1.371
 6237TIP3   OH218651   4.792   4.258   1.116
 6237TIP3    H118652   4.802   4.168   1.083
 6237TIP3    H218653   4.851   4.310   1.062
 6238TIP3   OH218654   3.063   6.760   0.198
 6238TIP3    H118655   2.979   6.782   0.159
 6238TIP3    H218656   3.055   6.668   0.223
 6239TIP3   OH218657   8.336   4.053   2.774
 6239TIP3    H118658   8.270   3.985   2.785
 6239TIP3    H218659   8.417   4.005   2.757
 6240TIP3   OH218660   7.231   1.230   2.093
 6240TIP3    H118661   7.217   1.231   2.188
 6240TIP3    H218662   7.160   1.175   2.059
 6241TIP3   OH218663   7.204   2.231   6.409
 6241TIP3    H118664   7.223   2.258   6.319
 6241TIP3    H218665   7.277   2.264   6.460
 6242TIP3   OH218666   2.708   1.128   1.111
 6242TIP3    H118667   2.748   1.200   1.062
 6242TIP3    H218668   2.780   1.090   1.162
 6243TIP3   OH218669   6.075   6.135   3.218
 6243TIP3    H118670   6.001   6.127   3.277
 6243TIP3    H218671   6.076   6.052   3.170
 6244TIP3   OH218672   5.859   5.528   3.177
 6244TIP3    H118673   5.794   5.460   3.195
 6244TIP3    H218674   5.934   5.505   3.233
 6245TIP3   OH218675   1.261   2.093   2.579
 6245TIP3    H118676   1.166   2.086   2.590
 6245TIP3    H218677   1.293   2.004   2.593
 6246TIP3   OH218678   5.657   3.038   3.764
 6246TIP3    H118679   5.714   3.113   3.745
 6246TIP3    H218680   5.707   2.985   3.826
 6247TIP3   OH218681   1.194   4.274   6.589
 6247TIP3    H118682   1.110   4.231   6.577
 6247TIP3    H218683   1.225   4.241   6.674
 6248TIP3   OH218684   7.712   0.731   3.712
 6248TIP3    H118685   7.752   0.735   3.798
 6248TIP3    H218686   7.624   0.698   3.728
 6249TIP3   OH218687   3.095   2.702   5.821
 6249TIP3    H118688   3.188   2.678   5.817
 6249TIP3    H218689   3.095   2.796   5.841
 6250TIP3   OH218690   3.708   0.631   4.657
 6250TIP3    H118691   3.761   0.558   4.624
 6250TIP3    H218692   3.628   0.628   4.604
 6251TIP3   OH218693   3.647   2.434   0.081
 6251TIP3    H118694   3.666   2.476  -0.003
 6251TIP3    H218695   3.612   2.348   0.059
 6252TIP3   OH218696   4.037   0.715   4.058
 6252TIP3    H118697   3.975   0.712   4.131
 6252TIP3    H218698   4.068   0.805   4.056
 6253TIP3   OH218699   4.728   6.978   6.119
 6253TIP3    H118700   4.714   7.016   6.206
 6253TIP3    H218701   4.655   6.918   6.107
 6254TIP3   OH218702   1.795   6.644   4.381
 6254TIP3    H118703   1.743   6.620   4.305
 6254TIP3    H218704   1.735   6.633   4.455
 6255TIP3   OH218705   2.205   4.419   0.145
 6255TIP3    H118706   2.272   4.373   0.094
 6255TIP3    H218707   2.152   4.466   0.079
 6256TIP3   OH218708   3.079   6.518   4.049
 6256TIP3    H118709   3.044   6.481   3.969
 6256TIP3    H218710   3.068   6.613   4.038
 6257TIP3   OH218711   0.905   6.072   0.893
 6257TIP3    H118712   0.823   6.089   0.940
 6257TIP3    H218713   0.881   6.009   0.826
 6258TIP3   OH218714   5.154   7.420   1.669
 6258TIP3    H118715   5.135   7.479   1.596
 6258TIP3    H218716   5.167   7.478   1.744
 6259TIP3   OH218717   7.131   3.434   1.615
 6259TIP3    H118718   7.074   3.435   1.692
 6259TIP3    H218719   7.086   3.377   1.553
 6260TIP3   OH218720   3.720   2.479   1.753
 6260TIP3    H118721   3.666   2.508   1.679
 6260TIP3    H218722   3.683   2.524   1.829
 6261TIP3   OH218723   5.451   4.743   4.638
 6261TIP3    H118724   5.408   4.675   4.587
 6261TIP3    H218725   5.388   4.815   4.639
 6262TIP3   OH218726   8.329   0.737   0.341
 6262TIP3    H118727   8.311   0.805   0.406
 6262TIP3    H218728   8.255   0.677   0.348
 6263TIP3   OH218729   5.263   2.633   6.324
 6263TIP3    H118730   5.189   2.573   6.315
 6263TIP3    H218731   5.310   2.626   6.240
 6264TIP3   OH218732   4.100   4.531   4.226
 6264TIP3    H118733   4.063   4.544   4.314
 6264TIP3    H218734   4.193   4.514   4.241
 6265TIP3   OH218735   7.583   4.055   5.147
 6265TIP3    H118736   7.578   4.150   5.155
 6265TIP3    H218737   7.492   4.026   5.144
 6266TIP3   OH218738   2.814   7.575   4.948
 6266TIP3    H118739   2.855   7.529   5.021
 6266TIP3    H218740   2.720   7.560   4.960
 6267TIP3   OH218741   4.231   4.302   6.231
 6267TIP3    H118742   4.271   4.261   6.154
 6267TIP3    H218743   4.158   4.244   6.254
 6268TIP3   OH218744   5.200   5.336   5.947
 6268TIP3    H118745   5.111   5.357   5.919
 6268TIP3    H218746   5.246   5.420   5.943
 6269TIP3   OH218747   5.441   5.334   0.255
 6269TIP3    H118748   5.514   5.389   0.228
 6269TIP3    H218749   5.469   5.296   0.338
 6270TIP3   OH218750   2.421   0.563   1.440
 6270TIP3    H118751   2.379   0.505   1.504
 6270TIP3    H218752   2.445   0.641   1.490
 6271TIP3   OH218753   7.312   2.892   4.046
 6271TIP3    H118754   7.362   2.970   4.021
 6271TIP3    H218755   7.296   2.846   3.964
 6272TIP3   OH218756   3.980   2.356   2.777
 6272TIP3    H118757   3.980   2.337   2.683
 6272TIP3    H218758   3.983   2.270   2.819
 6273TIP3   OH218759   5.492   5.727   4.797
 6273TIP3    H118760   5.582   5.694   4.796
 6273TIP3    H218761   5.462   5.718   4.706
 6274TIP3   OH218762   7.855   2.599   6.815
 6274TIP3    H118763   7.882   2.526   6.759
 6274TIP3    H218764   7.895   2.581   6.900
 6275TIP3   OH218765   4.953   6.516   2.059
 6275TIP3    H118766   4.946   6.610   2.078
 6275TIP3    H218767   4.908   6.473   2.133
 6276TIP3   OH218768   1.284   4.481   0.395
 6276TIP3    H118769   1.327   4.471   0.310
 6276TIP3    H218770   1.352   4.461   0.459
 6277TIP3   OH218771   6.736   4.598   5.545
 6277TIP3    H118772   6.720   4.667   5.610
 6277TIP3    H218773   6.674   4.618   5.475
 6278TIP3   OH218774   0.541   4.606   3.574
 6278TIP3    H118775   0.628   4.583   3.542
 6278TIP3    H218776   0.494   4.638   3.497
 6279TIP3   OH218777   2.358   7.287   0.493
 6279TIP3    H118778   2.274   7.321   0.461
 6279TIP3    H218779   2.405   7.364   0.525
 6280TIP3   OH218780   3.959   4.638   4.016
 6280TIP3    H118781   3.977   4.582   3.940
 6280TIP3    H218782   4.033   4.625   4.074
 6281TIP3   OH218783   6.586   4.755   2.140
 6281TIP3    H118784   6.627   4.827   2.188
 6281TIP3    H218785   6.645   4.738   2.067
 6282TIP3   OH218786   1.691   7.676   6.294
 6282TIP3    H118787   1.619   7.645   6.240
 6282TIP3    H218788   1.710   7.604   6.354
 6283TIP3   OH218789   5.979   1.293   4.812
 6283TIP3    H118790   5.984   1.306   4.718
 6283TIP3    H218791   6.046   1.351   4.848
 6284TIP3   OH218792   7.078   5.570   2.651
 6284TIP3    H118793   7.035   5.634   2.709
 6284TIP3    H218794   7.108   5.501   2.711
 6285TIP3   OH218795   7.557   6.881   6.162
 6285TIP3    H118796   7.641   6.836   6.174
 6285TIP3    H218797   7.542   6.882   6.068
 6286TIP3   OH218798   8.155   2.093   4.616
 6286TIP3    H118799   8.197   2.175   4.643
 6286TIP3    H218800   8.134   2.049   4.698
 6287TIP3   OH218801   7.160   5.293   1.639
 6287TIP3    H118802   7.186   5.256   1.723
 6287TIP3    H218803   7.236   5.277   1.582
 6288TIP3   OH218804   7.079   0.303   4.407
 6288TIP3    H118805   7.157   0.303   4.351
 6288TIP3    H218806   7.112   0.281   4.494
 6289TIP3   OH218807   4.048   2.170   5.658
 6289TIP3    H118808   4.136   2.178   5.620
 6289TIP3    H218809   4.026   2.260   5.683
 6290TIP3   OH218810   3.329   5.240   3.308
 6290TIP3    H118811   3.328   5.328   3.344
 6290TIP3    H218812   3.409   5.200   3.344
 6291TIP3   OH218813   6.652   1.940   4.134
 6291TIP3    H118814   6.589   1.941   4.062
 6291TIP3    H218815   6.715   1.872   4.109
 6292TIP3   OH218816   4.019   7.529   3.530
 6292TIP3    H118817   4.060   7.553   3.613
 6292TIP3    H218818   4.047   7.439   3.514
 6293TIP3   OH218819   3.411   6.185   3.649
 6293TIP3    H118820   3.371   6.124   3.712
 6293TIP3    H218821   3.442   6.258   3.703
 6294TIP3   OH218822   2.966   5.871   5.005
 6294TIP3    H118823   3.013   5.847   4.925
 6294TIP3    H218824   2.924   5.790   5.034
 6295TIP3   OH218825   0.329   2.533   0.119
 6295TIP3    H118826   0.360   2.583   0.044
 6295TIP3    H218827   0.298   2.450   0.082
 6296TIP3   OH218828   6.358   4.290   2.365
 6296TIP3    H118829   6.363   4.385   2.358
 6296TIP3    H218830   6.406   4.258   2.288
 6297TIP3   OH218831   5.908   6.070   2.945
 6297TIP3    H118832   5.952   6.015   3.010
 6297TIP3    H218833   5.899   6.013   2.868
 6298TIP3   OH218834   6.406   3.585   6.343
 6298TIP3    H118835   6.422   3.637   6.265
 6298TIP3    H218836   6.342   3.520   6.317
 6299TIP3   OH218837   0.515   3.075   5.438
 6299TIP3    H118838   0.442   3.043   5.384
 6299TIP3    H218839   0.524   3.010   5.507
 6300TIP3   OH218840   8.326   6.979   5.443
 6300TIP3    H118841   8.271   7.047   5.406
 6300TIP3    H218842   8.265   6.915   5.479
 6301TIP3   OH218843   2.076   3.777   2.715
 6301TIP3    H118844   2.079   3.831   2.794
 6301TIP3    H218845   2.142   3.709   2.730
 6302TIP3   OH218846   8.335   2.381   4.494
 6302TIP3    H118847   8.305   2.353   4.581
 6302TIP3    H218848   8.263   2.357   4.435
 6303TIP3   OH218849   5.444   3.717   1.309
 6303TIP3    H118850   5.412   3.649   1.368
 6303TIP3    H218851   5.530   3.686   1.280
 6304TIP3   OH218852   6.946   2.307   3.846
 6304TIP3    H118853   7.003   2.384   3.854
 6304TIP3    H218854   6.958   2.278   3.755
 6305TIP3   OH218855   0.290   3.210   5.525
 6305TIP3    H118856   0.373   3.176   5.490
 6305TIP3    H218857   0.310   3.301   5.549
 6306TIP3   OH218858   5.014   4.834   5.002
 6306TIP3    H118859   5.071   4.811   5.076
 6306TIP3    H218860   4.965   4.910   5.033
 6307TIP3   OH218861   1.459   1.017   1.450
 6307TIP3    H118862   1.534   1.076   1.458
 6307TIP3    H218863   1.426   1.010   1.540
 6308TIP3   OH218864   3.608   7.455   4.859
 6308TIP3    H118865   3.562   7.477   4.778
 6308TIP3    H218866   3.549   7.484   4.929
 6309TIP3   OH218867   1.249   5.906   5.298
 6309TIP3    H118868   1.189   5.950   5.358
 6309TIP3    H218869   1.192   5.869   5.230
 6310TIP3   OH218870   0.272   2.359   4.714
 6310TIP3    H118871   0.281   2.329   4.623
 6310TIP3    H218872   0.250   2.451   4.706
 6311TIP3   OH218873   1.045   5.784   6.201
 6311TIP3    H118874   0.979   5.748   6.260
 6311TIP3    H218875   1.066   5.870   6.239
 6312TIP3   OH218876   4.013   5.513   3.716
 6312TIP3    H118877   3.936   5.506   3.774
 6312TIP3    H218878   4.055   5.427   3.722
 6313TIP3   OH218879   2.307   0.927   1.865
 6313TIP3    H118880   2.274   0.990   1.801
 6313TIP3    H218881   2.397   0.955   1.882
 6314TIP3   OH218882   7.587   1.207   3.073
 6314TIP3    H118883   7.631   1.149   3.136
 6314TIP3    H218884   7.500   1.222   3.110
 6315TIP3   OH218885   1.962   6.677   2.109
 6315TIP3    H118886   2.042   6.680   2.056
 6315TIP3    H218887   1.914   6.756   2.085
 6316TIP3   OH218888   0.929   7.583   0.976
 6316TIP3    H118889   0.992   7.618   1.039
 6316TIP3    H218890   0.927   7.649   0.906
 6317TIP3   OH218891   5.440   3.498   1.489
 6317TIP3    H118892   5.530   3.482   1.516
 6317TIP3    H218893   5.387   3.472   1.565
 6318TIP3   OH218894   7.468   1.903   3.524
 6318TIP3    H118895   7.427   1.843   3.461
 6318TIP3    H218896   7.491   1.848   3.599
 6319TIP3   OH218897   7.159   0.220   2.676
 6319TIP3    H118898   7.199   0.146   2.722
 6319TIP3    H218899   7.129   0.279   2.745
 6320TIP3   OH218900   1.836   6.108   5.890
 6320TIP3    H118901   1.830   6.135   5.798
 6320TIP3    H218902   1.907   6.161   5.926
 6321TIP3   OH218903   0.833   7.139   1.076
 6321TIP3    H118904   0.896   7.177   1.137
 6321TIP3    H218905   0.814   7.209   1.014
 6322TIP3   OH218906   5.674   7.156   2.391
 6322TIP3    H118907   5.726   7.171   2.312
 6322TIP3    H218908   5.605   7.222   2.387
 6323TIP3   OH218909   2.774   1.257   6.322
 6323TIP3    H118910   2.797   1.201   6.397
 6323TIP3    H218911   2.803   1.208   6.245
 6324TIP3   OH218912   1.608   1.308   1.655
 6324TIP3    H118913   1.634   1.299   1.563
 6324TIP3    H218914   1.632   1.225   1.695
 6325TIP3   OH218915   7.097   0.547   4.876
 6325TIP3    H118916   7.051   0.596   4.944
 6325TIP3    H218917   7.089   0.455   4.902
 6326TIP3   OH218918   6.631   4.258   6.830
 6326TIP3    H118919   6.625   4.339   6.779
 6326TIP3    H218920   6.725   4.238   6.831
 6327TIP3   OH218921   1.608   7.410   0.929
 6327TIP3    H118922   1.662   7.386   0.853
 6327TIP3    H218923   1.542   7.341   0.933
 6328TIP3   OH218924   3.233   0.519   1.898
 6328TIP3    H118925   3.190   0.471   1.827
 6328TIP3    H218926   3.250   0.606   1.861
 6329TIP3   OH218927   0.101   6.565   3.498
 6329TIP3    H118928   0.182   6.517   3.514
 6329TIP3    H218929   0.086   6.555   3.403
 6330TIP3   OH218930   1.807   5.514   1.688
 6330TIP3    H118931   1.844   5.575   1.625
 6330TIP3    H218932   1.756   5.569   1.748
 6331TIP3   OH218933   6.612   3.310   1.598
 6331TIP3    H118934   6.627   3.294   1.691
 6331TIP3    H218935   6.523   3.346   1.594
 6332TIP3   OH218936   5.836   0.084   2.404
 6332TIP3    H118937   5.908   0.148   2.407
 6332TIP3    H218938   5.788   0.100   2.486
 6333TIP3   OH218939   0.914   0.805   0.674
 6333TIP3    H118940   0.855   0.880   0.677
 6333TIP3    H218941   1.001   0.844   0.671
 6334TIP3   OH218942   7.367   0.164   4.871
 6334TIP3    H118943   7.432   0.233   4.882
 6334TIP3    H218944   7.319   0.188   4.791
 6335TIP3   OH218945   7.420   0.844   3.419
 6335TIP3    H118946   7.512   0.820   3.431
 6335TIP3    H218947   7.407   0.841   3.324
 6336TIP3   OH218948   7.372   0.927   3.678
 6336TIP3    H118949   7.280   0.903   3.689
 6336TIP3    H218950   7.391   0.909   3.586
 6337TIP3   OH218951   1.585   1.551   5.327
 6337TIP3    H118952   1.633   1.634   5.329
 6337TIP3    H218953   1.540   1.547   5.412
 6338TIP3   OH218954   2.794   0.353   5.581
 6338TIP3    H118955   2.724   0.377   5.520
 6338TIP3    H218956   2.873   0.391   5.543
 6339TIP3   OH218957   2.515   5.898   0.248
 6339TIP3    H118958   2.468   5.977   0.221
 6339TIP3    H218959   2.528   5.908   0.342
 6340TIP3   OH218960   3.968   5.720   6.718
 6340TIP3    H118961   4.060   5.706   6.701
 6340TIP3    H218962   3.944   5.795   6.663
 6341TIP3   OH218963   3.440   5.027   4.638
 6341TIP3    H118964   3.459   5.111   4.680
 6341TIP3    H218965   3.456   4.962   4.706
 6342TIP3   OH218966   3.000   7.709   2.520
 6342TIP3    H118967   3.049   7.689   2.440
 6342TIP3    H218968   2.952   7.789   2.499
 6343TIP3   OH218969   6.722   3.797   5.146
 6343TIP3    H118970   6.679   3.730   5.092
 6343TIP3    H218971   6.733   3.755   5.232
 6344TIP3   OH218972   0.800   0.964   1.911
 6344TIP3    H118973   0.872   0.944   1.971
 6344TIP3    H218974   0.786   1.058   1.921
 6345TIP3   OH218975   1.582   2.447   2.601
 6345TIP3    H118976   1.533   2.422   2.680
 6345TIP3    H218977   1.554   2.384   2.535
 6346TIP3   OH218978   1.498   0.032   2.513
 6346TIP3    H118979   1.565   0.032   2.581
 6346TIP3    H218980   1.521  -0.043   2.457
 6347TIP3   OH218981   6.749   6.560   1.905
 6347TIP3    H118982   6.686   6.554   1.834
 6347TIP3    H218983   6.702   6.529   1.982
 6348TIP3   OH218984   4.656   0.478   3.231
 6348TIP3    H118985   4.566   0.454   3.209
 6348TIP3    H218986   4.648   0.533   3.309
 6349TIP3   OH218987   7.568   3.579   6.023
 6349TIP3    H118988   7.554   3.669   5.994
 6349TIP3    H218989   7.663   3.569   6.024
 6350TIP3   OH218990   0.121   5.082   6.799
 6350TIP3    H118991   0.052   5.109   6.738
 6350TIP3    H218992   0.187   5.040   6.743
 6351TIP3   OH218993   1.884   5.739   5.504
 6351TIP3    H118994   1.935   5.819   5.489
 6351TIP3    H218995   1.860   5.744   5.596
 6352TIP3   OH218996   6.511   2.995   6.187
 6352TIP3    H118997   6.577   3.042   6.237
 6352TIP3    H218998   6.449   3.062   6.159
 6353TIP3   OH218999   7.114   1.645   6.477
 6353TIP3    H119000   7.055   1.710   6.516
 6353TIP3    H219001   7.161   1.609   6.552
 6354TIP3   OH219002   5.408   2.042   5.687
 6354TIP3    H119003   5.323   2.022   5.727
 6354TIP3    H219004   5.465   1.970   5.716
 6355TIP3   OH219005   1.983   6.320   1.897
 6355TIP3    H119006   1.918   6.379   1.936
 6355TIP3    H219007   1.932   6.264   1.838
 6356TIP3   OH219008   2.889   7.414   2.571
 6356TIP3    H119009   2.797   7.392   2.555
 6356TIP3    H219010   2.885   7.490   2.629
 6357TIP3   OH219011   4.839   3.427   6.485
 6357TIP3    H119012   4.883   3.448   6.568
 6357TIP3    H219013   4.855   3.504   6.430
 6358TIP3   OH219014   5.503   3.706   1.698
 6358TIP3    H119015   5.558   3.628   1.701
 6358TIP3    H219016   5.545   3.762   1.632
 6359TIP3   OH219017   8.299   1.104   4.653
 6359TIP3    H119018   8.387   1.066   4.658
 6359TIP3    H219019   8.264   1.096   4.742
 6360TIP3   OH219020   3.389   6.491   3.561
 6360TIP3    H119021   3.458   6.552   3.538
 6360TIP3    H219022   3.411   6.461   3.649
 6361TIP3   OH219023   0.415   6.337   1.236
 6361TIP3    H119024   0.480   6.396   1.274
 6361TIP3    H219025   0.411   6.362   1.144
 6362TIP3   OH219026   4.169   3.626   2.717
 6362TIP3    H119027   4.094   3.578   2.754
 6362TIP3    H219028   4.237   3.619   2.784
 6363TIP3   OH219029   4.826   1.429   2.143
 6363TIP3    H119030   4.747   1.464   2.103
 6363TIP3    H219031   4.818   1.334   2.132
 6364TIP3   OH219032   7.693   7.373   4.375
 6364TIP3    H119033   7.766   7.350   4.317
 6364TIP3    H219034   7.730   7.439   4.434
 6365TIP3   OH219035   3.185   6.921   3.450
 6365TIP3    H119036   3.240   6.853   3.411
 6365TIP3    H219037   3.246   6.992   3.470
 6366TIP3   OH219038   8.273   4.028   4.414
 6366TIP3    H119039   8.234   4.111   4.385
 6366TIP3    H219040   8.289   4.040   4.508
 6367TIP3   OH219041   2.702   5.371   0.343
 6367TIP3    H119042   2.741   5.286   0.322
 6367TIP3    H219043   2.766   5.412   0.402
 6368TIP3   OH219044   1.633   6.337   3.474
 6368TIP3    H119045   1.548   6.380   3.482
 6368TIP3    H219046   1.626   6.284   3.395
 6369TIP3   OH219047   1.280   5.759   4.652
 6369TIP3    H119048   1.345   5.824   4.623
 6369TIP3    H219049   1.198   5.787   4.611
 6370TIP3   OH219050   0.714   6.466   3.394
 6370TIP3    H119051   0.752   6.518   3.323
 6370TIP3    H219052   0.713   6.376   3.360
 6371TIP3   OH219053   7.327   5.266   1.414
 6371TIP3    H119054   7.414   5.305   1.404
 6371TIP3    H219055   7.288   5.271   1.327
 6372TIP3   OH219056   5.910   4.632   5.926
 6372TIP3    H119057   5.995   4.596   5.900
 6372TIP3    H219058   5.850   4.557   5.922
 6373TIP3   OH219059   1.796   7.100   1.627
 6373TIP3    H119060   1.862   7.141   1.684
 6373TIP3    H219061   1.751   7.174   1.586
 6374TIP3   OH219062   3.362   7.754   5.940
 6374TIP3    H119063   3.398   7.788   6.022
 6374TIP3    H219064   3.434   7.708   5.898
 6375TIP3   OH219065   0.358   3.203   5.828
 6375TIP3    H119066   0.317   3.213   5.742
 6375TIP3    H219067   0.446   3.172   5.809
 6376TIP3   OH219068   1.165   1.568   2.357
 6376TIP3    H119069   1.070   1.575   2.363
 6376TIP3    H219070   1.183   1.475   2.371
 6377TIP3   OH219071   0.013   2.168   2.322
 6377TIP3    H119072   0.091   2.118   2.347
 6377TIP3    H219073   0.040   2.218   2.245
 6378TIP3   OH219074   8.095   5.639   3.013
 6378TIP3    H119075   8.041   5.608   2.941
 6378TIP3    H219076   8.162   5.693   2.972
 6379TIP3   OH219077   2.909   4.454   6.027
 6379TIP3    H119078   2.960   4.493   5.956
 6379TIP3    H219079   2.898   4.525   6.090
 6380TIP3   OH219080   7.571   2.049   2.194
 6380TIP3    H119081   7.490   2.099   2.202
 6380TIP3    H219082   7.632   2.092   2.253
 6381TIP3   OH219083   7.794   1.823   0.445
 6381TIP3    H119084   7.888   1.807   0.435
 6381TIP3    H219085   7.752   1.746   0.405
 6382TIP3   OH219086   4.665   0.193   4.212
 6382TIP3    H119087   4.728   0.136   4.257
 6382TIP3    H219088   4.712   0.226   4.136
 6383TIP3   OH219089   2.461   1.283   5.196
 6383TIP3    H119090   2.414   1.214   5.148
 6383TIP3    H219091   2.552   1.253   5.198
 6384TIP3   OH219092   0.138   6.344   0.518
 6384TIP3    H119093   0.184   6.267   0.550
 6384TIP3    H219094   0.087   6.312   0.443
 6385TIP3   OH219095   2.462   3.196   4.313
 6385TIP3    H119096   2.370   3.215   4.293
 6385TIP3    H219097   2.511   3.234   4.240
 6386TIP3   OH219098   2.059   0.832   1.916
 6386TIP3    H119099   2.151   0.852   1.895
 6386TIP3    H219100   2.009   0.898   1.869
 6387TIP3   OH219101   6.934   0.684   0.126
 6387TIP3    H119102   7.004   0.638   0.173
 6387TIP3    H219103   6.928   0.638   0.042
 6388TIP3   OH219104   3.814   0.658   2.959
 6388TIP3    H119105   3.864   0.633   2.882
 6388TIP3    H219106   3.749   0.721   2.927
 6389TIP3   OH219107   5.749   7.327   2.667
 6389TIP3    H119108   5.842   7.305   2.667
 6389TIP3    H219109   5.744   7.409   2.619
 6390TIP3   OH219110   6.895   3.353   6.728
 6390TIP3    H119111   6.837   3.382   6.657
 6390TIP3    H219112   6.857   3.392   6.807
 6391TIP3   OH219113   7.442   3.158   0.636
 6391TIP3    H119114   7.505   3.105   0.587
 6391TIP3    H219115   7.381   3.094   0.673
 6392TIP3   OH219116   2.468   2.704   1.837
 6392TIP3    H119117   2.413   2.625   1.842
 6392TIP3    H219118   2.515   2.695   1.754
 6393TIP3   OH219119   3.390   7.221   3.977
 6393TIP3    H119120   3.476   7.210   4.018
 6393TIP3    H219121   3.329   7.226   4.050
 6394TIP3   OH219122   6.833   5.981   3.585
 6394TIP3    H119123   6.793   6.068   3.585
 6394TIP3    H219124   6.927   5.999   3.580
 6395TIP3   OH219125   0.429   3.162   2.448
 6395TIP3    H119126   0.401   3.099   2.515
 6395TIP3    H219127   0.351   3.215   2.431
 6396TIP3   OH219128   6.556   3.292   4.653
 6396TIP3    H119129   6.500   3.340   4.714
 6396TIP3    H219130   6.626   3.256   4.708
 6397TIP3   OH219131   5.998   3.839   5.396
 6397TIP3    H119132   5.972   3.804   5.311
 6397TIP3    H219133   6.034   3.926   5.376
 6398TIP3   OH219134   3.298   4.014   4.199
 6398TIP3    H119135   3.216   3.986   4.157
 6398TIP3    H219136   3.272   4.037   4.288
 6399TIP3   OH219137   6.329   0.244   0.005
 6399TIP3    H119138   6.320   0.189  -0.074
 6399TIP3    H219139   6.319   0.182   0.077
 6400TIP3   OH219140   8.194   1.049   6.368
 6400TIP3    H119141   8.100   1.069   6.364
 6400TIP3    H219142   8.237   1.134   6.354
 6401TIP3   OH219143   2.103   6.223   5.986
 6401TIP3    H119144   2.130   6.308   5.950
 6401TIP3    H219145   2.174   6.163   5.962
 6402TIP3   OH219146   8.035   2.784   5.992
 6402TIP3    H119147   8.034   2.768   6.086
 6402TIP3    H219148   8.096   2.856   5.979
 6403TIP3   OH219149   5.905   6.239   0.094
 6403TIP3    H119150   5.916   6.281   0.008
 6403TIP3    H219151   5.928   6.308   0.157
 6404TIP3   OH219152   0.095   2.492   3.837
 6404TIP3    H119153   0.128   2.579   3.814
 6404TIP3    H219154   0.173   2.441   3.859
 6405TIP3   OH219155   4.304   2.232   6.836
 6405TIP3    H119156   4.306   2.309   6.894
 6405TIP3    H219157   4.219   2.237   6.792
 6406TIP3   OH219158   7.100   1.462   5.273
 6406TIP3    H119159   7.064   1.491   5.357
 6406TIP3    H219160   7.025   1.460   5.214
 6407TIP3   OH219161   4.857   6.481   5.295
 6407TIP3    H119162   4.791   6.551   5.298
 6407TIP3    H219163   4.853   6.441   5.382
 6408TIP3   OH219164   6.356   6.419   0.111
 6408TIP3    H119165   6.380   6.511   0.099
 6408TIP3    H219166   6.320   6.416   0.200
 6409TIP3   OH219167   0.888   4.313   3.091
 6409TIP3    H119168   0.980   4.288   3.099
 6409TIP3    H219169   0.848   4.242   3.040
 6410TIP3   OH219170   7.353   1.871   1.044
 6410TIP3    H119171   7.356   1.844   0.952
 6410TIP3    H219172   7.434   1.837   1.082
 6411TIP3   OH219173   8.215   4.544   2.466
 6411TIP3    H119174   8.254   4.555   2.380
 6411TIP3    H219175   8.173   4.458   2.463
 6412TIP3   OH219176   4.957   0.246   4.464
 6412TIP3    H119177   4.893   0.293   4.518
 6412TIP3    H219178   4.912   0.166   4.438
 6413TIP3   OH219179   8.161   1.050   2.223
 6413TIP3    H119180   8.160   1.021   2.132
 6413TIP3    H219181   8.254   1.051   2.247
 6414TIP3   OH219182   0.803   2.226   4.509
 6414TIP3    H119183   0.710   2.217   4.487
 6414TIP3    H219184   0.806   2.295   4.576
 6415TIP3   OH219185   2.801   2.474   2.901
 6415TIP3    H119186   2.839   2.551   2.860
 6415TIP3    H219187   2.836   2.400   2.851
 6416TIP3   OH219188   2.053   6.462   0.951
 6416TIP3    H119189   2.098   6.389   0.992
 6416TIP3    H219190   1.964   6.459   0.986
 6417TIP3   OH219191   5.693   2.334   1.949
 6417TIP3    H119192   5.669   2.424   1.970
 6417TIP3    H219193   5.630   2.308   1.881
 6418TIP3   OH219194   3.633   7.106   2.351
 6418TIP3    H119195   3.624   7.033   2.413
 6418TIP3    H219196   3.546   7.145   2.347
 6419TIP3   OH219197   3.764   2.644   6.529
 6419TIP3    H119198   3.725   2.596   6.602
 6419TIP3    H219199   3.837   2.589   6.501
 6420TIP3   OH219200   0.206   6.898   6.718
 6420TIP3    H119201   0.207   6.915   6.812
 6420TIP3    H219202   0.236   6.980   6.678
 6421TIP3   OH219203   3.960   5.114   2.025
 6421TIP3    H119204   3.934   5.152   1.942
 6421TIP3    H219205   3.915   5.030   2.029
 6422TIP3   OH219206   2.220   4.163   2.828
 6422TIP3    H119207   2.162   4.154   2.903
 6422TIP3    H219208   2.307   4.143   2.862
 6423TIP3   OH219209   7.054   6.573   2.170
 6423TIP3    H119210   7.073   6.479   2.177
 6423TIP3    H219211   7.136   6.611   2.139
 6424TIP3   OH219212   2.181   1.452   5.556
 6424TIP3    H119213   2.185   1.357   5.545
 6424TIP3    H219214   2.173   1.464   5.651
 6425TIP3   OH219215   7.926   4.027   4.178
 6425TIP3    H119216   8.012   3.988   4.160
 6425TIP3    H219217   7.885   4.036   4.092
 6426TIP3   OH219218   7.489   4.062   4.235
 6426TIP3    H119219   7.452   4.026   4.154
 6426TIP3    H219220   7.580   4.033   4.235
 6427TIP3   OH219221   2.435   0.224   1.227
 6427TIP3    H119222   2.376   0.299   1.234
 6427TIP3    H219223   2.381   0.149   1.254
 6428TIP3   OH219224   8.281   4.057   6.002
 6428TIP3    H119225   8.221   4.067   6.076
 6428TIP3    H219226   8.244   4.114   5.934
 6429TIP3   OH219227   2.683   3.083   6.837
 6429TIP3    H119228   2.691   3.125   6.751
 6429TIP3    H219229   2.758   3.024   6.842
 6430TIP3   OH219230   7.998   1.124   0.589
 6430TIP3    H119231   8.021   1.209   0.551
 6430TIP3    H219232   7.921   1.142   0.643
 6431TIP3   OH219233   4.354   3.915   1.522
 6431TIP3    H119234   4.312   3.987   1.569
 6431TIP3    H219235   4.324   3.924   1.432
 6432TIP3   OH219236   6.417   7.504   2.003
 6432TIP3    H119237   6.484   7.517   2.071
 6432TIP3    H219238   6.466   7.467   1.929
 6433TIP3   OH219239   3.037   5.568   2.898
 6433TIP3    H119240   3.119   5.565   2.948
 6433TIP3    H219241   2.974   5.608   2.959
 6434TIP3   OH219242   7.315   1.922   0.734
 6434TIP3    H119243   7.275   2.003   0.763
 6434TIP3    H219244   7.385   1.949   0.675
 6435TIP3   OH219245   2.042   6.693   5.768
 6435TIP3    H119246   2.131   6.728   5.758
 6435TIP3    H219247   1.986   6.771   5.769
 6436TIP3   OH219248   4.990   2.444   5.925
 6436TIP3    H119249   4.996   2.447   6.020
 6436TIP3    H219250   5.033   2.524   5.895
 6437TIP3   OH219251   8.038   1.152   1.603
 6437TIP3    H119252   8.126   1.115   1.615
 6437TIP3    H219253   8.039   1.186   1.514
 6438TIP3   OH219254   1.124   3.502   4.364
 6438TIP3    H119255   1.065   3.427   4.363
 6438TIP3    H219256   1.204   3.469   4.405
 6439TIP3   OH219257   2.730   0.470   6.782
 6439TIP3    H119258   2.781   0.403   6.737
 6439TIP3    H219259   2.775   0.552   6.762
 6440TIP3   OH219260   8.132   7.734   5.937
 6440TIP3    H119261   8.117   7.820   5.898
 6440TIP3    H219262   8.217   7.707   5.903
 6441TIP3   OH219263   0.901   4.278   5.982
 6441TIP3    H119264   0.900   4.183   5.976
 6441TIP3    H219265   0.854   4.307   5.904
 6442TIP3   OH219266   4.826   2.354   0.954
 6442TIP3    H119267   4.837   2.320   0.865
 6442TIP3    H219268   4.881   2.299   1.009
 6443TIP3   OH219269   1.512   2.131   5.273
 6443TIP3    H119270   1.512   2.151   5.367
 6443TIP3    H219271   1.595   2.165   5.241
 6444TIP3   OH219272   2.855   4.945   3.864
 6444TIP3    H119273   2.827   4.895   3.941
 6444TIP3    H219274   2.904   5.019   3.901
 6445TIP3   OH219275   7.777   3.317   6.014
 6445TIP3    H119276   7.808   3.405   5.994
 6445TIP3    H219277   7.854   3.271   6.046
 6446TIP3   OH219278   4.299   7.141   0.505
 6446TIP3    H119279   4.295   7.214   0.442
 6446TIP3    H219280   4.310   7.184   0.590
 6447TIP3   OH219281   8.154   7.287   6.266
 6447TIP3    H119282   8.076   7.341   6.253
 6447TIP3    H219283   8.143   7.214   6.205
 6448TIP3   OH219284   7.358   0.429   6.652
 6448TIP3    H119285   7.285   0.369   6.669
 6448TIP3    H219286   7.316   0.509   6.621
 6449TIP3   OH219287   1.841   1.767   0.151
 6449TIP3    H119288   1.822   1.674   0.159
 6449TIP3    H219289   1.791   1.795   0.074
 6450TIP3   OH219290   2.867   1.755   2.849
 6450TIP3    H119291   2.878   1.817   2.921
 6450TIP3    H219292   2.785   1.781   2.806
 6451TIP3   OH219293   6.517   0.774   5.789
 6451TIP3    H119294   6.562   0.710   5.735
 6451TIP3    H219295   6.554   0.858   5.761
 6452TIP3   OH219296   7.118   5.660   4.444
 6452TIP3    H119297   7.109   5.659   4.540
 6452TIP3    H219298   7.211   5.644   4.428
 6453TIP3   OH219299   3.033   6.942   0.753
 6453TIP3    H119300   3.055   6.914   0.664
 6453TIP3    H219301   2.994   7.029   0.743
 6454TIP3   OH219302   8.033   1.793   1.546
 6454TIP3    H119303   8.055   1.879   1.512
 6454TIP3    H219304   8.060   1.796   1.638
 6455TIP3   OH219305   3.587   6.071   2.486
 6455TIP3    H119306   3.497   6.042   2.499
 6455TIP3    H219307   3.589   6.159   2.524
 6456TIP3   OH219308   7.061   3.152   2.031
 6456TIP3    H119309   7.120   3.218   2.069
 6456TIP3    H219310   7.115   3.074   2.023
 6457TIP3   OH219311   2.276   6.091   4.113
 6457TIP3    H119312   2.311   6.017   4.062
 6457TIP3    H219313   2.346   6.156   4.111
 6458TIP3   OH219314   2.023   3.484   0.496
 6458TIP3    H119315   2.085   3.480   0.423
 6458TIP3    H219316   1.959   3.550   0.471
 6459TIP3   OH219317   3.026   2.722   1.373
 6459TIP3    H119318   2.964   2.676   1.317
 6459TIP3    H219319   3.072   2.653   1.421
 6460TIP3   OH219320   2.294   7.322   2.560
 6460TIP3    H119321   2.321   7.394   2.502
 6460TIP3    H219322   2.360   7.321   2.629
 6461TIP3   OH219323   6.081   1.014   1.904
 6461TIP3    H119324   6.060   1.082   1.968
 6461TIP3    H219325   6.172   1.032   1.879
 6462TIP3   OH219326   5.706   0.139   3.268
 6462TIP3    H119327   5.635   0.186   3.224
 6462TIP3    H219328   5.722   0.188   3.348
 6463TIP3   OH219329   4.018   1.818   0.749
 6463TIP3    H119330   3.988   1.859   0.667
 6463TIP3    H219331   3.974   1.868   0.818
 6464TIP3   OH219332   3.449   0.983   0.920
 6464TIP3    H119333   3.360   0.984   0.955
 6464TIP3    H219334   3.439   1.008   0.828
 6465TIP3   OH219335   4.081   6.092   2.848
 6465TIP3    H119336   4.083   6.187   2.843
 6465TIP3    H219337   4.067   6.072   2.940
 6466TIP3   OH219338   6.298   7.427   5.902
 6466TIP3    H119339   6.233   7.488   5.868
 6466TIP3    H219340   6.349   7.400   5.826
 6467TIP3   OH219341   6.799   1.698   1.646
 6467TIP3    H119342   6.756   1.720   1.728
 6467TIP3    H219343   6.850   1.776   1.623
 6468TIP3   OH219344   6.866   3.758   3.913
 6468TIP3    H119345   6.830   3.845   3.933
 6468TIP3    H219346   6.830   3.701   3.980
 6469TIP3   OH219347   8.144   5.091   2.906
 6469TIP3    H119348   8.090   5.154   2.856
 6469TIP3    H219349   8.233   5.125   2.898
 6470TIP3   OH219350   0.619   2.893   2.800
 6470TIP3    H119351   0.587   2.894   2.890
 6470TIP3    H219352   0.704   2.848   2.805
 6471TIP3   OH219353   6.409   5.144   6.305
 6471TIP3    H119354   6.388   5.183   6.390
 6471TIP3    H219355   6.498   5.111   6.315
 6472TIP3   OH219356   3.105   3.755   5.216
 6472TIP3    H119357   3.068   3.735   5.130
 6472TIP3    H219358   3.199   3.742   5.206
 6473TIP3   OH219359   3.364   0.548   0.316
 6473TIP3    H119360   3.326   0.624   0.360
 6473TIP3    H219361   3.321   0.545   0.231
 6474TIP3   OH219362   7.079   5.711   3.170
 6474TIP3    H119363   7.025   5.788   3.187
 6474TIP3    H219364   7.079   5.663   3.253
 6475TIP3   OH219365   0.842   2.098   1.590
 6475TIP3    H119366   0.783   2.170   1.611
 6475TIP3    H219367   0.869   2.114   1.500
 6476TIP3   OH219368   6.354   5.481   3.680
 6476TIP3    H119369   6.297   5.505   3.752
 6476TIP3    H219370   6.313   5.404   3.641
 6477TIP3   OH219371   5.489   6.651   1.104
 6477TIP3    H119372   5.440   6.732   1.118
 6477TIP3    H219373   5.574   6.667   1.145
 6478TIP3   OH219374   0.023   3.911   3.055
 6478TIP3    H119375   0.026   3.848   2.983
 6478TIP3    H219376  -0.022   3.987   3.019
 6479TIP3   OH219377   8.084   7.799   1.452
 6479TIP3    H119378   8.088   7.767   1.542
 6479TIP3    H219379   8.160   7.857   1.443
 6480TIP3   OH219380   2.094   3.647   1.104
 6480TIP3    H119381   2.068   3.561   1.139
 6480TIP3    H219382   2.148   3.626   1.028
 6481TIP3   OH219383   6.434   3.964   1.465
 6481TIP3    H119384   6.508   3.982   1.407
 6481TIP3    H219385   6.430   3.869   1.472
 6482TIP3   OH219386   4.168   6.477   5.778
 6482TIP3    H119387   4.084   6.432   5.781
 6482TIP3    H219388   4.233   6.407   5.770
 6483TIP3   OH219389   8.204   4.661   4.706
 6483TIP3    H119390   8.125   4.710   4.730
 6483TIP3    H219391   8.276   4.723   4.720
 6484TIP3   OH219392   3.725   7.688   5.981
 6484TIP3    H119393   3.760   7.776   5.992
 6484TIP3    H219394   3.766   7.655   5.901
 6485TIP3   OH219395   3.577   1.756   5.200
 6485TIP3    H119396   3.522   1.788   5.272
 6485TIP3    H219397   3.618   1.677   5.234
 6486TIP3   OH219398   4.055   2.345   6.039
 6486TIP3    H119399   4.015   2.259   6.052
 6486TIP3    H219400   4.003   2.404   6.092
 6487TIP3   OH219401   7.277   4.464   6.133
 6487TIP3    H119402   7.331   4.516   6.073
 6487TIP3    H219403   7.187   4.489   6.112
 6488TIP3   OH219404   5.359   1.338   6.252
 6488TIP3    H119405   5.339   1.327   6.159
 6488TIP3    H219406   5.300   1.408   6.281
 6489TIP3   OH219407   4.464   2.778   3.155
 6489TIP3    H119408   4.466   2.872   3.138
 6489TIP3    H219409   4.501   2.738   3.076
 6490TIP3   OH219410   4.747   1.368   3.630
 6490TIP3    H119411   4.675   1.419   3.667
 6490TIP3    H219412   4.797   1.339   3.706
 6491TIP3   OH219413   4.780   7.782   1.292
 6491TIP3    H119414   4.795   7.819   1.379
 6491TIP3    H219415   4.685   7.780   1.284
 6492TIP3   OH219416   7.065   7.237   6.290
 6492TIP3    H119417   7.144   7.196   6.324
 6492TIP3    H219418   7.094   7.322   6.258
 6493TIP3   OH219419   7.313   3.669   3.938
 6493TIP3    H119420   7.370   3.699   4.010
 6493TIP3    H219421   7.225   3.691   3.967
 6494TIP3   OH219422   2.891   2.601   0.255
 6494TIP3    H119423   2.867   2.542   0.184
 6494TIP3    H219424   2.846   2.566   0.332
 6495TIP3   OH219425   4.993   7.765   2.370
 6495TIP3    H119426   5.022   7.694   2.313
 6495TIP3    H219427   5.028   7.844   2.330
 6496TIP3   OH219428   5.441   5.929   3.007
 6496TIP3    H119429   5.509   5.864   3.024
 6496TIP3    H219430   5.445   5.988   3.082
 6497TIP3   OH219431   0.420   7.449   4.996
 6497TIP3    H119432   0.339   7.444   5.046
 6497TIP3    H219433   0.392   7.456   4.905
 6498TIP3   OH219434   3.979   4.653   4.502
 6498TIP3    H119435   3.983   4.707   4.580
 6498TIP3    H219436   3.892   4.668   4.466
 6499TIP3   OH219437   3.698   6.427   0.524
 6499TIP3    H119438   3.690   6.474   0.441
 6499TIP3    H219439   3.788   6.392   0.523
 6500TIP3   OH219440   1.535   3.343   6.626
 6500TIP3    H119441   1.546   3.347   6.531
 6500TIP3    H219442   1.599   3.279   6.656
 6501TIP3   OH219443   6.833   6.130   1.093
 6501TIP3    H119444   6.807   6.094   1.178
 6501TIP3    H219445   6.801   6.221   1.095
 6502TIP3   OH219446   3.305   6.245   5.810
 6502TIP3    H119447   3.352   6.255   5.727
 6502TIP3    H219448   3.228   6.191   5.787
 6503TIP3   OH219449   0.951   3.218   2.336
 6503TIP3    H119450   0.860   3.201   2.311
 6503TIP3    H219451   0.996   3.233   2.252
 6504TIP3   OH219452   8.387   4.288   3.868
 6504TIP3    H119453   8.474   4.266   3.901
 6504TIP3    H219454   8.369   4.375   3.902
 6505TIP3   OH219455   0.845   7.325   4.601
 6505TIP3    H119456   0.806   7.256   4.654
 6505TIP3    H219457   0.924   7.286   4.564
 6506TIP3   OH219458   3.650   2.983   5.562
 6506TIP3    H119459   3.567   3.023   5.535
 6506TIP3    H219460   3.693   3.052   5.612
 6507TIP3   OH219461   4.312   3.680   2.094
 6507TIP3    H119462   4.322   3.755   2.035
 6507TIP3    H219463   4.360   3.705   2.173
 6508TIP3   OH219464   6.694   2.146   3.441
 6508TIP3    H119465   6.630   2.135   3.511
 6508TIP3    H219466   6.697   2.241   3.426
 6509TIP3   OH219467   5.626   7.740   6.486
 6509TIP3    H119468   5.588   7.705   6.405
 6509TIP3    H219469   5.705   7.687   6.499
 6510TIP3   OH219470   6.341   6.638   2.477
 6510TIP3    H119471   6.279   6.710   2.491
 6510TIP3    H219472   6.422   6.681   2.452
 6511TIP3   OH219473   6.909   7.429   5.921
 6511TIP3    H119474   6.891   7.468   5.836
 6511TIP3    H219475   6.826   7.390   5.948
 6512TIP3   OH219476   5.949   4.017   3.487
 6512TIP3    H119477   5.941   3.944   3.426
 6512TIP3    H219478   6.002   4.082   3.441
 6513TIP3   OH219479   5.661   2.906   5.583
 6513TIP3    H119480   5.701   2.822   5.607
 6513TIP3    H219481   5.572   2.882   5.555
 6514TIP3   OH219482   4.739   1.081   2.709
 6514TIP3    H119483   4.744   1.015   2.640
 6514TIP3    H219484   4.762   1.034   2.789
 6515TIP3   OH219485   1.467   0.987   5.250
 6515TIP3    H119486   1.450   0.923   5.320
 6515TIP3    H219487   1.429   0.947   5.172
 6516TIP3   OH219488   1.633   6.174   5.314
 6516TIP3    H119489   1.701   6.140   5.255
 6516TIP3    H219490   1.669   6.258   5.344
 6517TIP3   OH219491   0.002   1.151   6.036
 6517TIP3    H119492   0.065   1.178   5.969
 6517TIP3    H219493   0.051   1.153   6.118
 6518TIP3   OH219494   6.567   2.380   1.051
 6518TIP3    H119495   6.574   2.288   1.076
 6518TIP3    H219496   6.557   2.379   0.956
 6519TIP3   OH219497   2.323   3.598   6.334
 6519TIP3    H119498   2.388   3.608   6.265
 6519TIP3    H219499   2.256   3.541   6.295
 6520TIP3   OH219500   2.345   5.214   1.497
 6520TIP3    H119501   2.324   5.145   1.559
 6520TIP3    H219502   2.300   5.292   1.531
 6521TIP3   OH219503   3.137   2.530   1.530
 6521TIP3    H119504   3.158   2.443   1.564
 6521TIP3    H219505   3.174   2.590   1.594
 6522TIP3   OH219506   4.800   6.902   4.213
 6522TIP3    H119507   4.742   6.872   4.283
 6522TIP3    H219508   4.782   6.995   4.204
 6523TIP3   OH219509   7.510   5.512   3.028
 6523TIP3    H119510   7.537   5.421   3.032
 6523TIP3    H219511   7.567   5.557   3.090
 6524TIP3   OH219512   7.306   7.079   3.144
 6524TIP3    H119513   7.365   7.102   3.216
 6524TIP3    H219514   7.346   7.118   3.067
 6525TIP3   OH219515   2.012   0.739   5.394
 6525TIP3    H119516   2.006   0.819   5.342
 6525TIP3    H219517   1.961   0.674   5.346
 6526TIP3   OH219518   2.100   3.183   4.086
 6526TIP3    H119519   2.149   3.265   4.097
 6526TIP3    H219520   2.021   3.194   4.139
 6527TIP3   OH219521   4.376   2.131   2.183
 6527TIP3    H119522   4.460   2.130   2.229
 6527TIP3    H219523   4.328   2.057   2.220
 6528TIP3   OH219524   4.439   2.847   6.236
 6528TIP3    H119525   4.358   2.896   6.251
 6528TIP3    H219526   4.430   2.812   6.147
 6529TIP3   OH219527   1.336   6.981   0.281
 6529TIP3    H119528   1.405   6.991   0.216
 6529TIP3    H219529   1.319   6.887   0.283
 6530TIP3   OH219530   6.721   7.091   5.353
 6530TIP3    H119531   6.816   7.076   5.347
 6530TIP3    H219532   6.707   7.117   5.444
 6531TIP3   OH219533   7.816   4.951   0.914
 6531TIP3    H119534   7.804   5.004   0.836
 6531TIP3    H219535   7.861   4.872   0.884
 6532TIP3   OH219536   4.005   7.880   3.004
 6532TIP3    H119537   3.911   7.868   2.996
 6532TIP3    H219538   4.028   7.939   2.932
 6533TIP3   OH219539   6.857   0.784   2.195
 6533TIP3    H119540   6.788   0.830   2.242
 6533TIP3    H219541   6.861   0.827   2.110
 6534TIP3   OH219542   0.315   6.119   0.294
 6534TIP3    H119543   0.364   6.190   0.337
 6534TIP3    H219544   0.260   6.082   0.362
 6535TIP3   OH219545   1.664   1.313   2.431
 6535TIP3    H119546   1.645   1.392   2.380
 6535TIP3    H219547   1.733   1.340   2.492
 6536TIP3   OH219548   4.025   0.933   3.162
 6536TIP3    H119549   4.083   0.858   3.149
 6536TIP3    H219550   3.991   0.953   3.075
 6537TIP3   OH219551   7.950   5.736   6.667
 6537TIP3    H119552   7.898   5.806   6.629
 6537TIP3    H219553   8.037   5.774   6.679
 6538TIP3   OH219554   7.035   1.928   3.049
 6538TIP3    H119555   6.987   1.996   3.097
 6538TIP3    H219556   7.030   1.955   2.958
 6539TIP3   OH219557   7.212   0.305   3.207
 6539TIP3    H119558   7.238   0.392   3.179
 6539TIP3    H219559   7.157   0.320   3.284
 6540TIP3   OH219560   4.294   4.765   4.565
 6540TIP3    H119561   4.240   4.844   4.573
 6540TIP3    H219562   4.364   4.777   4.629
 6541TIP3   OH219563   0.484   4.016   0.667
 6541TIP3    H119564   0.502   3.932   0.624
 6541TIP3    H219565   0.544   4.018   0.742
 6542TIP3   OH219566   5.897   6.569   2.808
 6542TIP3    H119567   5.981   6.537   2.776
 6542TIP3    H219568   5.895   6.662   2.786
 6543TIP3   OH219569   7.930   7.307   1.863
 6543TIP3    H119570   7.839   7.276   1.860
 6543TIP3    H219571   7.980   7.229   1.888
 6544TIP3   OH219572   6.831   4.573   5.185
 6544TIP3    H119573   6.791   4.511   5.125
 6544TIP3    H219574   6.783   4.655   5.172
 6545TIP3   OH219575   5.758   2.662   5.685
 6545TIP3    H119576   5.851   2.639   5.693
 6545TIP3    H219577   5.735   2.700   5.770
 6546TIP3   OH219578   0.918   3.835   5.070
 6546TIP3    H119579   0.882   3.778   5.138
 6546TIP3    H219580   0.870   3.917   5.079
 6547TIP3   OH219581   2.601   2.915   0.383
 6547TIP3    H119582   2.538   2.864   0.332
 6547TIP3    H219583   2.642   2.850   0.441
 6548TIP3   OH219584   3.802   6.864   4.221
 6548TIP3    H119585   3.867   6.914   4.173
 6548TIP3    H219586   3.842   6.778   4.235
 6549TIP3   OH219587   3.554   5.511   2.316
 6549TIP3    H119588   3.528   5.601   2.298
 6549TIP3    H219589   3.476   5.459   2.293
 6550TIP3   OH219590   5.593   1.894   3.966
 6550TIP3    H119591   5.651   1.971   3.967
 6550TIP3    H219592   5.505   1.930   3.963
 6551TIP3   OH219593   4.263   4.362   3.208
 6551TIP3    H119594   4.209   4.286   3.230
 6551TIP3    H219595   4.305   4.387   3.290
 6552TIP3   OH219596   3.154   6.011   4.447
 6552TIP3    H119597   3.171   6.025   4.540
 6552TIP3    H219598   3.077   5.955   4.445
 6553TIP3   OH219599   7.906   7.734   6.342
 6553TIP3    H119600   7.936   7.740   6.432
 6553TIP3    H219601   7.969   7.786   6.292
 6554TIP3   OH219602   4.442   0.691   6.181
 6554TIP3    H119603   4.385   0.615   6.192
 6554TIP3    H219604   4.413   0.732   6.100
 6555TIP3   OH219605   4.667   7.913   5.438
 6555TIP3    H119606   4.623   7.997   5.449
 6555TIP3    H219607   4.749   7.934   5.393
 6556TIP3   OH219608   5.634   6.499   0.089
 6556TIP3    H119609   5.611   6.430   0.027
 6556TIP3    H219610   5.552   6.546   0.104
 6557TIP3   OH219611   6.920   6.517   5.933
 6557TIP3    H119612   6.826   6.518   5.946
 6557TIP3    H219613   6.951   6.442   5.983
 6558TIP3   OH219614   5.712   7.744   4.102
 6558TIP3    H119615   5.660   7.780   4.031
 6558TIP3    H219616   5.764   7.674   4.062
 6559TIP3   OH219617   1.514   1.634   1.157
 6559TIP3    H119618   1.588   1.695   1.155
 6559TIP3    H219619   1.522   1.589   1.241
 6560TIP3   OH219620   1.083   0.403   6.598
 6560TIP3    H119621   1.177   0.406   6.615
 6560TIP3    H219622   1.052   0.330   6.651
 6561TIP3   OH219623   7.870   5.677   1.996
 6561TIP3    H119624   7.834   5.755   2.038
 6561TIP3    H219625   7.856   5.607   2.060
 6562TIP3   OH219626   6.624   5.581   6.101
 6562TIP3    H119627   6.690   5.567   6.169
 6562TIP3    H219628   6.626   5.675   6.084
 6563TIP3   OH219629   8.137   1.591   3.736
 6563TIP3    H119630   8.113   1.568   3.646
 6563TIP3    H219631   8.192   1.668   3.727
 6564TIP3   OH219632   1.380   7.342   3.798
 6564TIP3    H119633   1.357   7.261   3.753
 6564TIP3    H219634   1.332   7.410   3.750
 6565TIP3   OH219635   5.371   4.684   0.116
 6565TIP3    H119636   5.438   4.751   0.122
 6565TIP3    H219637   5.345   4.684   0.024
 6566TIP3   OH219638   7.731   6.097   2.696
 6566TIP3    H119639   7.813   6.082   2.648
 6566TIP3    H219640   7.670   6.033   2.661
 6567TIP3   OH219641   4.119   3.967   1.832
 6567TIP3    H119642   4.057   3.921   1.775
 6567TIP3    H219643   4.096   3.938   1.921
 6568TIP3   OH219644   3.171   6.206   3.937
 6568TIP3    H119645   3.165   6.133   3.876
 6568TIP3    H219646   3.094   6.260   3.917
 6569TIP3   OH219647   2.277   7.094   4.525
 6569TIP3    H119648   2.263   7.056   4.438
 6569TIP3    H219649   2.343   7.038   4.565
 6570TIP3   OH219650   1.185   1.368   4.409
 6570TIP3    H119651   1.180   1.324   4.324
 6570TIP3    H219652   1.112   1.331   4.459
 6571TIP3   OH219653   1.656   6.012   0.619
 6571TIP3    H119654   1.580   6.052   0.578
 6571TIP3    H219655   1.662   5.925   0.580
 6572TIP3   OH219656   5.914   0.619   0.730
 6572TIP3    H119657   5.932   0.527   0.750
 6572TIP3    H219658   5.996   0.664   0.750
 6573TIP3   OH219659   2.401   4.787   0.347
 6573TIP3    H119660   2.414   4.808   0.440
 6573TIP3    H219661   2.368   4.697   0.347
 6574TIP3   OH219662   2.781   2.880   1.169
 6574TIP3    H119663   2.735   2.948   1.119
 6574TIP3    H219664   2.862   2.922   1.197
 6575TIP3   OH219665   7.898   2.337   5.635
 6575TIP3    H119666   7.955   2.293   5.573
 6575TIP3    H219667   7.897   2.279   5.712
 6576TIP3   OH219668   2.299   1.785   2.548
 6576TIP3    H119669   2.309   1.816   2.638
 6576TIP3    H219670   2.251   1.702   2.557
 6577TIP3   OH219671   3.156   0.289   0.484
 6577TIP3    H119672   3.113   0.205   0.500
 6577TIP3    H219673   3.110   0.351   0.540
 6578TIP3   OH219674   5.161   3.608   6.428
 6578TIP3    H119675   5.181   3.577   6.516
 6578TIP3    H219676   5.096   3.677   6.440
 6579TIP3   OH219677   4.614   3.141   4.628
 6579TIP3    H119678   4.679   3.094   4.576
 6579TIP3    H219679   4.535   3.140   4.573
 6580TIP3   OH219680   4.307   0.140   2.176
 6580TIP3    H119681   4.255   0.079   2.227
 6580TIP3    H219682   4.246   0.179   2.114
 6581TIP3   OH219683   3.868   1.440   2.620
 6581TIP3    H119684   3.777   1.410   2.626
 6581TIP3    H219685   3.914   1.390   2.688
 6582TIP3   OH219686   3.739   4.057   2.606
 6582TIP3    H119687   3.664   4.007   2.573
 6582TIP3    H219688   3.814   3.999   2.595
 6583TIP3   OH219689   1.368   5.389   5.114
 6583TIP3    H119690   1.330   5.303   5.092
 6583TIP3    H219691   1.336   5.407   5.202
 6584TIP3   OH219692   5.481   3.842   1.949
 6584TIP3    H119693   5.481   3.760   1.998
 6584TIP3    H219694   5.496   3.816   1.859
 6585TIP3   OH219695   3.561   6.274   2.701
 6585TIP3    H119696   3.550   6.233   2.787
 6585TIP3    H219697   3.621   6.347   2.716
 6586TIP3   OH219698   0.359   7.076   4.466
 6586TIP3    H119699   0.320   7.003   4.514
 6586TIP3    H219700   0.390   7.136   4.534
 6587TIP3   OH219701   6.072   2.336   3.736
 6587TIP3    H119702   6.148   2.380   3.697
 6587TIP3    H219703   5.997   2.375   3.692
 6588TIP3   OH219704   4.645   2.281   5.181
 6588TIP3    H119705   4.633   2.197   5.136
 6588TIP3    H219706   4.740   2.291   5.188
 6589TIP3   OH219707   4.311   4.078   1.985
 6589TIP3    H119708   4.251   4.054   1.915
 6589TIP3    H219709   4.384   4.122   1.941
 6590TIP3   OH219710   6.786   3.192   0.216
 6590TIP3    H119711   6.838   3.112   0.218
 6590TIP3    H219712   6.846   3.260   0.250
 6591TIP3   OH219713   6.287   5.038   0.283
 6591TIP3    H119714   6.311   5.029   0.375
 6591TIP3    H219715   6.292   5.131   0.265
 6592TIP3   OH219716   7.310   5.184   5.568
 6592TIP3    H119717   7.221   5.164   5.597
 6592TIP3    H219718   7.300   5.260   5.511
 6593TIP3   OH219719   4.946   3.232   0.767
 6593TIP3    H119720   4.910   3.167   0.707
 6593TIP3    H219721   4.871   3.259   0.821
 6594TIP3   OH219722   5.218   7.051   5.970
 6594TIP3    H119723   5.222   6.965   6.011
 6594TIP3    H219724   5.139   7.091   6.005
 6595TIP3   OH219725   1.118   6.226   1.049
 6595TIP3    H119726   1.181   6.211   0.979
 6595TIP3    H219727   1.046   6.166   1.030
 6596TIP3   OH219728   8.220   6.926   2.980
 6596TIP3    H119729   8.259   6.942   2.894
 6596TIP3    H219730   8.295   6.907   3.037
 6597TIP3   OH219731   4.880   2.355   2.668
 6597TIP3    H119732   4.925   2.395   2.742
 6597TIP3    H219733   4.839   2.429   2.623
 6598TIP3   OH219734   0.482   7.726   3.912
 6598TIP3    H119735   0.450   7.794   3.971
 6598TIP3    H219736   0.513   7.774   3.835
 6599TIP3   OH219737   6.478   6.212   1.148
 6599TIP3    H119738   6.427   6.199   1.068
 6599TIP3    H219739   6.468   6.129   1.196
 6600TIP3   OH219740   2.206   5.036   1.994
 6600TIP3    H119741   2.222   4.950   2.032
 6600TIP3    H219742   2.143   5.077   2.053
 6601TIP3   OH219743   3.359   0.468   6.488
 6601TIP3    H119744   3.431   0.412   6.517
 6601TIP3    H219745   3.350   0.448   6.395
 6602TIP3   OH219746   5.205   4.986   0.748
 6602TIP3    H119747   5.296   5.017   0.752
 6602TIP3    H219748   5.164   5.041   0.681
 6603TIP3   OH219749   3.913   0.844   4.807
 6603TIP3    H119750   3.873   0.899   4.739
 6603TIP3    H219751   3.971   0.786   4.758
 6604TIP3   OH219752   3.742   5.943   6.723
 6604TIP3    H119753   3.656   5.906   6.742
 6604TIP3    H219754   3.723   6.028   6.683
 6605TIP3   OH219755   3.717   3.525   1.254
 6605TIP3    H119756   3.748   3.609   1.221
 6605TIP3    H219757   3.645   3.500   1.196
 6606TIP3   OH219758   2.292   4.097   6.734
 6606TIP3    H119759   2.306   4.144   6.816
 6606TIP3    H219760   2.375   4.053   6.717
 6607TIP3   OH219761   5.974   1.973   6.643
 6607TIP3    H119762   5.966   1.904   6.709
 6607TIP3    H219763   5.925   2.047   6.679
 6608TIP3   OH219764   7.493   3.827   5.539
 6608TIP3    H119765   7.490   3.841   5.444
 6608TIP3    H219766   7.505   3.733   5.549
 6609TIP3   OH219767   0.507   5.385   4.772
 6609TIP3    H119768   0.591   5.358   4.809
 6609TIP3    H219769   0.522   5.390   4.678
 6610TIP3   OH219770   7.154   5.507   6.765
 6610TIP3    H119771   7.062   5.532   6.774
 6610TIP3    H219772   7.189   5.511   6.854
 6611TIP3   OH219773   0.742   7.362   3.030
 6611TIP3    H119774   0.705   7.334   3.113
 6611TIP3    H219775   0.796   7.288   3.001
 6612TIP3   OH219776   4.269   5.608   1.254
 6612TIP3    H119777   4.356   5.569   1.246
 6612TIP3    H219778   4.240   5.619   1.163
 6613TIP3   OH219779   6.984   1.469   4.051
 6613TIP3    H119780   6.956   1.548   4.004
 6613TIP3    H219781   7.059   1.497   4.103
 6614TIP3   OH219782   4.529   3.261   4.840
 6614TIP3    H119783   4.570   3.226   4.760
 6614TIP3    H219784   4.535   3.189   4.902
 6615TIP3   OH219785   8.380   4.404   5.692
 6615TIP3    H119786   8.347   4.322   5.654
 6615TIP3    H219787   8.401   4.459   5.617
 6616TIP3   OH219788   1.994   1.068   3.348
 6616TIP3    H119789   2.072   1.023   3.378
 6616TIP3    H219790   1.958   1.108   3.427
 6617TIP3   OH219791   1.717   0.253   5.236
 6617TIP3    H119792   1.806   0.264   5.271
 6617TIP3    H219793   1.661   0.259   5.314
 6618TIP3   OH219794   2.632   6.578   4.675
 6618TIP3    H119795   2.686   6.510   4.636
 6618TIP3    H219796   2.694   6.634   4.722
 6619TIP3   OH219797   2.235   5.853   6.655
 6619TIP3    H119798   2.157   5.798   6.651
 6619TIP3    H219799   2.210   5.934   6.611
 6620TIP3   OH219800   5.113   0.691   2.219
 6620TIP3    H119801   5.070   0.760   2.168
 6620TIP3    H219802   5.115   0.615   2.161
 6621TIP3   OH219803   6.714   6.145   5.216
 6621TIP3    H119804   6.709   6.240   5.203
 6621TIP3    H219805   6.666   6.130   5.298
 6622TIP3   OH219806   6.232   6.559   6.709
 6622TIP3    H119807   6.325   6.575   6.724
 6622TIP3    H219808   6.211   6.483   6.763
 6623TIP3   OH219809   7.158   3.346   5.283
 6623TIP3    H119810   7.078   3.399   5.290
 6623TIP3    H219811   7.129   3.256   5.299
 6624TIP3   OH219812   0.098   7.460   5.656
 6624TIP3    H119813   0.123   7.544   5.617
 6624TIP3    H219814   0.179   7.411   5.663
 6625TIP3   OH219815   2.774   0.071   5.624
 6625TIP3    H119816   2.713   0.050   5.553
 6625TIP3    H219817   2.796   0.163   5.609
 6626TIP3   OH219818   4.600   0.869   0.962
 6626TIP3    H119819   4.550   0.788   0.954
 6626TIP3    H219820   4.685   0.842   0.997
 6627TIP3   OH219821   3.531   3.871   6.644
 6627TIP3    H119822   3.533   3.828   6.729
 6627TIP3    H219823   3.621   3.900   6.630
 6628TIP3   OH219824   2.247   2.913   4.259
 6628TIP3    H119825   2.162   2.957   4.255
 6628TIP3    H219826   2.230   2.834   4.311
 6629TIP3   OH219827   0.127   5.638   0.392
 6629TIP3    H119828   0.046   5.614   0.437
 6629TIP3    H219829   0.108   5.625   0.299
 6630TIP3   OH219830   4.733   3.970   6.457
 6630TIP3    H119831   4.808   3.985   6.514
 6630TIP3    H219832   4.764   3.993   6.370
 6631TIP3   OH219833   8.188   5.147   1.898
 6631TIP3    H119834   8.146   5.165   1.813
 6631TIP3    H219835   8.273   5.109   1.875
 6632TIP3   OH219836   6.819   4.732   4.917
 6632TIP3    H119837   6.742   4.755   4.866
 6632TIP3    H219838   6.796   4.753   5.008
 6633TIP3   OH219839   7.575   3.007   5.592
 6633TIP3    H119840   7.562   2.915   5.612
 6633TIP3    H219841   7.667   3.024   5.613
 6634TIP3   OH219842   6.038   0.777   2.417
 6634TIP3    H119843   6.112   0.717   2.408
 6634TIP3    H219844   5.961   0.720   2.419
 6635TIP3   OH219845   0.497   4.456   4.105
 6635TIP3    H119846   0.583   4.416   4.112
 6635TIP3    H219847   0.471   4.474   4.196
 6636TIP3   OH219848   6.154   2.723   0.412
 6636TIP3    H119849   6.242   2.762   0.404
 6636TIP3    H219850   6.156   2.676   0.495
 6637TIP3   OH219851   7.517   1.238   1.791
 6637TIP3    H119852   7.550   1.188   1.865
 6637TIP3    H219853   7.528   1.330   1.817
 6638TIP3   OH219854   1.248   4.173   2.457
 6638TIP3    H119855   1.328   4.165   2.404
 6638TIP3    H219856   1.250   4.262   2.491
 6639TIP3   OH219857   0.207   5.944   6.006
 6639TIP3    H119858   0.296   5.956   5.973
 6639TIP3    H219859   0.156   5.917   5.930
 6640TIP3   OH219860   3.162   7.766   2.913
 6640TIP3    H119861   3.145   7.828   2.983
 6640TIP3    H219862   3.198   7.689   2.957
 6641TIP3   OH219863   2.564   2.526   0.204
 6641TIP3    H119864   2.484   2.577   0.214
 6641TIP3    H219865   2.630   2.590   0.176
 6642TIP3   OH219866   3.288   3.437   6.305
 6642TIP3    H119867   3.258   3.528   6.302
 6642TIP3    H219868   3.303   3.420   6.398
 6643TIP3   OH219869   0.368   6.952   6.203
 6643TIP3    H119870   0.424   6.907   6.140
 6643TIP3    H219871   0.414   6.942   6.287
 6644TIP3   OH219872   6.900   6.765   2.042
 6644TIP3    H119873   6.966   6.701   2.071
 6644TIP3    H219874   6.843   6.715   1.983
 6645TIP3   OH219875   8.040   5.189   2.350
 6645TIP3    H119876   8.019   5.193   2.256
 6645TIP3    H219877   8.135   5.173   2.353
 6646TIP3   OH219878   7.604   6.163   0.077
 6646TIP3    H119879   7.558   6.229   0.026
 6646TIP3    H219880   7.696   6.184   0.067
 6647TIP3   OH219881   3.208   2.135   0.425
 6647TIP3    H119882   3.149   2.070   0.464
 6647TIP3    H219883   3.149   2.203   0.391
 6648TIP3   OH219884   3.660   5.569   2.039
 6648TIP3    H119885   3.618   5.519   1.969
 6648TIP3    H219886   3.677   5.505   2.108
 6649TIP3   OH219887   7.995   0.522   6.657
 6649TIP3    H119888   7.925   0.473   6.614
 6649TIP3    H219889   7.953   0.600   6.692
 6650TIP3   OH219890   3.526   4.942   1.535
 6650TIP3    H119891   3.432   4.936   1.549
 6650TIP3    H219892   3.565   4.914   1.618
 6651TIP3   OH219893   5.742   6.372   2.039
 6651TIP3    H119894   5.684   6.341   2.108
 6651TIP3    H219895   5.803   6.300   2.024
 6652TIP3   OH219896   4.540   6.293   5.722
 6652TIP3    H119897   4.466   6.280   5.662
 6652TIP3    H219898   4.549   6.388   5.727
 6653TIP3   OH219899   3.844   4.529   0.836
 6653TIP3    H119900   3.752   4.545   0.814
 6653TIP3    H219901   3.847   4.438   0.865
 6654TIP3   OH219902   3.888   0.174   4.613
 6654TIP3    H119903   3.874   0.089   4.653
 6654TIP3    H219904   3.847   0.168   4.527
 6655TIP3   OH219905   2.169   2.827   0.946
 6655TIP3    H119906   2.099   2.892   0.955
 6655TIP3    H219907   2.245   2.879   0.917
 6656TIP3   OH219908   6.094   1.160   5.046
 6656TIP3    H119909   6.039   1.198   4.978
 6656TIP3    H219910   6.098   1.067   5.024
 6657TIP3   OH219911   3.805   1.496   3.030
 6657TIP3    H119912   3.889   1.526   3.063
 6657TIP3    H219913   3.818   1.403   3.012
 6658TIP3   OH219914   7.124   7.587   1.420
 6658TIP3    H119915   7.082   7.655   1.367
 6658TIP3    H219916   7.159   7.525   1.356
 6659TIP3   OH219917   5.531   2.506   0.145
 6659TIP3    H119918   5.466   2.530   0.079
 6659TIP3    H219919   5.581   2.435   0.105
 6660TIP3   OH219920   4.764   0.190   2.171
 6660TIP3    H119921   4.709   0.170   2.247
 6660TIP3    H219922   4.743   0.281   2.151
 6661TIP3   OH219923   4.275   2.112   0.945
 6661TIP3    H119924   4.326   2.143   1.020
 6661TIP3    H219925   4.184   2.130   0.969
 6662TIP3   OH219926   2.864   6.468   6.506
 6662TIP3    H119927   2.772   6.450   6.524
 6662TIP3    H219928   2.888   6.537   6.567
 6663TIP3   OH219929   7.789   3.247   0.025
 6663TIP3    H119930   7.792   3.154   0.051
 6663TIP3    H219931   7.880   3.269   0.006
 6664TIP3   OH219932   5.624   2.672   2.396
 6664TIP3    H119933   5.547   2.623   2.423
 6664TIP3    H219934   5.675   2.684   2.476
 6665TIP3   OH219935   2.522   4.364   5.322
 6665TIP3    H119936   2.601   4.378   5.375
 6665TIP3    H219937   2.473   4.446   5.330
 6666TIP3   OH219938   4.341   7.206   1.882
 6666TIP3    H119939   4.319   7.124   1.839
 6666TIP3    H219940   4.432   7.223   1.858
 6667TIP3   OH219941   2.009   0.803   2.188
 6667TIP3    H119942   2.000   0.805   2.093
 6667TIP3    H219943   1.945   0.866   2.220
 6668TIP3   OH219944   0.175   7.703   3.205
 6668TIP3    H119945   0.144   7.639   3.269
 6668TIP3    H219946   0.270   7.697   3.210
 6669TIP3   OH219947   0.928   4.582   4.415
 6669TIP3    H119948   0.875   4.553   4.489
 6669TIP3    H219949   0.996   4.515   4.406
 6670TIP3   OH219950   6.964   5.855   2.218
 6670TIP3    H119951   6.896   5.898   2.167
 6670TIP3    H219952   7.045   5.895   2.188
 6671TIP3   OH219953   2.514   4.798   4.562
 6671TIP3    H119954   2.599   4.757   4.580
 6671TIP3    H219955   2.452   4.725   4.560
 6672TIP3   OH219956   3.490   0.690   5.274
 6672TIP3    H119957   3.504   0.696   5.368
 6672TIP3    H219958   3.397   0.713   5.263
 6673TIP3   OH219959   4.133   6.263   4.784
 6673TIP3    H119960   4.190   6.286   4.711
 6673TIP3    H219961   4.065   6.208   4.745
 6674TIP3   OH219962   1.846   2.541   3.701
 6674TIP3    H119963   1.771   2.518   3.756
 6674TIP3    H219964   1.829   2.496   3.618
 6675TIP3   OH219965   5.182   0.512   1.126
 6675TIP3    H119966   5.090   0.493   1.106
 6675TIP3    H219967   5.206   0.584   1.068
 6676TIP3   OH219968   1.124   0.131   3.798
 6676TIP3    H119969   1.183   0.149   3.725
 6676TIP3    H219970   1.057   0.200   3.792
 6677TIP3   OH219971   6.161   6.487   2.756
 6677TIP3    H119972   6.191   6.574   2.782
 6677TIP3    H219973   6.241   6.436   2.746
 6678TIP3   OH219974   1.782   6.405   0.968
 6678TIP3    H119975   1.766   6.318   0.930
 6678TIP3    H219976   1.709   6.458   0.936
 6679TIP3   OH219977   5.779   6.652   4.984
 6679TIP3    H119978   5.719   6.662   4.910
 6679TIP3    H219979   5.747   6.574   5.030
 6680TIP3   OH219980   7.354   0.289   0.976
 6680TIP3    H119981   7.387   0.248   1.056
 6680TIP3    H219982   7.355   0.382   0.994
 6681TIP3   OH219983   7.597   1.571   2.205
 6681TIP3    H119984   7.680   1.524   2.207
 6681TIP3    H219985   7.533   1.504   2.182
 6682TIP3   OH219986   6.201   5.247   1.336
 6682TIP3    H119987   6.192   5.302   1.258
 6682TIP3    H219988   6.232   5.307   1.404
 6683TIP3   OH219989   3.801   0.362   1.234
 6683TIP3    H119990   3.776   0.272   1.210
 6683TIP3    H219991   3.799   0.410   1.152
 6684TIP3   OH219992   6.735   3.681   5.751
 6684TIP3    H119993   6.800   3.643   5.811
 6684TIP3    H219994   6.719   3.612   5.687
 6685TIP3   OH219995   0.903   3.632   3.024
 6685TIP3    H119996   0.966   3.704   3.019
 6685TIP3    H219997   0.852   3.650   3.104
 6686TIP3   OH219998   4.413   1.449   0.176
 6686TIP3    H119999   4.390   1.373   0.123
 6686TIP3    H220000   4.367   1.435   0.259
 6687TIP3   OH220001   0.353   0.840   0.874
 6687TIP3    H120002   0.340   0.919   0.926
 6687TIP3    H220003   0.342   0.768   0.937
 6688TIP3   OH220004   1.262   7.877   3.652
 6688TIP3    H120005   1.243   7.971   3.655
 6688TIP3    H220006   1.357   7.871   3.661
 6689TIP3   OH220007   4.741   7.642   2.586
 6689TIP3    H120008   4.687   7.630   2.509
 6689TIP3    H220009   4.768   7.553   2.611
 6690TIP3   OH220010   7.125   0.023   2.287
 6690TIP3    H120011   7.056   0.004   2.350
 6690TIP3    H220012   7.186   0.079   2.334
 6691TIP3   OH220013   6.174   6.766   5.377
 6691TIP3    H120014   6.180   6.680   5.335
 6691TIP3    H220015   6.189   6.828   5.306
 6692TIP3   OH220016   2.146   5.910   2.772
 6692TIP3    H120017   2.215   5.928   2.708
 6692TIP3    H220018   2.064   5.918   2.723
 6693TIP3   OH220019   2.725   1.022   6.453
 6693TIP3    H120020   2.651   1.021   6.392
 6693TIP3    H220021   2.750   0.930   6.462
 6694TIP3   OH220022   3.676   0.833   0.930
 6694TIP3    H120023   3.598   0.889   0.928
 6694TIP3    H220024   3.677   0.792   0.843
 6695TIP3   OH220025   5.065   2.640   4.912
 6695TIP3    H120026   5.025   2.673   4.831
 6695TIP3    H220027   5.148   2.602   4.884
 6696TIP3   OH220028   5.560   1.832   5.414
 6696TIP3    H120029   5.488   1.833   5.478
 6696TIP3    H220030   5.602   1.918   5.424
 6697TIP3   OH220031   3.468   7.023   1.264
 6697TIP3    H120032   3.551   6.983   1.239
 6697TIP3    H220033   3.420   6.954   1.310
 6698TIP3   OH220034   2.483   2.765   6.003
 6698TIP3    H120035   2.539   2.708   5.950
 6698TIP3    H220036   2.396   2.724   5.998
 6699TIP3   OH220037   3.953   1.161   0.319
 6699TIP3    H120038   3.990   1.183   0.233
 6699TIP3    H220039   3.954   1.243   0.368
 6700TIP3   OH220040   2.007   2.045   2.867
 6700TIP3    H120041   1.952   2.032   2.944
 6700TIP3    H220042   1.987   2.134   2.837
 6701TIP3   OH220043   3.441   5.629   5.450
 6701TIP3    H120044   3.461   5.666   5.364
 6701TIP3    H220045   3.510   5.663   5.507
 6702TIP3   OH220046   6.155   2.956   2.116
 6702TIP3    H120047   6.208   2.882   2.145
 6702TIP3    H220048   6.081   2.957   2.177
 6703TIP3   OH220049   2.742   4.054   6.021
 6703TIP3    H120050   2.765   4.091   6.107
 6703TIP3    H220051   2.767   4.123   5.959
 6704TIP3   OH220052   6.390   7.129   4.729
 6704TIP3    H120053   6.470   7.179   4.708
 6704TIP3    H220054   6.390   7.056   4.668
 6705TIP3   OH220055   7.803   0.124   3.175
 6705TIP3    H120056   7.774   0.188   3.239
 6705TIP3    H220057   7.842   0.053   3.226
 6706TIP3   OH220058   7.016   3.722   6.106
 6706TIP3    H120059   6.942   3.714   6.166
 6706TIP3    H220060   7.080   3.659   6.139
 6707TIP3   OH220061   6.717   1.894   5.866
 6707TIP3    H120062   6.763   1.810   5.864
 6707TIP3    H220063   6.667   1.895   5.784
 6708TIP3   OH220064   5.472   5.208   0.521
 6708TIP3    H120065   5.380   5.182   0.517
 6708TIP3    H220066   5.484   5.240   0.610
 6709TIP3   OH220067   2.775   3.616   3.894
 6709TIP3    H120068   2.849   3.583   3.945
 6709TIP3    H220069   2.814   3.643   3.810
 6710TIP3   OH220070   6.406   3.786   1.828
 6710TIP3    H120071   6.333   3.776   1.889
 6710TIP3    H220072   6.372   3.754   1.745
 6711TIP3   OH220073   5.102   5.041   1.271
 6711TIP3    H120074   5.112   5.057   1.177
 6711TIP3    H220075   5.014   5.005   1.281
 6712TIP3   OH220076   5.492   5.565   2.547
 6712TIP3    H120077   5.451   5.482   2.573
 6712TIP3    H220078   5.554   5.540   2.478
 6713TIP3   OH220079   1.415   0.287   6.065
 6713TIP3    H120080   1.493   0.340   6.079
 6713TIP3    H220081   1.359   0.305   6.141
 6714TIP3   OH220082   4.314   4.493   4.497
 6714TIP3    H120083   4.340   4.585   4.505
 6714TIP3    H220084   4.236   4.485   4.551
 6715TIP3   OH220085   1.972   4.962   5.467
 6715TIP3    H120086   2.038   4.894   5.482
 6715TIP3    H220087   1.915   4.958   5.544
 6716TIP3   OH220088   3.772   5.719   3.137
 6716TIP3    H120089   3.729   5.636   3.117
 6716TIP3    H220090   3.831   5.734   3.064
 6717TIP3   OH220091   4.730   2.644   3.603
 6717TIP3    H120092   4.656   2.679   3.652
 6717TIP3    H220093   4.716   2.675   3.513
 6718TIP3   OH220094   6.749   4.475   0.162
 6718TIP3    H120095   6.701   4.397   0.133
 6718TIP3    H220096   6.680   4.538   0.183
 6719TIP3   OH220097   2.186   2.081   4.281
 6719TIP3    H120098   2.177   2.131   4.200
 6719TIP3    H220099   2.263   2.120   4.324
 6720TIP3   OH220100   3.530   2.683   2.595
 6720TIP3    H120101   3.607   2.629   2.612
 6720TIP3    H220102   3.564   2.757   2.543
 6721TIP3   OH220103   2.729   5.666   5.260
 6721TIP3    H120104   2.702   5.605   5.328
 6721TIP3    H220105   2.654   5.671   5.201
 6722TIP3   OH220106   3.175   5.158   2.028
 6722TIP3    H120107   3.125   5.099   1.971
 6722TIP3    H220108   3.115   5.231   2.044
 6723TIP3   OH220109   3.039   6.446   0.009
 6723TIP3    H120110   3.069   6.406  -0.073
 6723TIP3    H220111   2.943   6.441   0.004
 6724TIP3   OH220112   4.820   7.852   1.546
 6724TIP3    H120113   4.870   7.896   1.614
 6724TIP3    H220114   4.774   7.782   1.591
 6725TIP3   OH220115   2.753   6.673   2.463
 6725TIP3    H120116   2.700   6.708   2.534
 6725TIP3    H220117   2.723   6.582   2.454
 6726TIP3   OH220118   5.930   0.234   2.742
 6726TIP3    H120119   5.986   0.311   2.748
 6726TIP3    H220120   5.915   0.208   2.833
 6727TIP3   OH220121   5.989   2.379   6.672
 6727TIP3    H120122   5.951   2.337   6.749
 6727TIP3    H220123   6.079   2.399   6.698
 6728TIP3   OH220124   0.681   0.102   3.291
 6728TIP3    H120125   0.635   0.180   3.323
 6728TIP3    H220126   0.633   0.029   3.330
 6729TIP3   OH220127   6.902   6.569   0.301
 6729TIP3    H120128   6.949   6.651   0.287
 6729TIP3    H220129   6.815   6.584   0.262
 6730TIP3   OH220130   3.118   7.477   0.026
 6730TIP3    H120131   3.103   7.395   0.072
 6730TIP3    H220132   3.200   7.510   0.062
 6731TIP3   OH220133   4.515   0.510   5.031
 6731TIP3    H120134   4.561   0.428   5.012
 6731TIP3    H220135   4.461   0.525   4.954
 6732TIP3   OH220136   1.312   0.890   4.028
 6732TIP3    H120137   1.387   0.855   4.076
 6732TIP3    H220138   1.344   0.972   3.990
 6733TIP3   OH220139   0.279   4.516   2.236
 6733TIP3    H120140   0.302   4.531   2.328
 6733TIP3    H220141   0.185   4.500   2.237
 6734TIP3   OH220142   5.830   1.791   3.412
 6734TIP3    H120143   5.803   1.880   3.390
 6734TIP3    H220144   5.783   1.770   3.492
 6735TIP3   OH220145   1.142   7.650   1.163
 6735TIP3    H120146   1.190   7.733   1.164
 6735TIP3    H220147   1.203   7.585   1.197
 6736TIP3   OH220148   2.320   0.244   2.301
 6736TIP3    H120149   2.372   0.280   2.229
 6736TIP3    H220150   2.254   0.190   2.258
 6737TIP3   OH220151   3.802   7.643   4.152
 6737TIP3    H120152   3.755   7.709   4.203
 6737TIP3    H220153   3.759   7.646   4.066
 6738TIP3   OH220154   3.949   5.818   0.019
 6738TIP3    H120155   3.976   5.903   0.052
 6738TIP3    H220156   3.858   5.830  -0.007
 6739TIP3   OH220157   5.053   1.449   1.118
 6739TIP3    H120158   5.076   1.472   1.208
 6739TIP3    H220159   5.074   1.356   1.110
 6740TIP3   OH220160   0.013   0.367   1.045
 6740TIP3    H120161   0.032   0.290   0.992
 6740TIP3    H220162  -0.018   0.331   1.129
 6741TIP3   OH220163   2.131   5.554   1.832
 6741TIP3    H120164   2.088   5.634   1.801
 6741TIP3    H220165   2.179   5.522   1.757
 6742TIP3   OH220166   1.941   2.729   6.497
 6742TIP3    H120167   1.867   2.783   6.523
 6742TIP3    H220168   1.963   2.759   6.409
 6743TIP3   OH220169   3.020   3.776   1.209
 6743TIP3    H120170   3.111   3.758   1.184
 6743TIP3    H220171   2.971   3.700   1.179
 6744TIP3   OH220172   5.396   2.861   1.249
 6744TIP3    H120173   5.392   2.931   1.314
 6744TIP3    H220174   5.304   2.840   1.230
 6745TIP3   OH220175   7.037   0.294   3.813
 6745TIP3    H120176   7.128   0.285   3.785
 6745TIP3    H220177   7.032   0.246   3.896
 6746TIP3   OH220178   3.219   6.830   6.489
 6746TIP3    H120179   3.208   6.922   6.463
 6746TIP3    H220180   3.161   6.820   6.564
 6747TIP3   OH220181   6.499   1.088   2.467
 6747TIP3    H120182   6.451   1.064   2.546
 6747TIP3    H220183   6.471   1.178   2.449
 6748TIP3   OH220184   6.819   2.878   1.443
 6748TIP3    H120185   6.767   2.802   1.416
 6748TIP3    H220186   6.782   2.904   1.527
 6749TIP3   OH220187   5.823   4.050   3.058
 6749TIP3    H120188   5.827   4.142   3.087
 6749TIP3    H220189   5.755   4.049   2.990
 6750TIP3   OH220190   2.369   1.028   2.645
 6750TIP3    H120191   2.380   1.046   2.552
 6750TIP3    H220192   2.399   1.107   2.689
 6751TIP3   OH220193   1.332   4.309   5.214
 6751TIP3    H120194   1.294   4.227   5.183
 6751TIP3    H220195   1.423   4.307   5.184
 6752TIP3   OH220196   1.791   6.839   6.088
 6752TIP3    H120197   1.873   6.817   6.044
 6752TIP3    H220198   1.764   6.922   6.047
 6753TIP3   OH220199   3.727   6.952   3.216
 6753TIP3    H120200   3.704   7.043   3.237
 6753TIP3    H220201   3.813   6.959   3.175
 6754TIP3   OH220202   5.520   7.311   4.002
 6754TIP3    H120203   5.442   7.284   3.953
 6754TIP3    H220204   5.489   7.319   4.092
 6755TIP3   OH220205   5.601   7.689   4.685
 6755TIP3    H120206   5.651   7.621   4.640
 6755TIP3    H220207   5.559   7.644   4.758
 6756TIP3   OH220208   3.963   3.110   2.993
 6756TIP3    H120209   3.883   3.057   2.990
 6756TIP3    H220210   4.018   3.067   3.058
 6757TIP3   OH220211   1.801   0.973   5.309
 6757TIP3    H120212   1.753   0.938   5.384
 6757TIP3    H220213   1.738   0.969   5.237
 6758TIP3   OH220214   3.269   6.746   1.648
 6758TIP3    H120215   3.340   6.728   1.586
 6758TIP3    H220216   3.229   6.661   1.664
 6759TIP3   OH220217   1.148   7.553   6.787
 6759TIP3    H120218   1.112   7.472   6.751
 6759TIP3    H220219   1.221   7.574   6.729
 6760TIP3   OH220220   6.207   3.649   4.591
 6760TIP3    H120221   6.187   3.558   4.569
 6760TIP3    H220222   6.175   3.699   4.516
 6761TIP3   OH220223   3.797   4.419   4.585
 6761TIP3    H120224   3.835   4.479   4.520
 6761TIP3    H220225   3.818   4.332   4.551
 6762TIP3   OH220226   7.923   5.023   6.108
 6762TIP3    H120227   7.935   5.100   6.164
 6762TIP3    H220228   7.828   5.013   6.101
 6763TIP3   OH220229   8.155   6.650   4.622
 6763TIP3    H120230   8.081   6.618   4.674
 6763TIP3    H220231   8.143   6.610   4.536
 6764TIP3   OH220232   6.761   6.165   2.757
 6764TIP3    H120233   6.808   6.095   2.803
 6764TIP3    H220234   6.764   6.138   2.665
 6765TIP3   OH220235   1.774   3.814   1.728
 6765TIP3    H120236   1.762   3.879   1.659
 6765TIP3    H220237   1.730   3.736   1.695
 6766TIP3   OH220238   6.842   2.351   0.920
 6766TIP3    H120239   6.794   2.371   1.001
 6766TIP3    H220240   6.857   2.257   0.923
 6767TIP3   OH220241   0.607   3.505   0.369
 6767TIP3    H120242   0.682   3.557   0.397
 6767TIP3    H220243   0.548   3.568   0.329
 6768TIP3   OH220244   2.259   7.339   1.392
 6768TIP3    H120245   2.188   7.276   1.402
 6768TIP3    H220246   2.226   7.420   1.431
 6769TIP3   OH220247   5.114   4.040   3.674
 6769TIP3    H120248   5.189   4.018   3.619
 6769TIP3    H220249   5.059   3.961   3.672
 6770TIP3   OH220250   5.707   7.554   6.033
 6770TIP3    H120251   5.753   7.470   6.028
 6770TIP3    H220252   5.669   7.565   5.946
 6771TIP3   OH220253   1.382   2.061   6.284
 6771TIP3    H120254   1.309   2.034   6.339
 6771TIP3    H220255   1.340   2.096   6.205
 6772TIP3   OH220256   5.243   0.568   5.476
 6772TIP3    H120257   5.242   0.635   5.545
 6772TIP3    H220258   5.247   0.617   5.395
 6773TIP3   OH220259   3.136   3.718   3.919
 6773TIP3    H120260   3.196   3.665   3.866
 6773TIP3    H220261   3.059   3.663   3.930
 6774TIP3   OH220262   1.848   2.312   1.233
 6774TIP3    H120263   1.851   2.341   1.325
 6774TIP3    H220264   1.789   2.237   1.234
 6775TIP3   OH220265   0.292   3.980   2.083
 6775TIP3    H120266   0.338   4.014   2.007
 6775TIP3    H220267   0.246   4.055   2.119
 6776TIP3   OH220268   3.528   2.807   3.318
 6776TIP3    H120269   3.493   2.772   3.400
 6776TIP3    H220270   3.529   2.902   3.331
 6777TIP3   OH220271   1.324   4.742   0.436
 6777TIP3    H120272   1.290   4.654   0.421
 6777TIP3    H220273   1.415   4.737   0.407
 6778TIP3   OH220274   6.180   4.115   6.364
 6778TIP3    H120275   6.259   4.163   6.337
 6778TIP3    H220276   6.213   4.030   6.393
 6779TIP3   OH220277   7.240   5.145   4.587
 6779TIP3    H120278   7.275   5.153   4.498
 6779TIP3    H220279   7.156   5.191   4.584
 6780TIP3   OH220280   0.583   1.455   1.185
 6780TIP3    H120281   0.564   1.405   1.265
 6780TIP3    H220282   0.502   1.451   1.135
 6781TIP3   OH220283   3.976   5.690   3.975
 6781TIP3    H120284   3.903   5.748   3.998
 6781TIP3    H220285   3.934   5.614   3.933
 6782TIP3   OH220286   8.011   0.401   2.023
 6782TIP3    H120287   8.066   0.327   1.995
 6782TIP3    H220288   8.064   0.478   2.004
 6783TIP3   OH220289   2.247   5.494   5.670
 6783TIP3    H120290   2.202   5.447   5.600
 6783TIP3    H220291   2.177   5.536   5.720
 6784TIP3   OH220292   5.239   7.682   0.107
 6784TIP3    H120293   5.196   7.639   0.033
 6784TIP3    H220294   5.304   7.618   0.137
 6785TIP3   OH220295   5.271   7.258   1.887
 6785TIP3    H120296   5.207   7.205   1.934
 6785TIP3    H220297   5.218   7.309   1.825
 6786TIP3   OH220298   5.991   4.635   3.590
 6786TIP3    H120299   5.940   4.688   3.650
 6786TIP3    H220300   6.020   4.560   3.643
 6787TIP3   OH220301   7.615   2.526   1.211
 6787TIP3    H120302   7.660   2.452   1.171
 6787TIP3    H220303   7.555   2.557   1.144
 6788TIP3   OH220304   4.735   3.594   1.687
 6788TIP3    H120305   4.756   3.523   1.627
 6788TIP3    H220306   4.793   3.666   1.662
 6789TIP3   OH220307   2.302   0.951   0.527
 6789TIP3    H120308   2.211   0.941   0.500
 6789TIP3    H220309   2.312   1.045   0.543
 6790TIP3   OH220310   6.176   4.883   6.450
 6790TIP3    H120311   6.264   4.847   6.465
 6790TIP3    H220312   6.161   4.870   6.357
 6791TIP3   OH220313   7.888   3.683   3.518
 6791TIP3    H120314   7.931   3.723   3.442
 6791TIP3    H220315   7.814   3.740   3.537
 6792TIP3   OH220316   0.467   3.614   6.166
 6792TIP3    H120317   0.395   3.675   6.185
 6792TIP3    H220318   0.438   3.568   6.086
 6793TIP3   OH220319   5.408   2.193   6.265
 6793TIP3    H120320   5.321   2.210   6.229
 6793TIP3    H220321   5.465   2.185   6.188
 6794TIP3   OH220322   7.268   2.590   1.664
 6794TIP3    H120323   7.325   2.596   1.587
 6794TIP3    H220324   7.318   2.536   1.726
 6795TIP3   OH220325   0.650   4.941   2.196
 6795TIP3    H120326   0.587   4.887   2.149
 6795TIP3    H220327   0.670   5.013   2.135
 6796TIP3   OH220328   7.687   1.755   3.921
 6796TIP3    H120329   7.779   1.763   3.944
 6796TIP3    H220330   7.647   1.706   3.992
 6797TIP3   OH220331   5.374   6.517   4.739
 6797TIP3    H120332   5.311   6.501   4.809
 6797TIP3    H220333   5.362   6.444   4.679
 6798TIP3   OH220334   6.141   2.622   1.923
 6798TIP3    H120335   6.142   2.673   1.842
 6798TIP3    H220336   6.147   2.531   1.895
 6799TIP3   OH220337   3.331   0.420   2.570
 6799TIP3    H120338   3.332   0.429   2.475
 6799TIP3    H220339   3.355   0.328   2.585
 6800TIP3   OH220340   2.802   2.756   3.729
 6800TIP3    H120341   2.741   2.689   3.760
 6800TIP3    H220342   2.888   2.718   3.741
 6801TIP3   OH220343   5.429   1.888   0.608
 6801TIP3    H120344   5.415   1.935   0.689
 6801TIP3    H220345   5.362   1.922   0.548
 6802TIP3   OH220346   2.223   5.525   6.682
 6802TIP3    H120347   2.163   5.598   6.663
 6802TIP3    H220348   2.310   5.563   6.670
 6803TIP3   OH220349   6.545   6.289   1.732
 6803TIP3    H120350   6.554   6.256   1.643
 6803TIP3    H220351   6.538   6.384   1.723
 6804TIP3   OH220352   7.158   3.751   4.995
 6804TIP3    H120353   7.174   3.719   5.084
 6804TIP3    H220354   7.076   3.801   5.002
 6805TIP3   OH220355   6.231   3.413   6.230
 6805TIP3    H120356   6.246   3.353   6.302
 6805TIP3    H220357   6.136   3.423   6.227
 6806TIP3   OH220358   4.830   0.337   6.555
 6806TIP3    H120359   4.817   0.265   6.493
 6806TIP3    H220360   4.869   0.294   6.632
 6807TIP3   OH220361   1.655   4.300   5.037
 6807TIP3    H120362   1.612   4.383   5.016
 6807TIP3    H220363   1.744   4.309   5.003
 6808TIP3   OH220364   4.239   0.127   1.361
 6808TIP3    H120365   4.223   0.221   1.367
 6808TIP3    H220366   4.291   0.117   1.281
 6809TIP3   OH220367   2.560   2.027   2.915
 6809TIP3    H120368   2.491   2.093   2.901
 6809TIP3    H220369   2.640   2.078   2.926
 6810TIP3   OH220370   6.562   5.869   5.773
 6810TIP3    H120371   6.650   5.835   5.757
 6810TIP3    H220372   6.555   5.875   5.868
 6811TIP3   OH220373   5.529   2.833   4.427
 6811TIP3    H120374   5.478   2.914   4.428
 6811TIP3    H220375   5.590   2.843   4.354
 6812TIP3   OH220376   0.834   5.348   6.788
 6812TIP3    H120377   0.834   5.421   6.726
 6812TIP3    H220378   0.778   5.379   6.860
 6813TIP3   OH220379   5.890   7.328   4.936
 6813TIP3    H120380   5.843   7.411   4.947
 6813TIP3    H220381   5.834   7.262   4.977
 6814TIP3   OH220382   1.127   5.961   0.391
 6814TIP3    H120383   1.114   5.988   0.482
 6814TIP3    H220384   1.222   5.966   0.378
 6815TIP3   OH220385   4.807   7.540   4.211
 6815TIP3    H120386   4.766   7.598   4.147
 6815TIP3    H220387   4.740   7.474   4.229
 6816TIP3   OH220388   8.015   4.046   5.283
 6816TIP3    H120389   8.032   4.140   5.282
 6816TIP3    H220390   7.954   4.033   5.355
 6817TIP3   OH220391   1.123   6.938   5.904
 6817TIP3    H120392   1.071   6.878   5.851
 6817TIP3    H220393   1.158   6.883   5.975
 6818TIP3   OH220394   6.313   0.272   1.636
 6818TIP3    H120395   6.224   0.305   1.627
 6818TIP3    H220396   6.360   0.308   1.561
 6819TIP3   OH220397   5.760   0.519   3.381
 6819TIP3    H120398   5.810   0.488   3.306
 6819TIP3    H220399   5.821   0.573   3.430
 6820TIP3   OH220400   1.369   6.502   0.485
 6820TIP3    H120401   1.296   6.450   0.453
 6820TIP3    H220402   1.351   6.515   0.578
 6821TIP3   OH220403   3.297   1.483   4.620
 6821TIP3    H120404   3.262   1.533   4.694
 6821TIP3    H220405   3.219   1.453   4.573
 6822TIP3   OH220406   7.545   2.047   4.643
 6822TIP3    H120407   7.616   2.026   4.704
 6822TIP3    H220408   7.469   2.001   4.679
 6823TIP3   OH220409   0.644   6.886   5.738
 6823TIP3    H120410   0.648   6.809   5.681
 6823TIP3    H220411   0.555   6.919   5.727
 6824TIP3   OH220412   7.869   3.192   1.691
 6824TIP3    H120413   7.802   3.260   1.683
 6824TIP3    H220414   7.948   3.232   1.655
 6825TIP3   OH220415   2.326   0.836   0.831
 6825TIP3    H120416   2.408   0.806   0.870
 6825TIP3    H220417   2.352   0.871   0.746
 6826TIP3   OH220418   4.140   1.237   0.856
 6826TIP3    H120419   4.151   1.210   0.948
 6826TIP3    H220420   4.227   1.265   0.828
 6827TIP3   OH220421   0.050   5.111   6.376
 6827TIP3    H120422   0.043   5.080   6.285
 6827TIP3    H220423   0.140   5.142   6.384
 6828TIP3   OH220424   0.374   5.648   4.230
 6828TIP3    H120425   0.463   5.673   4.204
 6828TIP3    H220426   0.317   5.707   4.179
 6829TIP3   OH220427   0.683   7.666   2.164
 6829TIP3    H120428   0.766   7.654   2.209
 6829TIP3    H220429   0.707   7.685   2.074
 6830TIP3   OH220430   8.234   4.591   2.178
 6830TIP3    H120431   8.322   4.629   2.169
 6830TIP3    H220432   8.174   4.663   2.159
 6831TIP3   OH220433   4.039   2.061   1.287
 6831TIP3    H120434   3.974   2.126   1.313
 6831TIP3    H220435   4.062   2.016   1.368
 6832TIP3   OH220436   3.031   4.395   6.682
 6832TIP3    H120437   3.082   4.315   6.697
 6832TIP3    H220438   3.094   4.466   6.689
 6833TIP3   OH220439   4.951   1.262   5.910
 6833TIP3    H120440   4.904   1.202   5.853
 6833TIP3    H220441   4.925   1.349   5.880
 6834TIP3   OH220442   8.335   2.772   2.964
 6834TIP3    H120443   8.247   2.805   2.982
 6834TIP3    H220444   8.393   2.841   2.994
 6835TIP3   OH220445   2.464   7.895   5.751
 6835TIP3    H120446   2.537   7.896   5.813
 6835TIP3    H220447   2.407   7.824   5.783
 6836TIP3   OH220448   4.488   5.623   2.581
 6836TIP3    H120449   4.545   5.654   2.651
 6836TIP3    H220450   4.504   5.685   2.509
 6837TIP3   OH220451   2.389   1.479   3.434
 6837TIP3    H120452   2.299   1.475   3.464
 6837TIP3    H220453   2.398   1.567   3.397
 6838TIP3   OH220454   0.720   7.212   3.926
 6838TIP3    H120455   0.759   7.156   3.859
 6838TIP3    H220456   0.779   7.287   3.932
 6839TIP3   OH220457   2.499   7.336   5.614
 6839TIP3    H120458   2.428   7.272   5.611
 6839TIP3    H220459   2.483   7.386   5.694
 6840TIP3   OH220460   1.164   0.309   5.316
 6840TIP3    H120461   1.256   0.290   5.299
 6840TIP3    H220462   1.138   0.245   5.382
 6841TIP3   OH220463   8.035   3.846   2.024
 6841TIP3    H120464   8.035   3.854   2.119
 6841TIP3    H220465   8.085   3.766   2.006
 6842TIP3   OH220466   2.612   0.965   3.940
 6842TIP3    H120467   2.574   0.884   3.974
 6842TIP3    H220468   2.553   1.034   3.971
 6843TIP3   OH220469   3.033   6.963   4.171
 6843TIP3    H120470   3.067   6.916   4.095
 6843TIP3    H220471   2.969   6.904   4.210
 6844TIP3   OH220472   7.650   5.038   2.108
 6844TIP3    H120473   7.661   5.002   2.020
 6844TIP3    H220474   7.658   4.962   2.166
 6845TIP3   OH220475   1.477   1.072   2.446
 6845TIP3    H120476   1.488   1.027   2.529
 6845TIP3    H220477   1.505   1.162   2.464
 6846TIP3   OH220478   1.873   4.966   1.196
 6846TIP3    H120479   1.893   5.033   1.131
 6846TIP3    H220480   1.909   5.001   1.278
 6847TIP3   OH220481   6.866   1.329   0.647
 6847TIP3    H120482   6.778   1.334   0.611
 6847TIP3    H220483   6.860   1.372   0.732
 6848TIP3   OH220484   5.598   0.140   3.702
 6848TIP3    H120485   5.506   0.154   3.726
 6848TIP3    H220486   5.603   0.167   3.610
 6849TIP3   OH220487   3.242   5.208   4.850
 6849TIP3    H120488   3.236   5.260   4.770
 6849TIP3    H220489   3.298   5.259   4.908
 6850TIP3   OH220490   4.964   6.038   6.192
 6850TIP3    H120491   4.902   6.109   6.211
 6850TIP3    H220492   4.909   5.963   6.170
 6851TIP3   OH220493   6.706   2.004   0.455
 6851TIP3    H120494   6.737   1.916   0.436
 6851TIP3    H220495   6.672   2.037   0.371
 6852TIP3   OH220496   5.565   2.336   3.592
 6852TIP3    H120497   5.533   2.311   3.679
 6852TIP3    H220498   5.485   2.353   3.541
 6853TIP3   OH220499   5.419   7.694   5.069
 6853TIP3    H120500   5.400   7.607   5.106
 6853TIP3    H220501   5.369   7.695   4.987
 6854TIP3   OH220502   6.391   1.742   4.239
 6854TIP3    H120503   6.444   1.809   4.281
 6854TIP3    H220504   6.319   1.726   4.300
 6855TIP3   OH220505   1.644   0.772   1.578
 6855TIP3    H120506   1.730   0.778   1.535
 6855TIP3    H220507   1.592   0.715   1.520
 6856TIP3   OH220508   7.600   7.675   0.789
 6856TIP3    H120509   7.549   7.750   0.761
 6856TIP3    H220510   7.640   7.641   0.709
 6857TIP3   OH220511   3.416   7.100   3.455
 6857TIP3    H120512   3.506   7.128   3.473
 6857TIP3    H220513   3.363   7.159   3.509
 6858TIP3   OH220514   2.180   7.064   1.740
 6858TIP3    H120515   2.181   7.060   1.835
 6858TIP3    H220516   2.108   7.123   1.718
 6859TIP3   OH220517   5.508   5.091   3.527
 6859TIP3    H120518   5.586   5.146   3.536
 6859TIP3    H220519   5.438   5.153   3.509
 6860TIP3   OH220520   4.505   2.509   0.244
 6860TIP3    H120521   4.491   2.600   0.217
 6860TIP3    H220522   4.510   2.512   0.339
 6861TIP3   OH220523   3.694   0.066   2.744
 6861TIP3    H120524   3.661   0.125   2.675
 6861TIP3    H220525   3.625   0.067   2.810
 6862TIP3   OH220526   0.502   3.687   1.951
 6862TIP3    H120527   0.558   3.618   1.917
 6862TIP3    H220528   0.450   3.715   1.876
 6863TIP3   OH220529   6.621   3.964   1.256
 6863TIP3    H120530   6.694   3.902   1.248
 6863TIP3    H220531   6.661   4.050   1.241
 6864TIP3   OH220532   7.867   1.112   2.543
 6864TIP3    H120533   7.960   1.133   2.553
 6864TIP3    H220534   7.844   1.143   2.456
 6865TIP3   OH220535   7.492   3.647   4.451
 6865TIP3    H120536   7.552   3.674   4.521
 6865TIP3    H220537   7.542   3.584   4.399
 6866TIP3   OH220538   8.113   4.629   6.318
 6866TIP3    H120539   8.133   4.588   6.234
 6866TIP3    H220540   8.127   4.723   6.303
 6867TIP3   OH220541   6.230   3.327   1.073
 6867TIP3    H120542   6.143   3.290   1.061
 6867TIP3    H220543   6.228   3.410   1.026
 6868TIP3   OH220544   3.154   3.151   0.769
 6868TIP3    H120545   3.231   3.166   0.823
 6868TIP3    H220546   3.187   3.108   0.690
 6869TIP3   OH220547   3.670   3.582   4.968
 6869TIP3    H120548   3.629   3.578   5.054
 6869TIP3    H220549   3.608   3.630   4.913
 6870TIP3   OH220550   1.202   2.263   2.803
 6870TIP3    H120551   1.233   2.205   2.734
 6870TIP3    H220552   1.175   2.204   2.873
 6871TIP3   OH220553   8.082   2.375   4.351
 6871TIP3    H120554   8.020   2.333   4.411
 6871TIP3    H220555   8.035   2.380   4.267
 6872TIP3   OH220556   5.049   1.282   6.407
 6872TIP3    H120557   5.077   1.363   6.364
 6872TIP3    H220558   5.041   1.305   6.499
 6873TIP3   OH220559   3.750   3.008   1.375
 6873TIP3    H120560   3.770   3.101   1.384
 6873TIP3    H220561   3.817   2.964   1.427
 6874TIP3   OH220562   7.612   1.129   1.068
 6874TIP3    H120563   7.562   1.123   0.987
 6874TIP3    H220564   7.545   1.126   1.137
 6875TIP3   OH220565   0.572   3.492   3.611
 6875TIP3    H120566   0.576   3.399   3.589
 6875TIP3    H220567   0.487   3.503   3.654
 6876TIP3   OH220568   4.926   4.880   0.360
 6876TIP3    H120569   4.938   4.848   0.271
 6876TIP3    H220570   4.984   4.955   0.368
 6877TIP3   OH220571   5.892   4.895   5.047
 6877TIP3    H120572   5.840   4.827   5.004
 6877TIP3    H220573   5.916   4.955   4.977
 6878TIP3   OH220574   0.810   4.265   1.553
 6878TIP3    H120575   0.856   4.345   1.528
 6878TIP3    H220576   0.877   4.197   1.555
 6879TIP3   OH220577   6.429   7.241   3.194
 6879TIP3    H120578   6.482   7.265   3.270
 6879TIP3    H220579   6.377   7.319   3.175
 6880TIP3   OH220580   6.298   0.681   3.849
 6880TIP3    H120581   6.276   0.590   3.868
 6880TIP3    H220582   6.382   0.696   3.892
 6881TIP3   OH220583   3.223   4.660   3.306
 6881TIP3    H120584   3.217   4.570   3.336
 6881TIP3    H220585   3.176   4.711   3.373
 6882TIP3   OH220586   3.840   6.473   5.571
 6882TIP3    H120587   3.898   6.398   5.583
 6882TIP3    H220588   3.783   6.449   5.498
 6883TIP3   OH220589   7.527   4.451   2.273
 6883TIP3    H120590   7.438   4.416   2.267
 6883TIP3    H220591   7.539   4.472   2.366
 6884TIP3   OH220592   0.951   5.870   5.484
 6884TIP3    H120593   0.988   5.839   5.567
 6884TIP3    H220594   0.934   5.790   5.434
 6885TIP3   OH220595   3.316   7.517   3.927
 6885TIP3    H120596   3.321   7.606   3.962
 6885TIP3    H220597   3.386   7.469   3.971
 6886TIP3   OH220598   0.916   0.227   1.940
 6886TIP3    H120599   0.843   0.191   1.989
 6886TIP3    H220600   0.923   0.318   1.970
 6887TIP3   OH220601   8.240   3.856   1.450
 6887TIP3    H120602   8.219   3.922   1.516
 6887TIP3    H220603   8.213   3.773   1.490
 6888TIP3   OH220604   5.430   6.832   6.597
 6888TIP3    H120605   5.443   6.832   6.692
 6888TIP3    H220606   5.438   6.924   6.572
 6889TIP3   OH220607   3.111   2.384   5.979
 6889TIP3    H120608   3.147   2.398   6.067
 6889TIP3    H220609   3.178   2.417   5.920
 6890TIP3   OH220610   4.473   4.740   0.622
 6890TIP3    H120611   4.484   4.781   0.707
 6890TIP3    H220612   4.493   4.648   0.637
 6891TIP3   OH220613   0.460   5.624   2.749
 6891TIP3    H120614   0.500   5.668   2.674
 6891TIP3    H220615   0.417   5.547   2.711
 6892TIP3   OH220616   3.712   0.205   0.840
 6892TIP3    H120617   3.757   0.277   0.883
 6892TIP3    H220618   3.755   0.198   0.754
 6893TIP3   OH220619   0.674   6.398   2.120
 6893TIP3    H120620   0.724   6.470   2.079
 6893TIP3    H220621   0.646   6.434   2.204
 6894TIP3   OH220622   1.663   4.541   3.750
 6894TIP3    H120623   1.587   4.599   3.740
 6894TIP3    H220624   1.695   4.558   3.838
 6895TIP3   OH220625   6.284   4.746   4.497
 6895TIP3    H120626   6.226   4.685   4.542
 6895TIP3    H220627   6.311   4.808   4.565
 6896TIP3   OH220628   4.650   3.412   4.222
 6896TIP3    H120629   4.725   3.417   4.163
 6896TIP3    H220630   4.618   3.322   4.213
 6897TIP3   OH220631   7.113   1.728   6.216
 6897TIP3    H120632   7.020   1.736   6.238
 6897TIP3    H220633   7.157   1.721   6.301
 6898TIP3   OH220634   3.303   3.452   3.414
 6898TIP3    H120635   3.372   3.499   3.461
 6898TIP3    H220636   3.221   3.489   3.448
 6899TIP3   OH220637   7.496   2.929   5.126
 6899TIP3    H120638   7.484   2.981   5.205
 6899TIP3    H220639   7.581   2.888   5.136
 6900TIP3   OH220640   6.633   0.152   3.573
 6900TIP3    H120641   6.703   0.092   3.599
 6900TIP3    H220642   6.660   0.237   3.606
 6901TIP3   OH220643   8.167   4.017   3.295
 6901TIP3    H120644   8.245   4.070   3.278
 6901TIP3    H220645   8.160   3.960   3.218
 6902TIP3   OH220646   2.936   1.159   6.559
 6902TIP3    H120647   2.909   1.250   6.548
 6902TIP3    H220648   2.856   1.108   6.543
 6903TIP3   OH220649   4.433   2.358   1.245
 6903TIP3    H120650   4.387   2.274   1.239
 6903TIP3    H220651   4.436   2.390   1.154
 6904TIP3   OH220652   4.764   0.764   4.055
 6904TIP3    H120653   4.725   0.677   4.047
 6904TIP3    H220654   4.743   0.808   3.973
 6905TIP3   OH220655   7.063   1.723   0.060
 6905TIP3    H120656   6.967   1.714   0.061
 6905TIP3    H220657   7.095   1.633   0.072
 6906TIP3   OH220658   7.120   1.167   0.163
 6906TIP3    H120659   7.083   1.106   0.227
 6906TIP3    H220660   7.117   1.119   0.080
 6907TIP3   OH220661   2.801   3.022   0.241
 6907TIP3    H120662   2.792   3.116   0.257
 6907TIP3    H220663   2.742   2.981   0.304
 6908TIP3   OH220664   0.563   1.358   0.143
 6908TIP3    H120665   0.627   1.287   0.143
 6908TIP3    H220666   0.600   1.424   0.202
 6909TIP3   OH220667   3.255   6.033   2.915
 6909TIP3    H120668   3.197   6.097   2.873
 6909TIP3    H220669   3.334   6.082   2.936
 6910TIP3   OH220670   0.231   3.374   1.748
 6910TIP3    H120671   0.186   3.310   1.691
 6910TIP3    H220672   0.305   3.325   1.783
 6911TIP3   OH220673   8.394   7.144   3.610
 6911TIP3    H120674   8.337   7.212   3.575
 6911TIP3    H220675   8.371   7.066   3.560
 6912TIP3   OH220676   0.871   0.496   2.064
 6912TIP3    H120677   0.795   0.550   2.043
 6912TIP3    H220678   0.883   0.507   2.158
 6913TIP3   OH220679   4.687   6.485   4.605
 6913TIP3    H120680   4.626   6.544   4.562
 6913TIP3    H220681   4.703   6.524   4.691
 6914TIP3   OH220682   1.634   7.328   5.462
 6914TIP3    H120683   1.638   7.235   5.485
 6914TIP3    H220684   1.601   7.371   5.541
 6915TIP3   OH220685   6.962   0.623   2.386
 6915TIP3    H120686   6.958   0.698   2.328
 6915TIP3    H220687   6.949   0.660   2.474
 6916TIP3   OH220688   7.939   4.321   2.742
 6916TIP3    H120689   7.976   4.269   2.814
 6916TIP3    H220690   7.973   4.279   2.663
 6917TIP3   OH220691   8.237   2.435   5.019
 6917TIP3    H120692   8.244   2.514   5.073
 6917TIP3    H220693   8.289   2.370   5.066
 6918TIP3   OH220694   4.156   3.653   3.114
 6918TIP3    H120695   4.206   3.615   3.041
 6918TIP3    H220696   4.201   3.623   3.192
 6919TIP3   OH220697   3.147   1.081   5.352
 6919TIP3    H120698   3.234   1.107   5.383
 6919TIP3    H220699   3.163   1.002   5.301
 6920TIP3   OH220700   4.087   0.726   1.683
 6920TIP3    H120701   4.041   0.733   1.599
 6920TIP3    H220702   4.133   0.642   1.679
 6921TIP3   OH220703   4.554   6.573   1.159
 6921TIP3    H120704   4.486   6.557   1.224
 6921TIP3    H220705   4.606   6.645   1.195
 6922TIP3   OH220706   4.939   1.671   0.996
 6922TIP3    H120707   4.951   1.587   1.040
 6922TIP3    H220708   5.001   1.730   1.038
 6923TIP3   OH220709   1.023   7.232   3.240
 6923TIP3    H120710   1.085   7.256   3.170
 6923TIP3    H220711   1.040   7.296   3.309
 6924TIP3   OH220712   8.079   0.567   0.647
 6924TIP3    H120713   8.059   0.612   0.730
 6924TIP3    H220714   8.031   0.617   0.581
 6925TIP3   OH220715   1.234   0.813   0.049
 6925TIP3    H120716   1.241   0.908   0.039
 6925TIP3    H220717   1.294   0.793   0.121
 6926TIP3   OH220718   3.529   6.827   3.962
 6926TIP3    H120719   3.506   6.891   3.895
 6926TIP3    H220720   3.616   6.796   3.937
 6927TIP3   OH220721   0.160   4.379   6.243
 6927TIP3    H120722   0.173   4.470   6.216
 6927TIP3    H220723   0.207   4.371   6.326
 6928TIP3   OH220724   4.504   3.701   2.568
 6928TIP3    H120725   4.484   3.607   2.572
 6928TIP3    H220726   4.599   3.705   2.578
 6929TIP3   OH220727   7.037   1.104   5.065
 6929TIP3    H120728   7.129   1.126   5.084
 6929TIP3    H220729   7.032   1.109   4.969
 6930TIP3   OH220730   8.141   0.486   0.038
 6930TIP3    H120731   8.109   0.536  -0.037
 6930TIP3    H220732   8.236   0.490   0.030
 6931TIP3   OH220733   7.921   0.602   6.079
 6931TIP3    H120734   7.929   0.507   6.088
 6931TIP3    H220735   8.005   0.629   6.044
 6932TIP3   OH220736   7.060   0.617   5.541
 6932TIP3    H120737   7.116   0.569   5.480
 6932TIP3    H220738   7.110   0.696   5.562
 6933TIP3   OH220739   0.680   6.383   0.909
 6933TIP3    H120740   0.732   6.451   0.951
 6933TIP3    H220741   0.685   6.309   0.969
 6934TIP3   OH220742   4.405   7.380   1.617
 6934TIP3    H120743   4.468   7.315   1.587
 6934TIP3    H220744   4.442   7.413   1.699
 6935TIP3   OH220745   0.861   1.321   0.606
 6935TIP3    H120746   0.869   1.383   0.534
 6935TIP3    H220747   0.787   1.354   0.658
 6936TIP3   OH220748   7.771   1.421   2.537
 6936TIP3    H120749   7.843   1.464   2.491
 6936TIP3    H220750   7.813   1.376   2.610
 6937TIP3   OH220751   6.094   2.320   1.083
 6937TIP3    H120752   6.153   2.334   1.009
 6937TIP3    H220753   6.009   2.353   1.053
 6938TIP3   OH220754   6.955   6.921   4.071
 6938TIP3    H120755   6.991   6.875   3.995
 6938TIP3    H220756   6.863   6.895   4.072
 6939TIP3   OH220757   2.313   3.696   4.383
 6939TIP3    H120758   2.387   3.688   4.323
 6939TIP3    H220759   2.283   3.607   4.396
 6940TIP3   OH220760   1.220   5.139   3.801
 6940TIP3    H120761   1.179   5.093   3.874
 6940TIP3    H220762   1.253   5.220   3.840
 6941TIP3   OH220763   4.480   1.609   3.490
 6941TIP3    H120764   4.475   1.537   3.427
 6941TIP3    H220765   4.516   1.682   3.439
 6942TIP3   OH220766   4.146   4.907   6.599
 6942TIP3    H120767   4.113   4.943   6.681
 6942TIP3    H220768   4.145   4.812   6.613
 6943TIP3   OH220769   8.261   6.046   0.019
 6943TIP3    H120770   8.237   6.096   0.098
 6943TIP3    H220771   8.251   6.108  -0.053
 6944TIP3   OH220772   7.773   4.464   2.146
 6944TIP3    H120773   7.697   4.466   2.203
 6944TIP3    H220774   7.738   4.482   2.059
 6945TIP3   OH220775   2.730   1.482   6.062
 6945TIP3    H120776   2.750   1.401   6.014
 6945TIP3    H220777   2.798   1.487   6.129
 6946TIP3   OH220778   0.812   2.458   6.843
 6946TIP3    H120779   0.820   2.368   6.874
 6946TIP3    H220780   0.889   2.472   6.788
 6947TIP3   OH220781   7.373   0.872   1.679
 6947TIP3    H120782   7.286   0.837   1.698
 6947TIP3    H220783   7.421   0.864   1.762
 6948TIP3   OH220784   0.527   4.840   1.821
 6948TIP3    H120785   0.567   4.845   1.734
 6948TIP3    H220786   0.447   4.891   1.814
 6949TIP3   OH220787   3.392   5.454   5.676
 6949TIP3    H120788   3.431   5.521   5.620
 6949TIP3    H220789   3.312   5.494   5.709
 6950TIP3   OH220790   5.315   3.013   6.428
 6950TIP3    H120791   5.253   3.022   6.356
 6950TIP3    H220792   5.367   3.093   6.425
 6951TIP3   OH220793   7.272   1.531   6.070
 6951TIP3    H120794   7.246   1.595   6.137
 6951TIP3    H220795   7.204   1.464   6.073
 6952TIP3   OH220796   6.489   3.346   2.454
 6952TIP3    H120797   6.484   3.251   2.467
 6952TIP3    H220798   6.511   3.381   2.541
 6953TIP3   OH220799   2.514   1.649   3.709
 6953TIP3    H120800   2.430   1.688   3.684
 6953TIP3    H220801   2.515   1.564   3.664
 6954TIP3   OH220802   6.120   7.909   4.626
 6954TIP3    H120803   6.042   7.952   4.591
 6954TIP3    H220804   6.156   7.861   4.552
 6955TIP3   OH220805   3.653   6.818   1.176
 6955TIP3    H120806   3.699   6.810   1.259
 6955TIP3    H220807   3.703   6.765   1.114
 6956TIP3   OH220808   0.418   7.637   1.193
 6956TIP3    H120809   0.448   7.727   1.202
 6956TIP3    H220810   0.356   7.626   1.265
 6957TIP3   OH220811   2.010   4.843   0.151
 6957TIP3    H120812   2.065   4.808   0.081
 6957TIP3    H220813   1.924   4.853   0.111
 6958TIP3   OH220814   5.567   6.738   0.854
 6958TIP3    H120815   5.523   6.701   0.931
 6958TIP3    H220816   5.591   6.827   0.881
 6959TIP3   OH220817   6.238   2.602   0.967
 6959TIP3    H120818   6.268   2.553   1.044
 6959TIP3    H220819   6.227   2.536   0.899
 6960TIP3   OH220820   6.302   5.164   3.905
 6960TIP3    H120821   6.284   5.212   3.986
 6960TIP3    H220822   6.219   5.167   3.857
 6961TIP3   OH220823   5.158   2.219   4.810
 6961TIP3    H120824   5.101   2.270   4.869
 6961TIP3    H220825   5.184   2.281   4.742
 6962TIP3   OH220826   1.211   2.654   0.246
 6962TIP3    H120827   1.202   2.749   0.252
 6962TIP3    H220828   1.299   2.640   0.213
 6963TIP3   OH220829   5.699   3.769   5.650
 6963TIP3    H120830   5.670   3.778   5.560
 6963TIP3    H220831   5.653   3.838   5.698
 6964TIP3   OH220832   7.617   4.018   4.650
 6964TIP3    H120833   7.642   4.038   4.560
 6964TIP3    H220834   7.529   4.055   4.659
 6965TIP3   OH220835   0.517   5.484   5.473
 6965TIP3    H120836   0.468   5.430   5.534
 6965TIP3    H220837   0.471   5.568   5.473
 6966TIP3   OH220838   0.987   3.755   1.549
 6966TIP3    H120839   1.012   3.683   1.491
 6966TIP3    H220840   1.070   3.792   1.578
 6967TIP3   OH220841   2.544   4.582   4.256
 6967TIP3    H120842   2.461   4.589   4.301
 6967TIP3    H220843   2.603   4.641   4.303
 6968TIP3   OH220844   5.155   6.319   3.565
 6968TIP3    H120845   5.164   6.293   3.656
 6968TIP3    H220846   5.140   6.413   3.568
 6969TIP3   OH220847   5.145   0.153   1.568
 6969TIP3    H120848   5.086   0.102   1.623
 6969TIP3    H220849   5.129   0.120   1.479
 6970TIP3   OH220850   3.965   2.310   4.606
 6970TIP3    H120851   4.027   2.312   4.678
 6970TIP3    H220852   3.961   2.218   4.580
 6971TIP3   OH220853   3.732   6.721   5.735
 6971TIP3    H120854   3.787   6.780   5.786
 6971TIP3    H220855   3.793   6.658   5.696
 6972TIP3   OH220856   5.658   5.958   6.743
 6972TIP3    H120857   5.686   5.939   6.654
 6972TIP3    H220858   5.691   6.046   6.761
 6973TIP3   OH220859   7.912   5.414   1.731
 6973TIP3    H120860   7.932   5.415   1.638
 6973TIP3    H220861   7.922   5.505   1.760
 6974TIP3   OH220862   5.495   1.670   0.395
 6974TIP3    H120863   5.473   1.727   0.469
 6974TIP3    H220864   5.415   1.621   0.379
 6975TIP3   OH220865   4.515   5.079   6.726
 6975TIP3    H120866   4.427   5.117   6.732
 6975TIP3    H220867   4.570   5.137   6.780
 6976TIP3   OH220868   0.713   7.579   1.199
 6976TIP3    H120869   0.619   7.573   1.215
 6976TIP3    H220870   0.720   7.598   1.105
 6977TIP3   OH220871   0.863   0.188   2.388
 6977TIP3    H120872   0.949   0.172   2.426
 6977TIP3    H220873   0.832   0.267   2.432
 6978TIP3   OH220874   7.133   7.416   4.154
 6978TIP3    H120875   7.120   7.491   4.212
 6978TIP3    H220876   7.198   7.362   4.198
 6979TIP3   OH220877   5.248   7.179   5.287
 6979TIP3    H120878   5.173   7.218   5.242
 6979TIP3    H220879   5.209   7.124   5.355
 6980TIP3   OH220880   4.828   4.788   2.253
 6980TIP3    H120881   4.923   4.792   2.252
 6980TIP3    H220882   4.807   4.701   2.221
 6981TIP3   OH220883   5.628   7.470   3.417
 6981TIP3    H120884   5.687   7.442   3.348
 6981TIP3    H220885   5.586   7.389   3.446
 6982TIP3   OH220886   5.232   0.925   2.679
 6982TIP3    H120887   5.289   0.891   2.610
 6982TIP3    H220888   5.268   0.889   2.760
 6983TIP3   OH220889   4.125   4.143   3.256
 6983TIP3    H120890   4.051   4.203   3.265
 6983TIP3    H220891   4.092   4.071   3.201
 6984TIP3   OH220892   7.940   0.511   4.389
 6984TIP3    H120893   8.013   0.476   4.440
 6984TIP3    H220894   7.981   0.551   4.312
 6985TIP3   OH220895   3.347   5.706   4.492
 6985TIP3    H120896   3.268   5.722   4.441
 6985TIP3    H220897   3.386   5.628   4.452
 6986TIP3   OH220898   2.038   3.342   1.434
 6986TIP3    H120899   2.076   3.337   1.346
 6986TIP3    H220900   2.087   3.411   1.478
 6987TIP3   OH220901   1.272   7.287   1.995
 6987TIP3    H120902   1.359   7.319   2.020
 6987TIP3    H220903   1.278   7.192   2.005
 6988TIP3   OH220904   2.159   2.272   2.548
 6988TIP3    H120905   2.251   2.249   2.535
 6988TIP3    H220906   2.121   2.196   2.592
 6989TIP3   OH220907   3.452   4.193   0.213
 6989TIP3    H120908   3.528   4.135   0.220
 6989TIP3    H220909   3.377   4.134   0.222
 6990TIP3   OH220910   7.040   1.875   5.992
 6990TIP3    H120911   7.108   1.882   5.925
 6990TIP3    H220912   7.075   1.810   6.054
 6991TIP3   OH220913   3.327   5.446   2.567
 6991TIP3    H120914   3.308   5.407   2.653
 6991TIP3    H220915   3.325   5.540   2.583
 6992TIP3   OH220916   0.570   6.753   3.091
 6992TIP3    H120917   0.616   6.733   3.009
 6992TIP3    H220918   0.580   6.847   3.102
 6993TIP3   OH220919   6.799   5.696   0.614
 6993TIP3    H120920   6.865   5.725   0.552
 6993TIP3    H220921   6.750   5.628   0.568
 6994TIP3   OH220922   7.410   3.425   1.299
 6994TIP3    H120923   7.425   3.350   1.242
 6994TIP3    H220924   7.315   3.429   1.310
 6995TIP3   OH220925   6.964   1.518   1.176
 6995TIP3    H120926   6.909   1.579   1.226
 6995TIP3    H220927   7.048   1.518   1.222
 6996TIP3   OH220928   6.092   2.872   4.291
 6996TIP3    H120929   6.085   2.967   4.302
 6996TIP3    H220930   6.114   2.860   4.199
 6997TIP3   OH220931   7.908   2.294   1.739
 6997TIP3    H120932   7.847   2.228   1.706
 6997TIP3    H220933   7.885   2.374   1.692
 6998TIP3   OH220934   0.926   3.999   3.530
 6998TIP3    H120935   0.962   4.021   3.444
 6998TIP3    H220936   0.995   3.950   3.574
 6999TIP3   OH220937   1.443   3.130   0.389
 6999TIP3    H120938   1.458   3.139   0.483
 6999TIP3    H220939   1.364   3.076   0.383
 7000TIP3   OH220940   5.785   5.458   5.659
 7000TIP3    H120941   5.773   5.515   5.583
 7000TIP3    H220942   5.794   5.518   5.732
 7001TIP3   OH220943   5.324   1.297   1.319
 7001TIP3    H120944   5.287   1.384   1.333
 7001TIP3    H220945   5.413   1.315   1.288
 7002TIP3   OH220946   3.980   1.097   4.634
 7002TIP3    H120947   4.050   1.050   4.681
 7002TIP3    H220948   3.965   1.046   4.555
 7003TIP3   OH220949   4.520   7.133   5.264
 7003TIP3    H120950   4.539   7.199   5.197
 7003TIP3    H220951   4.564   7.166   5.343
 7004TIP3   OH220952   3.180   6.908   1.892
 7004TIP3    H120953   3.266   6.936   1.922
 7004TIP3    H220954   3.197   6.864   1.808
 7005TIP3   OH220955   2.840   7.096   2.636
 7005TIP3    H120956   2.921   7.051   2.661
 7005TIP3    H220957   2.859   7.189   2.649
 7006TIP3   OH220958   7.429   5.941   0.081
 7006TIP3    H120959   7.509   5.991   0.100
 7006TIP3    H220960   7.373   5.957   0.157
 7007TIP3   OH220961   5.305   1.607   5.227
 7007TIP3    H120962   5.248   1.626   5.152
 7007TIP3    H220963   5.369   1.678   5.227
 7008TIP3   OH220964   0.817   2.801   5.307
 7008TIP3    H120965   0.830   2.893   5.283
 7008TIP3    H220966   0.905   2.764   5.305
 7009TIP3   OH220967   6.590   5.928   1.947
 7009TIP3    H120968   6.504   5.931   1.988
 7009TIP3    H220969   6.630   6.012   1.969
 7010TIP3   OH220970   0.708   7.232   5.203
 7010TIP3    H120971   0.719   7.176   5.280
 7010TIP3    H220972   0.770   7.303   5.215
 7011TIP3   OH220973   7.801   6.290   6.622
 7011TIP3    H120974   7.881   6.255   6.583
 7011TIP3    H220975   7.798   6.382   6.595
 7012TIP3   OH220976   2.461   5.225   1.018
 7012TIP3    H120977   2.551   5.245   0.993
 7012TIP3    H220978   2.418   5.310   1.025
 7013TIP3   OH220979   1.485   0.512   4.833
 7013TIP3    H120980   1.389   0.511   4.833
 7013TIP3    H220981   1.508   0.532   4.924
 7014TIP3   OH220982   7.525   1.863   4.418
 7014TIP3    H120983   7.504   1.911   4.498
 7014TIP3    H220984   7.618   1.841   4.428
 7015TIP3   OH220985   6.568   2.658   5.719
 7015TIP3    H120986   6.552   2.597   5.791
 7015TIP3    H220987   6.501   2.636   5.654
 7016TIP3   OH220988   1.309   7.581   0.831
 7016TIP3    H120989   1.285   7.489   0.834
 7016TIP3    H220990   1.233   7.627   0.867
 7017TIP3   OH220991   4.813   5.477   1.336
 7017TIP3    H120992   4.744   5.534   1.370
 7017TIP3    H220993   4.824   5.410   1.404
 7018TIP3   OH220994   1.273   4.830   2.238
 7018TIP3    H120995   1.343   4.772   2.267
 7018TIP3    H220996   1.192   4.785   2.265
 7019TIP3   OH220997   4.612   7.475   2.934
 7019TIP3    H120998   4.556   7.459   3.010
 7019TIP3    H220999   4.553   7.470   2.859
 7020TIP3   OH221000   3.800   2.653   4.203
 7020TIP3    H121001   3.710   2.623   4.214
 7020TIP3    H221002   3.854   2.584   4.241
 7021TIP3   OH221003   1.425   0.959   0.532
 7021TIP3    H121004   1.430   0.962   0.437
 7021TIP3    H221005   1.478   1.033   0.561
 7022TIP3   OH221006   3.221   3.358   5.391
 7022TIP3    H121007   3.289   3.397   5.337
 7022TIP3    H221008   3.140   3.371   5.342
 7023TIP3   OH221009   0.830   5.887   5.964
 7023TIP3    H121010   0.801   5.804   6.002
 7023TIP3    H221011   0.875   5.932   6.035
 7024TIP3   OH221012   3.499   3.956   2.018
 7024TIP3    H121013   3.479   3.911   1.936
 7024TIP3    H221014   3.585   3.922   2.044
 7025TIP3   OH221015   0.800   5.624   6.693
 7025TIP3    H121016   0.821   5.688   6.760
 7025TIP3    H221017   0.873   5.630   6.631
 7026TIP3   OH221018   1.068   3.421   1.633
 7026TIP3    H121019   1.054   3.360   1.560
 7026TIP3    H221020   1.118   3.493   1.595
 7027TIP3   OH221021   5.126   6.654   5.396
 7027TIP3    H121022   5.190   6.589   5.424
 7027TIP3    H221023   5.142   6.665   5.302
 7028TIP3   OH221024   5.342   5.419   1.193
 7028TIP3    H121025   5.275   5.409   1.125
 7028TIP3    H221026   5.406   5.351   1.175
 7029TIP3   OH221027   6.728   7.242   5.986
 7029TIP3    H121028   6.642   7.209   6.011
 7029TIP3    H221029   6.788   7.205   6.051
 7030TIP3   OH221030   4.053   5.246   3.823
 7030TIP3    H121031   3.998   5.259   3.900
 7030TIP3    H221032   4.024   5.162   3.787
 7031TIP3   OH221033   5.886   2.919   1.793
 7031TIP3    H121034   5.834   2.990   1.755
 7031TIP3    H221035   5.894   2.854   1.723
 7032TIP3   OH221036   1.326   1.856   3.665
 7032TIP3    H121037   1.296   1.772   3.630
 7032TIP3    H221038   1.251   1.914   3.656
 7033TIP3   OH221039   0.647   4.014   5.819
 7033TIP3    H121040   0.591   3.963   5.877
 7033TIP3    H221041   0.591   4.031   5.742
 7034TIP3   OH221042   8.007   4.855   2.861
 7034TIP3    H121043   7.950   4.907   2.805
 7034TIP3    H221044   8.075   4.916   2.890
 7035TIP3   OH221045   6.759   1.042   0.723
 7035TIP3    H121046   6.721   1.056   0.810
 7035TIP3    H221047   6.807   1.123   0.704
 7036TIP3   OH221048   7.286   7.620   5.556
 7036TIP3    H121049   7.248   7.666   5.631
 7036TIP3    H221050   7.376   7.601   5.584
 7037TIP3   OH221051   8.168   3.139   6.445
 7037TIP3    H121052   8.090   3.180   6.479
 7037TIP3    H221053   8.235   3.153   6.512
 7038TIP3   OH221054   6.537   1.873   6.158
 7038TIP3    H121055   6.594   1.939   6.120
 7038TIP3    H221056   6.545   1.798   6.099
 7039TIP3   OH221057   1.434   0.490   2.876
 7039TIP3    H121058   1.446   0.550   2.950
 7039TIP3    H221059   1.520   0.484   2.836
 7040TIP3   OH221060   3.698   5.275   0.182
 7040TIP3    H121061   3.769   5.216   0.155
 7040TIP3    H221062   3.644   5.222   0.240
 7041TIP3   OH221063   1.611   2.519   0.549
 7041TIP3    H121064   1.628   2.520   0.643
 7041TIP3    H221065   1.686   2.471   0.512
 7042TIP3   OH221066   0.809   2.255   6.400
 7042TIP3    H121067   0.879   2.319   6.394
 7042TIP3    H221068   0.797   2.224   6.310
 7043TIP3   OH221069   0.814   2.759   0.750
 7043TIP3    H121070   0.809   2.663   0.754
 7043TIP3    H221071   0.903   2.777   0.720
 7044TIP3   OH221072   0.127   3.911   0.080
 7044TIP3    H121073   0.197   3.970   0.051
 7044TIP3    H221074   0.173   3.829   0.101
 7045TIP3   OH221075   0.441   1.082   2.808
 7045TIP3    H121076   0.370   1.036   2.765
 7045TIP3    H221077   0.398   1.140   2.871
 7046TIP3   OH221078   7.839   6.963   3.266
 7046TIP3    H121079   7.788   7.044   3.270
 7046TIP3    H221080   7.787   6.899   3.316
 7047TIP3   OH221081   3.801   1.528   4.862
 7047TIP3    H121082   3.778   1.619   4.843
 7047TIP3    H221083   3.836   1.494   4.779
 7048TIP3   OH221084   5.698   2.059   5.424
 7048TIP3    H121085   5.696   2.100   5.338
 7048TIP3    H221086   5.772   1.999   5.420
 7049TIP3   OH221087   6.981   2.845   1.210
 7049TIP3    H121088   7.045   2.782   1.243
 7049TIP3    H221089   6.955   2.895   1.287
 7050TIP3   OH221090   2.175   6.307   4.475
 7050TIP3    H121091   2.084   6.336   4.470
 7050TIP3    H221092   2.170   6.221   4.517
 7051TIP3   OH221093   2.765   4.221   2.246
 7051TIP3    H121094   2.678   4.221   2.285
 7051TIP3    H221095   2.750   4.204   2.153
 7052TIP3   OH221096   1.406   0.983   3.268
 7052TIP3    H121097   1.326   1.006   3.315
 7052TIP3    H221098   1.457   1.064   3.265
 7053TIP3   OH221099   7.568   7.403   3.887
 7053TIP3    H121100   7.484   7.422   3.845
 7053TIP3    H221101   7.572   7.463   3.962
 7054TIP3   OH221102   2.619   2.126   0.234
 7054TIP3    H121103   2.634   2.176   0.315
 7054TIP3    H221104   2.563   2.182   0.181
 7055TIP3   OH221105   1.053   7.679   0.303
 7055TIP3    H121106   1.095   7.764   0.290
 7055TIP3    H221107   0.982   7.677   0.239
 7056TIP3   OH221108   3.858   6.811   4.989
 7056TIP3    H121109   3.932   6.755   5.011
 7056TIP3    H221110   3.782   6.753   4.992
 7057TIP3   OH221111   0.229   1.531   0.810
 7057TIP3    H121112   0.234   1.603   0.874
 7057TIP3    H221113   0.152   1.481   0.837
 7058TIP3   OH221114   1.482   5.481   4.315
 7058TIP3    H121115   1.388   5.495   4.323
 7058TIP3    H221116   1.503   5.420   4.386
 7059TIP3   OH221117   4.544   3.052   2.053
 7059TIP3    H121118   4.526   3.095   2.137
 7059TIP3    H221119   4.495   3.103   1.989
 7060TIP3   OH221120   2.660   2.262   6.504
 7060TIP3    H121121   2.599   2.335   6.491
 7060TIP3    H221122   2.605   2.184   6.496
 7061TIP3   OH221123   3.712   4.723   4.550
 7061TIP3    H121124   3.657   4.668   4.494
 7061TIP3    H221125   3.670   4.717   4.636
 7062TIP3   OH221126   3.945   3.422   6.618
 7062TIP3    H121127   3.955   3.344   6.672
 7062TIP3    H221128   3.996   3.403   6.539
 7063TIP3   OH221129   2.525   1.473   0.879
 7063TIP3    H121130   2.539   1.513   0.793
 7063TIP3    H221131   2.447   1.516   0.913
 7064TIP3   OH221132   3.184   2.954   3.650
 7064TIP3    H121133   3.236   2.965   3.729
 7064TIP3    H221134   3.220   3.017   3.588
 7065TIP3   OH221135   2.913   3.256   3.883
 7065TIP3    H121136   2.928   3.190   3.951
 7065TIP3    H221137   2.868   3.209   3.813
 7066TIP3   OH221138   7.582   6.949   3.907
 7066TIP3    H121139   7.573   6.909   3.820
 7066TIP3    H221140   7.628   7.032   3.890
 7067TIP3   OH221141   1.384   2.535   2.265
 7067TIP3    H121142   1.426   2.508   2.183
 7067TIP3    H221143   1.437   2.609   2.296
 7068TIP3   OH221144   4.661   1.221   2.339
 7068TIP3    H121145   4.565   1.220   2.342
 7068TIP3    H221146   4.686   1.294   2.395
 7069TIP3   OH221147   0.928   1.694   3.408
 7069TIP3    H121148   0.847   1.744   3.410
 7069TIP3    H221149   0.931   1.656   3.320
 7070TIP3   OH221150   1.577   4.539   0.818
 7070TIP3    H121151   1.610   4.600   0.752
 7070TIP3    H221152   1.558   4.459   0.769
 7071TIP3   OH221153   1.322   4.171   6.315
 7071TIP3    H121154   1.382   4.234   6.274
 7071TIP3    H221155   1.290   4.215   6.394
 7072TIP3   OH221156   8.067   2.574   6.245
 7072TIP3    H121157   7.985   2.597   6.290
 7072TIP3    H221158   8.136   2.607   6.302
 7073TIP3   OH221159   7.815   6.988   3.694
 7073TIP3    H121160   7.737   6.984   3.638
 7073TIP3    H221161   7.872   6.919   3.661
 7074TIP3   OH221162   4.565   1.608   1.140
 7074TIP3    H121163   4.552   1.513   1.149
 7074TIP3    H221164   4.573   1.622   1.046
 7075TIP3   OH221165   3.235   3.625   4.373
 7075TIP3    H121166   3.250   3.633   4.467
 7075TIP3    H221167   3.313   3.663   4.332
 7076TIP3   OH221168   1.876   0.020   0.698
 7076TIP3    H121169   1.832   0.104   0.702
 7076TIP3    H221170   1.823  -0.032   0.636
 7077TIP3   OH221171   7.545   5.143   0.463
 7077TIP3    H121172   7.590   5.080   0.407
 7077TIP3    H221173   7.482   5.185   0.405
 7078TIP3   OH221174   4.614   1.768   3.338
 7078TIP3    H121175   4.578   1.834   3.279
 7078TIP3    H221176   4.696   1.807   3.370
 7079TIP3   OH221177   6.486   1.228   3.491
 7079TIP3    H121178   6.417   1.188   3.437
 7079TIP3    H221179   6.554   1.254   3.428
 7080TIP3   OH221180   1.832   1.386   6.267
 7080TIP3    H121181   1.778   1.340   6.332
 7080TIP3    H221182   1.922   1.359   6.287
 7081TIP3   OH221183   4.533   7.871   1.943
 7081TIP3    H121184   4.529   7.956   1.987
 7081TIP3    H221185   4.456   7.824   1.976
 7082TIP3   OH221186   0.593   0.248   0.635
 7082TIP3    H121187   0.596   0.183   0.564
 7082TIP3    H221188   0.506   0.238   0.672
 7083TIP3   OH221189   5.784   5.866   4.302
 7083TIP3    H121190   5.717   5.827   4.358
 7083TIP3    H221191   5.761   5.837   4.214
 7084TIP3   OH221192   0.158   1.173   0.791
 7084TIP3    H121193   0.104   1.198   0.715
 7084TIP3    H221194   0.240   1.142   0.752
 7085TIP3   OH221195   0.414   7.426   6.334
 7085TIP3    H121196   0.382   7.347   6.291
 7085TIP3    H221197   0.343   7.451   6.393
 7086TIP3   OH221198   0.825   5.218   5.295
 7086TIP3    H121199   0.769   5.289   5.263
 7086TIP3    H221200   0.890   5.206   5.225
 7087TIP3   OH221201   7.367   5.621   4.609
 7087TIP3    H121202   7.290   5.628   4.665
 7087TIP3    H221203   7.441   5.642   4.666
 7088TIP3   OH221204   0.357   7.647   2.420
 7088TIP3    H121205   0.289   7.671   2.483
 7088TIP3    H221206   0.428   7.613   2.474
 7089TIP3   OH221207   6.860   2.396   0.359
 7089TIP3    H121208   6.844   2.412   0.266
 7089TIP3    H221209   6.778   2.357   0.391
 7090TIP3   OH221210   7.707   2.737   0.294
 7090TIP3    H121211   7.769   2.727   0.367
 7090TIP3    H221212   7.739   2.675   0.228
 7091TIP3   OH221213   4.296   5.343   0.095
 7091TIP3    H121214   4.248   5.362   0.176
 7091TIP3    H221215   4.385   5.323   0.123
 7092TIP3   OH221216   4.209   3.390   2.402
 7092TIP3    H121217   4.129   3.346   2.432
 7092TIP3    H221218   4.201   3.394   2.307
 7093TIP3   OH221219   3.282   3.971   5.103
 7093TIP3    H121220   3.190   3.999   5.112
 7093TIP3    H221221   3.284   3.921   5.022
 7094TIP3   OH221222   7.445   7.616   2.200
 7094TIP3    H121223   7.451   7.652   2.112
 7094TIP3    H221224   7.388   7.539   2.191
 7095TIP3   OH221225   1.782   4.837   6.800
 7095TIP3    H121226   1.833   4.905   6.845
 7095TIP3    H221227   1.825   4.827   6.715
 7096TIP3   OH221228   2.263   7.542   4.312
 7096TIP3    H121229   2.240   7.457   4.275
 7096TIP3    H221230   2.359   7.546   4.305
 7097TIP3   OH221231   2.760   6.788   3.570
 7097TIP3    H121232   2.778   6.846   3.496
 7097TIP3    H221233   2.793   6.703   3.543
 7098TIP3   OH221234   1.847   6.379   5.376
 7098TIP3    H121235   1.863   6.448   5.440
 7098TIP3    H221236   1.927   6.375   5.323
 7099TIP3   OH221237   1.132   7.570   3.375
 7099TIP3    H121238   1.098   7.592   3.288
 7099TIP3    H221239   1.064   7.600   3.435
 7100TIP3   OH221240   2.052   3.848   6.170
 7100TIP3    H121241   2.122   3.881   6.113
 7100TIP3    H221242   1.978   3.907   6.153
 7101TIP3   OH221243   3.608   5.818   1.689
 7101TIP3    H121244   3.552   5.894   1.700
 7101TIP3    H221245   3.632   5.819   1.596
 7102TIP3   OH221246   7.025   3.819   1.008
 7102TIP3    H121247   6.979   3.818   0.923
 7102TIP3    H221248   7.064   3.906   1.012
 7103TIP3   OH221249   0.226   6.350   2.023
 7103TIP3    H121250   0.244   6.376   2.114
 7103TIP3    H221251   0.302   6.383   1.974
 7104TIP3   OH221252   7.578   5.847   6.323
 7104TIP3    H121253   7.651   5.804   6.367
 7104TIP3    H221254   7.516   5.867   6.394
 7105TIP3   OH221255   7.015   4.604   6.021
 7105TIP3    H121256   7.062   4.680   5.986
 7105TIP3    H221257   6.951   4.642   6.082
 7106TIP3   OH221258   1.523   2.967   5.290
 7106TIP3    H121259   1.465   2.919   5.231
 7106TIP3    H221260   1.611   2.948   5.258
 7107TIP3   OH221261   7.356   2.135   2.815
 7107TIP3    H121262   7.352   2.050   2.858
 7107TIP3    H221263   7.271   2.145   2.773
 7108TIP3   OH221264   2.735   1.860   3.441
 7108TIP3    H121265   2.711   1.848   3.349
 7108TIP3    H221266   2.654   1.888   3.484
 7109TIP3   OH221267   6.951   6.894   3.360
 7109TIP3    H121268   6.871   6.903   3.308
 7109TIP3    H221269   7.013   6.953   3.318
 7110TIP3   OH221270   3.488   4.793   3.551
 7110TIP3    H121271   3.482   4.723   3.486
 7110TIP3    H221272   3.428   4.860   3.519
 7111TIP3   OH221273   4.983   6.402   6.489
 7111TIP3    H121274   4.931   6.414   6.569
 7111TIP3    H221275   4.978   6.487   6.444
 7112TIP3   OH221276   1.848   5.473   0.373
 7112TIP3    H121277   1.928   5.481   0.424
 7112TIP3    H221278   1.808   5.560   0.377
 7113TIP3   OH221279   0.374   7.841   2.775
 7113TIP3    H121280   0.325   7.769   2.736
 7113TIP3    H221281   0.331   7.920   2.742
 7114TIP3   OH221282   6.888   0.200   2.186
 7114TIP3    H121283   6.964   0.208   2.129
 7114TIP3    H221284   6.922   0.220   2.274
 7115TIP3   OH221285   0.480   6.917   2.682
 7115TIP3    H121286   0.405   6.918   2.742
 7115TIP3    H221287   0.456   6.853   2.615
 7116TIP3   OH221288   8.098   5.600   0.965
 7116TIP3    H121289   8.154   5.554   0.902
 7116TIP3    H221290   8.009   5.581   0.937
 7117TIP3   OH221291   0.069   5.564   4.002
 7117TIP3    H121292   0.051   5.579   3.909
 7117TIP3    H221293   0.054   5.471   4.015
 7118TIP3   OH221294   3.229   0.862   5.014
 7118TIP3    H121295   3.242   0.955   5.030
 7118TIP3    H221296   3.154   0.858   4.954
 7119TIP3   OH221297   2.852   2.452   1.502
 7119TIP3    H121298   2.940   2.490   1.507
 7119TIP3    H221299   2.793   2.523   1.529
 7120TIP3   OH221300   8.371   5.763   2.045
 7120TIP3    H121301   8.321   5.710   1.982
 7120TIP3    H221302   8.305   5.797   2.105
 7121TIP3   OH221303   7.984   4.778   5.996
 7121TIP3    H121304   8.074   4.767   5.965
 7121TIP3    H221305   7.976   4.872   6.014
 7122TIP3   OH221306   4.466   5.895   3.599
 7122TIP3    H121307   4.389   5.884   3.655
 7122TIP3    H221308   4.462   5.986   3.569
 7123TIP3   OH221309   4.332   3.660   0.342
 7123TIP3    H121310   4.297   3.652   0.431
 7123TIP3    H221311   4.261   3.629   0.286
 7124TIP3   OH221312   0.718   0.556   5.712
 7124TIP3    H121313   0.724   0.587   5.803
 7124TIP3    H221314   0.626   0.534   5.700
 7125TIP3   OH221315   1.508   1.732   0.757
 7125TIP3    H121316   1.508   1.808   0.699
 7125TIP3    H221317   1.416   1.718   0.780
 7126TIP3   OH221318   0.858   0.086   0.874
 7126TIP3    H121319   0.887   0.044   0.955
 7126TIP3    H221320   0.778   0.040   0.850
 7127TIP3   OH221321   0.776   5.752   0.105
 7127TIP3    H121322   0.699   5.768   0.159
 7127TIP3    H221323   0.845   5.805   0.145
 7128TIP3   OH221324   1.804   3.664   2.726
 7128TIP3    H121325   1.793   3.617   2.808
 7128TIP3    H221326   1.899   3.680   2.720
 7129TIP3   OH221327   0.987   3.227   1.830
 7129TIP3    H121328   1.006   3.237   1.736
 7129TIP3    H221329   0.899   3.190   1.832
 7130TIP3   OH221330   0.769   1.331   4.583
 7130TIP3    H121331   0.779   1.356   4.492
 7130TIP3    H221332   0.675   1.319   4.595
 7131TIP3   OH221333   0.722   2.383   5.368
 7131TIP3    H121334   0.786   2.450   5.393
 7131TIP3    H221335   0.774   2.316   5.324
 7132TIP3   OH221336   3.054   7.063   3.795
 7132TIP3    H121337   3.079   7.141   3.845
 7132TIP3    H221338   3.041   7.095   3.706
 7133TIP3   OH221339   6.578   4.264   0.114
 7133TIP3    H121340   6.514   4.291   0.048
 7133TIP3    H221341   6.543   4.182   0.149
 7134TIP3   OH221342   7.878   0.332   6.037
 7134TIP3    H121343   7.952   0.345   5.979
 7134TIP3    H221344   7.858   0.239   6.031
 7135TIP3   OH221345   5.222   6.071   1.396
 7135TIP3    H121346   5.142   6.045   1.349
 7135TIP3    H221347   5.288   6.007   1.369
 7136TIP3   OH221348   2.137   4.372   4.968
 7136TIP3    H121349   2.202   4.310   5.001
 7136TIP3    H221350   2.116   4.340   4.880
 7137TIP3   OH221351   0.726   3.962   1.109
 7137TIP3    H121352   0.643   3.922   1.136
 7137TIP3    H221353   0.777   3.965   1.190
 7138TIP3   OH221354   4.806   7.678   2.882
 7138TIP3    H121355   4.800   7.696   2.788
 7138TIP3    H221356   4.729   7.623   2.901
 7139TIP3   OH221357   4.992   2.349   3.989
 7139TIP3    H121358   4.992   2.416   3.920
 7139TIP3    H221359   4.900   2.331   4.004
 7140TIP3   OH221360   0.467   1.333   4.138
 7140TIP3    H121361   0.519   1.408   4.166
 7140TIP3    H221362   0.504   1.259   4.187
 7141TIP3   OH221363   1.082   1.149   1.806
 7141TIP3    H121364   1.046   1.148   1.718
 7141TIP3    H221365   1.058   1.065   1.844
 7142TIP3   OH221366   7.968   7.659   3.600
 7142TIP3    H121367   7.948   7.575   3.559
 7142TIP3    H221368   8.013   7.708   3.531
 7143TIP3   OH221369   7.889   4.380   3.534
 7143TIP3    H121370   7.910   4.320   3.462
 7143TIP3    H221371   7.902   4.328   3.613
 7144TIP3   OH221372   2.843   6.474   6.227
 7144TIP3    H121373   2.850   6.490   6.322
 7144TIP3    H221374   2.826   6.561   6.190
 7145TIP3   OH221375   7.943   1.949   0.104
 7145TIP3    H121376   7.895   1.901   0.037
 7145TIP3    H221377   8.018   1.894   0.125
 7146TIP3   OH221378   4.350   7.188   2.977
 7146TIP3    H121379   4.353   7.284   2.981
 7146TIP3    H221380   4.259   7.168   2.955
 7147TIP3   OH221381   7.994   1.215   2.991
 7147TIP3    H121382   7.968   1.273   3.062
 7147TIP3    H221383   8.090   1.215   2.994
 7148TIP3   OH221384   7.417   6.930   4.119
 7148TIP3    H121385   7.493   6.945   4.062
 7148TIP3    H221386   7.347   6.982   4.079
 7149TIP3   OH221387   3.408   2.229   0.291
 7149TIP3    H121388   3.342   2.184   0.345
 7149TIP3    H221389   3.492   2.207   0.331
 7150TIP3   OH221390   4.638   7.550   3.554
 7150TIP3    H121391   4.723   7.592   3.545
 7150TIP3    H221392   4.645   7.469   3.502
 7151TIP3   OH221393   5.779   3.851   0.773
 7151TIP3    H121394   5.722   3.840   0.848
 7151TIP3    H221395   5.725   3.897   0.708
 7152TIP3   OH221396   7.952   5.125   4.101
 7152TIP3    H121397   7.983   5.202   4.054
 7152TIP3    H221398   7.986   5.051   4.051
 7153TIP3   OH221399   4.045   0.607   5.480
 7153TIP3    H121400   4.027   0.549   5.406
 7153TIP3    H221401   3.963   0.608   5.530
 7154TIP3   OH221402   0.913   0.866   4.418
 7154TIP3    H121403   1.007   0.851   4.407
 7154TIP3    H221404   0.901   0.870   4.512
 7155TIP3   OH221405   3.350   2.194   5.000
 7155TIP3    H121406   3.278   2.256   5.014
 7155TIP3    H221407   3.308   2.109   4.993
 7156TIP3   OH221408   6.670   6.370   2.522
 7156TIP3    H121409   6.755   6.376   2.478
 7156TIP3    H221410   6.683   6.417   2.604
 7157TIP3   OH221411   1.184   5.310   2.865
 7157TIP3    H121412   1.186   5.405   2.865
 7157TIP3    H221413   1.102   5.288   2.909
 7158TIP3   OH221414   4.228   4.073   2.584
 7158TIP3    H121415   4.283   4.086   2.507
 7158TIP3    H221416   4.267   4.129   2.651
 7159TIP3   OH221417   7.536   5.792   3.481
 7159TIP3    H121418   7.478   5.745   3.421
 7159TIP3    H221419   7.540   5.881   3.444
 7160TIP3   OH221420   1.309   3.245   5.142
 7160TIP3    H121421   1.338   3.218   5.229
 7160TIP3    H221422   1.213   3.237   5.145
 7161TIP3   OH221423   0.694   4.620   2.263
 7161TIP3    H121424   0.775   4.584   2.299
 7161TIP3    H221425   0.650   4.659   2.338
 7162TIP3   OH221426   5.174   0.901   4.294
 7162TIP3    H121427   5.206   0.855   4.217
 7162TIP3    H221428   5.111   0.965   4.260
 7163TIP3   OH221429   3.921   5.531   2.676
 7163TIP3    H121430   3.951   5.586   2.603
 7163TIP3    H221431   3.976   5.453   2.672
 7164TIP3   OH221432   7.666   1.796   6.206
 7164TIP3    H121433   7.614   1.719   6.230
 7164TIP3    H221434   7.636   1.865   6.265
 7165TIP3   OH221435   4.689   0.639   1.997
 7165TIP3    H121436   4.615   0.578   1.995
 7165TIP3    H221437   4.733   0.626   1.913
 7166TIP3   OH221438   7.004   6.636   5.413
 7166TIP3    H121439   7.081   6.579   5.409
 7166TIP3    H221440   6.964   6.616   5.498
 7167TIP3   OH221441   6.013   5.831   4.863
 7167TIP3    H121442   6.094   5.847   4.815
 7167TIP3    H221443   5.987   5.916   4.896
 7168TIP3   OH221444   3.905   1.142   6.117
 7168TIP3    H121445   3.950   1.214   6.072
 7168TIP3    H221446   3.936   1.063   6.072
 7169TIP3   OH221447   3.353   6.088   0.905
 7169TIP3    H121448   3.340   6.007   0.954
 7169TIP3    H221449   3.322   6.157   0.964
 7170TIP3   OH221450   1.589   6.243   3.871
 7170TIP3    H121451   1.608   6.159   3.912
 7170TIP3    H221452   1.660   6.256   3.809
 7171TIP3   OH221453   3.791   4.502   2.416
 7171TIP3    H121454   3.786   4.510   2.511
 7171TIP3    H221455   3.812   4.409   2.401
 7172TIP3   OH221456   3.798   4.047   6.339
 7172TIP3    H121457   3.734   4.063   6.270
 7172TIP3    H221458   3.801   3.951   6.348
 7173TIP3   OH221459   4.985   4.111   3.023
 7173TIP3    H121460   5.043   4.186   3.034
 7173TIP3    H221461   5.029   4.056   2.959
 7174TIP3   OH221462   6.363   6.740   5.628
 7174TIP3    H121463   6.327   6.807   5.569
 7174TIP3    H221464   6.447   6.716   5.589
 7175TIP3   OH221465   7.564   2.610   5.952
 7175TIP3    H121466   7.554   2.527   5.905
 7175TIP3    H221467   7.628   2.659   5.901
 7176TIP3   OH221468   4.027   4.887   0.873
 7176TIP3    H121469   3.977   4.897   0.953
 7176TIP3    H221470   4.056   4.976   0.851
 7177TIP3   OH221471   2.827   6.101   2.695
 7177TIP3    H121472   2.772   6.086   2.772
 7177TIP3    H221473   2.811   6.192   2.671
 7178TIP3   OH221474   1.065   6.049   2.282
 7178TIP3    H121475   1.130   6.015   2.220
 7178TIP3    H221476   1.051   6.139   2.255
 7179TIP3   OH221477   7.925   7.185   1.024
 7179TIP3    H121478   7.990   7.119   1.046
 7179TIP3    H221479   7.973   7.268   1.025
 7180TIP3   OH221480   4.231   2.418   0.369
 7180TIP3    H121481   4.225   2.434   0.275
 7180TIP3    H221482   4.322   2.392   0.384
 7181TIP3   OH221483   5.928   5.870   3.906
 7181TIP3    H121484   5.943   5.797   3.846
 7181TIP3    H221485   6.015   5.895   3.937
 7182TIP3   OH221486   6.199   4.814   0.054
 7182TIP3    H121487   6.214   4.906   0.031
 7182TIP3    H221488   6.122   4.816   0.110
 7183TIP3   OH221489   6.438   4.891   5.131
 7183TIP3    H121490   6.386   4.958   5.088
 7183TIP3    H221491   6.400   4.883   5.219
 7184TIP3   OH221492   6.388   3.256   4.930
 7184TIP3    H121493   6.396   3.283   5.021
 7184TIP3    H221494   6.361   3.164   4.934
 7185TIP3   OH221495   0.320   1.523   2.105
 7185TIP3    H121496   0.409   1.556   2.098
 7185TIP3    H221497   0.324   1.457   2.174
 7186TIP3   OH221498   7.744   3.522   1.346
 7186TIP3    H121499   7.732   3.431   1.375
 7186TIP3    H221500   7.716   3.574   1.422
 7187TIP3   OH221501   2.388   2.994   4.776
 7187TIP3    H121502   2.368   2.987   4.682
 7187TIP3    H221503   2.422   2.907   4.799
 7188TIP3   OH221504   5.939   2.291   1.822
 7188TIP3    H121505   5.850   2.314   1.849
 7188TIP3    H221506   5.970   2.233   1.892
 7189TIP3   OH221507   6.023   6.406   3.172
 7189TIP3    H121508   6.052   6.317   3.191
 7189TIP3    H221509   6.066   6.428   3.089
 7190TIP3   OH221510   2.660   2.273   0.484
 7190TIP3    H121511   2.673   2.194   0.537
 7190TIP3    H221512   2.589   2.319   0.528
 7191TIP3   OH221513   8.403   0.004   4.522
 7191TIP3    H121514   8.315   0.037   4.538
 7191TIP3    H221515   8.418  -0.061   4.591
 7192TIP3   OH221516   6.875   7.312   3.794
 7192TIP3    H121517   6.810   7.381   3.778
 7192TIP3    H221518   6.876   7.301   3.889
 7193TIP3   OH221519   6.755   2.203   4.599
 7193TIP3    H121520   6.678   2.156   4.565
 7193TIP3    H221521   6.813   2.212   4.524
 7194TIP3   OH221522   6.462   6.219   6.418
 7194TIP3    H121523   6.490   6.127   6.411
 7194TIP3    H221524   6.517   6.266   6.356
 7195TIP3   OH221525   0.264   1.844   2.716
 7195TIP3    H121526   0.261   1.939   2.701
 7195TIP3    H221527   0.278   1.806   2.630
 7196TIP3   OH221528   8.310   2.447   0.394
 7196TIP3    H121529   8.270   2.362   0.377
 7196TIP3    H221530   8.267   2.507   0.332
 7197TIP3   OH221531   4.033   2.250   1.002
 7197TIP3    H121532   4.077   2.293   1.075
 7197TIP3    H221533   3.944   2.286   1.004
 7198TIP3   OH221534   7.115   2.298   3.202
 7198TIP3    H121535   7.102   2.351   3.123
 7198TIP3    H221536   7.210   2.285   3.207
 7199TIP3   OH221537   0.669   1.021   5.991
 7199TIP3    H121538   0.700   1.111   5.977
 7199TIP3    H221539   0.742   0.978   6.036
 7200TIP3   OH221540   6.148   4.182   1.092
 7200TIP3    H121541   6.093   4.104   1.095
 7200TIP3    H221542   6.237   4.149   1.105
 7201TIP3   OH221543   1.001   4.458   2.106
 7201TIP3    H121544   0.943   4.516   2.057
 7201TIP3    H221545   0.976   4.471   2.197
 7202TIP3   OH221546   5.196   4.156   0.466
 7202TIP3    H121547   5.152   4.138   0.384
 7202TIP3    H221548   5.280   4.194   0.440
 7203TIP3   OH221549   6.711   7.177   6.421
 7203TIP3    H121550   6.630   7.227   6.425
 7203TIP3    H221551   6.700   7.106   6.485
 7204TIP3   OH221552   7.424   1.221   6.637
 7204TIP3    H121553   7.515   1.195   6.624
 7204TIP3    H221554   7.377   1.187   6.561
 7205TIP3   OH221555   7.258   2.555   0.532
 7205TIP3    H121556   7.290   2.610   0.461
 7205TIP3    H221557   7.231   2.474   0.489
 7206TIP3   OH221558   6.411   5.327   2.500
 7206TIP3    H121559   6.368   5.372   2.572
 7206TIP3    H221560   6.503   5.351   2.508
 7207TIP3   OH221561   1.260   0.675   4.574
 7207TIP3    H121562   1.325   0.612   4.605
 7207TIP3    H221563   1.233   0.722   4.653
 7208TIP3   OH221564   0.805   1.262   4.124
 7208TIP3    H121565   0.843   1.174   4.131
 7208TIP3    H221566   0.786   1.272   4.031
 7209TIP3   OH221567   3.490   4.579   5.878
 7209TIP3    H121568   3.557   4.593   5.812
 7209TIP3    H221569   3.460   4.490   5.865
 7210TIP3   OH221570   0.948   0.722   0.311
 7210TIP3    H121571   0.948   0.644   0.367
 7210TIP3    H221572   1.026   0.771   0.338
 7211TIP3   OH221573   5.806   7.631   3.068
 7211TIP3    H121574   5.844   7.562   3.122
 7211TIP3    H221575   5.714   7.633   3.093
 7212TIP3   OH221576   1.225   1.204   3.039
 7212TIP3    H121577   1.147   1.251   3.013
 7212TIP3    H221578   1.202   1.164   3.123
 7213TIP3   OH221579   1.545   6.303   0.849
 7213TIP3    H121580   1.586   6.221   0.874
 7213TIP3    H221581   1.588   6.327   0.767
 7214TIP3   OH221582   0.446   3.575   2.668
 7214TIP3    H121583   0.516   3.510   2.672
 7214TIP3    H221584   0.414   3.570   2.578
 7215TIP3   OH221585   1.737   2.555   0.810
 7215TIP3    H121586   1.811   2.494   0.823
 7215TIP3    H221587   1.779   2.639   0.793
 7216TIP3   OH221588   8.340   3.383   3.817
 7216TIP3    H121589   8.368   3.430   3.896
 7216TIP3    H221590   8.278   3.318   3.849
 7217TIP3   OH221591   4.801   3.412   3.437
 7217TIP3    H121592   4.749   3.471   3.492
 7217TIP3    H221593   4.792   3.326   3.479
 7218TIP3   OH221594   2.137   5.244   4.047
 7218TIP3    H121595   2.182   5.312   3.998
 7218TIP3    H221596   2.183   5.239   4.131
 7219TIP3   OH221597   2.724   5.870   1.950
 7219TIP3    H121598   2.785   5.842   2.019
 7219TIP3    H221599   2.715   5.793   1.894
 7220TIP3   OH221600   2.717   1.415   2.992
 7220TIP3    H121601   2.742   1.461   2.912
 7220TIP3    H221602   2.625   1.391   2.979
 7221TIP3   OH221603   2.734   1.383   3.278
 7221TIP3    H121604   2.649   1.421   3.254
 7221TIP3    H221605   2.787   1.391   3.199
 7222TIP3   OH221606   5.869   0.546   3.100
 7222TIP3    H121607   5.793   0.605   3.104
 7222TIP3    H221608   5.942   0.603   3.077
 7223TIP3   OH221609   8.089   0.880   6.840
 7223TIP3    H121610   8.062   0.962   6.881
 7223TIP3    H221611   8.074   0.894   6.746
 7224TIP3   OH221612   2.715   7.462   4.186
 7224TIP3    H121613   2.649   7.465   4.117
 7224TIP3    H221614   2.780   7.528   4.159
 7225TIP3   OH221615   7.133   4.942   4.301
 7225TIP3    H121616   7.198   4.924   4.369
 7225TIP3    H221617   7.125   5.038   4.301
 7226TIP3   OH221618   4.203   6.712   2.424
 7226TIP3    H121619   4.294   6.733   2.444
 7226TIP3    H221620   4.161   6.704   2.510
 7227TIP3   OH221621   7.321   6.147   5.481
 7227TIP3    H121622   7.325   6.056   5.452
 7227TIP3    H221623   7.405   6.185   5.456
 7228TIP3   OH221624   4.600   1.049   3.531
 7228TIP3    H121625   4.558   1.127   3.495
 7228TIP3    H221626   4.529   0.988   3.546
 7229TIP3   OH221627   0.591   0.555   4.118
 7229TIP3    H121628   0.500   0.584   4.125
 7229TIP3    H221629   0.642   0.634   4.136
 7230TIP3   OH221630   0.415   5.844   3.628
 7230TIP3    H121631   0.416   5.860   3.533
 7230TIP3    H221632   0.349   5.904   3.661
 7231TIP3   OH221633   2.770   6.033   4.940
 7231TIP3    H121634   2.832   5.967   4.971
 7231TIP3    H221635   2.694   6.023   4.997
 7232TIP3   OH221636   1.316   2.405   4.927
 7232TIP3    H121637   1.267   2.396   4.845
 7232TIP3    H221638   1.337   2.316   4.953
 7233TIP3   OH221639   5.874   0.741   2.891
 7233TIP3    H121640   5.814   0.737   2.817
 7233TIP3    H221641   5.819   0.768   2.965
 7234TIP3   OH221642   0.337   1.156   0.204
 7234TIP3    H121643   0.390   1.217   0.153
 7234TIP3    H221644   0.318   1.085   0.143
 7235TIP3   OH221645   4.996   3.535   2.815
 7235TIP3    H121646   4.979   3.612   2.868
 7235TIP3    H221647   5.066   3.489   2.862
 7236TIP3   OH221648   0.751   5.630   2.310
 7236TIP3    H121649   0.815   5.615   2.379
 7236TIP3    H221650   0.741   5.545   2.267
 7237TIP3   OH221651   1.734   7.719   3.637
 7237TIP3    H121652   1.701   7.636   3.603
 7237TIP3    H221653   1.760   7.699   3.727
 7238TIP3   OH221654   6.235   5.399   1.592
 7238TIP3    H121655   6.327   5.413   1.613
 7238TIP3    H221656   6.199   5.354   1.668
 7239TIP3   OH221657   2.638   4.678   2.071
 7239TIP3    H121658   2.671   4.601   2.117
 7239TIP3    H221659   2.573   4.643   2.010
 7240TIP3   OH221660   1.729   5.216   5.898
 7240TIP3    H121661   1.672   5.197   5.823
 7240TIP3    H221662   1.817   5.199   5.866
 7241TIP3   OH221663   2.620   5.039   6.111
 7241TIP3    H121664   2.552   4.974   6.094
 7241TIP3    H221665   2.604   5.107   6.045
 7242TIP3   OH221666   4.829   7.541   6.604
 7242TIP3    H121667   4.891   7.533   6.532
 7242TIP3    H221668   4.796   7.452   6.617
 7243TIP3   OH221669   0.155   5.035   0.648
 7243TIP3    H121670   0.145   4.966   0.583
 7243TIP3    H221671   0.249   5.045   0.658
 7244TIP3   OH221672   7.991   1.576   6.115
 7244TIP3    H121673   7.985   1.659   6.066
 7244TIP3    H221674   7.951   1.512   6.056
 7245TIP3   OH221675   6.917   7.740   2.084
 7245TIP3    H121676   6.915   7.822   2.134
 7245TIP3    H221677   6.999   7.743   2.035
 7246TIP3   OH221678   6.886   0.978   3.468
 7246TIP3    H121679   6.807   1.010   3.511
 7246TIP3    H221680   6.957   1.001   3.527
 7247TIP3   OH221681   5.324   2.040   0.187
 7247TIP3    H121682   5.303   2.121   0.234
 7247TIP3    H221683   5.252   1.980   0.210
 7248TIP3   OH221684   4.245   2.361   5.544
 7248TIP3    H121685   4.337   2.385   5.552
 7248TIP3    H221686   4.201   2.411   5.612
 7249TIP3   OH221687   7.454   3.716   6.522
 7249TIP3    H121688   7.359   3.715   6.520
 7249TIP3    H221689   7.477   3.808   6.531
 7250TIP3   OH221690   3.849   2.488   1.379
 7250TIP3    H121691   3.845   2.566   1.434
 7250TIP3    H221692   3.931   2.445   1.404
 7251TIP3   OH221693   4.620   1.410   6.034
 7251TIP3    H121694   4.633   1.318   6.057
 7251TIP3    H221695   4.539   1.435   6.078
 7252TIP3   OH221696   4.911   6.684   3.755
 7252TIP3    H121697   4.868   6.743   3.816
 7252TIP3    H221698   4.875   6.598   3.775
 7253TIP3   OH221699   5.391   2.596   2.472
 7253TIP3    H121700   5.424   2.506   2.470
 7253TIP3    H221701   5.307   2.591   2.425
 7254TIP3   OH221702   7.427   4.304   3.298
 7254TIP3    H121703   7.444   4.352   3.217
 7254TIP3    H221704   7.510   4.259   3.316
 7255TIP3   OH221705   2.638   4.944   0.701
 7255TIP3    H121706   2.616   4.940   0.794
 7255TIP3    H221707   2.713   4.885   0.692
 7256TIP3   OH221708   8.281   0.615   1.044
 7256TIP3    H121709   8.338   0.652   1.112
 7256TIP3    H221710   8.313   0.526   1.032
 7257TIP3   OH221711   4.126   1.350   3.268
 7257TIP3    H121712   4.145   1.284   3.201
 7257TIP3    H221713   4.080   1.301   3.337
 7258TIP3   OH221714   8.272   1.251   3.016
 7258TIP3    H121715   8.333   1.311   2.973
 7258TIP3    H221716   8.322   1.170   3.029
 7259TIP3   OH221717   1.852   1.083   0.696
 7259TIP3    H121718   1.945   1.095   0.679
 7259TIP3    H221719   1.829   1.156   0.754
 7260TIP3   OH221720   0.096   5.424   6.507
 7260TIP3    H121721   0.165   5.483   6.475
 7260TIP3    H221722   0.141   5.340   6.521
 7261TIP3   OH221723   8.227   7.203   2.279
 7261TIP3    H121724   8.296   7.149   2.317
 7261TIP3    H221725   8.193   7.253   2.353
 7262TIP3   OH221726   8.311   6.235   1.947
 7262TIP3    H121727   8.227   6.226   1.991
 7262TIP3    H221728   8.303   6.315   1.895
 7263TIP3   OH221729   2.771   4.166   6.743
 7263TIP3    H121730   2.754   4.245   6.794
 7263TIP3    H221731   2.850   4.130   6.782
 7264TIP3   OH221732   5.858   1.148   0.648
 7264TIP3    H121733   5.816   1.140   0.733
 7264TIP3    H221734   5.856   1.242   0.629
 7265TIP3   OH221735   5.005   4.149   1.719
 7265TIP3    H121736   5.059   4.226   1.701
 7265TIP3    H221737   5.037   4.082   1.658
 7266TIP3   OH221738   3.950   2.774   1.069
 7266TIP3    H121739   4.003   2.819   1.134
 7266TIP3    H221740   3.880   2.733   1.120
 7267TIP3   OH221741   6.805   7.169   3.545
 7267TIP3    H121742   6.849   7.209   3.619
 7267TIP3    H221743   6.729   7.226   3.528
 7268TIP3   OH221744   4.051   7.749   4.042
 7268TIP3    H121745   3.998   7.761   3.964
 7268TIP3    H221746   3.994   7.704   4.104
 7269TIP3   OH221747   0.809   2.660   6.370
 7269TIP3    H121748   0.789   2.653   6.463
 7269TIP3    H221749   0.899   2.627   6.362
 7270TIP3   OH221750   6.851   3.118   5.040
 7270TIP3    H121751   6.830   3.170   4.962
 7270TIP3    H221752   6.946   3.123   5.047
 7271TIP3   OH221753   4.913   3.039   5.226
 7271TIP3    H121754   4.866   3.121   5.244
 7271TIP3    H221755   4.845   2.973   5.217
 7272TIP3   OH221756   3.909   5.929   2.685
 7272TIP3    H121757   3.944   6.007   2.726
 7272TIP3    H221758   3.869   5.960   2.604
 7273TIP3   OH221759   2.419   7.007   2.883
 7273TIP3    H121760   2.353   6.987   2.817
 7273TIP3    H221761   2.370   7.046   2.955
 7274TIP3   OH221762   5.781   0.091   0.421
 7274TIP3    H121763   5.842   0.132   0.483
 7274TIP3    H221764   5.747   0.164   0.369
 7275TIP3   OH221765   1.206   0.184   4.723
 7275TIP3    H121766   1.157   0.151   4.798
 7275TIP3    H221767   1.178   0.275   4.715
 7276TIP3   OH221768   2.325   4.727   3.550
 7276TIP3    H121769   2.379   4.648   3.542
 7276TIP3    H221770   2.343   4.776   3.470
 7277TIP3   OH221771   2.096   0.433   3.952
 7277TIP3    H121772   2.137   0.492   3.889
 7277TIP3    H221773   2.006   0.424   3.920
 7278TIP3   OH221774   3.643   7.788   4.374
 7278TIP3    H121775   3.550   7.779   4.353
 7278TIP3    H221776   3.655   7.883   4.385
 7279TIP3   OH221777   3.784   4.640   4.253
 7279TIP3    H121778   3.847   4.673   4.189
 7279TIP3    H221779   3.770   4.548   4.229
 7280TIP3   OH221780   6.747   1.396   2.701
 7280TIP3    H121781   6.739   1.444   2.619
 7280TIP3    H221782   6.839   1.407   2.727
 7281TIP3   OH221783   1.495   2.331   5.617
 7281TIP3    H121784   1.427   2.383   5.574
 7281TIP3    H221785   1.464   2.321   5.707
 7282TIP3   OH221786   5.540   2.406   1.320
 7282TIP3    H121787   5.578   2.443   1.240
 7282TIP3    H221788   5.580   2.319   1.328
 7283TIP3   OH221789   0.901   4.018   5.929
 7283TIP3    H121790   0.811   3.991   5.910
 7283TIP3    H221791   0.955   3.953   5.884
 7284TIP3   OH221792   0.535   6.772   6.730
 7284TIP3    H121793   0.457   6.784   6.676
 7284TIP3    H221794   0.545   6.677   6.737
 7285TIP3   OH221795   1.586   3.028   3.461
 7285TIP3    H121796   1.590   3.047   3.367
 7285TIP3    H221797   1.677   3.009   3.485
 7286TIP3   OH221798   7.424   2.945   3.418
 7286TIP3    H121799   7.415   3.035   3.387
 7286TIP3    H221800   7.502   2.912   3.375
 7287TIP3   OH221801   3.570   2.581   3.148
 7287TIP3    H121802   3.575   2.675   3.130
 7287TIP3    H221803   3.480   2.566   3.175
 7288TIP3   OH221804   5.427   6.935   2.467
 7288TIP3    H121805   5.412   7.001   2.535
 7288TIP3    H221806   5.519   6.909   2.479
 7289TIP3   OH221807   5.080   4.673   5.435
 7289TIP3    H121808   5.098   4.752   5.487
 7289TIP3    H221809   5.051   4.609   5.500
 7290TIP3   OH221810   1.310   0.854   3.027
 7290TIP3    H121811   1.337   0.864   3.118
 7290TIP3    H221812   1.374   0.905   2.977
 7291TIP3   OH221813   4.506   2.312   4.243
 7291TIP3    H121814   4.468   2.361   4.316
 7291TIP3    H221815   4.540   2.380   4.184
 7292TIP3   OH221816   1.854   2.048   0.190
 7292TIP3    H121817   1.935   2.059   0.140
 7292TIP3    H221818   1.844   1.953   0.200
 7293TIP3   OH221819   3.278   2.760   1.252
 7293TIP3    H121820   3.351   2.807   1.291
 7293TIP3    H221821   3.211   2.758   1.321
 7294TIP3   OH221822   6.945   3.007   0.571
 7294TIP3    H121823   6.984   3.044   0.651
 7294TIP3    H221824   6.875   2.950   0.602
 7295TIP3   OH221825   3.621   1.633   0.563
 7295TIP3    H121826   3.575   1.717   0.563
 7295TIP3    H221827   3.635   1.613   0.656
 7296TIP3   OH221828   6.572   3.552   3.639
 7296TIP3    H121829   6.665   3.575   3.639
 7296TIP3    H221830   6.546   3.560   3.731
 7297TIP3   OH221831   0.515   0.445   4.457
 7297TIP3    H121832   0.489   0.505   4.527
 7297TIP3    H221833   0.589   0.488   4.415
 7298TIP3   OH221834   6.901   3.519   5.910
 7298TIP3    H121835   6.932   3.559   5.991
 7298TIP3    H221836   6.975   3.527   5.850
 7299TIP3   OH221837   5.484   7.069   5.901
 7299TIP3    H121838   5.504   7.035   5.814
 7299TIP3    H221839   5.389   7.077   5.902
 7300TIP3   OH221840   1.780   1.812   2.831
 7300TIP3    H121841   1.863   1.782   2.794
 7300TIP3    H221842   1.722   1.822   2.755
 7301TIP3   OH221843   4.761   0.892   5.357
 7301TIP3    H121844   4.745   0.984   5.335
 7301TIP3    H221845   4.704   0.843   5.298
 7302TIP3   OH221846   1.696   2.837   6.280
 7302TIP3    H121847   1.783   2.819   6.243
 7302TIP3    H221848   1.638   2.776   6.236
 7303TIP3   OH221849   5.694   6.812   2.406
 7303TIP3    H121850   5.658   6.877   2.345
 7303TIP3    H221851   5.718   6.863   2.483
 7304TIP3   OH221852   0.577   7.025   3.661
 7304TIP3    H121853   0.589   6.986   3.575
 7304TIP3    H221854   0.656   7.002   3.710
 7305TIP3   OH221855   6.339   3.865   5.702
 7305TIP3    H121856   6.402   3.937   5.708
 7305TIP3    H221857   6.356   3.811   5.779
 7306TIP3   OH221858   8.275   1.311   6.400
 7306TIP3    H121859   8.269   1.386   6.341
 7306TIP3    H221860   8.234   1.341   6.481
 7307TIP3   OH221861   5.687   4.721   2.090
 7307TIP3    H121862   5.645   4.641   2.058
 7307TIP3    H221863   5.672   4.785   2.021
 7308TIP3   OH221864   4.760   2.098   1.963
 7308TIP3    H121865   4.814   2.067   1.891
 7308TIP3    H221866   4.794   2.184   1.984
 7309TIP3   OH221867   0.467   0.138   6.219
 7309TIP3    H121868   0.500   0.211   6.272
 7309TIP3    H221869   0.507   0.151   6.133
 7310TIP3   OH221870   0.077   1.897   5.591
 7310TIP3    H121871   0.120   1.813   5.570
 7310TIP3    H221872   0.064   1.892   5.686
 7311TIP3   OH221873   5.062   7.319   5.173
 7311TIP3    H121874   5.032   7.372   5.246
 7311TIP3    H221875   5.001   7.340   5.102
 7312TIP3   OH221876   8.240   1.439   1.304
 7312TIP3    H121877   8.187   1.368   1.343
 7312TIP3    H221878   8.178   1.511   1.294
 7313TIP3   OH221879   2.089   0.812   3.936
 7313TIP3    H121880   2.108   0.866   4.013
 7313TIP3    H221881   2.026   0.863   3.886
 7314TIP3   OH221882   5.665   7.369   0.748
 7314TIP3    H121883   5.633   7.328   0.667
 7314TIP3    H221884   5.734   7.429   0.719
 7315TIP3   OH221885   7.411   6.648   2.218
 7315TIP3    H121886   7.354   6.613   2.149
 7315TIP3    H221887   7.481   6.583   2.226
 7316TIP3   OH221888   7.070   4.953   6.267
 7316TIP3    H121889   6.996   5.002   6.231
 7316TIP3    H221890   7.048   4.942   6.360
 7317TIP3   OH221891   7.875   7.745   5.740
 7317TIP3    H121892   7.913   7.813   5.796
 7317TIP3    H221893   7.801   7.711   5.791
 7318TIP3   OH221894   2.240   4.895   3.351
 7318TIP3    H121895   2.164   4.936   3.392
 7318TIP3    H221896   2.300   4.968   3.333
 7319TIP3   OH221897   1.318   6.817   6.087
 7319TIP3    H121898   1.265   6.783   6.158
 7319TIP3    H221899   1.408   6.793   6.110
 7320TIP3   OH221900   0.807   2.006   6.549
 7320TIP3    H121901   0.765   2.077   6.500
 7320TIP3    H221902   0.741   1.937   6.553
 7321TIP3   OH221903   7.913   6.654   1.388
 7321TIP3    H121904   7.881   6.574   1.428
 7321TIP3    H221905   7.834   6.705   1.369
 7322TIP3   OH221906   0.847   3.189   2.935
 7322TIP3    H121907   0.904   3.259   2.967
 7322TIP3    H221908   0.864   3.115   2.994
 7323TIP3   OH221909   3.767   3.779   6.375
 7323TIP3    H121910   3.844   3.723   6.384
 7323TIP3    H221911   3.708   3.729   6.319
 7324TIP3   OH221912   7.042   3.449   4.686
 7324TIP3    H121913   7.098   3.458   4.763
 7324TIP3    H221914   7.056   3.358   4.657
 7325TIP3   OH221915   7.880   2.098   2.107
 7325TIP3    H121916   7.819   2.172   2.095
 7325TIP3    H221917   7.865   2.069   2.198
 7326TIP3   OH221918   3.973   4.096   1.110
 7326TIP3    H121919   4.011   4.184   1.108
 7326TIP3    H221920   3.996   4.058   1.025
 7327TIP3   OH221921   2.778   1.805   6.221
 7327TIP3    H121922   2.705   1.755   6.185
 7327TIP3    H221923   2.787   1.880   6.163
 7328TIP3   OH221924   6.645   7.782   1.999
 7328TIP3    H121925   6.736   7.804   2.019
 7328TIP3    H221926   6.594   7.823   2.069
 7329TIP3   OH221927   0.759   4.627   6.036
 7329TIP3    H121928   0.770   4.721   6.025
 7329TIP3    H221929   0.665   4.615   6.050
 7330TIP3   OH221930   0.952   3.306   0.879
 7330TIP3    H121931   0.919   3.244   0.944
 7330TIP3    H221932   0.874   3.348   0.844
 7331TIP3   OH221933   4.555   1.970   6.446
 7331TIP3    H121934   4.481   1.917   6.416
 7331TIP3    H221935   4.537   1.988   6.538
 7332TIP3   OH221936   5.659   3.955   0.257
 7332TIP3    H121937   5.614   3.877   0.289
 7332TIP3    H221938   5.746   3.924   0.230
 7333TIP3   OH221939   0.349   4.898   3.940
 7333TIP3    H121940   0.346   4.982   3.986
 7333TIP3    H221941   0.289   4.842   3.988
 7334TIP3   OH221942   0.252   4.438   5.831
 7334TIP3    H121943   0.273   4.360   5.882
 7334TIP3    H221944   0.163   4.423   5.799
 7335TIP3   OH221945   2.169   5.635   6.089
 7335TIP3    H121946   2.258   5.621   6.120
 7335TIP3    H221947   2.176   5.710   6.029
 7336TIP3   OH221948   5.000   5.683   2.853
 7336TIP3    H121949   5.051   5.758   2.883
 7336TIP3    H221950   5.059   5.608   2.862
 7337TIP3   OH221951   0.236   7.505   1.396
 7337TIP3    H121952   0.265   7.440   1.332
 7337TIP3    H221953   0.213   7.454   1.474
 7338TIP3   OH221954   2.778   0.557   2.708
 7338TIP3    H121955   2.868   0.568   2.676
 7338TIP3    H221956   2.781   0.584   2.800
 7339TIP3   OH221957   4.821   0.089   5.313
 7339TIP3    H121958   4.888   0.125   5.255
 7339TIP3    H221959   4.867   0.071   5.395
 7340TIP3   OH221960   4.455   5.972   2.906
 7340TIP3    H121961   4.382   6.014   2.951
 7340TIP3    H221962   4.435   5.982   2.813
 7341TIP3   OH221963   4.138   0.844   5.581
 7341TIP3    H121964   4.059   0.898   5.588
 7341TIP3    H221965   4.107   0.760   5.546
 7342TIP3   OH221966   6.451   0.154   5.326
 7342TIP3    H121967   6.440   0.142   5.420
 7342TIP3    H221968   6.544   0.139   5.310
 7343TIP3   OH221969   0.346   2.629   2.157
 7343TIP3    H121970   0.315   2.694   2.220
 7343TIP3    H221971   0.427   2.596   2.195
 7344TIP3   OH221972   5.768   7.075   4.221
 7344TIP3    H121973   5.778   7.160   4.265
 7344TIP3    H221974   5.742   7.099   4.132
 7345TIP3   OH221975   1.667   2.676   4.369
 7345TIP3    H121976   1.618   2.629   4.301
 7345TIP3    H221977   1.748   2.703   4.325
 7346TIP3   OH221978   2.179   4.564   3.297
 7346TIP3    H121979   2.267   4.584   3.264
 7346TIP3    H221980   2.148   4.492   3.242
 7347TIP3   OH221981   4.030   2.750   5.412
 7347TIP3    H121982   3.939   2.752   5.385
 7347TIP3    H221983   4.036   2.816   5.481
 7348TIP3   OH221984   3.115   1.363   6.392
 7348TIP3    H121985   3.110   1.268   6.385
 7348TIP3    H221986   3.134   1.379   6.485
 7349TIP3   OH221987   5.608   7.130   3.812
 7349TIP3    H121988   5.636   7.155   3.723
 7349TIP3    H221989   5.607   7.213   3.860
 7350TIP3   OH221990   2.478   3.664   5.583
 7350TIP3    H121991   2.489   3.716   5.503
 7350TIP3    H221992   2.489   3.727   5.654
 7351TIP3   OH221993   5.792   3.098   2.941
 7351TIP3    H121994   5.716   3.153   2.928
 7351TIP3    H221995   5.866   3.158   2.940
 7352TIP3   OH221996   2.345   1.698   0.865
 7352TIP3    H121997   2.388   1.783   0.874
 7352TIP3    H221998   2.307   1.700   0.777
 7353TIP3   OH221999   7.128   2.177   4.937
 7353TIP3    H122000   7.038   2.171   4.905
 7353TIP3    H222001   7.135   2.265   4.973
 7354TIP3   OH222002   2.933   7.415   1.847
 7354TIP3    H122003   2.978   7.331   1.845
 7354TIP3    H222004   2.978   7.465   1.915
 7355TIP3   OH222005   0.349   5.165   5.853
 7355TIP3    H122006   0.264   5.154   5.896
 7355TIP3    H222007   0.397   5.085   5.874
 7356TIP3   OH222008   3.431   0.783   2.402
 7356TIP3    H122009   3.487   0.708   2.421
 7356TIP3    H222010   3.476   0.828   2.330
 7357TIP3   OH222011   3.774   1.374   4.396
 7357TIP3    H122012   3.696   1.362   4.451
 7357TIP3    H222013   3.814   1.287   4.393
 7358TIP3   OH222014   7.955   7.489   6.000
 7358TIP3    H122015   7.930   7.474   6.091
 7358TIP3    H222016   7.969   7.583   5.994
 7359TIP3   OH222017   1.919   6.384   4.480
 7359TIP3    H122018   1.850   6.318   4.475
 7359TIP3    H222019   1.891   6.453   4.419
 7360TIP3   OH222020   0.127   6.788   1.585
 7360TIP3    H122021   0.098   6.773   1.495
 7360TIP3    H222022   0.084   6.870   1.611
 7361TIP3   OH222023   2.161   1.450   6.154
 7361TIP3    H122024   2.122   1.534   6.130
 7361TIP3    H222025   2.253   1.458   6.129
 7362TIP3   OH222026   0.992   5.132   5.072
 7362TIP3    H122027   0.977   5.123   4.978
 7362TIP3    H222028   1.071   5.081   5.089
 7363TIP3   OH222029   5.122   4.340   3.138
 7363TIP3    H122030   5.185   4.303   3.198
 7363TIP3    H222031   5.139   4.434   3.139
 7364TIP3   OH222032   3.879   6.826   2.241
 7364TIP3    H122033   3.808   6.804   2.181
 7364TIP3    H222034   3.958   6.818   2.188
 7365TIP3   OH222035   1.480   2.636   0.275
 7365TIP3    H122036   1.522   2.693   0.339
 7365TIP3    H222037   1.516   2.549   0.292
 7366TIP3   OH222038   2.789   3.815   4.995
 7366TIP3    H122039   2.734   3.890   5.019
 7366TIP3    H222040   2.757   3.789   4.908
 7367TIP3   OH222041   1.618   2.459   0.029
 7367TIP3    H122042   1.649   2.420  -0.053
 7367TIP3    H222043   1.652   2.401   0.097
 7368TIP3   OH222044   3.592   3.663   1.874
 7368TIP3    H122045   3.553   3.692   1.792
 7368TIP3    H222046   3.655   3.596   1.848
 7369TIP3   OH222047   2.182   6.593   3.089
 7369TIP3    H122048   2.234   6.553   3.159
 7369TIP3    H222049   2.091   6.571   3.111
 7370TIP3   OH222050   0.969   1.100   4.842
 7370TIP3    H122051   1.054   1.083   4.884
 7370TIP3    H222052   0.960   1.195   4.844
 7371TIP3   OH222053   0.846   2.658   3.750
 7371TIP3    H122054   0.752   2.672   3.738
 7371TIP3    H222055   0.874   2.730   3.807
 7372TIP3   OH222056   0.926   2.877   1.890
 7372TIP3    H122057   0.990   2.869   1.820
 7372TIP3    H222058   0.951   2.811   1.954
 7373TIP3   OH222059   7.619   3.004   0.492
 7373TIP3    H122060   7.658   2.921   0.518
 7373TIP3    H222061   7.693   3.057   0.461
 7374TIP3   OH222062   3.820   6.839   3.509
 7374TIP3    H122063   3.769   6.825   3.429
 7374TIP3    H222064   3.879   6.764   3.513
 7375TIP3   OH222065   7.645   1.813   0.744
 7375TIP3    H122066   7.651   1.902   0.709
 7375TIP3    H222067   7.619   1.759   0.669
 7376TIP3   OH222068   4.770   6.119   5.669
 7376TIP3    H122069   4.824   6.175   5.613
 7376TIP3    H222070   4.697   6.175   5.695
 7377TIP3   OH222071   8.181   7.137   0.220
 7377TIP3    H122072   8.101   7.166   0.175
 7377TIP3    H222073   8.191   7.046   0.195
 7378TIP3   OH222074   4.693   7.549   1.411
 7378TIP3    H122075   4.705   7.456   1.392
 7378TIP3    H222076   4.754   7.593   1.352
 7379TIP3   OH222077   7.112   2.860   2.066
 7379TIP3    H122078   7.162   2.804   2.126
 7379TIP3    H222079   7.095   2.804   1.990
 7380TIP3   OH222080   7.878   3.475   3.685
 7380TIP3    H122081   7.896   3.542   3.620
 7380TIP3    H222082   7.789   3.445   3.666
 7381TIP3   OH222083   0.012   2.753   4.736
 7381TIP3    H122084   0.014   2.799   4.819
 7381TIP3    H222085   0.025   2.821   4.670
 7382TIP3   OH222086   8.310   7.565   4.412
 7382TIP3    H122087   8.305   7.510   4.491
 7382TIP3    H222088   8.330   7.504   4.342
 7383TIP3   OH222089   7.159   5.266   5.002
 7383TIP3    H122090   7.105   5.250   4.924
 7383TIP3    H222091   7.195   5.180   5.023
 7384TIP3   OH222092   2.541   4.302   0.916
 7384TIP3    H122093   2.469   4.264   0.866
 7384TIP3    H222094   2.502   4.379   0.959
 7385TIP3   OH222095   5.593   6.377   3.272
 7385TIP3    H122096   5.536   6.302   3.290
 7385TIP3    H222097   5.537   6.439   3.225
 7386TIP3   OH222098   6.417   5.112   1.771
 7386TIP3    H122099   6.447   5.111   1.680
 7386TIP3    H222100   6.397   5.020   1.790
 7387TIP3   OH222101   0.639   0.028   3.909
 7387TIP3    H122102   0.668  -0.063   3.907
 7387TIP3    H222103   0.578   0.032   3.983
 7388TIP3   OH222104   5.229   1.074   5.018
 7388TIP3    H122105   5.279   1.132   5.074
 7388TIP3    H222106   5.250   1.102   4.929
 7389TIP3   OH222107   2.443   1.193   1.866
 7389TIP3    H122108   2.505   1.263   1.889
 7389TIP3    H222109   2.438   1.139   1.945
 7390TIP3   OH222110   2.130   7.508   2.283
 7390TIP3    H122111   2.221   7.498   2.314
 7390TIP3    H222112   2.135   7.491   2.189
 7391TIP3   OH222113   4.401   7.871   0.417
 7391TIP3    H122114   4.339   7.944   0.416
 7391TIP3    H222115   4.463   7.893   0.487
 7392TIP3   OH222116   7.323   6.794   3.145
 7392TIP3    H122117   7.340   6.797   3.239
 7392TIP3    H222118   7.328   6.886   3.117
 7393TIP3   OH222119   2.428   2.077   2.618
 7393TIP3    H122120   2.360   2.085   2.684
 7393TIP3    H222121   2.471   2.163   2.617
 7394TIP3   OH222122   2.607   1.109   0.476
 7394TIP3    H122123   2.524   1.094   0.431
 7394TIP3    H222124   2.654   1.026   0.466
 7395TIP3   OH222125   1.304   5.811   4.927
 7395TIP3    H122126   1.289   5.905   4.926
 7395TIP3    H222127   1.300   5.785   4.835
 7396TIP3   OH222128   3.072   4.469   2.246
 7396TIP3    H122129   3.141   4.530   2.218
 7396TIP3    H222130   3.082   4.394   2.187
 7397TIP3   OH222131   4.381   3.711   6.682
 7397TIP3    H122132   4.339   3.629   6.657
 7397TIP3    H222133   4.386   3.761   6.600
 7398TIP3   OH222134   3.923   4.955   1.105
 7398TIP3    H122135   3.971   5.007   1.169
 7398TIP3    H222136   3.839   4.937   1.147
 7399TIP3   OH222137   1.073   2.498   6.797
 7399TIP3    H122138   1.115   2.452   6.870
 7399TIP3    H222139   1.095   2.590   6.812
 7400TIP3   OH222140   7.409   4.361   0.738
 7400TIP3    H122141   7.484   4.311   0.704
 7400TIP3    H222142   7.369   4.400   0.660
 7401TIP3   OH222143   0.031   6.066   1.055
 7401TIP3    H122144  -0.001   6.139   1.109
 7401TIP3    H222145   0.073   6.109   0.981
 7402TIP3   OH222146   5.336   0.657   2.378
 7402TIP3    H122147   5.255   0.670   2.329
 7402TIP3    H222148   5.355   0.564   2.370
 7403TIP3   OH222149   6.263   3.160   2.450
 7403TIP3    H122150   6.302   3.170   2.364
 7403TIP3    H222151   6.328   3.112   2.501
 7404TIP3   OH222152   7.111   4.601   5.183
 7404TIP3    H122153   7.133   4.680   5.232
 7404TIP3    H222154   7.015   4.603   5.177
 7405TIP3   OH222155   2.404   7.837   6.053
 7405TIP3    H122156   2.404   7.741   6.051
 7405TIP3    H222157   2.475   7.860   6.113
 7406TIP3   OH222158   2.385   3.420   1.331
 7406TIP3    H122159   2.453   3.476   1.294
 7406TIP3    H222160   2.404   3.333   1.297
 7407TIP3   OH222161   3.371   7.789   2.734
 7407TIP3    H122162   3.411   7.703   2.750
 7407TIP3    H222163   3.284   7.782   2.773
 7408TIP3   OH222164   4.003   5.839   0.738
 7408TIP3    H122165   4.030   5.809   0.652
 7408TIP3    H222166   4.074   5.812   0.796
 7409TIP3   OH222167   2.559   2.688   4.415
 7409TIP3    H122168   2.592   2.690   4.505
 7409TIP3    H222169   2.604   2.760   4.371
 7410TIP3   OH222170   7.719   0.860   6.751
 7410TIP3    H122171   7.702   0.870   6.657
 7410TIP3    H222172   7.734   0.949   6.782
 7411TIP3   OH222173   1.545   6.750   5.455
 7411TIP3    H122174   1.487   6.760   5.530
 7411TIP3    H222175   1.519   6.821   5.395
 7412TIP3   OH222176   1.369   3.706   1.929
 7412TIP3    H122177   1.348   3.748   2.013
 7412TIP3    H222178   1.284   3.676   1.896
 7413TIP3   OH222179   0.375   3.696   1.074
 7413TIP3    H122180   0.388   3.739   1.158
 7413TIP3    H222181   0.333   3.613   1.096
 7414TIP3   OH222182   2.602   5.971   2.468
 7414TIP3    H122183   2.588   6.020   2.549
 7414TIP3    H222184   2.634   6.036   2.406
 7415TIP3   OH222185   0.985   7.783   3.990
 7415TIP3    H122186   1.063   7.830   4.018
 7415TIP3    H222187   1.012   7.691   3.990
 7416TIP3   OH222188   4.512   0.167   0.185
 7416TIP3    H122189   4.477   0.149   0.098
 7416TIP3    H222190   4.577   0.237   0.171
 7417TIP3   OH222191   0.043   3.020   1.734
 7417TIP3    H122192   0.013   2.936   1.698
 7417TIP3    H222193   0.086   3.063   1.660
 7418TIP3   OH222194   1.104   0.927   1.000
 7418TIP3    H122195   1.150   0.856   0.955
 7418TIP3    H222196   1.173   0.984   1.033
 7419TIP3   OH222197   7.841   1.864   1.955
 7419TIP3    H122198   7.866   1.944   2.001
 7419TIP3    H222199   7.756   1.840   1.992
 7420TIP3   OH222200   7.375   0.146   4.516
 7420TIP3    H122201   7.305   0.148   4.582
 7420TIP3    H222202   7.353   0.072   4.460
 7421TIP3   OH222203   3.937   3.515   2.852
 7421TIP3    H122204   3.945   3.521   2.947
 7421TIP3    H222205   3.870   3.579   2.829
 7422TIP3   OH222206   6.775   0.676   3.020
 7422TIP3    H122207   6.724   0.674   3.101
 7422TIP3    H222208   6.776   0.768   2.994
 7423TIP3   OH222209   1.127   7.371   4.483
 7423TIP3    H122210   1.164   7.324   4.557
 7423TIP3    H222211   1.167   7.458   4.487
 7424TIP3   OH222212   8.372   3.644   0.155
 7424TIP3    H122213   8.367   3.716   0.219
 7424TIP3    H222214   8.420   3.575   0.201
 7425TIP3   OH222215   7.647   6.044   0.761
 7425TIP3    H122216   7.720   5.982   0.760
 7425TIP3    H222217   7.569   5.989   0.770
 7426TIP3   OH222218   7.636   0.478   1.072
 7426TIP3    H122219   7.653   0.425   0.994
 7426TIP3    H222220   7.640   0.568   1.040
 7427TIP3   OH222221   0.076   5.175   0.087
 7427TIP3    H122222   0.045   5.089   0.059
 7427TIP3    H222223   0.135   5.156   0.160
 7428TIP3   OH222224   0.412   6.161   3.244
 7428TIP3    H122225   0.468   6.092   3.208
 7428TIP3    H222226   0.432   6.238   3.190
 7429TIP3   OH222227   3.458   6.370   1.001
 7429TIP3    H122228   3.404   6.378   0.922
 7429TIP3    H222229   3.496   6.282   0.995
 7430TIP3   OH222230   1.469   6.079   2.015
 7430TIP3    H122231   1.500   6.166   2.039
 7430TIP3    H222232   1.479   6.076   1.920
 7431TIP3   OH222233   6.892   7.287   4.064
 7431TIP3    H122234   6.972   7.339   4.060
 7431TIP3    H222235   6.909   7.222   4.132
 7432TIP3   OH222236   0.623   1.567   0.310
 7432TIP3    H122237   0.602   1.648   0.263
 7432TIP3    H222238   0.585   1.579   0.397
 7433TIP3   OH222239   1.744   5.685   1.141
 7433TIP3    H122240   1.661   5.657   1.103
 7433TIP3    H222241   1.720   5.752   1.205
 7434TIP3   OH222242   4.529   7.134   1.576
 7434TIP3    H122243   4.494   7.046   1.585
 7434TIP3    H222244   4.617   7.129   1.614
 7435TIP3   OH222245   1.093   2.083   3.170
 7435TIP3    H122246   1.128   2.021   3.235
 7435TIP3    H222247   1.102   2.169   3.212
 7436TIP3   OH222248   1.853   3.281   3.351
 7436TIP3    H122249   1.839   3.218   3.422
 7436TIP3    H222250   1.765   3.296   3.316
 7437TIP3   OH222251   7.720   0.582   6.780
 7437TIP3    H122252   7.713   0.674   6.803
 7437TIP3    H222253   7.695   0.579   6.687
 7438TIP3   OH222254   3.410   3.127   3.727
 7438TIP3    H122255   3.447   3.215   3.733
 7438TIP3    H222256   3.432   3.086   3.811
 7439TIP3   OH222257   6.345   3.453   4.168
 7439TIP3    H122258   6.350   3.421   4.258
 7439TIP3    H222259   6.329   3.547   4.177
 7440TIP3   OH222260   0.264   2.818   6.337
 7440TIP3    H122261   0.220   2.838   6.419
 7440TIP3    H222262   0.306   2.733   6.352
 7441TIP3   OH222263   2.172   2.499   5.761
 7441TIP3    H122264   2.087   2.513   5.804
 7441TIP3    H222265   2.149   2.478   5.670
 7442TIP3   OH222266   3.912   6.925   0.919
 7442TIP3    H122267   3.976   6.933   0.849
 7442TIP3    H222268   3.955   6.965   0.995
 7443TIP3   OH222269   7.407   7.616   2.468
 7443TIP3    H122270   7.429   7.643   2.379
 7443TIP3    H222271   7.372   7.527   2.458
 7444TIP3   OH222272   0.165   5.651   5.301
 7444TIP3    H122273   0.186   5.718   5.367
 7444TIP3    H222274   0.164   5.569   5.350
 7445TIP3   OH222275   4.390   0.117   4.874
 7445TIP3    H122276   4.386   0.179   4.801
 7445TIP3    H222277   4.320   0.055   4.856
 7446TIP3   OH222278   8.335   4.227   2.578
 7446TIP3    H122279   8.333   4.169   2.654
 7446TIP3    H222280   8.246   4.224   2.543
 7447TIP3   OH222281   1.655   2.342   6.609
 7447TIP3    H122282   1.642   2.418   6.665
 7447TIP3    H222283   1.672   2.270   6.670
 7448TIP3   OH222284   2.471   1.675   1.960
 7448TIP3    H122285   2.422   1.757   1.970
 7448TIP3    H222286   2.404   1.610   1.940
 7449TIP3   OH222287   5.666   6.104   0.186
 7449TIP3    H122288   5.642   6.152   0.107
 7449TIP3    H222289   5.753   6.137   0.208
 7450TIP3   OH222290   7.038   3.163   2.374
 7450TIP3    H122291   7.131   3.152   2.396
 7450TIP3    H222292   7.019   3.088   2.317
 7451TIP3   OH222293   8.293   1.633   5.516
 7451TIP3    H122294   8.283   1.539   5.533
 7451TIP3    H222295   8.386   1.650   5.535
 7452TIP3   OH222296   8.179   1.075   4.140
 7452TIP3    H122297   8.146   1.165   4.151
 7452TIP3    H222298   8.220   1.075   4.053
 7453TIP3   OH222299   8.340   7.769   6.253
 7453TIP3    H122300   8.336   7.681   6.214
 7453TIP3    H222301   8.261   7.813   6.222
 7454TIP3   OH222302   0.968   4.429   4.849
 7454TIP3    H122303   0.993   4.426   4.942
 7454TIP3    H222304   0.974   4.338   4.820
 7455TIP3   OH222305   1.344   7.678   2.254
 7455TIP3    H122306   1.436   7.703   2.266
 7455TIP3    H222307   1.319   7.637   2.337
 7456TIP3   OH222308   2.243   0.938   3.505
 7456TIP3    H122309   2.337   0.953   3.495
 7456TIP3    H222310   2.237   0.873   3.575
 7457TIP3   OH222311   7.182   7.326   6.646
 7457TIP3    H122312   7.162   7.239   6.611
 7457TIP3    H222313   7.190   7.313   6.740
 7458TIP3   OH222314   8.259   6.413   0.969
 7458TIP3    H122315   8.169   6.382   0.958
 7458TIP3    H222316   8.284   6.383   1.057
 7459TIP3   OH222317   2.916   3.110   2.733
 7459TIP3    H122318   2.876   3.024   2.751
 7459TIP3    H222319   2.854   3.153   2.675
 7460TIP3   OH222320   7.288   7.365   2.491
 7460TIP3    H122321   7.258   7.361   2.400
 7460TIP3    H222322   7.235   7.299   2.536
 7461TIP3   OH222323   1.535   6.225   1.583
 7461TIP3    H122324   1.598   6.294   1.601
 7461TIP3    H222325   1.455   6.254   1.627
 7462TIP3   OH222326   2.881   5.041   3.288
 7462TIP3    H122327   2.792   5.070   3.306
 7462TIP3    H222328   2.906   5.089   3.209
 7463TIP3   OH222329   0.627   3.915   3.831
 7463TIP3    H122330   0.692   3.984   3.818
 7463TIP3    H222331   0.544   3.962   3.837
 7464TIP3   OH222332   6.959   7.879   3.617
 7464TIP3    H122333   6.934   7.802   3.566
 7464TIP3    H222334   6.920   7.952   3.569
 7465TIP3   OH222335   6.187   0.577   3.192
 7465TIP3    H122336   6.207   0.560   3.284
 7465TIP3    H222337   6.172   0.672   3.188
 7466TIP3   OH222338   4.563   4.681   2.923
 7466TIP3    H122339   4.568   4.669   2.828
 7466TIP3    H222340   4.509   4.608   2.954
 7467TIP3   OH222341   2.854   1.008   6.812
 7467TIP3    H122342   2.813   1.058   6.882
 7467TIP3    H222343   2.885   1.075   6.750
 7468TIP3   OH222344   0.511   1.366   2.731
 7468TIP3    H122345   0.437   1.332   2.680
 7468TIP3    H222346   0.547   1.289   2.775
 7469TIP3   OH222347   7.143   1.735   1.614
 7469TIP3    H122348   7.235   1.744   1.588
 7469TIP3    H222349   7.096   1.793   1.554
 7470TIP3   OH222350   1.782   1.769   6.803
 7470TIP3    H122351   1.801   1.799   6.714
 7470TIP3    H222352   1.808   1.843   6.858
 7471TIP3   OH222353   7.249   2.593   2.679
 7471TIP3    H122354   7.312   2.571   2.747
 7471TIP3    H222355   7.301   2.634   2.610
 7472TIP3   OH222356   0.019   3.603   3.672
 7472TIP3    H122357   0.036   3.573   3.582
 7472TIP3    H222358  -0.040   3.536   3.708
 7473TIP3   OH222359   0.075   2.868   4.958
 7473TIP3    H122360   0.105   2.927   5.027
 7473TIP3    H222361   0.060   2.784   5.002
 7474TIP3   OH222362   1.397   7.869   4.776
 7474TIP3    H122363   1.345   7.818   4.838
 7474TIP3    H222364   1.466   7.809   4.747
 7475TIP3   OH222365   0.299   2.814   1.054
 7475TIP3    H122366   0.300   2.762   1.134
 7475TIP3    H222367   0.224   2.782   1.004
 7476TIP3   OH222368   3.379   6.998   0.559
 7476TIP3    H122369   3.312   7.064   0.576
 7476TIP3    H222370   3.382   6.989   0.464
 7477TIP3   OH222371   4.688   4.488   4.546
 7477TIP3    H122372   4.630   4.413   4.560
 7477TIP3    H222373   4.748   4.486   4.621
 7478TIP3   OH222374   0.632   3.354   2.597
 7478TIP3    H122375   0.614   3.272   2.643
 7478TIP3    H222376   0.643   3.328   2.505
 7479TIP3   OH222377   7.592   2.818   2.077
 7479TIP3    H122378   7.657   2.885   2.097
 7479TIP3    H222379   7.509   2.856   2.104
 7480TIP3   OH222380   0.161   6.057   2.028
 7480TIP3    H122381   0.206   6.056   2.112
 7480TIP3    H222382   0.100   5.983   2.033
 7481TIP3   OH222383   3.300   0.900   4.484
 7481TIP3    H122384   3.258   0.939   4.407
 7481TIP3    H222385   3.319   0.975   4.540
 7482TIP3   OH222386   1.328   3.076   2.212
 7482TIP3    H122387   1.423   3.084   2.210
 7482TIP3    H222388   1.308   3.011   2.145
 7483TIP3   OH222389   5.967   5.711   2.549
 7483TIP3    H122390   6.004   5.664   2.624
 7483TIP3    H222391   5.892   5.759   2.585
 7484TIP3   OH222392   7.177   6.153   4.573
 7484TIP3    H122393   7.239   6.084   4.596
 7484TIP3    H222394   7.189   6.165   4.478
 7485TIP3   OH222395   3.997   6.496   1.075
 7485TIP3    H122396   4.092   6.482   1.075
 7485TIP3    H222397   3.980   6.539   1.159
 7486TIP3   OH222398   0.984   0.889   5.803
 7486TIP3    H122399   0.927   0.926   5.736
 7486TIP3    H222400   1.026   0.965   5.843
 7487TIP3   OH222401   5.494   5.601   4.086
 7487TIP3    H122402   5.453   5.680   4.120
 7487TIP3    H222403   5.583   5.628   4.064
 7488TIP3   OH222404   1.568   3.318   6.068
 7488TIP3    H122405   1.565   3.228   6.102
 7488TIP3    H222406   1.582   3.307   5.974
 7489TIP3   OH222407   6.676   0.713   4.214
 7489TIP3    H122408   6.737   0.691   4.285
 7489TIP3    H222409   6.728   0.765   4.153
 7490TIP3   OH222410   7.815   4.426   1.114
 7490TIP3    H122411   7.876   4.499   1.102
 7490TIP3    H222412   7.810   4.415   1.209
 7491TIP3   OH222413   8.351   2.394   1.223
 7491TIP3    H122414   8.379   2.306   1.198
 7491TIP3    H222415   8.319   2.433   1.141
 7492TIP3   OH222416   4.804   2.828   5.068
 7492TIP3    H122417   4.898   2.846   5.076
 7492TIP3    H222418   4.778   2.873   4.988
 7493TIP3   OH222419   3.152   2.759   3.268
 7493TIP3    H122420   3.218   2.739   3.200
 7493TIP3    H222421   3.193   2.732   3.350
 7494TIP3   OH222422   8.138   5.557   4.813
 7494TIP3    H122423   8.159   5.578   4.904
 7494TIP3    H222424   8.160   5.465   4.804
 7495TIP3   OH222425   3.815   3.199   0.107
 7495TIP3    H122426   3.748   3.238   0.161
 7495TIP3    H222427   3.769   3.134   0.054
 7496TIP3   OH222428   0.828   4.681   3.995
 7496TIP3    H122429   0.736   4.702   4.012
 7496TIP3    H222430   0.827   4.639   3.909
 7497TIP3   OH222431   5.548   2.414   2.887
 7497TIP3    H122432   5.542   2.336   2.830
 7497TIP3    H222433   5.489   2.477   2.846
 7498TIP3   OH222434   6.865   5.964   0.140
 7498TIP3    H122435   6.895   6.047   0.178
 7498TIP3    H222436   6.841   5.987   0.050
 7499TIP3   OH222437   2.581   5.642   6.319
 7499TIP3    H122438   2.657   5.588   6.342
 7499TIP3    H222439   2.560   5.689   6.400
 7500TIP3   OH222440   1.768   3.383   4.415
 7500TIP3    H122441   1.689   3.358   4.463
 7500TIP3    H222442   1.792   3.468   4.450
 7501TIP3   OH222443   2.886   2.640   3.381
 7501TIP3    H122444   2.880   2.734   3.400
 7501TIP3    H222445   2.979   2.626   3.360
 7502TIP3   OH222446   7.883   7.401   4.161
 7502TIP3    H122447   7.955   7.454   4.196
 7502TIP3    H222448   7.830   7.462   4.110
 7503TIP3   OH222449   7.339   0.781   6.773
 7503TIP3    H122450   7.346   0.876   6.781
 7503TIP3    H222451   7.402   0.759   6.704
 7504TIP3   OH222452   2.286   7.028   6.652
 7504TIP3    H122453   2.278   6.933   6.660
 7504TIP3    H222454   2.204   7.056   6.613
 7505TIP3   OH222455   7.086   7.220   1.482
 7505TIP3    H122456   7.068   7.211   1.576
 7505TIP3    H222457   7.180   7.204   1.474
 7506TIP3   OH222458   5.672   1.475   0.125
 7506TIP3    H122459   5.748   1.467   0.068
 7506TIP3    H222460   5.597   1.465   0.066
 7507TIP3   OH222461   6.053   3.024   5.761
 7507TIP3    H122462   5.971   2.983   5.787
 7507TIP3    H222463   6.104   3.029   5.842
 7508TIP3   OH222464   0.124   7.480   4.630
 7508TIP3    H122465   0.058   7.417   4.600
 7508TIP3    H222466   0.080   7.529   4.699
 7509TIP3   OH222467   4.928   2.369   0.066
 7509TIP3    H122468   4.866   2.437   0.040
 7509TIP3    H222469   4.879   2.317   0.130
 7510TIP3   OH222470   2.109   3.033   0.642
 7510TIP3    H122471   2.175   2.986   0.591
 7510TIP3    H222472   2.159   3.084   0.705
 7511TIP3   OH222473   6.556   5.893   5.220
 7511TIP3    H122474   6.542   5.868   5.311
 7511TIP3    H222475   6.632   5.951   5.222
 7512TIP3   OH222476   4.254   3.303   5.744
 7512TIP3    H122477   4.251   3.335   5.654
 7512TIP3    H222478   4.346   3.309   5.769
 7513TIP3   OH222479   3.398   2.466   6.630
 7513TIP3    H122480   3.379   2.372   6.635
 7513TIP3    H222481   3.314   2.506   6.608
 7514TIP3   OH222482   5.606   1.204   3.870
 7514TIP3    H122483   5.655   1.263   3.927
 7514TIP3    H222484   5.554   1.262   3.814
 7515TIP3   OH222485   3.377   4.603   0.178
 7515TIP3    H122486   3.332   4.660   0.116
 7515TIP3    H222487   3.465   4.641   0.185
 7516TIP3   OH222488   7.722   7.183   3.918
 7516TIP3    H122489   7.796   7.228   3.877
 7516TIP3    H222490   7.651   7.247   3.914
 7517TIP3   OH222491   2.905   1.828   5.432
 7517TIP3    H122492   2.831   1.875   5.396
 7517TIP3    H222493   2.885   1.818   5.525
 7518TIP3   OH222494   6.745   0.272   3.901
 7518TIP3    H122495   6.722   0.201   3.962
 7518TIP3    H222496   6.838   0.259   3.883
 7519TIP3   OH222497   0.360   3.489   1.470
 7519TIP3    H122498   0.334   3.426   1.403
 7519TIP3    H222499   0.319   3.456   1.551
 7520TIP3   OH222500   6.261   2.258   5.604
 7520TIP3    H122501   6.231   2.258   5.695
 7520TIP3    H222502   6.317   2.335   5.597
 7521TIP3   OH222503   0.221   6.382   6.006
 7521TIP3    H122504   0.146   6.347   5.958
 7521TIP3    H222505   0.213   6.477   5.999
 7522TIP3   OH222506   4.165   5.959   2.049
 7522TIP3    H122507   4.099   6.028   2.041
 7522TIP3    H222508   4.248   6.005   2.058
 7523TIP3   OH222509   8.197   7.050   0.491
 7523TIP3    H122510   8.191   7.103   0.412
 7523TIP3    H222511   8.279   7.002   0.482
 7524TIP3   OH222512   5.240   5.608   6.005
 7524TIP3    H122513   5.166   5.666   6.022
 7524TIP3    H222514   5.310   5.641   6.060
 7525TIP3   OH222515   5.278   3.561   0.760
 7525TIP3    H122516   5.226   3.548   0.840
 7525TIP3    H222517   5.309   3.651   0.766
 7526TIP3   OH222518   2.902   3.879   2.432
 7526TIP3    H122519   2.987   3.844   2.457
 7526TIP3    H222520   2.913   3.974   2.437
 7527TIP3   OH222521   4.006   3.759   3.727
 7527TIP3    H122522   4.092   3.753   3.768
 7527TIP3    H222523   4.018   3.820   3.654
 7528TIP3   OH222524   0.231   2.082   4.065
 7528TIP3    H122525   0.263   2.162   4.025
 7528TIP3    H222526   0.160   2.111   4.122
 7529TIP3   OH222527   6.985   4.791   5.579
 7529TIP3    H122528   6.948   4.853   5.516
 7529TIP3    H222529   6.917   4.725   5.590
 7530TIP3   OH222530   5.449   5.554   6.818
 7530TIP3    H122531   5.527   5.574   6.869
 7530TIP3    H222532   5.409   5.640   6.801
 7531TIP3   OH222533   0.901   3.359   3.583
 7531TIP3    H122534   0.925   3.448   3.608
 7531TIP3    H222535   0.889   3.364   3.488
 7532TIP3   OH222536   8.039   7.146   5.712
 7532TIP3    H122537   8.101   7.074   5.706
 7532TIP3    H222538   8.062   7.192   5.793
 7533TIP3   OH222539   7.177   5.065   3.619
 7533TIP3    H122540   7.223   5.082   3.701
 7533TIP3    H222541   7.201   5.138   3.563
 7534TIP3   OH222542   1.248   2.249   1.462
 7534TIP3    H122543   1.239   2.341   1.485
 7534TIP3    H222544   1.159   2.220   1.440
 7535TIP3   OH222545   2.603   2.834   3.482
 7535TIP3    H122546   2.633   2.887   3.408
 7535TIP3    H222547   2.575   2.897   3.548
 7536TIP3   OH222548   3.801   3.463   4.604
 7536TIP3    H122549   3.839   3.418   4.528
 7536TIP3    H222550   3.875   3.481   4.661
 7537TIP3   OH222551   0.096   7.390   1.633
 7537TIP3    H122552   0.100   7.312   1.578
 7537TIP3    H222553   0.083   7.357   1.721
 7538TIP3   OH222554   3.568   7.163   1.534
 7538TIP3    H122555   3.518   7.128   1.459
 7538TIP3    H222556   3.604   7.245   1.502
 7539TIP3   OH222557   2.508   1.919   3.542
 7539TIP3    H122558   2.445   1.929   3.614
 7539TIP3    H222559   2.490   1.995   3.486
 7540TIP3   OH222560   2.773   0.864   0.730
 7540TIP3    H122561   2.699   0.816   0.694
 7540TIP3    H222562   2.745   0.955   0.728
 7541TIP3   OH222563   2.412   5.136   2.527
 7541TIP3    H122564   2.344   5.069   2.522
 7541TIP3    H222565   2.394   5.184   2.607
 7542TIP3   OH222566   4.505   6.934   3.309
 7542TIP3    H122567   4.460   6.909   3.390
 7542TIP3    H222568   4.591   6.894   3.316
 7543TIP3   OH222569   7.475   7.161   6.849
 7543TIP3    H122570   7.431   7.236   6.890
 7543TIP3    H222571   7.479   7.095   6.918
 7544TIP3   OH222572   3.199   6.068   4.708
 7544TIP3    H122573   3.149   6.140   4.746
 7544TIP3    H222574   3.257   6.040   4.778
 7545TIP3   OH222575   4.094   6.741   3.025
 7545TIP3    H122576   4.173   6.766   2.977
 7545TIP3    H222577   4.071   6.819   3.075
 7546TIP3   OH222578   7.263   0.610   2.936
 7546TIP3    H122579   7.338   0.611   2.995
 7546TIP3    H222580   7.296   0.644   2.853
 7547TIP3   OH222581   4.495   2.949   5.830
 7547TIP3    H122582   4.547   3.029   5.844
 7547TIP3    H222583   4.479   2.947   5.736
 7548TIP3   OH222584   0.419   0.717   1.726
 7548TIP3    H122585   0.443   0.788   1.786
 7548TIP3    H222586   0.502   0.674   1.706
 7549TIP3   OH222587   3.988   7.482   1.085
 7549TIP3    H122588   3.965   7.425   1.159
 7549TIP3    H222589   3.973   7.571   1.117
 7550TIP3   OH222590   3.256   1.610   2.517
 7550TIP3    H122591   3.278   1.701   2.496
 7550TIP3    H222592   3.192   1.617   2.587
 7551TIP3   OH222593   3.422   6.972   2.579
 7551TIP3    H122594   3.354   6.908   2.596
 7551TIP3    H222595   3.382   7.034   2.518
 7552TIP3   OH222596   7.567   6.643   2.936
 7552TIP3    H122597   7.573   6.739   2.942
 7552TIP3    H222598   7.600   6.613   3.021
 7553TIP3   OH222599   3.607   7.892   6.390
 7553TIP3    H122600   3.613   7.984   6.364
 7553TIP3    H222601   3.615   7.843   6.308
 7554TIP3   OH222602   0.063   3.903   3.319
 7554TIP3    H122603   0.150   3.864   3.310
 7554TIP3    H222604   0.033   3.917   3.229
 7555TIP3   OH222605   2.623   5.525   3.342
 7555TIP3    H122606   2.602   5.521   3.249
 7555TIP3    H222607   2.718   5.517   3.345
 7556TIP3   OH222608   5.873   5.199   4.880
 7556TIP3    H122609   5.936   5.137   4.844
 7556TIP3    H222610   5.792   5.149   4.888
 7557TIP3   OH222611   5.370   1.322   2.279
 7557TIP3    H122612   5.440   1.275   2.326
 7557TIP3    H222613   5.366   1.279   2.194
 7558TIP3   OH222614   1.115   3.495   2.126
 7558TIP3    H122615   1.175   3.569   2.134
 7558TIP3    H222616   1.112   3.476   2.032
 7559TIP3   OH222617   3.533   7.801   1.408
 7559TIP3    H122618   3.542   7.828   1.499
 7559TIP3    H222619   3.577   7.871   1.359
 7560TIP3   OH222620   7.850   6.081   3.815
 7560TIP3    H122621   7.870   6.088   3.722
 7560TIP3    H222622   7.757   6.103   3.820
 7561TIP3   OH222623   2.875   0.989   5.098
 7561TIP3    H122624   2.957   1.031   5.071
 7561TIP3    H222625   2.808   1.028   5.042
 7562TIP3   OH222626   0.213   4.822   0.496
 7562TIP3    H122627   0.236   4.742   0.543
 7562TIP3    H222628   0.237   4.804   0.405
 7563TIP3   OH222629   7.183   4.282   2.959
 7563TIP3    H122630   7.144   4.356   2.912
 7563TIP3    H222631   7.196   4.215   2.892
 7564TIP3   OH222632   4.315   4.257   3.644
 7564TIP3    H122633   4.332   4.303   3.562
 7564TIP3    H222634   4.395   4.268   3.695
 7565TIP3   OH222635   5.071   5.155   4.465
 7565TIP3    H122636   5.012   5.229   4.447
 7565TIP3    H222637   5.123   5.147   4.386
 7566TIP3   OH222638   8.273   2.678   3.458
 7566TIP3    H122639   8.218   2.656   3.383
 7566TIP3    H222640   8.353   2.627   3.445
 7567TIP3   OH222641   8.082   0.748   5.938
 7567TIP3    H122642   8.136   0.785   6.008
 7567TIP3    H222643   8.104   0.799   5.860
 7568TIP3   OH222644   2.494   0.038   4.986
 7568TIP3    H122645   2.506   0.072   4.897
 7568TIP3    H222646   2.450  -0.046   4.974
 7569TIP3   OH222647   0.628   5.150   0.389
 7569TIP3    H122648   0.724   5.154   0.393
 7569TIP3    H222649   0.608   5.057   0.396
 7570TIP3   OH222650   6.493   3.692   5.890
 7570TIP3    H122651   6.579   3.696   5.849
 7570TIP3    H222652   6.473   3.598   5.896
 7571TIP3   OH222653   5.250   2.827   1.659
 7571TIP3    H122654   5.229   2.810   1.567
 7571TIP3    H222655   5.326   2.773   1.676
 7572TIP3   OH222656   6.511   0.407   5.983
 7572TIP3    H122657   6.464   0.399   5.900
 7572TIP3    H222658   6.444   0.389   6.050
 7573TIP3   OH222659   7.359   5.722   0.262
 7573TIP3    H122660   7.280   5.759   0.224
 7573TIP3    H222661   7.424   5.727   0.192
 7574TIP3   OH222662   7.472   1.165   0.839
 7574TIP3    H122663   7.377   1.177   0.841
 7574TIP3    H222664   7.499   1.201   0.754
 7575TIP3   OH222665   4.144   4.993   4.554
 7575TIP3    H122666   4.197   5.071   4.567
 7575TIP3    H222667   4.091   5.012   4.477
 7576TIP3   OH222668   2.844   5.914   5.301
 7576TIP3    H122669   2.790   5.835   5.290
 7576TIP3    H222670   2.931   5.881   5.322
 7577TIP3   OH222671   2.608   5.510   2.720
 7577TIP3    H122672   2.661   5.571   2.770
 7577TIP3    H222673   2.600   5.551   2.634
 7578TIP3   OH222674   3.084   1.498   1.756
 7578TIP3    H122675   3.081   1.454   1.840
 7578TIP3    H222676   3.066   1.430   1.692
 7579TIP3   OH222677   0.557   1.280   0.448
 7579TIP3    H122678   0.586   1.370   0.437
 7579TIP3    H222679   0.620   1.229   0.398
 7580TIP3   OH222680   2.265   6.223   2.253
 7580TIP3    H122681   2.206   6.297   2.243
 7580TIP3    H222682   2.253   6.171   2.174
 7581TIP3   OH222683   6.386   3.364   1.459
 7581TIP3    H122684   6.412   3.358   1.367
 7581TIP3    H222685   6.362   3.274   1.483
 7582TIP3   OH222686   1.280   2.671   0.881
 7582TIP3    H122687   1.283   2.598   0.818
 7582TIP3    H222688   1.306   2.631   0.964
 7583TIP3   OH222689   0.823   0.421   5.467
 7583TIP3    H122690   0.796   0.489   5.528
 7583TIP3    H222691   0.775   0.441   5.386
 7584TIP3   OH222692   2.893   6.120   1.197
 7584TIP3    H122693   2.892   6.131   1.292
 7584TIP3    H222694   2.907   6.026   1.184
 7585TIP3   OH222695   8.092   2.747   0.693
 7585TIP3    H122696   8.186   2.736   0.710
 7585TIP3    H222697   8.051   2.673   0.738
 7586TIP3   OH222698   8.067   0.443   5.285
 7586TIP3    H122699   8.081   0.475   5.374
 7586TIP3    H222700   8.139   0.381   5.270
 7587TIP3   OH222701   7.447   3.589   0.757
 7587TIP3    H122702   7.389   3.656   0.793
 7587TIP3    H222703   7.412   3.570   0.670
 7588TIP3   OH222704   4.711   5.981   3.329
 7588TIP3    H122705   4.676   5.914   3.271
 7588TIP3    H222706   4.681   6.064   3.291
 7589TIP3   OH222707   5.183   4.309   3.598
 7589TIP3    H122708   5.141   4.232   3.637
 7589TIP3    H222709   5.111   4.359   3.560
 7590TIP3   OH222710   0.333   2.097   2.025
 7590TIP3    H122711   0.239   2.105   2.010
 7590TIP3    H222712   0.349   2.147   2.105
 7591TIP3   OH222713   5.609   5.210   3.862
 7591TIP3    H122714   5.549   5.283   3.846
 7591TIP3    H222715   5.564   5.154   3.925
 7592TIP3   OH222716   1.643   0.610   0.228
 7592TIP3    H122717   1.549   0.604   0.245
 7592TIP3    H222718   1.649   0.664   0.149
 7593TIP3   OH222719   6.838   2.336   6.316
 7593TIP3    H122720   6.777   2.409   6.326
 7593TIP3    H222721   6.853   2.331   6.221
 7594TIP3   OH222722   5.192   7.409   0.289
 7594TIP3    H122723   5.159   7.333   0.241
 7594TIP3    H222724   5.117   7.467   0.298
 7595TIP3   OH222725   7.369   5.493   4.083
 7595TIP3    H122726   7.282   5.469   4.115
 7595TIP3    H222727   7.423   5.416   4.099
 7596TIP3   OH222728   8.219   6.931   3.477
 7596TIP3    H122729   8.152   6.868   3.454
 7596TIP3    H222730   8.244   6.972   3.394
 7597TIP3   OH222731   7.696   7.887   6.659
 7597TIP3    H122732   7.708   7.970   6.613
 7597TIP3    H222733   7.604   7.865   6.645
 7598TIP3   OH222734   5.779   5.337   1.914
 7598TIP3    H122735   5.759   5.416   1.863
 7598TIP3    H222736   5.861   5.304   1.876
 7599TIP3   OH222737   5.600   6.431   0.358
 7599TIP3    H122738   5.549   6.508   0.386
 7599TIP3    H222739   5.614   6.445   0.264
 7600TIP3   OH222740   0.900   6.046   5.269
 7600TIP3    H122741   0.909   6.009   5.356
 7600TIP3    H222742   0.863   6.133   5.284
 7601TIP3   OH222743   7.561   4.899   6.043
 7601TIP3    H122744   7.527   4.954   5.972
 7601TIP3    H222745   7.511   4.927   6.120
 7602TIP3   OH222746   0.245   6.665   6.264
 7602TIP3    H122747   0.213   6.710   6.342
 7602TIP3    H222748   0.334   6.639   6.287
 7603TIP3   OH222749   5.131   1.354   5.166
 7603TIP3    H122750   5.093   1.409   5.097
 7603TIP3    H222751   5.200   1.408   5.204
 7604TIP3   OH222752   6.634   2.957   5.847
 7604TIP3    H122753   6.638   3.053   5.852
 7604TIP3    H222754   6.673   2.936   5.763
 7605TIP3   OH222755   2.814   3.716   1.540
 7605TIP3    H122756   2.754   3.645   1.517
 7605TIP3    H222757   2.900   3.684   1.512
 7606TIP3   OH222758   6.432   4.962   1.082
 7606TIP3    H122759   6.499   4.987   1.018
 7606TIP3    H222760   6.414   4.870   1.063
 7607TIP3   OH222761   4.068   4.833   4.301
 7607TIP3    H122762   4.156   4.817   4.269
 7607TIP3    H222763   4.052   4.764   4.365
 7608TIP3   OH222764   0.902   6.552   4.433
 7608TIP3    H122765   0.907   6.643   4.463
 7608TIP3    H222766   0.831   6.552   4.369
 7609TIP3   OH222767   5.653   5.026   4.878
 7609TIP3    H122768   5.685   4.970   4.807
 7609TIP3    H222769   5.605   4.967   4.936
 7610TIP3   OH222770   0.313   7.046   1.186
 7610TIP3    H122771   0.393   7.071   1.139
 7610TIP3    H222772   0.277   7.129   1.217
 7611TIP3   OH222773   7.524   6.626   5.429
 7611TIP3    H122774   7.539   6.554   5.491
 7611TIP3    H222775   7.610   6.666   5.417
 7612TIP3   OH222776   5.804   5.337   0.631
 7612TIP3    H122777   5.829   5.247   0.653
 7612TIP3    H222778   5.825   5.387   0.710
 7613TIP3   OH222779   7.826   5.802   6.399
 7613TIP3    H122780   7.862   5.796   6.310
 7613TIP3    H222781   7.871   5.733   6.448
 7614TIP3   OH222782   5.683   1.188   1.400
 7614TIP3    H122783   5.657   1.272   1.362
 7614TIP3    H222784   5.639   1.122   1.346
 7615TIP3   OH222785   3.446   6.378   0.659
 7615TIP3    H122786   3.507   6.309   0.630
 7615TIP3    H222787   3.503   6.453   0.677
 7616TIP3   OH222788   1.893   2.289   6.109
 7616TIP3    H122789   1.844   2.255   6.184
 7616TIP3    H222790   1.837   2.360   6.075
 7617TIP3   OH222791   4.460   7.456   2.076
 7617TIP3    H122792   4.404   7.396   2.126
 7617TIP3    H222793   4.454   7.539   2.124
 7618TIP3   OH222794   6.900   3.249   5.846
 7618TIP3    H122795   6.924   3.212   5.931
 7618TIP3    H222796   6.913   3.343   5.856
 7619TIP3   OH222797   2.180   2.533   2.687
 7619TIP3    H122798   2.127   2.612   2.685
 7619TIP3    H222799   2.145   2.478   2.617
 7620TIP3   OH222800   6.105   3.074   0.700
 7620TIP3    H122801   6.119   3.078   0.606
 7620TIP3    H222802   6.129   2.984   0.724
 7621TIP3   OH222803   6.438   1.904   4.969
 7621TIP3    H122804   6.363   1.858   4.932
 7621TIP3    H222805   6.509   1.841   4.965
 7622TIP3   OH222806   3.824   6.885   6.390
 7622TIP3    H122807   3.758   6.897   6.458
 7622TIP3    H222808   3.807   6.798   6.355
 7623TIP3   OH222809   6.213   7.880   3.532
 7623TIP3    H122810   6.134   7.861   3.583
 7623TIP3    H222811   6.234   7.971   3.553
 7624TIP3   OH222812   2.406   6.628   4.105
 7624TIP3    H122813   2.387   6.574   4.182
 7624TIP3    H222814   2.331   6.616   4.048
 7625TIP3   OH222815   1.166   7.025   5.132
 7625TIP3    H122816   1.124   7.049   5.049
 7625TIP3    H222817   1.096   6.988   5.184
 7626TIP3   OH222818   7.512   1.035   5.832
 7626TIP3    H122819   7.439   1.093   5.855
 7626TIP3    H222820   7.589   1.091   5.838
 7627TIP3   OH222821   2.260   6.648   0.926
 7627TIP3    H122822   2.181   6.597   0.905
 7627TIP3    H222823   2.239   6.736   0.896
 7628TIP3   OH222824   5.961   7.035   5.260
 7628TIP3    H122825   6.039   7.043   5.205
 7628TIP3    H222826   5.888   7.045   5.198
 7629TIP3   OH222827   0.193   7.843   6.307
 7629TIP3    H122828   0.101   7.818   6.297
 7629TIP3    H222829   0.192   7.939   6.300
 7630TIP3   OH222830   2.987   3.607   4.966
 7630TIP3    H122831   2.918   3.674   4.966
 7630TIP3    H222832   2.970   3.554   4.888
 7631TIP3   OH222833   1.739   5.857   4.931
 7631TIP3    H122834   1.665   5.896   4.885
 7631TIP3    H222835   1.725   5.880   5.023
 7632TIP3   OH222836   3.245   1.078   3.028
 7632TIP3    H122837   3.315   1.024   2.991
 7632TIP3    H222838   3.283   1.166   3.033
 7633TIP3   OH222839   1.341   7.419   1.172
 7633TIP3    H122840   1.280   7.345   1.177
 7633TIP3    H222841   1.424   7.380   1.144
 7634TIP3   OH222842   0.647   2.319   3.424
 7634TIP3    H122843   0.565   2.271   3.438
 7634TIP3    H222844   0.694   2.268   3.359
 7635TIP3   OH222845   7.518   0.518   2.826
 7635TIP3    H122846   7.557   0.546   2.909
 7635TIP3    H222847   7.565   0.569   2.760
 7636TIP3   OH222848   4.042   3.525   4.757
 7636TIP3    H122849   4.113   3.468   4.784
 7636TIP3    H222850   4.064   3.610   4.795
 7637TIP3   OH222851   6.644   7.670   6.389
 7637TIP3    H122852   6.703   7.698   6.459
 7637TIP3    H222853   6.671   7.721   6.313
 7638TIP3   OH222854   8.045   6.164   2.533
 7638TIP3    H122855   8.132   6.202   2.524
 7638TIP3    H222856   8.059   6.070   2.526
 7639TIP3   OH222857   3.256   4.793   2.630
 7639TIP3    H122858   3.316   4.866   2.644
 7639TIP3    H222859   3.199   4.822   2.559
 7640TIP3   OH222860   3.691   0.659   0.726
 7640TIP3    H122861   3.671   0.627   0.638
 7640TIP3    H222862   3.611   0.645   0.776
 7641TIP3   OH222863   5.139   6.256   5.882
 7641TIP3    H122864   5.067   6.198   5.859
 7641TIP3    H222865   5.103   6.344   5.872
 7642TIP3   OH222866   3.206   6.613   4.883
 7642TIP3    H122867   3.160   6.645   4.960
 7642TIP3    H222868   3.179   6.673   4.813
 7643TIP3   OH222869   3.012   3.953   6.243
 7643TIP3    H122870   3.042   4.037   6.208
 7643TIP3    H222871   3.078   3.891   6.214
 7644TIP3   OH222872   5.308   1.431   2.756
 7644TIP3    H122873   5.269   1.414   2.842
 7644TIP3    H222874   5.266   1.368   2.698
 7645TIP3   OH222875   2.373   5.016   2.968
 7645TIP3    H122876   2.314   5.066   2.911
 7645TIP3    H222877   2.440   4.981   2.909
 7646TIP3   OH222878   3.779   0.239   0.553
 7646TIP3    H122879   3.761   0.248   0.460
 7646TIP3    H222880   3.857   0.291   0.568
 7647TIP3   OH222881   7.020   3.937   5.250
 7647TIP3    H122882   6.975   3.919   5.167
 7647TIP3    H222883   6.987   3.870   5.309
 7648TIP3   OH222884   2.699   2.311   4.250
 7648TIP3    H122885   2.783   2.352   4.232
 7648TIP3    H222886   2.635   2.363   4.202
 7649TIP3   OH222887   4.049   3.863   0.566
 7649TIP3    H122888   4.092   3.944   0.595
 7649TIP3    H222889   4.025   3.880   0.475
 7650TIP3   OH222890   7.766   6.447   1.960
 7650TIP3    H122891   7.817   6.529   1.957
 7650TIP3    H222892   7.831   6.380   1.982
 7651TIP3   OH222893   6.253   6.616   4.058
 7651TIP3    H122894   6.333   6.608   4.110
 7651TIP3    H222895   6.191   6.660   4.116
 7652TIP3   OH222896   8.093   1.436   3.470
 7652TIP3    H122897   8.156   1.396   3.409
 7652TIP3    H222898   8.055   1.361   3.516
 7653TIP3   OH222899   7.672   3.948   2.062
 7653TIP3    H122900   7.718   3.996   1.994
 7653TIP3    H222901   7.620   4.014   2.107
 7654TIP3   OH222902   2.682   0.724   3.339
 7654TIP3    H122903   2.642   0.645   3.373
 7654TIP3    H222904   2.619   0.756   3.273
 7655TIP3   OH222905   3.297   1.354   2.980
 7655TIP3    H122906   3.264   1.431   3.026
 7655TIP3    H222907   3.375   1.384   2.935
 7656TIP3   OH222908   3.176   4.562   1.300
 7656TIP3    H122909   3.146   4.570   1.209
 7656TIP3    H222910   3.246   4.627   1.307
 7657TIP3   OH222911   4.318   6.461   3.211
 7657TIP3    H122912   4.411   6.442   3.199
 7657TIP3    H222913   4.281   6.459   3.122
 7658TIP3   OH222914   5.203   1.058   2.930
 7658TIP3    H122915   5.176   1.149   2.943
 7658TIP3    H222916   5.231   1.054   2.838
 7659TIP3   OH222917   0.541   6.203   1.724
 7659TIP3    H122918   0.503   6.117   1.744
 7659TIP3    H222919   0.489   6.236   1.651
 7660TIP3   OH222920   8.392   3.705   5.528
 7660TIP3    H122921   8.304   3.691   5.492
 7660TIP3    H222922   8.434   3.767   5.468
 7661TIP3   OH222923   1.270   3.484   5.316
 7661TIP3    H122924   1.199   3.543   5.341
 7661TIP3    H222925   1.231   3.423   5.254
 7662TIP3   OH222926   5.025   4.806   5.951
 7662TIP3    H122927   4.987   4.756   6.025
 7662TIP3    H222928   5.118   4.811   5.971
 7663TIP3   OH222929   6.190   4.969   2.013
 7663TIP3    H122930   6.208   5.031   2.084
 7663TIP3    H222931   6.094   4.963   2.010
 7664TIP3   OH222932   8.342   2.781   1.646
 7664TIP3    H122933   8.367   2.689   1.634
 7664TIP3    H222934   8.286   2.800   1.570
 7665TIP3   OH222935   4.280   5.698   1.722
 7665TIP3    H122936   4.250   5.618   1.765
 7665TIP3    H222937   4.368   5.712   1.756
 7666TIP3   OH222938   1.736   2.617   5.814
 7666TIP3    H122939   1.690   2.695   5.783
 7666TIP3    H222940   1.666   2.562   5.851
 7667TIP3   OH222941   2.511   4.106   2.938
 7667TIP3    H122942   2.514   4.010   2.928
 7667TIP3    H222943   2.485   4.120   3.029
 7668TIP3   OH222944   1.513   3.621   4.258
 7668TIP3    H122945   1.466   3.689   4.210
 7668TIP3    H222946   1.465   3.614   4.341
 7669TIP3   OH222947   2.800   2.707   6.118
 7669TIP3    H122948   2.791   2.651   6.196
 7669TIP3    H222949   2.895   2.716   6.106
 7670TIP3   OH222950   0.636   1.776   2.702
 7670TIP3    H122951   0.619   1.786   2.796
 7670TIP3    H222952   0.708   1.837   2.684
 7671TIP3   OH222953   6.258   0.756   5.675
 7671TIP3    H122954   6.215   0.822   5.729
 7671TIP3    H222955   6.344   0.744   5.715
 7672TIP3   OH222956   3.959   2.090   0.590
 7672TIP3    H122957   3.982   2.110   0.499
 7672TIP3    H222958   4.031   2.124   0.642
 7673TIP3   OH222959   4.285   1.004   4.452
 7673TIP3    H122960   4.236   0.987   4.533
 7673TIP3    H222961   4.371   1.034   4.482
 7674TIP3   OH222962   2.380   2.114   2.237
 7674TIP3    H122963   2.463   2.080   2.202
 7674TIP3    H222964   2.323   2.120   2.161
 7675TIP3   OH222965   8.030   4.280   1.578
 7675TIP3    H122966   8.098   4.221   1.610
 7675TIP3    H222967   7.951   4.226   1.576
 7676TIP3   OH222968   8.175   5.277   4.783
 7676TIP3    H122969   8.104   5.224   4.820
 7676TIP3    H222970   8.177   5.253   4.690
 7677TIP3   OH222971   6.339   4.824   5.668
 7677TIP3    H122972   6.389   4.767   5.726
 7677TIP3    H222973   6.283   4.875   5.726
 7678TIP3   OH222974   6.061   2.047   0.445
 7678TIP3    H122975   5.979   2.058   0.398
 7678TIP3    H222976   6.040   1.988   0.517
 7679TIP3   OH222977   8.387   6.426   0.299
 7679TIP3    H122978   8.298   6.455   0.279
 7679TIP3    H222979   8.411   6.473   0.378
 7680TIP3   OH222980   8.231   1.517   6.227
 7680TIP3    H122981   8.146   1.560   6.217
 7680TIP3    H222982   8.244   1.468   6.146
 7681TIP3   OH222983   3.101   2.914   6.634
 7681TIP3    H122984   3.137   3.002   6.622
 7681TIP3    H222985   3.159   2.873   6.698
 7682TIP3   OH222986   6.289   4.953   1.507
 7682TIP3    H122987   6.271   4.861   1.491
 7682TIP3    H222988   6.207   4.998   1.484
 7683TIP3   OH222989   3.126   0.105   4.368
 7683TIP3    H122990   3.086   0.019   4.381
 7683TIP3    H222991   3.151   0.106   4.276
 7684TIP3   OH222992   7.014   1.405   2.718
 7684TIP3    H122993   7.049   1.327   2.762
 7684TIP3    H222994   7.017   1.382   2.625
 7685TIP3   OH222995   3.565   2.264   3.869
 7685TIP3    H122996   3.530   2.278   3.781
 7685TIP3    H222997   3.640   2.205   3.856
 7686TIP3   OH222998   7.336   0.550   4.755
 7686TIP3    H122999   7.272   0.522   4.820
 7686TIP3    H223000   7.288   0.609   4.697
 7687TIP3   OH223001   5.481   2.609   4.537
 7687TIP3    H123002   5.544   2.602   4.608
 7687TIP3    H223003   5.493   2.697   4.502
 7688TIP3   OH223004   0.496   5.860   0.509
 7688TIP3    H123005   0.559   5.825   0.573
 7688TIP3    H223006   0.411   5.831   0.541
 7689TIP3   OH223007   6.542   3.578   3.914
 7689TIP3    H123008   6.600   3.611   3.983
 7689TIP3    H223009   6.530   3.486   3.934
 7690TIP3   OH223010   0.996   5.820   1.127
 7690TIP3    H123011   1.087   5.814   1.097
 7690TIP3    H223012   0.985   5.910   1.156
 7691TIP3   OH223013   1.635   7.832   5.900
 7691TIP3    H123014   1.557   7.842   5.954
 7691TIP3    H223015   1.677   7.918   5.901
 7692TIP3   OH223016   1.681   6.694   5.735
 7692TIP3    H123017   1.647   6.782   5.748
 7692TIP3    H223018   1.734   6.699   5.655
 7693TIP3   OH223019   8.014   1.917   5.134
 7693TIP3    H123020   8.084   1.954   5.188
 7693TIP3    H223021   7.934   1.958   5.168
 7694TIP3   OH223022   0.831   6.593   1.124
 7694TIP3    H123023   0.811   6.672   1.174
 7694TIP3    H223024   0.925   6.598   1.108
 7695TIP3   OH223025   0.236   7.457   2.908
 7695TIP3    H123026   0.189   7.540   2.906
 7695TIP3    H223027   0.170   7.391   2.888
 7696TIP3   OH223028   6.081   6.245   4.730
 7696TIP3    H123029   6.105   6.220   4.640
 7696TIP3    H223030   6.164   6.266   4.772
 7697TIP3   OH223031   7.083   7.882   6.117
 7697TIP3    H123032   7.066   7.794   6.149
 7697TIP3    H223033   7.003   7.907   6.071
 7698TIP3   OH223034   3.013   3.079   4.707
 7698TIP3    H123035   2.959   3.006   4.678
 7698TIP3    H223036   3.036   3.125   4.626
 7699TIP3   OH223037   8.184   6.689   5.271
 7699TIP3    H123038   8.164   6.621   5.207
 7699TIP3    H223039   8.224   6.642   5.344
 7700TIP3   OH223040   5.233   0.976   5.424
 7700TIP3    H123041   5.147   0.970   5.465
 7700TIP3    H223042   5.295   0.961   5.495
 7701TIP3   OH223043   4.847   6.436   3.895
 7701TIP3    H123044   4.830   6.383   3.973
 7701TIP3    H223045   4.926   6.397   3.857
 7702TIP3   OH223046   0.393   3.980   0.260
 7702TIP3    H123047   0.319   4.041   0.256
 7702TIP3    H223048   0.364   3.912   0.321
 7703TIP3   OH223049   6.563   5.614   4.423
 7703TIP3    H123050   6.597   5.702   4.405
 7703TIP3    H223051   6.470   5.619   4.401
 7704TIP3   OH223052   1.350   3.917   0.254
 7704TIP3    H123053   1.413   3.925   0.182
 7704TIP3    H223054   1.404   3.914   0.333
 7705TIP3   OH223055   5.975   0.248   4.099
 7705TIP3    H123056   5.975   0.152   4.109
 7705TIP3    H223057   6.028   0.279   4.173
 7706TIP3   OH223058   5.120   1.193   3.259
 7706TIP3    H123059   5.159   1.116   3.299
 7706TIP3    H223060   5.047   1.159   3.207
 7707TIP3   OH223061   7.627   4.541   1.918
 7707TIP3    H123062   7.556   4.580   1.969
 7707TIP3    H223063   7.605   4.561   1.827
 7708TIP3   OH223064   5.672   2.179   1.407
 7708TIP3    H123065   5.592   2.130   1.424
 7708TIP3    H223066   5.742   2.127   1.447
 7709TIP3   OH223067   4.878   6.930   1.405
 7709TIP3    H123068   4.871   6.982   1.485
 7709TIP3    H223069   4.951   6.870   1.422
 7710TIP3   OH223070   3.640   0.192   3.867
 7710TIP3    H123071   3.715   0.133   3.877
 7710TIP3    H223072   3.665   0.270   3.915
 7711TIP3   OH223073   7.540   4.567   2.519
 7711TIP3    H123074   7.509   4.656   2.503
 7711TIP3    H223075   7.509   4.547   2.607
 7712TIP3   OH223076   0.251   2.314   5.018
 7712TIP3    H123077   0.209   2.398   5.036
 7712TIP3    H223078   0.247   2.304   4.923
 7713TIP3   OH223079   8.193   2.860   1.432
 7713TIP3    H123080   8.174   2.941   1.386
 7713TIP3    H223081   8.217   2.798   1.364
 7714TIP3   OH223082   7.233   5.084   1.039
 7714TIP3    H123083   7.323   5.053   1.026
 7714TIP3    H223084   7.240   5.149   1.109
 7715TIP3   OH223085   7.675   0.048   4.115
 7715TIP3    H123086   7.708   0.087   4.196
 7715TIP3    H223087   7.583   0.073   4.112
 7716TIP3   OH223088   0.648   2.232   2.428
 7716TIP3    H123089   0.729   2.212   2.380
 7716TIP3    H223090   0.624   2.320   2.399
 7717TIP3   OH223091   0.211   4.464   5.096
 7717TIP3    H123092   0.219   4.384   5.147
 7717TIP3    H223093   0.121   4.465   5.066
 7718TIP3   OH223094   1.085   6.405   3.748
 7718TIP3    H123095   1.173   6.391   3.713
 7718TIP3    H223096   1.074   6.500   3.749
 7719TIP3   OH223097   7.071   0.531   1.948
 7719TIP3    H123098   6.987   0.514   1.991
 7719TIP3    H223099   7.115   0.594   2.005
 7720TIP3   OH223100   2.936   0.755   2.332
 7720TIP3    H123101   3.017   0.757   2.383
 7720TIP3    H223102   2.964   0.767   2.241
 7721TIP3   OH223103   5.653   2.682   4.723
 7721TIP3    H123104   5.695   2.766   4.708
 7721TIP3    H223105   5.696   2.646   4.800
 7722TIP3   OH223106   3.886   3.054   3.797
 7722TIP3    H123107   3.852   2.981   3.746
 7722TIP3    H223108   3.931   3.110   3.733
 7723TIP3   OH223109   8.242   4.683   5.873
 7723TIP3    H123110   8.334   4.692   5.899
 7723TIP3    H223111   8.241   4.709   5.781
 7724TIP3   OH223112   3.607   0.178   4.817
 7724TIP3    H123113   3.562   0.260   4.796
 7724TIP3    H223114   3.537   0.113   4.819
 7725TIP3   OH223115   4.064   6.569   4.782
 7725TIP3    H123116   4.127   6.500   4.805
 7725TIP3    H223117   4.015   6.534   4.708
 7726TIP3   OH223118   0.178   4.974   4.233
 7726TIP3    H123119   0.109   4.971   4.299
 7726TIP3    H223120   0.199   4.882   4.216
 7727TIP3   OH223121   7.473   0.361   2.338
 7727TIP3    H123122   7.435   0.429   2.283
 7727TIP3    H223123   7.563   0.351   2.306
 7728TIP3   OH223124   6.876   7.231   6.633
 7728TIP3    H123125   6.955   7.285   6.625
 7728TIP3    H223126   6.833   7.239   6.548
 7729TIP3   OH223127   4.022   4.202   0.147
 7729TIP3    H123128   3.988   4.291   0.152
 7729TIP3    H223129   4.114   4.213   0.124
 7730TIP3   OH223130   7.601   4.512   5.851
 7730TIP3    H123131   7.660   4.569   5.802
 7730TIP3    H223132   7.655   4.478   5.922
 7731TIP3   OH223133   4.945   5.984   1.389
 7731TIP3    H123134   4.927   6.036   1.467
 7731TIP3    H223135   4.944   5.893   1.420
 7732TIP3   OH223136   8.255   3.092   6.855
 7732TIP3    H123137   8.180   3.039   6.827
 7732TIP3    H223138   8.289   3.130   6.773
 7733TIP3   OH223139   6.021   2.065   6.136
 7733TIP3    H123140   6.011   2.058   6.231
 7733TIP3    H223141   5.933   2.054   6.102
 7734TIP3   OH223142   7.503   0.030   2.200
 7734TIP3    H123143   7.554   0.014   2.121
 7734TIP3    H223144   7.423   0.072   2.169
 7735TIP3   OH223145   1.943   6.055   5.235
 7735TIP3    H123146   1.978   6.040   5.323
 7735TIP3    H223147   1.991   6.131   5.203
 7736TIP3   OH223148   0.224   0.857   0.610
 7736TIP3    H123149   0.300   0.859   0.669
 7736TIP3    H223150   0.256   0.899   0.530
 7737TIP3   OH223151   3.290   5.208   3.635
 7737TIP3    H123152   3.212   5.232   3.585
 7737TIP3    H223153   3.332   5.292   3.656
 7738TIP3   OH223154   5.826   7.560   6.618
 7738TIP3    H123155   5.881   7.532   6.545
 7738TIP3    H223156   5.873   7.531   6.696
 7739TIP3   OH223157   7.975   0.023   2.245
 7739TIP3    H123158   7.989   0.009   2.151
 7739TIP3    H223159   7.974   0.118   2.256
 7740TIP3   OH223160   3.932   4.607   1.091
 7740TIP3    H123161   3.862   4.645   1.144
 7740TIP3    H223162   3.896   4.604   1.002
 7741TIP3   OH223163   4.432   5.200   6.259
 7741TIP3    H123164   4.338   5.188   6.243
 7741TIP3    H223165   4.473   5.123   6.219
 7742TIP3   OH223166   3.164   0.978   0.169
 7742TIP3    H123167   3.230   0.912   0.188
 7742TIP3    H223168   3.210   1.061   0.178
 7743TIP3   OH223169   0.697   5.127   5.766
 7743TIP3    H123170   0.778   5.085   5.738
 7743TIP3    H223171   0.648   5.140   5.685
 7744TIP3   OH223172   8.103   7.683   1.735
 7744TIP3    H123173   8.076   7.659   1.824
 7744TIP3    H223174   8.176   7.743   1.747
 7745TIP3   OH223175   4.504   2.089   6.729
 7745TIP3    H123176   4.440   2.140   6.780
 7745TIP3    H223177   4.572   2.067   6.792
 7746TIP3   OH223178   0.357   0.278   5.632
 7746TIP3    H123179   0.281   0.225   5.607
 7746TIP3    H223180   0.429   0.215   5.639
 7747TIP3   OH223181   6.831   7.783   1.659
 7747TIP3    H123182   6.807   7.770   1.567
 7747TIP3    H223183   6.811   7.875   1.677
 7748TIP3   OH223184   2.810   5.958   5.561
 7748TIP3    H123185   2.879   5.901   5.595
 7748TIP3    H223186   2.816   5.949   5.466
 7749TIP3   OH223187   1.559   2.708   2.585
 7749TIP3    H123188   1.570   2.613   2.582
 7749TIP3    H223189   1.472   2.721   2.624
 7750TIP3   OH223190   7.951   2.772   3.962
 7750TIP3    H123191   7.941   2.781   4.057
 7750TIP3    H223192   7.910   2.689   3.941
 7751TIP3   OH223193   1.748   2.305   4.217
 7751TIP3    H123194   1.665   2.261   4.233
 7751TIP3    H223195   1.802   2.283   4.293
 7752TIP3   OH223196   1.357   4.367   3.949
 7752TIP3    H123197   1.271   4.345   3.984
 7752TIP3    H223198   1.343   4.377   3.855
 7753TIP3   OH223199   6.661   5.487   0.073
 7753TIP3    H123200   6.572   5.452   0.069
 7753TIP3    H223201   6.672   5.515   0.164
 7754TIP3   OH223202   7.054   5.139   5.611
 7754TIP3    H123203   7.007   5.191   5.677
 7754TIP3    H223204   7.074   5.057   5.654
 7755TIP3   OH223205   1.016   7.877   5.262
 7755TIP3    H123206   0.971   7.930   5.196
 7755TIP3    H223207   0.967   7.894   5.343
 7756TIP3   OH223208   4.642   3.992   0.330
 7756TIP3    H123209   4.696   4.061   0.367
 7756TIP3    H223210   4.667   3.990   0.237
 7757TIP3   OH223211   3.427   4.522   1.842
 7757TIP3    H123212   3.416   4.483   1.929
 7757TIP3    H223213   3.339   4.547   1.816
 7758TIP3   OH223214   5.650   0.809   4.255
 7758TIP3    H123215   5.704   0.730   4.251
 7758TIP3    H223216   5.699   0.874   4.205
 7759TIP3   OH223217   7.526   4.847   5.601
 7759TIP3    H123218   7.510   4.759   5.568
 7759TIP3    H223219   7.617   4.866   5.578
 7760TIP3   OH223220   3.580   1.168   0.381
 7760TIP3    H123221   3.647   1.191   0.445
 7760TIP3    H223222   3.628   1.123   0.311
 7761TIP3   OH223223   7.362   6.644   0.504
 7761TIP3    H123224   7.420   6.648   0.428
 7761TIP3    H223225   7.285   6.695   0.478
 7762TIP3   OH223226   6.692   1.832   2.821
 7762TIP3    H123227   6.728   1.751   2.858
 7762TIP3    H223228   6.621   1.856   2.880
 7763TIP3   OH223229   0.715   7.575   4.570
 7763TIP3    H123230   0.775   7.646   4.545
 7763TIP3    H223231   0.773   7.501   4.587
 7764TIP3   OH223232   4.400   0.267   4.121
 7764TIP3    H123233   4.494   0.273   4.137
 7764TIP3    H223234   4.378   0.176   4.144
 7765TIP3   OH223235   3.084   7.795   0.947
 7765TIP3    H123236   3.011   7.805   0.886
 7765TIP3    H223237   3.119   7.708   0.929
 7766TIP3   OH223238   5.358   4.342   0.162
 7766TIP3    H123239   5.339   4.410   0.226
 7766TIP3    H223240   5.417   4.384   0.099
 7767TIP3   OH223241   0.240   1.081   6.739
 7767TIP3    H123242   0.249   1.079   6.834
 7767TIP3    H223243   0.147   1.092   6.724
 7768TIP3   OH223244   6.508   1.796   3.042
 7768TIP3    H123245   6.419   1.762   3.056
 7768TIP3    H223246   6.516   1.870   3.102
 7769TIP3   OH223247   7.439   1.735   3.741
 7769TIP3    H123248   7.394   1.654   3.764
 7769TIP3    H223249   7.504   1.747   3.810
 7770TIP3   OH223250   5.833   3.598   3.683
 7770TIP3    H123251   5.835   3.605   3.778
 7770TIP3    H223252   5.922   3.621   3.655
 7771TIP3   OH223253   8.268   3.544   2.604
 7771TIP3    H123254   8.268   3.459   2.560
 7771TIP3    H223255   8.184   3.583   2.581
 7772TIP3   OH223256   0.573   2.431   3.935
 7772TIP3    H123257   0.583   2.470   3.849
 7772TIP3    H223258   0.581   2.504   3.997
 7773TIP3   OH223259   6.791   0.985   4.485
 7773TIP3    H123260   6.803   1.055   4.420
 7773TIP3    H223261   6.754   1.030   4.561
 7774TIP3   OH223262   6.968   2.573   4.682
 7774TIP3    H123263   6.910   2.546   4.611
 7774TIP3    H223264   7.004   2.657   4.654
 7775TIP3   OH223265   5.133   0.605   1.762
 7775TIP3    H123266   5.214   0.619   1.713
 7775TIP3    H223267   5.104   0.518   1.737
 7776TIP3   OH223268   8.150   1.531   1.798
 7776TIP3    H123269   8.208   1.508   1.725
 7776TIP3    H223270   8.196   1.499   1.876
 7777TIP3   OH223271   5.443   4.319   2.685
 7777TIP3    H123272   5.510   4.329   2.752
 7777TIP3    H223273   5.412   4.229   2.695
 7778TIP3   OH223274   1.559   7.340   2.332
 7778TIP3    H123275   1.482   7.387   2.363
 7778TIP3    H223276   1.588   7.289   2.408
 7779TIP3   OH223277   5.521   5.429   3.116
 7779TIP3    H123278   5.581   5.376   3.168
 7779TIP3    H223279   5.446   5.444   3.174
 7780TIP3   OH223280   5.341   3.093   0.312
 7780TIP3    H123281   5.375   3.092   0.222
 7780TIP3    H223282   5.305   3.005   0.325
 7781TIP3   OH223283   5.772   1.236   5.298
 7781TIP3    H123284   5.728   1.199   5.375
 7781TIP3    H223285   5.772   1.164   5.235
 7782TIP3   OH223286   8.260   3.748   2.842
 7782TIP3    H123287   8.181   3.700   2.866
 7782TIP3    H223288   8.299   3.696   2.771
 7783TIP3   OH223289   3.008   6.153   1.842
 7783TIP3    H123290   3.038   6.129   1.754
 7783TIP3    H223291   3.023   6.074   1.895
 7784TIP3   OH223292   8.306   0.941   5.799
 7784TIP3    H123293   8.286   0.981   5.714
 7784TIP3    H223294   8.343   1.012   5.851
 7785TIP3   OH223295   6.648   3.973   0.243
 7785TIP3    H123296   6.680   3.887   0.269
 7785TIP3    H223297   6.725   4.019   0.210
 7786TIP3   OH223298   0.809   0.138   6.437
 7786TIP3    H123299   0.820   0.192   6.358
 7786TIP3    H223300   0.807   0.048   6.405
 7787TIP3   OH223301   4.539   4.911   3.111
 7787TIP3    H123302   4.569   4.825   3.141
 7787TIP3    H223303   4.620   4.960   3.096
 7788TIP3   OH223304   6.361   1.086   1.862
 7788TIP3    H123305   6.331   1.155   1.802
 7788TIP3    H223306   6.438   1.049   1.819
 7789TIP3   OH223307   5.497   2.760   0.638
 7789TIP3    H123308   5.574   2.743   0.692
 7789TIP3    H223309   5.508   2.849   0.606
 7790TIP3   OH223310   4.017   3.351   0.028
 7790TIP3    H123311   4.021   3.340  -0.067
 7790TIP3    H223312   3.936   3.307   0.054
 7791TIP3   OH223313   7.784   4.726   5.789
 7791TIP3    H123314   7.801   4.708   5.881
 7791TIP3    H223315   7.786   4.821   5.782
 7792TIP3   OH223316   2.724   6.253   5.915
 7792TIP3    H123317   2.706   6.275   5.823
 7792TIP3    H223318   2.695   6.162   5.924
 7793TIP3   OH223319   6.606   3.316   3.950
 7793TIP3    H123320   6.572   3.266   3.876
 7793TIP3    H223321   6.606   3.253   4.023
 7794TIP3   OH223322   4.278   2.065   4.814
 7794TIP3    H123323   4.254   2.083   4.723
 7794TIP3    H223324   4.248   2.142   4.862
 7795TIP3   OH223325   5.509   6.159   5.623
 7795TIP3    H123326   5.501   6.231   5.687
 7795TIP3    H223327   5.569   6.097   5.664
 7796TIP3   OH223328   1.911   0.076   2.620
 7796TIP3    H123329   1.949   0.164   2.624
 7796TIP3    H223330   1.986   0.017   2.625
 7797TIP3   OH223331   6.706   3.653   4.110
 7797TIP3    H123332   6.680   3.572   4.155
 7797TIP3    H223333   6.744   3.708   4.179
 7798TIP3   OH223334   6.157   3.712   5.591
 7798TIP3    H123335   6.115   3.782   5.542
 7798TIP3    H223336   6.214   3.757   5.653
 7799TIP3   OH223337  -0.002   0.532   5.117
 7799TIP3    H123338   0.093   0.527   5.103
 7799TIP3    H223339  -0.024   0.450   5.161
 7800TIP3   OH223340   7.853   7.419   5.307
 7800TIP3    H123341   7.934   7.404   5.356
 7800TIP3    H223342   7.785   7.425   5.374
 7801TIP3   OH223343   5.855   5.610   6.230
 7801TIP3    H123344   5.938   5.618   6.184
 7801TIP3    H223345   5.866   5.664   6.309
 7802TIP3   OH223346   1.651   3.615   3.257
 7802TIP3    H123347   1.641   3.536   3.204
 7802TIP3    H223348   1.629   3.687   3.198
 7803TIP3   OH223349   6.528   2.313   3.206
 7803TIP3    H123350   6.552   2.221   3.222
 7803TIP3    H223351   6.590   2.363   3.258
 7804TIP3   OH223352   0.966   7.215   5.328
 7804TIP3    H123353   0.981   7.279   5.398
 7804TIP3    H223354   1.024   7.244   5.257
 7805TIP3   OH223355   5.551   5.352   5.764
 7805TIP3    H123356   5.516   5.441   5.755
 7805TIP3    H223357   5.646   5.363   5.764
 7806TIP3   OH223358   6.084   2.277   0.568
 7806TIP3    H123359   6.046   2.206   0.516
 7806TIP3    H223360   6.114   2.340   0.503
 7807TIP3   OH223361   0.065   2.606   3.188
 7807TIP3    H123362   0.093   2.515   3.187
 7807TIP3    H223363   0.037   2.624   3.098
 7808TIP3   OH223364   3.268   1.977   2.977
 7808TIP3    H123365   3.200   1.917   3.006
 7808TIP3    H223366   3.272   2.045   3.045
 7809TIP3   OH223367   6.622   7.358   2.966
 7809TIP3    H123368   6.558   7.287   2.966
 7809TIP3    H223369   6.573   7.434   2.995
 7810TIP3   OH223370   6.317   0.390   4.678
 7810TIP3    H123371   6.384   0.458   4.681
 7810TIP3    H223372   6.334   0.342   4.597
 7811TIP3   OH223373   0.347   6.615   3.155
 7811TIP3    H123374   0.426   6.667   3.139
 7811TIP3    H223375   0.277   6.679   3.162
 7812TIP3   OH223376   6.797   6.862   0.795
 7812TIP3    H123377   6.801   6.800   0.723
 7812TIP3    H223378   6.771   6.809   0.871
 7813TIP3   OH223379   4.411   7.236   1.224
 7813TIP3    H123380   4.416   7.332   1.226
 7813TIP3    H223381   4.318   7.217   1.240
 7814TIP3   OH223382   3.060   7.343   4.889
 7814TIP3    H123383   3.043   7.299   4.806
 7814TIP3    H223384   2.974   7.348   4.932
 7815TIP3   OH223385   8.337   5.783   3.141
 7815TIP3    H123386   8.343   5.867   3.186
 7815TIP3    H223387   8.262   5.792   3.083
 7816TIP3   OH223388   0.630   7.474   5.837
 7816TIP3    H123389   0.614   7.518   5.754
 7816TIP3    H223390   0.644   7.544   5.900
 7817TIP3   OH223391   8.035   0.301   0.381
 7817TIP3    H123392   8.001   0.272   0.297
 7817TIP3    H223393   8.080   0.383   0.362
 7818TIP3   OH223394   5.951   7.252   5.438
 7818TIP3    H123395   5.895   7.203   5.378
 7818TIP3    H223396   6.040   7.220   5.419
 7819TIP3   OH223397   6.546   5.122   2.032
 7819TIP3    H123398   6.492   5.093   1.958
 7819TIP3    H223399   6.496   5.193   2.072
 7820TIP3   OH223400   4.327   5.752   2.146
 7820TIP3    H123401   4.264   5.821   2.123
 7820TIP3    H223402   4.405   5.800   2.174
 7821TIP3   OH223403   4.001   6.996   2.458
 7821TIP3    H123404   4.091   6.981   2.428
 7821TIP3    H223405   3.947   6.954   2.390
 7822TIP3   OH223406   1.749   7.613   2.907
 7822TIP3    H123407   1.689   7.663   2.963
 7822TIP3    H223408   1.769   7.673   2.835
 7823TIP3   OH223409   0.388   2.098   0.211
 7823TIP3    H123410   0.316   2.050   0.170
 7823TIP3    H223411   0.449   2.115   0.140
 7824TIP3   OH223412   6.272   6.762   1.325
 7824TIP3    H123413   6.225   6.765   1.409
 7824TIP3    H223414   6.229   6.829   1.272
 7825TIP3   OH223415   7.957   7.515   0.562
 7825TIP3    H123416   8.035   7.552   0.605
 7825TIP3    H223417   7.978   7.518   0.469
 7826TIP3   OH223418   4.008   3.824   2.031
 7826TIP3    H123419   3.925   3.795   2.069
 7826TIP3    H223420   4.068   3.828   2.105
 7827TIP3   OH223421   0.793   2.133   3.593
 7827TIP3    H123422   0.698   2.142   3.602
 7827TIP3    H223423   0.819   2.212   3.545
 7828TIP3   OH223424   3.235   7.237   3.642
 7828TIP3    H123425   3.211   7.323   3.609
 7828TIP3    H223426   3.237   7.248   3.737
 7829TIP3   OH223427   2.551   3.641   1.195
 7829TIP3    H123428   2.610   3.714   1.210
 7829TIP3    H223429   2.464   3.680   1.198
 7830TIP3   OH223430   1.353   2.494   6.548
 7830TIP3    H123431   1.339   2.409   6.590
 7830TIP3    H223432   1.387   2.550   6.618
 7831TIP3   OH223433   6.356   6.310   3.076
 7831TIP3    H123434   6.425   6.274   3.020
 7831TIP3    H223435   6.357   6.255   3.154
 7832TIP3   OH223436   3.504   3.255   6.232
 7832TIP3    H123437   3.434   3.317   6.252
 7832TIP3    H223438   3.583   3.297   6.266
 7833TIP3   OH223439   2.559   0.041   3.153
 7833TIP3    H123440   2.641   0.021   3.199
 7833TIP3    H223441   2.577   0.124   3.109
 7834TIP3   OH223442   1.975   2.484   5.518
 7834TIP3    H123443   1.933   2.400   5.499
 7834TIP3    H223444   2.038   2.496   5.447
 7835TIP3   OH223445   4.867   2.956   3.769
 7835TIP3    H123446   4.947   2.915   3.738
 7835TIP3    H223447   4.831   2.894   3.833
 7836TIP3   OH223448   4.763   7.378   2.591
 7836TIP3    H123449   4.754   7.307   2.655
 7836TIP3    H223450   4.688   7.367   2.532
 7837TIP3   OH223451   1.650   4.950   4.558
 7837TIP3    H123452   1.601   4.979   4.635
 7837TIP3    H223453   1.737   4.930   4.591
 7838TIP3   OH223454   4.639   3.183   5.917
 7838TIP3    H123455   4.730   3.210   5.901
 7838TIP3    H223456   4.586   3.254   5.881
 7839TIP3   OH223457   6.866   0.819   6.124
 7839TIP3    H123458   6.827   0.737   6.154
 7839TIP3    H223459   6.806   0.852   6.057
 7840TIP3   OH223460   2.501   7.252   6.315
 7840TIP3    H123461   2.514   7.287   6.403
 7840TIP3    H223462   2.582   7.274   6.269
 7841TIP3   OH223463   0.673   0.671   1.991
 7841TIP3    H123464   0.604   0.606   2.005
 7841TIP3    H223465   0.626   0.750   1.964
 7842TIP3   OH223466   2.516   4.885   2.215
 7842TIP3    H123467   2.547   4.835   2.139
 7842TIP3    H223468   2.421   4.883   2.208
 7843TIP3   OH223469   0.333   5.670   3.930
 7843TIP3    H123470   0.316   5.750   3.979
 7843TIP3    H223471   0.253   5.619   3.940
 7844TIP3   OH223472   4.499   5.331   3.705
 7844TIP3    H123473   4.410   5.351   3.737
 7844TIP3    H223474   4.539   5.416   3.691
 7845TIP3   OH223475   4.702   7.681   6.846
 7845TIP3    H123476   4.714   7.626   6.769
 7845TIP3    H223477   4.731   7.627   6.919
 7846TIP3   OH223478   2.424   0.998   5.078
 7846TIP3    H123479   2.434   0.939   5.153
 7846TIP3    H223480   2.343   0.970   5.036
 7847TIP3   OH223481   1.841   4.910   3.755
 7847TIP3    H123482   1.888   4.977   3.804
 7847TIP3    H223483   1.830   4.838   3.818
 7848TIP3   OH223484   1.709   7.622   6.853
 7848TIP3    H123485   1.700   7.634   6.947
 7848TIP3    H223486   1.802   7.636   6.835
 7849TIP3   OH223487   6.302   0.029   4.634
 7849TIP3    H123488   6.207   0.027   4.618
 7849TIP3    H223489   6.315  -0.029   4.708
 7850TIP3   OH223490   6.237   4.296   3.119
 7850TIP3    H123491   6.208   4.210   3.088
 7850TIP3    H223492   6.227   4.354   3.044
 7851TIP3   OH223493   6.385   6.093   4.808
 7851TIP3    H123494   6.302   6.056   4.776
 7851TIP3    H223495   6.373   6.100   4.902
 7852TIP3   OH223496   6.027   7.558   4.653
 7852TIP3    H123497   5.978   7.615   4.711
 7852TIP3    H223498   6.119   7.584   4.665
 7853TIP3   OH223499   5.145   1.851   1.112
 7853TIP3    H123500   5.236   1.837   1.085
 7853TIP3    H223501   5.152   1.909   1.188
 7854TIP3   OH223502   5.647   2.484   6.849
 7854TIP3    H123503   5.629   2.449   6.937
 7854TIP3    H223504   5.725   2.538   6.860
 7855TIP3   OH223505   4.877   3.130   1.609
 7855TIP3    H123506   4.911   3.215   1.580
 7855TIP3    H223507   4.911   3.120   1.698
 7856TIP3   OH223508   8.106   6.569   2.401
 7856TIP3    H123509   8.155   6.497   2.363
 7856TIP3    H223510   8.154   6.591   2.481
 7857TIP3   OH223511   1.306   2.721   2.689
 7857TIP3    H123512   1.244   2.760   2.627
 7857TIP3    H223513   1.276   2.631   2.701
 7858TIP3   OH223514   5.491   5.394   6.619
 7858TIP3    H123515   5.483   5.450   6.542
 7858TIP3    H223516   5.457   5.447   6.692
 7859TIP3   OH223517   4.099   2.830   3.595
 7859TIP3    H123518   4.124   2.816   3.504
 7859TIP3    H223519   4.009   2.862   3.591
 7860TIP3   OH223520   2.857   7.730   5.246
 7860TIP3    H123521   2.885   7.641   5.264
 7860TIP3    H223522   2.771   7.720   5.204
 7861TIP3   OH223523   3.952   0.570   2.755
 7861TIP3    H123524   3.997   0.651   2.730
 7861TIP3    H223525   3.940   0.523   2.673
 7862TIP3   OH223526   2.340   7.316   5.864
 7862TIP3    H123527   2.259   7.363   5.882
 7862TIP3    H223528   2.342   7.246   5.929
 7863TIP3   OH223529   0.873   1.816   1.967
 7863TIP3    H123530   0.966   1.794   1.956
 7863TIP3    H223531   0.840   1.824   1.877
 7864TIP3   OH223532   8.249   4.371   1.265
 7864TIP3    H123533   8.214   4.316   1.195
 7864TIP3    H223534   8.172   4.404   1.311
 7865TIP3   OH223535   3.398   6.203   6.345
 7865TIP3    H123536   3.390   6.279   6.288
 7865TIP3    H223537   3.361   6.131   6.294
 7866TIP3   OH223538   3.615   0.066   0.273
 7866TIP3    H123539   3.571   0.151   0.280
 7866TIP3    H223540   3.551   0.010   0.228
 7867TIP3   OH223541   3.657   1.719   2.070
 7867TIP3    H123542   3.619   1.798   2.106
 7867TIP3    H223543   3.665   1.659   2.144
 7868TIP3   OH223544   2.489   7.862   2.026
 7868TIP3    H123545   2.526   7.898   1.946
 7868TIP3    H223546   2.532   7.909   2.097
 7869TIP3   OH223547   2.807   3.530   4.486
 7869TIP3    H123548   2.798   3.438   4.512
 7869TIP3    H223549   2.717   3.564   4.486
 7870TIP3   OH223550   3.877   5.770   4.300
 7870TIP3    H123551   3.870   5.774   4.396
 7870TIP3    H223552   3.964   5.733   4.284
 7871TIP3   OH223553   6.957   7.807   5.079
 7871TIP3    H123554   7.051   7.812   5.093
 7871TIP3    H223555   6.943   7.848   4.994
 7872TIP3   OH223556   0.438   2.777   6.717
 7872TIP3    H123557   0.524   2.806   6.747
 7872TIP3    H223558   0.425   2.691   6.758
 7873TIP3   OH223559   3.819   0.205   6.601
 7873TIP3    H123560   3.828   0.111   6.581
 7873TIP3    H223561   3.892   0.225   6.659
 7874TIP3   OH223562   2.440   1.304   2.692
 7874TIP3    H123563   2.510   1.369   2.687
 7874TIP3    H223564   2.387   1.319   2.614
 7875TIP3   OH223565   6.644   3.363   6.854
 7875TIP3    H123566   6.638   3.277   6.813
 7875TIP3    H223567   6.695   3.349   6.934
 7876TIP3   OH223568   0.193   3.290   4.051
 7876TIP3    H123569   0.161   3.378   4.033
 7876TIP3    H223570   0.165   3.238   3.976
 7877TIP3   OH223571   4.640   6.400   3.669
 7877TIP3    H123572   4.704   6.330   3.652
 7877TIP3    H223573   4.634   6.403   3.765
 7878TIP3   OH223574   2.638   5.946   4.662
 7878TIP3    H123575   2.668   6.035   4.681
 7878TIP3    H223576   2.620   5.907   4.747
 7879TIP3   OH223577   3.353   5.824   6.486
 7879TIP3    H123578   3.371   5.734   6.514
 7879TIP3    H223579   3.399   5.833   6.403
 7880TIP3   OH223580   5.762   1.578   0.366
 7880TIP3    H123581   5.670   1.602   0.380
 7880TIP3    H223582   5.758   1.505   0.304
 7881TIP3   OH223583   2.494   6.933   3.299
 7881TIP3    H123584   2.403   6.963   3.301
 7881TIP3    H223585   2.546   7.014   3.308
 7882TIP3   OH223586   5.837   7.259   6.647
 7882TIP3    H123587   5.764   7.297   6.598
 7882TIP3    H223588   5.799   7.234   6.731
 7883TIP3   OH223589   6.691   1.894   6.749
 7883TIP3    H123590   6.698   1.984   6.780
 7883TIP3    H223591   6.603   1.888   6.712
 7884TIP3   OH223592   3.740   3.393   6.299
 7884TIP3    H123593   3.824   3.412   6.258
 7884TIP3    H223594   3.686   3.469   6.280
 7885TIP3   OH223595   6.457   1.920   3.922
 7885TIP3    H123596   6.380   1.889   3.873
 7885TIP3    H223597   6.508   1.968   3.857
 7886TIP3   OH223598   5.373   0.865   1.716
 7886TIP3    H123599   5.324   0.823   1.645
 7886TIP3    H223600   5.321   0.850   1.795
 7887TIP3   OH223601   6.274   2.533   4.389
 7887TIP3    H123602   6.247   2.513   4.300
 7887TIP3    H223603   6.289   2.627   4.389
 7888TIP3   OH223604   7.876   5.048   5.159
 7888TIP3    H123605   7.924   5.059   5.241
 7888TIP3    H223606   7.916   4.972   5.118
 7889TIP3   OH223607   7.628   1.191   1.538
 7889TIP3    H123608   7.670   1.161   1.619
 7889TIP3    H223609   7.535   1.171   1.550
 7890TIP3   OH223610   3.964   1.541   0.704
 7890TIP3    H123611   4.057   1.537   0.726
 7890TIP3    H223612   3.940   1.632   0.720
 7891TIP3   OH223613   2.622   2.989   2.903
 7891TIP3    H123614   2.560   3.051   2.865
 7891TIP3    H223615   2.567   2.919   2.940
 7892TIP3   OH223616   2.356   4.608   5.384
 7892TIP3    H123617   2.329   4.631   5.295
 7892TIP3    H223618   2.354   4.691   5.432
 7893TIP3   OH223619   0.689   1.300   2.400
 7893TIP3    H123620   0.709   1.210   2.425
 7893TIP3    H223621   0.774   1.338   2.377
 7894TIP3   OH223622   7.355   2.869   3.016
 7894TIP3    H123623   7.277   2.850   2.964
 7894TIP3    H223624   7.422   2.812   2.978
 7895TIP3   OH223625   2.590   1.256   3.784
 7895TIP3    H123626   2.598   1.328   3.720
 7895TIP3    H223627   2.535   1.191   3.740
 7896TIP3   OH223628   7.447   4.275   5.425
 7896TIP3    H123629   7.478   4.226   5.501
 7896TIP3    H223630   7.352   4.270   5.431
 7897TIP3   OH223631   5.877   0.671   5.872
 7897TIP3    H123632   5.835   0.753   5.846
 7897TIP3    H223633   5.902   0.629   5.789
 7898TIP3   OH223634   4.355   1.848   6.696
 7898TIP3    H123635   4.404   1.925   6.725
 7898TIP3    H223636   4.265   1.865   6.724
 7899TIP3   OH223637   5.952   5.303   6.625
 7899TIP3    H123638   6.043   5.277   6.640
 7899TIP3    H223639   5.953   5.399   6.626
 7900TIP3   OH223640   0.867   6.710   5.145
 7900TIP3    H123641   0.883   6.797   5.181
 7900TIP3    H223642   0.943   6.693   5.089
 7901TIP3   OH223643   0.683   5.220   2.082
 7901TIP3    H123644   0.774   5.227   2.111
 7901TIP3    H223645   0.689   5.179   1.995
 7902TIP3   OH223646   3.434   4.214   6.589
 7902TIP3    H123647   3.525   4.186   6.600
 7902TIP3    H223648   3.417   4.270   6.665
 7903TIP3   OH223649   5.322   3.736   1.032
 7903TIP3    H123650   5.320   3.776   1.118
 7903TIP3    H223651   5.229   3.723   1.009
 7904TIP3   OH223652   0.315   1.905   5.096
 7904TIP3    H123653   0.255   1.979   5.098
 7904TIP3    H223654   0.272   1.837   5.148
 7905TIP3   OH223655   7.775   7.497   3.354
 7905TIP3    H123656   7.722   7.576   3.347
 7905TIP3    H223657   7.721   7.436   3.404
 7906TIP3   OH223658   7.346   7.515   3.028
 7906TIP3    H123659   7.323   7.598   2.986
 7906TIP3    H223660   7.327   7.449   2.961
 7907TIP3   OH223661   3.651   6.505   4.005
 7907TIP3    H123662   3.589   6.534   4.071
 7907TIP3    H223663   3.721   6.462   4.054
 7908TIP3   OH223664   1.663   6.528   3.776
 7908TIP3    H123665   1.724   6.502   3.707
 7908TIP3    H223666   1.706   6.503   3.857
 7909TIP3   OH223667   3.354   1.300   1.395
 7909TIP3    H123668   3.412   1.359   1.442
 7909TIP3    H223669   3.302   1.259   1.464
 7910TIP3   OH223670   0.020   5.591   2.532
 7910TIP3    H123671  -0.052   5.554   2.482
 7910TIP3    H223672   0.039   5.526   2.599
 7911TIP3   OH223673   1.930   4.931   2.380
 7911TIP3    H123674   1.937   5.024   2.404
 7911TIP3    H223675   1.837   4.910   2.394
 7912TIP3   OH223676   3.722   5.166   5.677
 7912TIP3    H123677   3.662   5.096   5.704
 7912TIP3    H223678   3.743   5.211   5.759
 7913TIP3   OH223679   5.617   4.050   1.079
 7913TIP3    H123680   5.595   3.971   1.031
 7913TIP3    H223681   5.698   4.082   1.038
 7914TIP3   OH223682   7.812   5.065   0.665
 7914TIP3    H123683   7.794   5.050   0.572
 7914TIP3    H223684   7.744   5.128   0.692
 7915TIP3   OH223685   0.761   3.201   5.529
 7915TIP3    H123686   0.688   3.150   5.496
 7915TIP3    H223687   0.743   3.291   5.500
 7916TIP3   OH223688   0.434   4.501   0.084
 7916TIP3    H123689   0.435   4.422   0.138
 7916TIP3    H223690   0.524   4.509   0.052
 7917TIP3   OH223691   7.252   1.411   0.498
 7917TIP3    H123692   7.290   1.467   0.566
 7917TIP3    H223693   7.191   1.469   0.451
 7918TIP3   OH223694   2.533   0.499   0.708
 7918TIP3    H123695   2.473   0.429   0.733
 7918TIP3    H223696   2.548   0.548   0.788
 7919TIP3   OH223697   6.798   2.404   0.025
 7919TIP3    H123698   6.835   2.317   0.039
 7919TIP3    H223699   6.704   2.393   0.040
 7920TIP3   OH223700   4.277   2.977   4.936
 7920TIP3    H123701   4.306   2.890   4.964
 7920TIP3    H223702   4.273   2.973   4.841
 7921TIP3   OH223703   8.037   4.189   4.371
 7921TIP3    H123704   7.987   4.128   4.317
 7921TIP3    H223705   8.069   4.255   4.310
 7922TIP3   OH223706   0.113   2.594   5.975
 7922TIP3    H123707   0.139   2.666   6.032
 7922TIP3    H223708   0.017   2.595   5.978
 7923TIP3   OH223709   6.115   3.321   4.810
 7923TIP3    H123710   6.198   3.303   4.854
 7923TIP3    H223711   6.049   3.280   4.865
 7924TIP3   OH223712   3.300   5.774   1.812
 7924TIP3    H123713   3.322   5.813   1.727
 7924TIP3    H223714   3.206   5.792   1.822
 7925TIP3   OH223715   0.413   4.916   2.915
 7925TIP3    H123716   0.384   4.884   3.000
 7925TIP3    H223717   0.401   5.011   2.919
 7926TIP3   OH223718   2.536   2.059   4.603
 7926TIP3    H123719   2.449   2.077   4.567
 7926TIP3    H223720   2.573   1.993   4.545
 7927TIP3   OH223721   6.132   0.242   6.391
 7927TIP3    H123722   6.211   0.295   6.403
 7927TIP3    H223723   6.110   0.252   6.299
 7928TIP3   OH223724   8.012   0.779   5.633
 7928TIP3    H123725   8.050   0.715   5.572
 7928TIP3    H223726   7.920   0.754   5.640
 7929TIP3   OH223727   0.326   3.722   2.849
 7929TIP3    H123728   0.372   3.661   2.792
 7929TIP3    H223729   0.395   3.778   2.886
 7930TIP3   OH223730   2.631   7.720   2.792
 7930TIP3    H123731   2.718   7.748   2.819
 7930TIP3    H223732   2.572   7.758   2.858
 7931TIP3   OH223733   2.520   7.338   3.525
 7931TIP3    H123734   2.581   7.283   3.574
 7931TIP3    H223735   2.520   7.421   3.572
 7932TIP3   OH223736   5.210   4.064   1.146
 7932TIP3    H123737   5.171   4.047   1.060
 7932TIP3    H223738   5.179   3.992   1.201
 7933TIP3   OH223739   1.759   5.016   0.785
 7933TIP3    H123740   1.832   5.078   0.784
 7933TIP3    H223741   1.797   4.935   0.819
 7934TIP3   OH223742   3.712   1.898   4.591
 7934TIP3    H123743   3.633   1.846   4.580
 7934TIP3    H223744   3.684   1.988   4.575
 7935TIP3   OH223745   7.051   3.027   2.814
 7935TIP3    H123746   6.967   3.072   2.803
 7935TIP3    H223747   7.117   3.094   2.801
 7936TIP3   OH223748   6.395   3.057   0.895
 7936TIP3    H123749   6.361   3.146   0.897
 7936TIP3    H223750   6.337   3.007   0.951
 7937TIP3   OH223751   2.895   1.770   1.590
 7937TIP3    H123752   2.851   1.721   1.660
 7937TIP3    H223753   2.975   1.802   1.630
 7938TIP3   OH223754   4.344   6.063   1.799
 7938TIP3    H123755   4.293   6.014   1.864
 7938TIP3    H223756   4.435   6.045   1.822
 7939TIP3   OH223757   1.139   1.704   3.011
 7939TIP3    H123758   1.167   1.749   2.931
 7939TIP3    H223759   1.175   1.616   3.002
 7940TIP3   OH223760   2.550   1.342   0.174
 7940TIP3    H123761   2.454   1.340   0.172
 7940TIP3    H223762   2.577   1.284   0.104
 7941TIP3   OH223763   3.103   6.235   1.046
 7941TIP3    H123764   3.066   6.273   0.966
 7941TIP3    H223765   3.030   6.189   1.087
 7942TIP3   OH223766   1.037   3.881   4.237
 7942TIP3    H123767   0.952   3.840   4.224
 7942TIP3    H223768   1.023   3.973   4.216
 7943TIP3   OH223769   1.010   5.936   5.049
 7943TIP3    H123770   0.958   5.994   5.105
 7943TIP3    H223771   0.958   5.930   4.968
 7944TIP3   OH223772   5.383   7.775   3.006
 7944TIP3    H123773   5.305   7.829   3.013
 7944TIP3    H223774   5.394   7.760   2.912
 7945TIP3   OH223775   4.037   6.675   5.490
 7945TIP3    H123776   3.972   6.609   5.515
 7945TIP3    H223777   4.102   6.626   5.440
 7946TIP3   OH223778   6.845   5.124   4.183
 7946TIP3    H123779   6.828   5.195   4.121
 7946TIP3    H223780   6.898   5.164   4.252
 7947TIP3   OH223781   1.736   0.288   2.825
 7947TIP3    H123782   1.697   0.306   2.740
 7947TIP3    H223783   1.823   0.327   2.822
 7948TIP3   OH223784   3.562   5.585   5.045
 7948TIP3    H123785   3.651   5.617   5.060
 7948TIP3    H223786   3.507   5.663   5.047
 7949TIP3   OH223787   4.952   3.820   3.646
 7949TIP3    H123788   4.879   3.801   3.704
 7949TIP3    H223789   4.921   3.794   3.559
 7950TIP3   OH223790   4.325   3.242   2.645
 7950TIP3    H123791   4.273   3.241   2.725
 7950TIP3    H223792   4.280   3.304   2.588
 7951TIP3   OH223793   0.849   0.627   2.337
 7951TIP3    H123794   0.857   0.631   2.432
 7951TIP3    H223795   0.786   0.556   2.321
 7952TIP3   OH223796   2.989   5.956   2.527
 7952TIP3    H123797   2.964   5.879   2.478
 7952TIP3    H223798   2.920   5.966   2.593
 7953TIP3   OH223799   8.267   2.650   5.199
 7953TIP3    H123800   8.275   2.744   5.211
 7953TIP3    H223801   8.336   2.613   5.253
 7954TIP3   OH223802   8.386   3.013   6.305
 7954TIP3    H123803   8.302   3.054   6.328
 7954TIP3    H223804   8.421   2.983   6.389
 7955TIP3   OH223805   8.167   4.208   4.028
 7955TIP3    H123806   8.262   4.222   4.020
 7955TIP3    H223807   8.132   4.294   4.048
 7956TIP3   OH223808   4.148   4.697   5.265
 7956TIP3    H123809   4.103   4.730   5.186
 7956TIP3    H223810   4.080   4.694   5.332
 7957TIP3   OH223811   6.943   0.068   6.293
 7957TIP3    H123812   6.900  -0.017   6.297
 7957TIP3    H223813   6.939   0.102   6.383
 7958TIP3   OH223814   1.853   0.193   1.336
 7958TIP3    H123815   1.802   0.227   1.263
 7958TIP3    H223816   1.943   0.219   1.316
 7959TIP3   OH223817   4.377   3.040   2.473
 7959TIP3    H123818   4.392   3.123   2.519
 7959TIP3    H223819   4.290   3.050   2.434
 7960TIP3   OH223820   0.965   6.708   2.147
 7960TIP3    H123821   0.880   6.726   2.187
 7960TIP3    H223822   1.028   6.725   2.217
 7961TIP3   OH223823   7.497   4.699   1.090
 7961TIP3    H123824   7.438   4.748   1.034
 7961TIP3    H223825   7.501   4.750   1.171
 7962TIP3   OH223826   5.102   0.581   3.033
 7962TIP3    H123827   5.082   0.673   3.015
 7962TIP3    H223828   5.170   0.558   2.969
 7963TIP3   OH223829   7.037   6.846   2.957
 7963TIP3    H123830   7.044   6.928   3.006
 7963TIP3    H223831   7.126   6.828   2.928
 7964TIP3   OH223832   1.707   2.014   3.887
 7964TIP3    H123833   1.742   2.097   3.917
 7964TIP3    H223834   1.647   1.987   3.956
 7965TIP3   OH223835   5.262   1.699   6.476
 7965TIP3    H123836   5.344   1.718   6.430
 7965TIP3    H223837   5.289   1.644   6.550
 7966TIP3   OH223838   4.259   1.790   3.469
 7966TIP3    H123839   4.310   1.721   3.511
 7966TIP3    H223840   4.169   1.755   3.466
 7967TIP3   OH223841   6.222   2.297   4.528
 7967TIP3    H123842   6.175   2.340   4.600
 7967TIP3    H223843   6.248   2.369   4.471
 7968TIP3   OH223844   1.508   0.562   3.165
 7968TIP3    H123845   1.523   0.615   3.243
 7968TIP3    H223846   1.559   0.604   3.097
 7969TIP3   OH223847   0.361   7.650   6.170
 7969TIP3    H123848   0.391   7.585   6.234
 7969TIP3    H223849   0.324   7.721   6.223
 7970TIP3   OH223850   3.491   0.926   6.359
 7970TIP3    H123851   3.506   0.865   6.431
 7970TIP3    H223852   3.578   0.954   6.332
 7971TIP3   OH223853   3.414   6.562   0.098
 7971TIP3    H123854   3.402   6.549   0.192
 7971TIP3    H223855   3.500   6.526   0.079
 7972TIP3   OH223856   0.324   4.001   5.746
 7972TIP3    H123857   0.236   3.965   5.737
 7972TIP3    H223858   0.370   3.939   5.801
 7973TIP3   OH223859   3.286   4.601   0.429
 7973TIP3    H123860   3.312   4.518   0.469
 7973TIP3    H223861   3.320   4.595   0.340
 7974TIP3   OH223862   3.475   2.075   0.767
 7974TIP3    H123863   3.445   2.059   0.857
 7974TIP3    H223864   3.570   2.078   0.774
 7975TIP3   OH223865   1.801   1.229   6.004
 7975TIP3    H123866   1.712   1.211   5.974
 7975TIP3    H223867   1.793   1.245   6.098
 7976TIP3   OH223868   3.901   7.286   0.766
 7976TIP3    H123869   3.867   7.256   0.851
 7976TIP3    H223870   3.953   7.212   0.734
 7977TIP3   OH223871   6.389   7.693   3.877
 7977TIP3    H123872   6.480   7.714   3.854
 7977TIP3    H223873   6.395   7.607   3.920
 7978TIP3   OH223874   7.783   4.666   5.219
 7978TIP3    H123875   7.737   4.741   5.257
 7978TIP3    H223876   7.724   4.592   5.229
 7979TIP3   OH223877   6.876   3.265   1.187
 7979TIP3    H123878   6.808   3.205   1.217
 7979TIP3    H223879   6.849   3.288   1.098
 7980TIP3   OH223880   2.917   2.908   3.533
 7980TIP3    H123881   3.004   2.915   3.571
 7980TIP3    H223882   2.865   2.863   3.599
 7981TIP3   OH223883   6.015   1.583   1.099
 7981TIP3    H123884   5.921   1.573   1.108
 7981TIP3    H223885   6.052   1.500   1.129
 7982TIP3   OH223886   3.899   2.087   2.921
 7982TIP3    H123887   3.886   2.024   2.992
 7982TIP3    H223888   3.879   2.037   2.841
 7983TIP3   OH223889   0.484   1.501   6.700
 7983TIP3    H123890   0.559   1.484   6.758
 7983TIP3    H223891   0.524   1.521   6.615
 7984TIP3   OH223892   1.495   5.126   3.748
 7984TIP3    H123893   1.418   5.183   3.746
 7984TIP3    H223894   1.476   5.056   3.686
 7985TIP3   OH223895   2.619   3.714   3.513
 7985TIP3    H123896   2.654   3.625   3.514
 7985TIP3    H223897   2.664   3.759   3.584
 7986TIP3   OH223898   0.968   4.305   1.003
 7986TIP3    H123899   0.976   4.294   0.908
 7986TIP3    H223900   0.896   4.367   1.014
 7987TIP3   OH223901   1.037   0.020   2.239
 7987TIP3    H123902   1.042   0.108   2.275
 7987TIP3    H223903   0.945  -0.006   2.251
 7988TIP3   OH223904   4.702   3.743   4.838
 7988TIP3    H123905   4.784   3.749   4.887
 7988TIP3    H223906   4.658   3.666   4.875
 7989TIP3   OH223907   0.528   1.575   6.431
 7989TIP3    H123908   0.433   1.570   6.431
 7989TIP3    H223909   0.554   1.530   6.350
 7990TIP3   OH223910   1.723   0.089   3.002
 7990TIP3    H123911   1.752   0.151   2.936
 7990TIP3    H223912   1.790   0.093   3.071
 7991TIP3   OH223913   5.095   2.846   5.070
 7991TIP3    H123914   5.174   2.819   5.117
 7991TIP3    H223915   5.091   2.788   4.994
 7992TIP3   OH223916   4.249   1.663   1.651
 7992TIP3    H123917   4.168   1.616   1.631
 7992TIP3    H223918   4.232   1.706   1.735
 7993TIP3   OH223919   7.675   3.871   2.344
 7993TIP3    H123920   7.596   3.920   2.323
 7993TIP3    H223921   7.734   3.886   2.271
 7994TIP3   OH223922   1.912   5.211   6.695
 7994TIP3    H123923   1.944   5.134   6.648
 7994TIP3    H223924   1.827   5.185   6.729
 7995TIP3   OH223925   6.765   5.353   2.720
 7995TIP3    H123926   6.740   5.277   2.772
 7995TIP3    H223927   6.696   5.417   2.734
 7996TIP3   OH223928   6.476   4.129   4.723
 7996TIP3    H123929   6.479   4.173   4.639
 7996TIP3    H223930   6.424   4.186   4.779
 7997TIP3   OH223931   0.684   6.932   4.484
 7997TIP3    H123932   0.655   6.998   4.547
 7997TIP3    H223933   0.711   6.982   4.407
 7998TIP3   OH223934   0.561   1.952   3.985
 7998TIP3    H123935   0.600   1.908   4.061
 7998TIP3    H223936   0.620   2.025   3.967
 7999TIP3   OH223937   3.004   3.222   4.176
 7999TIP3    H123938   2.992   3.314   4.199
 7999TIP3    H223939   3.092   3.219   4.138
 8000TIP3   OH223940   6.038   1.883   0.682
 8000TIP3    H123941   6.015   1.791   0.699
 8000TIP3    H223942   5.965   1.933   0.716
 8001TIP3   OH223943   6.248   3.314   6.560
 8001TIP3    H123944   6.152   3.308   6.569
 8001TIP3    H223945   6.281   3.289   6.646
 8002TIP3   OH223946   2.086   5.739   0.601
 8002TIP3    H123947   2.081   5.660   0.546
 8002TIP3    H223948   2.180   5.757   0.608
 8003TIP3   OH223949   0.892   0.708   3.131
 8003TIP3    H123950   0.809   0.750   3.153
 8003TIP3    H223951   0.867   0.626   3.087
 8004TIP3   OH223952   5.851   2.859   4.721
 8004TIP3    H123953   5.939   2.852   4.758
 8004TIP3    H223954   5.865   2.899   4.635
 8005TIP3   OH223955   3.472   7.479   5.908
 8005TIP3    H123956   3.455   7.415   5.977
 8005TIP3    H223957   3.422   7.448   5.833
 8006TIP3   OH223958   7.520   1.563   4.816
 8006TIP3    H123959   7.527   1.658   4.828
 8006TIP3    H223960   7.603   1.538   4.774
 8007TIP3   OH223961   3.361   4.801   1.831
 8007TIP3    H123962   3.371   4.814   1.925
 8007TIP3    H223963   3.410   4.721   1.813
 8008TIP3   OH223964   2.494   7.198   5.096
 8008TIP3    H123965   2.485   7.281   5.049
 8008TIP3    H223966   2.436   7.138   5.049
 8009TIP3   OH223967   3.130   3.110   2.108
 8009TIP3    H123968   3.185   3.183   2.081
 8009TIP3    H223969   3.040   3.142   2.095
 8010TIP3   OH223970   8.341   6.034   1.588
 8010TIP3    H123971   8.247   6.048   1.578
 8010TIP3    H223972   8.381   6.098   1.528
 8011TIP3   OH223973   4.296   0.513   5.560
 8011TIP3    H123974   4.210   0.555   5.561
 8011TIP3    H223975   4.317   0.503   5.467
 8012TIP3   OH223976   3.411   3.027   2.536
 8012TIP3    H123977   3.496   2.992   2.563
 8012TIP3    H223978   3.432   3.110   2.493
 8013TIP3   OH223979   4.508   2.303   6.468
 8013TIP3    H123980   4.586   2.262   6.431
 8013TIP3    H223981   4.440   2.235   6.463
 8014TIP3   OH223982   1.257   4.485   5.431
 8014TIP3    H123983   1.318   4.486   5.506
 8014TIP3    H223984   1.287   4.412   5.377
 8015TIP3   OH223985   1.481   0.538   1.038
 8015TIP3    H123986   1.501   0.475   0.969
 8015TIP3    H223987   1.388   0.524   1.056
 8016TIP3   OH223988   3.226   7.493   0.962
 8016TIP3    H123989   3.209   7.486   0.868
 8016TIP3    H223990   3.146   7.460   1.003
 8017TIP3   OH223991   4.812   3.853   1.324
 8017TIP3    H123992   4.763   3.879   1.403
 8017TIP3    H223993   4.747   3.857   1.254
 8018TIP3   OH223994   6.673   5.003   2.240
 8018TIP3    H123995   6.647   5.031   2.152
 8018TIP3    H223996   6.599   5.027   2.296
 8019TIP3   OH223997   1.160   3.638   0.401
 8019TIP3    H123998   1.148   3.645   0.495
 8019TIP3    H223999   1.084   3.587   0.371
 8020TIP3   OH224000   5.642   0.138   2.019
 8020TIP3    H124001   5.648   0.232   2.036
 8020TIP3    H224002   5.595   0.132   1.935
 8021TIP3   OH224003   1.460   1.293   4.878
 8021TIP3    H124004   1.478   1.288   4.972
 8021TIP3    H224005   1.383   1.350   4.871
 8022TIP3   OH224006   2.605   3.557   0.648
 8022TIP3    H124007   2.641   3.635   0.690
 8022TIP3    H224008   2.618   3.572   0.555
 8023TIP3   OH224009   0.274   0.671   3.306
 8023TIP3    H124010   0.275   0.678   3.401
 8023TIP3    H224011   0.367   0.663   3.282
 8024TIP3   OH224012   6.420   5.948   4.483
 8024TIP3    H124013   6.491   5.912   4.429
 8024TIP3    H224014   6.418   6.041   4.461
 8025TIP3   OH224015   3.849   7.007   0.519
 8025TIP3    H124016   3.763   6.970   0.542
 8025TIP3    H224017   3.829   7.086   0.469
 8026TIP3   OH224018   1.357   6.377   3.689
 8026TIP3    H124019   1.372   6.471   3.687
 8026TIP3    H224020   1.427   6.343   3.745
 8027TIP3   OH224021   6.738   7.451   0.359
 8027TIP3    H124022   6.719   7.498   0.277
 8027TIP3    H224023   6.833   7.455   0.368
 8028TIP3   OH224024   5.340   2.916   4.736
 8028TIP3    H124025   5.360   2.950   4.649
 8028TIP3    H224026   5.417   2.938   4.789
 8029TIP3   OH224027   7.144   6.537   1.350
 8029TIP3    H124028   7.119   6.450   1.381
 8029TIP3    H224029   7.098   6.547   1.267
 8030TIP3   OH224030   4.382   6.979   2.048
 8030TIP3    H124031   4.445   7.033   2.097
 8030TIP3    H224032   4.425   6.895   2.038
 8031TIP3   OH224033   0.941   1.134   1.573
 8031TIP3    H124034   0.856   1.091   1.567
 8031TIP3    H224035   1.001   1.076   1.526
 8032TIP3   OH224036   3.285   6.737   3.043
 8032TIP3    H124037   3.330   6.812   3.082
 8032TIP3    H224038   3.288   6.670   3.111
 8033TIP3   OH224039   5.846   0.182   5.490
 8033TIP3    H124040   5.784   0.254   5.488
 8033TIP3    H224041   5.793   0.104   5.474
 8034TIP3   OH224042   1.857   7.198   0.999
 8034TIP3    H124043   1.938   7.153   0.976
 8034TIP3    H224044   1.790   7.157   0.944
 8035TIP3   OH224045   4.895   7.078   0.117
 8035TIP3    H124046   4.870   7.005   0.173
 8035TIP3    H224047   4.974   7.048   0.072
 8036TIP3   OH224048   7.326   5.768   5.736
 8036TIP3    H124049   7.416   5.753   5.766
 8036TIP3    H224050   7.289   5.680   5.728
 8037TIP3   OH224051   7.253   3.477   4.874
 8037TIP3    H124052   7.339   3.467   4.834
 8037TIP3    H224053   7.257   3.562   4.919
 8038TIP3   OH224054   3.266   4.933   3.494
 8038TIP3    H124055   3.275   5.027   3.511
 8038TIP3    H224056   3.176   4.913   3.519
 8039TIP3   OH224057   7.794   4.727   6.216
 8039TIP3    H124058   7.882   4.735   6.179
 8039TIP3    H224059   7.737   4.770   6.152
 8040TIP3   OH224060   5.637   5.517   6.408
 8040TIP3    H124061   5.695   5.547   6.338
 8040TIP3    H224062   5.684   5.539   6.488
 8041TIP3   OH224063   5.754   5.115   5.177
 8041TIP3    H124064   5.757   5.057   5.101
 8041TIP3    H224065   5.818   5.184   5.158
 8042TIP3   OH224066   4.326   4.815   4.208
 8042TIP3    H124067   4.376   4.735   4.190
 8042TIP3    H224068   4.383   4.867   4.264
 8043TIP3   OH224069   1.154   1.051   5.466
 8043TIP3    H124070   1.065   1.061   5.499
 8043TIP3    H224071   1.144   1.046   5.371
 8044TIP3   OH224072   7.702   7.232   4.772
 8044TIP3    H124073   7.775   7.286   4.742
 8044TIP3    H224074   7.629   7.257   4.715
 8045TIP3   OH224075   7.499   2.792   1.549
 8045TIP3    H124076   7.554   2.775   1.625
 8045TIP3    H224077   7.469   2.883   1.561
 8046TIP3   OH224078   0.045   4.619   3.544
 8046TIP3    H124079   0.098   4.541   3.527
 8046TIP3    H224080  -0.016   4.624   3.470
 8047TIP3   OH224081   7.807   7.099   0.597
 8047TIP3    H124082   7.784   7.117   0.688
 8047TIP3    H224083   7.764   7.168   0.547
 8048TIP3   OH224084   0.705   7.724   6.379
 8048TIP3    H124085   0.797   7.746   6.370
 8048TIP3    H224086   0.662   7.808   6.396
 8049TIP3   OH224087   1.610   1.438   2.943
 8049TIP3    H124088   1.598   1.502   3.013
 8049TIP3    H224089   1.677   1.378   2.975
 8050TIP3   OH224090   5.407   7.036   1.742
 8050TIP3    H124091   5.358   7.013   1.663
 8050TIP3    H224092   5.356   7.105   1.784
 8051TIP3   OH224093   1.081   6.691   3.665
 8051TIP3    H124094   1.157   6.678   3.608
 8051TIP3    H224095   1.006   6.672   3.610
 8052TIP3   OH224096   3.501   2.988   5.840
 8052TIP3    H124097   3.563   3.055   5.813
 8052TIP3    H224098   3.416   3.032   5.844
 8053TIP3   OH224099   0.091   0.598   6.823
 8053TIP3    H124100   0.025   0.647   6.872
 8053TIP3    H224101   0.174   0.631   6.856
 8054TIP3   OH224102   2.897   3.223   0.898
 8054TIP3    H124103   2.985   3.200   0.868
 8054TIP3    H224104   2.878   3.307   0.856
 8055TIP3   OH224105   6.576   4.435   0.724
 8055TIP3    H124106   6.571   4.434   0.628
 8055TIP3    H224107   6.668   4.417   0.743
 8056TIP3   OH224108   3.209   4.919   1.637
 8056TIP3    H124109   3.134   4.959   1.681
 8056TIP3    H224110   3.262   4.882   1.708
 8057TIP3   OH224111   1.793   6.486   2.004
 8057TIP3    H124112   1.871   6.532   2.035
 8057TIP3    H224113   1.729   6.555   1.986
 8058TIP3   OH224114   5.297   5.979   2.523
 8058TIP3    H124115   5.324   5.908   2.465
 8058TIP3    H224116   5.327   5.952   2.610
 8059TIP3   OH224117   7.611   7.782   5.204
 8059TIP3    H124118   7.694   7.829   5.193
 8059TIP3    H224119   7.634   7.690   5.193
 8060TIP3   OH224120   0.368   6.779   3.622
 8060TIP3    H124121   0.460   6.796   3.599
 8060TIP3    H224122   0.342   6.706   3.566
 8061TIP3   OH224123   3.234   7.408   4.292
 8061TIP3    H124124   3.252   7.318   4.265
 8061TIP3    H224125   3.157   7.401   4.349
 8062TIP3   OH224126   6.137   7.107   6.193
 8062TIP3    H124127   6.098   7.161   6.124
 8062TIP3    H224128   6.117   7.017   6.168
 8063TIP3   OH224129   4.922   5.140   0.790
 8063TIP3    H124130   4.876   5.113   0.711
 8063TIP3    H224131   4.952   5.229   0.771
 8064TIP3   OH224132   2.964   6.400   5.056
 8064TIP3    H124133   2.992   6.472   5.112
 8064TIP3    H224134   2.872   6.419   5.037
 8065TIP3   OH224135   7.754   0.762   1.339
 8065TIP3    H124136   7.678   0.770   1.397
 8065TIP3    H224137   7.776   0.669   1.340
 8066TIP3   OH224138   6.659   3.394   3.340
 8066TIP3    H124139   6.621   3.382   3.253
 8066TIP3    H224140   6.669   3.489   3.349
 8067TIP3   OH224141   6.295   5.711   2.273
 8067TIP3    H124142   6.267   5.784   2.327
 8067TIP3    H224143   6.279   5.634   2.327
 8068TIP3   OH224144   3.417   1.444   2.374
 8068TIP3    H124145   3.340   1.475   2.421
 8068TIP3    H224146   3.394   1.450   2.282
 8069TIP3   OH224147   5.467   1.992   1.427
 8069TIP3    H124148   5.419   2.044   1.492
 8069TIP3    H224149   5.440   1.902   1.444
 8070TIP3   OH224150   7.072   4.883   0.821
 8070TIP3    H124151   7.000   4.837   0.778
 8070TIP3    H224152   7.136   4.898   0.751
 8071TIP3   OH224153   1.688   4.515   4.019
 8071TIP3    H124154   1.756   4.493   4.082
 8071TIP3    H224155   1.622   4.446   4.030
 8072TIP3   OH224156   0.571   1.340   1.451
 8072TIP3    H124157   0.654   1.359   1.494
 8072TIP3    H224158   0.506   1.342   1.521
 8073TIP3   OH224159   8.383   0.751   4.909
 8073TIP3    H124160   8.424   0.821   4.858
 8073TIP3    H224161   8.450   0.682   4.914
 8074TIP3   OH224162   6.262   2.524   6.691
 8074TIP3    H124163   6.236   2.577   6.615
 8074TIP3    H224164   6.258   2.585   6.764
 8075TIP3   OH224165   7.108   2.786   4.200
 8075TIP3    H124166   7.169   2.850   4.163
 8075TIP3    H224167   7.042   2.772   4.132
 8076TIP3   OH224168   5.135   4.807   6.684
 8076TIP3    H124169   5.187   4.886   6.699
 8076TIP3    H224170   5.146   4.755   6.764
 8077TIP3   OH224171   1.751   3.830   1.994
 8077TIP3    H124172   1.665   3.866   2.014
 8077TIP3    H224173   1.750   3.817   1.899
 8078TIP3   OH224174   5.579   7.534   6.754
 8078TIP3    H124175   5.592   7.511   6.846
 8078TIP3    H224176   5.667   7.552   6.721
 8079TIP3   OH224177   8.242   2.616   2.727
 8079TIP3    H124178   8.278   2.660   2.804
 8079TIP3    H224179   8.271   2.525   2.736
 8080TIP3   OH224180   1.143   1.197   6.376
 8080TIP3    H124181   1.179   1.152   6.452
 8080TIP3    H224182   1.172   1.288   6.386
 8081TIP3   OH224183   1.079   1.773   6.435
 8081TIP3    H124184   1.137   1.775   6.511
 8081TIP3    H224185   1.109   1.847   6.381
 8082TIP3   OH224186   0.189   6.136   2.313
 8082TIP3    H124187   0.174   6.230   2.304
 8082TIP3    H224188   0.105   6.096   2.291
 8083TIP3   OH224189   4.617   3.920   5.527
 8083TIP3    H124190   4.689   3.865   5.495
 8083TIP3    H224191   4.597   3.978   5.454
 8084TIP3   OH224192   7.074   4.405   2.248
 8084TIP3    H124193   7.143   4.341   2.263
 8084TIP3    H224194   6.994   4.353   2.240
 8085TIP3   OH224195   4.450   1.945   5.209
 8085TIP3    H124196   4.526   1.957   5.151
 8085TIP3    H224197   4.482   1.892   5.281
 8086TIP3   OH224198   5.874   3.842   4.257
 8086TIP3    H124199   5.837   3.929   4.272
 8086TIP3    H224200   5.848   3.820   4.167
 8087TIP3   OH224201   6.597   5.986   3.128
 8087TIP3    H124202   6.567   6.048   3.194
 8087TIP3    H224203   6.671   5.941   3.168
 8088TIP3   OH224204   2.757   6.935   5.530
 8088TIP3    H124205   2.738   7.007   5.590
 8088TIP3    H224206   2.803   6.978   5.457
 8089TIP3   OH224207   0.276   0.816   5.036
 8089TIP3    H124208   0.268   0.787   4.945
 8089TIP3    H224209   0.344   0.883   5.034
 8090TIP3   OH224210   6.394   2.774   4.171
 8090TIP3    H124211   6.414   2.814   4.086
 8090TIP3    H224212   6.379   2.682   4.150
 8091TIP3   OH224213   7.544   6.232   3.202
 8091TIP3    H124214   7.571   6.288   3.129
 8091TIP3    H224215   7.489   6.288   3.256
 8092TIP3   OH224216   4.690   1.115   1.011
 8092TIP3    H124217   4.625   1.048   1.034
 8092TIP3    H224218   4.738   1.078   0.937
 8093TIP3   OH224219   3.793   7.464   3.402
 8093TIP3    H124220   3.735   7.493   3.473
 8093TIP3    H224221   3.881   7.484   3.433
 8094TIP3   OH224222   4.165   6.396   6.081
 8094TIP3    H124223   4.135   6.438   6.162
 8094TIP3    H224224   4.107   6.431   6.013
 8095TIP3   OH224225   2.374   5.012   5.665
 8095TIP3    H124226   2.344   4.968   5.744
 8095TIP3    H224227   2.374   5.105   5.687
 8096TIP3   OH224228   7.270   4.584   1.276
 8096TIP3    H124229   7.219   4.505   1.296
 8096TIP3    H224230   7.266   4.591   1.181
 8097TIP3   OH224231   3.992   0.432   0.585
 8097TIP3    H124232   4.001   0.522   0.618
 8097TIP3    H224233   4.022   0.436   0.495
 8098TIP3   OH224234   5.661   5.526   2.872
 8098TIP3    H124235   5.607   5.526   2.793
 8098TIP3    H224236   5.630   5.450   2.922
 8099TIP3   OH224237   2.688   1.961   5.364
 8099TIP3    H124238   2.731   2.013   5.297
 8099TIP3    H224239   2.668   2.022   5.435
 8100TIP3   OH224240   5.740   3.478   6.508
 8100TIP3    H124241   5.728   3.572   6.494
 8100TIP3    H224242   5.830   3.469   6.538
 8101TIP3   OH224243   7.950   4.478   5.679
 8101TIP3    H124244   8.036   4.520   5.686
 8101TIP3    H224245   7.888   4.551   5.683
 8102TIP3   OH224246   4.793   7.188   4.085
 8102TIP3    H124247   4.867   7.218   4.138
 8102TIP3    H224248   4.789   7.251   4.013
 8103TIP3   OH224249   1.394   5.307   2.458
 8103TIP3    H124250   1.336   5.347   2.394
 8103TIP3    H224251   1.482   5.322   2.423
 8104TIP3   OH224252   3.849   6.529   6.787
 8104TIP3    H124253   3.916   6.469   6.821
 8104TIP3    H224254   3.817   6.575   6.864
 8105TIP3   OH224255   8.205   0.859   6.160
 8105TIP3    H124256   8.287   0.832   6.200
 8105TIP3    H224257   8.182   0.940   6.205
 8106TIP3   OH224258   7.519   1.411   4.457
 8106TIP3    H124259   7.492   1.341   4.396
 8106TIP3    H224260   7.497   1.377   4.544
 8107TIP3   OH224261   7.482   1.306   4.701
 8107TIP3    H124262   7.516   1.228   4.745
 8107TIP3    H224263   7.492   1.376   4.765
 8108TIP3   OH224264   0.861   3.421   0.043
 8108TIP3    H124265   0.816   3.453  -0.035
 8108TIP3    H224266   0.953   3.442   0.027
 8109TIP3   OH224267   3.224   5.988   2.183
 8109TIP3    H124268   3.153   5.930   2.156
 8109TIP3    H224269   3.301   5.956   2.136
 8110TIP3   OH224270   5.142   3.218   4.362
 8110TIP3    H124271   5.166   3.297   4.314
 8110TIP3    H224272   5.051   3.201   4.337
 8111TIP3   OH224273   5.296   3.424   5.535
 8111TIP3    H124274   5.304   3.510   5.576
 8111TIP3    H224275   5.371   3.418   5.477
 8112TIP3   OH224276   7.126   7.825   3.064
 8112TIP3    H124277   7.052   7.855   3.012
 8112TIP3    H224278   7.198   7.884   3.039
 8113TIP3   OH224279   0.446   3.049   4.464
 8113TIP3    H124280   0.432   2.955   4.460
 8113TIP3    H224281   0.395   3.084   4.391
 8114TIP3   OH224282   6.669   4.203   6.026
 8114TIP3    H124283   6.709   4.124   6.063
 8114TIP3    H224284   6.623   4.172   5.948
 8115TIP3   OH224285   7.364   5.412   3.609
 8115TIP3    H124286   7.280   5.382   3.575
 8115TIP3    H224287   7.342   5.476   3.677
 8116TIP3   OH224288   4.569   0.138   5.529
 8116TIP3    H124289   4.586   0.202   5.599
 8116TIP3    H224290   4.569   0.191   5.449
 8117TIP3   OH224291   1.545   7.257   2.655
 8117TIP3    H124292   1.635   7.250   2.687
 8117TIP3    H224293   1.511   7.336   2.696
 8118TIP3   OH224294   6.014   3.284   2.803
 8118TIP3    H124295   5.998   3.268   2.710
 8118TIP3    H224296   6.080   3.219   2.827
 8119TIP3   OH224297   6.949   2.910   2.283
 8119TIP3    H124298   7.001   2.915   2.203
 8119TIP3    H224299   6.971   2.824   2.320
 8120TIP3   OH224300   8.293   6.109   5.949
 8120TIP3    H124301   8.351   6.049   5.902
 8120TIP3    H224302   8.297   6.190   5.898
 8121TIP3   OH224303   2.090   7.541   1.776
 8121TIP3    H124304   2.085   7.578   1.688
 8121TIP3    H224305   2.010   7.570   1.819
 8122TIP3   OH224306   4.339   2.039   5.661
 8122TIP3    H124307   4.379   2.071   5.741
 8122TIP3    H224308   4.412   2.034   5.598
 8123TIP3   OH224309   5.694   2.032   3.459
 8123TIP3    H124310   5.611   2.007   3.498
 8123TIP3    H224311   5.670   2.093   3.388
 8124TIP3   OH224312   2.307   5.577   2.611
 8124TIP3    H124313   2.223   5.532   2.600
 8124TIP3    H224314   2.344   5.580   2.523
 8125TIP3   OH224315   3.827   6.887   6.727
 8125TIP3    H124316   3.849   6.814   6.669
 8125TIP3    H224317   3.911   6.915   6.764
 8126TIP3   OH224318   3.732   0.820   6.078
 8126TIP3    H124319   3.683   0.738   6.073
 8126TIP3    H224320   3.824   0.793   6.073
 8127TIP3   OH224321   3.659   6.252   5.780
 8127TIP3    H124322   3.617   6.241   5.865
 8127TIP3    H224323   3.731   6.312   5.796
 8128TIP3   OH224324   2.808   6.112   0.456
 8128TIP3    H124325   2.783   6.100   0.364
 8128TIP3    H224326   2.885   6.057   0.467
 8129TIP3   OH224327   0.629   1.816   2.970
 8129TIP3    H124328   0.708   1.833   3.021
 8129TIP3    H224329   0.602   1.728   2.997
 8130TIP3   OH224330   1.227   4.063   3.892
 8130TIP3    H124331   1.177   3.981   3.890
 8130TIP3    H224332   1.249   4.079   3.800
 8131TIP3   OH224333   2.124   7.761   6.308
 8131TIP3    H124334   2.030   7.752   6.324
 8131TIP3    H224335   2.135   7.850   6.275
 8132TIP3   OH224336   7.882   5.368   4.927
 8132TIP3    H124337   7.883   5.298   4.862
 8132TIP3    H224338   7.974   5.391   4.939
 8133TIP3   OH224339   4.876   6.777   0.834
 8133TIP3    H124340   4.926   6.805   0.910
 8133TIP3    H224341   4.800   6.731   0.870
 8134TIP3   OH224342   6.397   7.773   2.247
 8134TIP3    H124343   6.302   7.787   2.256
 8134TIP3    H224344   6.411   7.686   2.286
 8135TIP3   OH224345   3.941   5.393   5.656
 8135TIP3    H124346   3.878   5.454   5.694
 8135TIP3    H224347   3.953   5.326   5.723
 8136TIP3   OH224348   2.653   6.162   1.075
 8136TIP3    H124349   2.655   6.253   1.043
 8136TIP3    H224350   2.740   6.149   1.113
 8137TIP3   OH224351   5.576   1.111   0.534
 8137TIP3    H124352   5.575   1.069   0.620
 8137TIP3    H224353   5.665   1.098   0.501
 8138TIP3   OH224354   3.805   4.231   0.815
 8138TIP3    H124355   3.784   4.138   0.801
 8138TIP3    H224356   3.899   4.236   0.802
 8139TIP3   OH224357   5.086   1.945   6.824
 8139TIP3    H124358   5.146   1.938   6.750
 8139TIP3    H224359   5.000   1.925   6.788
 8140TIP3   OH224360   1.024   3.386   3.063
 8140TIP3    H124361   0.999   3.478   3.059
 8140TIP3    H224362   1.087   3.374   2.992
 8141TIP3   OH224363   3.275   1.002   3.326
 8141TIP3    H124364   3.279   0.929   3.264
 8141TIP3    H224365   3.300   1.079   3.274
 8142TIP3   OH224366   3.495   4.238   5.044
 8142TIP3    H124367   3.479   4.303   5.112
 8142TIP3    H224368   3.495   4.154   5.091
 8143TIP3   OH224369   2.963   3.227   3.503
 8143TIP3    H124370   3.046   3.191   3.472
 8143TIP3    H224371   2.923   3.156   3.555
 8144TIP3   OH224372   8.013   1.267   1.005
 8144TIP3    H124373   8.101   1.305   1.014
 8144TIP3    H224374   8.021   1.178   1.039
 8145TIP3   OH224375   7.478   3.246   1.102
 8145TIP3    H124376   7.566   3.230   1.135
 8145TIP3    H224377   7.484   3.232   1.008
 8146TIP3   OH224378   5.994   3.994   2.357
 8146TIP3    H124379   6.048   4.049   2.413
 8146TIP3    H224380   6.041   3.989   2.274
 8147TIP3   OH224381   8.129   3.151   0.715
 8147TIP3    H124382   8.058   3.098   0.751
 8147TIP3    H224383   8.086   3.208   0.652
 8148TIP3   OH224384   4.027   7.508   4.290
 8148TIP3    H124385   3.946   7.549   4.262
 8148TIP3    H224386   4.007   7.414   4.291
 8149TIP3   OH224387   7.530   0.736   3.010
 8149TIP3    H124388   7.472   0.778   3.073
 8149TIP3    H224389   7.596   0.803   2.990
 8150TIP3   OH224390   6.621   1.173   2.077
 8150TIP3    H124391   6.659   1.104   2.132
 8150TIP3    H224392   6.669   1.167   1.994
 8151TIP3   OH224393   8.035   4.507   1.754
 8151TIP3    H124394   8.046   4.467   1.840
 8151TIP3    H224395   7.995   4.438   1.700
 8152TIP3   OH224396   3.186   4.544   5.597
 8152TIP3    H124397   3.207   4.584   5.512
 8152TIP3    H224398   3.186   4.450   5.580
 8153TIP3   OH224399   8.332   4.023   3.823
 8153TIP3    H124400   8.361   4.110   3.850
 8153TIP3    H224401   8.363   4.014   3.732
 8154TIP3   OH224402   3.943   7.216   6.772
 8154TIP3    H124403   3.954   7.287   6.834
 8154TIP3    H224404   3.985   7.140   6.815
 8155TIP3   OH224405   0.212   3.512   4.578
 8155TIP3    H124406   0.278   3.543   4.639
 8155TIP3    H224407   0.252   3.521   4.492
 8156TIP3   OH224408   7.344   6.019   1.851
 8156TIP3    H124409   7.287   6.059   1.786
 8156TIP3    H224410   7.353   5.928   1.823
 8157TIP3   OH224411   2.279   6.988   5.161
 8157TIP3    H124412   2.261   7.024   5.074
 8157TIP3    H224413   2.203   7.013   5.214
 8158TIP3   OH224414   5.255   3.143   2.534
 8158TIP3    H124415   5.322   3.132   2.602
 8158TIP3    H224416   5.203   3.064   2.539
 8159TIP3   OH224417   4.615   3.519   0.384
 8159TIP3    H124418   4.525   3.542   0.407
 8159TIP3    H224419   4.657   3.501   0.467
 8160TIP3   OH224420   4.074   0.544   3.857
 8160TIP3    H124421   4.008   0.557   3.789
 8160TIP3    H224422   4.060   0.617   3.917
 8161TIP3   OH224423   4.483   2.877   3.416
 8161TIP3    H124424   4.524   2.848   3.334
 8161TIP3    H224425   4.555   2.916   3.466
 8162TIP3   OH224426   3.582   2.364   2.423
 8162TIP3    H124427   3.516   2.343   2.489
 8162TIP3    H224428   3.542   2.433   2.370
 8163TIP3   OH224429   0.302   2.383   6.072
 8163TIP3    H124430   0.235   2.447   6.048
 8163TIP3    H224431   0.320   2.335   5.991
 8164TIP3   OH224432   4.602   5.648   5.463
 8164TIP3    H124433   4.577   5.682   5.377
 8164TIP3    H224434   4.657   5.717   5.500
 8165TIP3   OH224435   2.822   7.157   2.226
 8165TIP3    H124436   2.805   7.248   2.250
 8165TIP3    H224437   2.915   7.145   2.241
 8166TIP3   OH224438   1.965   4.756   2.153
 8166TIP3    H124439   1.917   4.809   2.089
 8166TIP3    H224440   1.932   4.786   2.238
 8167TIP3   OH224441   5.817   7.641   1.715
 8167TIP3    H124442   5.843   7.631   1.623
 8167TIP3    H224443   5.741   7.700   1.712
 8168TIP3   OH224444   0.447   3.855   5.939
 8168TIP3    H124445   0.383   3.836   6.008
 8168TIP3    H224446   0.529   3.820   5.972
 8169TIP3   OH224447   6.865   5.279   0.594
 8169TIP3    H124448   6.870   5.183   0.589
 8169TIP3    H224449   6.790   5.302   0.539
 8170TIP3   OH224450   7.770   0.786   4.003
 8170TIP3    H124451   7.843   0.832   4.045
 8170TIP3    H224452   7.763   0.704   4.051
 8171TIP3   OH224453   5.679   5.222   6.695
 8171TIP3    H124454   5.632   5.164   6.755
 8171TIP3    H224455   5.617   5.293   6.677
 8172TIP3   OH224456   3.364   1.893   0.128
 8172TIP3    H124457   3.317   1.820   0.087
 8172TIP3    H224458   3.303   1.928   0.193
 8173TIP3   OH224459   3.792   7.758   0.911
 8173TIP3    H124460   3.857   7.702   0.868
 8173TIP3    H224461   3.844   7.830   0.948
 8174TIP3   OH224462   1.693   1.783   5.422
 8174TIP3    H124463   1.752   1.760   5.493
 8174TIP3    H224464   1.648   1.862   5.454
 8175TIP3   OH224465   0.105   3.563   2.436
 8175TIP3    H124466   0.034   3.583   2.497
 8175TIP3    H224467   0.060   3.538   2.355
 8176TIP3   OH224468   3.538   4.239   2.489
 8176TIP3    H124469   3.615   4.193   2.521
 8176TIP3    H224470   3.541   4.228   2.394
 8177TIP3   OH224471   3.047   7.229   5.530
 8177TIP3    H124472   3.141   7.221   5.512
 8177TIP3    H224473   3.006   7.175   5.463
 8178TIP3   OH224474   7.285   3.573   0.538
 8178TIP3    H124475   7.226   3.506   0.502
 8178TIP3    H224476   7.228   3.649   0.551
 8179TIP3   OH224477   3.142   4.122   6.485
 8179TIP3    H124478   3.167   4.123   6.393
 8179TIP3    H224479   3.049   4.147   6.485
 8180TIP3   OH224480   4.299   3.429   4.822
 8180TIP3    H124481   4.297   3.341   4.859
 8180TIP3    H224482   4.388   3.440   4.790
 8181TIP3   OH224483   6.085   0.815   4.220
 8181TIP3    H124484   6.078   0.729   4.260
 8181TIP3    H224485   6.027   0.811   4.144
 8182TIP3   OH224486   0.333   3.740   1.370
 8182TIP3    H124487   0.317   3.652   1.402
 8182TIP3    H224488   0.250   3.767   1.330
 8183TIP3   OH224489   6.712   4.557   4.411
 8183TIP3    H124490   6.712   4.475   4.363
 8183TIP3    H224491   6.758   4.538   4.493
 8184TIP3   OH224492   2.920   4.123   5.488
 8184TIP3    H124493   2.828   4.117   5.516
 8184TIP3    H224494   2.915   4.148   5.395
 8185TIP3   OH224495   4.540   5.608   3.709
 8185TIP3    H124496   4.510   5.635   3.623
 8185TIP3    H224497   4.464   5.618   3.766
 8186TIP3   OH224498   4.025   1.554   5.070
 8186TIP3    H124499   3.979   1.478   5.033
 8186TIP3    H224500   3.987   1.629   5.025
 8187TIP3   OH224501   2.800   1.391   1.669
 8187TIP3    H124502   2.825   1.314   1.720
 8187TIP3    H224503   2.803   1.362   1.578
 8188TIP3   OH224504   3.480   3.799   3.231
 8188TIP3    H124505   3.394   3.775   3.198
 8188TIP3    H224506   3.542   3.768   3.165
 8189TIP3   OH224507   3.220   2.623   5.200
 8189TIP3    H124508   3.142   2.619   5.145
 8189TIP3    H224509   3.205   2.698   5.257
 8190TIP3   OH224510   4.167   5.702   6.131
 8190TIP3    H124511   4.159   5.709   6.227
 8190TIP3    H224512   4.082   5.666   6.104
 8191TIP3   OH224513   4.515   1.709   0.290
 8191TIP3    H124514   4.568   1.647   0.341
 8191TIP3    H224515   4.451   1.654   0.245
 8192TIP3   OH224516   1.189   5.415   0.846
 8192TIP3    H124517   1.254   5.478   0.814
 8192TIP3    H224518   1.197   5.340   0.786
 8193TIP3   OH224519   8.317   0.616   3.156
 8193TIP3    H124520   8.262   0.555   3.205
 8193TIP3    H224521   8.257   0.658   3.094
 8194TIP3   OH224522   7.414   2.585   2.372
 8194TIP3    H124523   7.368   2.626   2.299
 8194TIP3    H224524   7.501   2.626   2.372
 8195TIP3   OH224525   0.635   4.438   5.512
 8195TIP3    H124526   0.565   4.468   5.571
 8195TIP3    H224527   0.670   4.519   5.474
 8196TIP3   OH224528   7.771   0.468   4.616
 8196TIP3    H124529   7.791   0.512   4.533
 8196TIP3    H224530   7.680   0.440   4.606
 8197TIP3   OH224531   3.385   3.755   1.351
 8197TIP3    H124532   3.336   3.759   1.269
 8197TIP3    H224533   3.384   3.662   1.375
 8198TIP3   OH224534   5.254   7.665   0.473
 8198TIP3    H124535   5.256   7.625   0.560
 8198TIP3    H224536   5.187   7.615   0.425
 8199TIP3   OH224537   4.574   7.304   3.788
 8199TIP3    H124538   4.571   7.217   3.747
 8199TIP3    H224539   4.482   7.326   3.803
 8200TIP3   OH224540   5.712   3.721   6.375
 8200TIP3    H124541   5.799   3.762   6.373
 8200TIP3    H224542   5.711   3.664   6.299
 8201TIP3   OH224543   1.823   5.022   0.025
 8201TIP3    H124544   1.786   5.066  -0.052
 8201TIP3    H224545   1.890   5.082   0.057
 8202TIP3   OH224546   0.336   7.211   4.743
 8202TIP3    H124547   0.266   7.272   4.767
 8202TIP3    H224548   0.290   7.133   4.714
 8203TIP3   OH224549   1.432   5.571   1.829
 8203TIP3    H124550   1.358   5.625   1.804
 8203TIP3    H224551   1.509   5.626   1.810
 8204TIP3   OH224552   0.937   5.359   2.002
 8204TIP3    H124553   0.917   5.283   1.947
 8204TIP3    H224554   0.995   5.325   2.070
 8205TIP3   OH224555   4.098   2.799   2.898
 8205TIP3    H124556   4.155   2.723   2.888
 8205TIP3    H224557   4.024   2.767   2.950
 8206TIP3   OH224558   6.639   3.856   1.944
 8206TIP3    H124559   6.686   3.927   1.899
 8206TIP3    H224560   6.565   3.836   1.887
 8207TIP3   OH224561   8.288   4.934   5.111
 8207TIP3    H124562   8.299   4.976   5.026
 8207TIP3    H224563   8.293   4.840   5.092
 8208TIP3   OH224564   7.073   0.737   3.095
 8208TIP3    H124565   7.101   0.705   3.009
 8208TIP3    H224566   6.983   0.704   3.104
 8209TIP3   OH224567   0.870   7.493   5.246
 8209TIP3    H124568   0.852   7.535   5.162
 8209TIP3    H224569   0.839   7.555   5.311
 8210TIP3   OH224570   4.282   6.683   4.248
 8210TIP3    H124571   4.216   6.735   4.293
 8210TIP3    H224572   4.361   6.736   4.250
 8211TIP3   OH224573   5.854   7.688   6.201
 8211TIP3    H124574   5.794   7.648   6.138
 8211TIP3    H224575   5.837   7.782   6.192
 8212TIP3   OH224576   6.587   2.608   6.394
 8212TIP3    H124577   6.542   2.629   6.311
 8212TIP3    H224578   6.631   2.689   6.418
 8213TIP3   OH224579   1.038   4.978   3.291
 8213TIP3    H124580   1.121   4.999   3.248
 8213TIP3    H224581   0.981   4.949   3.220
 8214TIP3   OH224582   7.017   0.855   5.227
 8214TIP3    H124583   6.962   0.852   5.305
 8214TIP3    H224584   7.049   0.945   5.224
 8215TIP3   OH224585   7.050   0.905   4.419
 8215TIP3    H124586   6.987   0.912   4.490
 8215TIP3    H224587   6.998   0.922   4.340
 8216TIP3   OH224588   0.329   2.554   2.905
 8216TIP3    H124589   0.367   2.586   2.823
 8216TIP3    H224590   0.287   2.472   2.882
 8217TIP3   OH224591   0.830   6.077   4.477
 8217TIP3    H124592   0.800   6.113   4.394
 8217TIP3    H224593   0.760   6.019   4.506
 8218TIP3   OH224594   4.560   6.274   1.553
 8218TIP3    H124595   4.474   6.293   1.514
 8218TIP3    H224596   4.619   6.269   1.478
 8219TIP3   OH224597   4.199   0.795   1.939
 8219TIP3    H124598   4.130   0.839   1.989
 8219TIP3    H224599   4.168   0.796   1.849
 8220TIP3   OH224600   2.781   4.037   5.203
 8220TIP3    H124601   2.697   4.015   5.164
 8220TIP3    H224602   2.781   4.133   5.207
 8221TIP3   OH224603   4.331   7.627   0.921
 8221TIP3    H124604   4.286   7.658   0.842
 8221TIP3    H224605   4.290   7.543   0.942
 8222TIP3   OH224606   6.656   6.279   3.246
 8222TIP3    H124607   6.650   6.342   3.175
 8222TIP3    H224608   6.745   6.244   3.240
 8223TIP3   OH224609   1.777   0.520   5.005
 8223TIP3    H124610   1.870   0.508   4.987
 8223TIP3    H224611   1.755   0.449   5.066
 8224TIP3   OH224612   0.697   0.874   6.349
 8224TIP3    H124613   0.635   0.805   6.325
 8224TIP3    H224614   0.648   0.955   6.336
 8225TIP3   OH224615   3.961   6.632   6.565
 8225TIP3    H124616   3.906   6.589   6.499
 8225TIP3    H224617   3.933   6.594   6.648
 8226TIP3   OH224618   0.190   1.149   0.430
 8226TIP3    H124619   0.249   1.155   0.354
 8226TIP3    H224620   0.244   1.117   0.501
 8227TIP3   OH224621   4.867   4.891   3.362
 8227TIP3    H124622   4.816   4.880   3.442
 8227TIP3    H224623   4.917   4.971   3.376
 8228TIP3   OH224624   6.729   7.159   5.063
 8228TIP3    H124625   6.719   7.116   5.148
 8228TIP3    H224626   6.824   7.166   5.051
 8229TIP3   OH224627   5.060   7.498   4.632
 8229TIP3    H124628   5.020   7.468   4.714
 8229TIP3    H224629   5.012   7.578   4.610
 8230TIP3   OH224630   6.560   6.018   0.156
 8230TIP3    H124631   6.485   6.061   0.196
 8230TIP3    H224632   6.585   5.949   0.218
 8231TIP3   OH224633   1.291   7.078   6.167
 8231TIP3    H124634   1.280   6.985   6.145
 8231TIP3    H224635   1.257   7.125   6.092
 8232TIP3   OH224636   5.237   1.176   4.175
 8232TIP3    H124637   5.220   1.162   4.082
 8232TIP3    H224638   5.310   1.118   4.195
 8233TIP3   OH224639   1.666   7.201   3.783
 8233TIP3    H124640   1.587   7.253   3.797
 8233TIP3    H224641   1.638   7.130   3.725
 8234TIP3   OH224642   6.713   0.776   1.788
 8234TIP3    H124643   6.648   0.742   1.849
 8234TIP3    H224644   6.759   0.699   1.756
 8235TIP3   OH224645   5.124   7.738   5.319
 8235TIP3    H124646   5.151   7.829   5.334
 8235TIP3    H224647   5.080   7.740   5.234
 8236TIP3   OH224648   4.412   1.620   6.838
 8236TIP3    H124649   4.332   1.617   6.787
 8236TIP3    H224650   4.426   1.713   6.855
 8237TIP3   OH224651   2.466   7.838   2.989
 8237TIP3    H124652   2.463   7.782   3.066
 8237TIP3    H224653   2.400   7.801   2.930
 8238TIP3   OH224654   7.515   1.880   5.141
 8238TIP3    H124655   7.477   1.792   5.142
 8238TIP3    H224656   7.440   1.937   5.123
 8239TIP3   OH224657   8.184   4.454   3.181
 8239TIP3    H124658   8.128   4.378   3.167
 8239TIP3    H224659   8.273   4.421   3.171
 8240TIP3   OH224660   1.238   4.951   0.293
 8240TIP3    H124661   1.277   4.872   0.330
 8240TIP3    H224662   1.300   5.021   0.315
 8241TIP3   OH224663   5.546   7.576   3.112
 8241TIP3    H124664   5.480   7.526   3.160
 8241TIP3    H224665   5.501   7.656   3.086
 8242TIP3   OH224666   5.991   2.182   4.377
 8242TIP3    H124667   5.916   2.226   4.419
 8242TIP3    H224668   6.067   2.220   4.420
 8243TIP3   OH224669   0.476   2.883   3.337
 8243TIP3    H124670   0.467   2.857   3.245
 8243TIP3    H224671   0.494   2.977   3.333
 8244TIP3   OH224672   2.855   3.926   4.176
 8244TIP3    H124673   2.820   3.857   4.232
 8244TIP3    H224674   2.947   3.903   4.164
 8245TIP3   OH224675   6.855   0.932   0.225
 8245TIP3    H124676   6.892   0.858   0.177
 8245TIP3    H224677   6.897   0.929   0.311
 8246TIP3   OH224678   2.575   5.865   0.914
 8246TIP3    H124679   2.636   5.798   0.883
 8246TIP3    H224680   2.630   5.926   0.965
 8247TIP3   OH224681   2.508   2.701   4.841
 8247TIP3    H124682   2.544   2.708   4.929
 8247TIP3    H224683   2.582   2.674   4.786
 8248TIP3   OH224684   0.316   3.077   6.249
 8248TIP3    H124685   0.272   2.998   6.282
 8248TIP3    H224686   0.356   3.116   6.327
 8249TIP3   OH224687   2.731   3.836   1.240
 8249TIP3    H124688   2.707   3.886   1.318
 8249TIP3    H224689   2.826   3.850   1.231
 8250TIP3   OH224690   7.021   7.347   1.243
 8250TIP3    H124691   7.077   7.288   1.193
 8250TIP3    H224692   7.029   7.317   1.333
 8251TIP3   OH224693   5.840   4.917   6.213
 8251TIP3    H124694   5.846   4.984   6.281
 8251TIP3    H224695   5.831   4.834   6.261
 8252TIP3   OH224696   1.287   6.681   6.373
 8252TIP3    H124697   1.297   6.681   6.469
 8252TIP3    H224698   1.357   6.623   6.343
 8253TIP3   OH224699   4.197   4.919   4.866
 8253TIP3    H124700   4.282   4.952   4.896
 8253TIP3    H224701   4.208   4.824   4.865
 8254TIP3   OH224702   1.064   3.374   5.551
 8254TIP3    H124703   0.986   3.422   5.523
 8254TIP3    H224704   1.048   3.355   5.643
 8255TIP3   OH224705   2.534   0.332   2.119
 8255TIP3    H124706   2.540   0.428   2.122
 8255TIP3    H224707   2.520   0.312   2.026
 8256TIP3   OH224708   6.615   2.143   2.349
 8256TIP3    H124709   6.632   2.232   2.377
 8256TIP3    H224710   6.520   2.132   2.359
 8257TIP3   OH224711   4.586   5.859   2.167
 8257TIP3    H124712   4.636   5.939   2.180
 8257TIP3    H224713   4.641   5.805   2.109
 8258TIP3   OH224714   6.564   0.681   6.054
 8258TIP3    H124715   6.516   0.753   6.013
 8258TIP3    H224716   6.560   0.610   5.990
 8259TIP3   OH224717   7.626   6.433   5.602
 8259TIP3    H124718   7.561   6.455   5.669
 8259TIP3    H224719   7.710   6.441   5.646
 8260TIP3   OH224720   4.648   3.063   2.338
 8260TIP3    H124721   4.569   3.082   2.388
 8260TIP3    H224722   4.700   3.006   2.395
 8261TIP3   OH224723   8.002   0.264   6.273
 8261TIP3    H124724   8.057   0.342   6.279
 8261TIP3    H224725   7.971   0.263   6.182
 8262TIP3   OH224726   7.234   2.337   6.788
 8262TIP3    H124727   7.249   2.332   6.882
 8262TIP3    H224728   7.312   2.296   6.750
 8263TIP3   OH224729   2.470   6.218   5.381
 8263TIP3    H124730   2.551   6.211   5.329
 8263TIP3    H224731   2.500   6.217   5.472
 8264TIP3   OH224732   8.109   7.499   5.450
 8264TIP3    H124733   8.120   7.583   5.407
 8264TIP3    H224734   8.070   7.520   5.535
 8265TIP3   OH224735   1.498   3.671   6.097
 8265TIP3    H124736   1.528   3.682   6.187
 8265TIP3    H224737   1.433   3.601   6.101
 8266TIP3   OH224738   5.370   5.351   1.862
 8266TIP3    H124739   5.298   5.411   1.881
 8266TIP3    H224740   5.384   5.359   1.768
 8267TIP3   OH224741   7.779   4.615   4.873
 8267TIP3    H124742   7.717   4.631   4.802
 8267TIP3    H224743   7.725   4.621   4.953
 8268TIP3   OH224744   6.960   6.076   4.778
 8268TIP3    H124745   7.025   6.088   4.709
 8268TIP3    H224746   6.885   6.129   4.750
 8269TIP3   OH224747   6.062   0.384   1.583
 8269TIP3    H124748   6.035   0.474   1.564
 8269TIP3    H224749   6.066   0.342   1.498
 8270TIP3   OH224750   2.399   6.895   4.071
 8270TIP3    H124751   2.391   6.800   4.074
 8270TIP3    H224752   2.371   6.918   3.982
 8271TIP3   OH224753   2.512   3.459   4.949
 8271TIP3    H124754   2.462   3.442   5.029
 8271TIP3    H224755   2.503   3.553   4.934
 8272TIP3   OH224756   2.476   5.219   2.001
 8272TIP3    H124757   2.441   5.301   1.966
 8272TIP3    H224758   2.399   5.173   2.035
 8273TIP3   OH224759   0.168   2.575   3.471
 8273TIP3    H124760   0.147   2.585   3.378
 8273TIP3    H224761   0.145   2.484   3.491
 8274TIP3   OH224762   1.319   2.706   4.390
 8274TIP3    H124763   1.284   2.685   4.303
 8274TIP3    H224764   1.348   2.797   4.381
 8275TIP3   OH224765   8.117   3.901   3.043
 8275TIP3    H124766   8.037   3.901   2.991
 8275TIP3    H224767   8.180   3.852   2.991
 8276TIP3   OH224768   0.722   5.993   4.012
 8276TIP3    H124769   0.661   5.945   3.956
 8276TIP3    H224770   0.779   6.040   3.951
 8277TIP3   OH224771   2.233   2.393   0.844
 8277TIP3    H124772   2.302   2.456   0.862
 8277TIP3    H224773   2.154   2.432   0.882
 8278TIP3   OH224774   7.428   1.656   2.766
 8278TIP3    H124775   7.460   1.663   2.676
 8278TIP3    H224776   7.443   1.565   2.790
 8279TIP3   OH224777   3.599   3.892   3.981
 8279TIP3    H124778   3.564   3.809   3.948
 8279TIP3    H224779   3.622   3.942   3.902
 8280TIP3   OH224780   0.373   5.349   5.643
 8280TIP3    H124781   0.370   5.291   5.719
 8280TIP3    H224782   0.307   5.416   5.660
 8281TIP3   OH224783   3.695   4.390   4.096
 8281TIP3    H124784   3.745   4.390   4.014
 8281TIP3    H224785   3.639   4.313   4.090
 8282TIP3   OH224786   8.021   0.543   3.365
 8282TIP3    H124787   8.031   0.627   3.411
 8282TIP3    H224788   7.980   0.566   3.282
 8283TIP3   OH224789   3.718   7.570   0.426
 8283TIP3    H124790   3.707   7.483   0.465
 8283TIP3    H224791   3.707   7.555   0.332
 8284TIP3   OH224792   4.389   2.239   5.311
 8284TIP3    H124793   4.413   2.151   5.283
 8284TIP3    H224794   4.463   2.293   5.286
 8285TIP3   OH224795   1.589   0.070   4.477
 8285TIP3    H124796   1.515   0.079   4.537
 8285TIP3    H224797   1.666   0.077   4.533
 8286TIP3   OH224798   0.204   5.035   3.245
 8286TIP3    H124799   0.119   4.993   3.249
 8286TIP3    H224800   0.184   5.129   3.240
 8287TIP3   OH224801   2.277   7.515   3.031
 8287TIP3    H124802   2.215   7.444   3.014
 8287TIP3    H224803   2.268   7.573   2.956
 8288TIP3   OH224804   4.246   5.874   5.915
 8288TIP3    H124805   4.207   5.797   5.957
 8288TIP3    H224806   4.323   5.894   5.968
 8289TIP3   OH224807   2.218   7.314   4.177
 8289TIP3    H124808   2.249   7.276   4.095
 8289TIP3    H224809   2.281   7.284   4.243
 8290TIP3   OH224810   1.574   5.394   4.544
 8290TIP3    H124811   1.669   5.385   4.535
 8290TIP3    H224812   1.561   5.433   4.630
 8291TIP3   OH224813   3.272   2.464   1.947
 8291TIP3    H124814   3.223   2.508   2.017
 8291TIP3    H224815   3.281   2.531   1.879
 8292TIP3   OH224816   4.655   5.298   4.274
 8292TIP3    H124817   4.735   5.274   4.229
 8292TIP3    H224818   4.585   5.263   4.219
 8293TIP3   OH224819   7.312   2.579   3.249
 8293TIP3    H124820   7.387   2.609   3.199
 8293TIP3    H224821   7.313   2.632   3.329
 8294TIP3   OH224822   8.319   4.248   6.329
 8294TIP3    H124823   8.236   4.274   6.288
 8294TIP3    H224824   8.385   4.269   6.263
 8295TIP3   OH224825   3.244   0.303   6.277
 8295TIP3    H124826   3.205   0.387   6.254
 8295TIP3    H224827   3.176   0.258   6.327
 8296TIP3   OH224828   6.034   3.750   1.627
 8296TIP3    H124829   6.006   3.784   1.542
 8296TIP3    H224830   6.118   3.707   1.609
 8297TIP3   OH224831   0.960   3.690   0.864
 8297TIP3    H124832   0.980   3.647   0.947
 8297TIP3    H224833   0.881   3.645   0.832
 8298TIP3   OH224834   1.895   2.473   3.176
 8298TIP3    H124835   1.856   2.548   3.223
 8298TIP3    H224836   1.975   2.509   3.137
 8299TIP3   OH224837   6.307   2.081   6.125
 8299TIP3    H124838   6.213   2.082   6.110
 8299TIP3    H224839   6.341   2.021   6.058
 8300TIP3   OH224840   2.916   4.977   1.471
 8300TIP3    H124841   2.954   4.889   1.474
 8300TIP3    H224842   2.845   4.974   1.536
 8301TIP3   OH224843   0.441   3.266   0.058
 8301TIP3    H124844   0.529   3.281   0.091
 8301TIP3    H224845   0.453   3.247  -0.035
 8302TIP3   OH224846   2.269   0.195   1.761
 8302TIP3    H124847   2.240   0.145   1.685
 8302TIP3    H224848   2.204   0.175   1.829
 8303TIP3   OH224849   4.310   5.080   3.186
 8303TIP3    H124850   4.333   5.155   3.242
 8303TIP3    H224851   4.390   5.027   3.183
 8304TIP3   OH224852   4.762   0.393   5.518
 8304TIP3    H124853   4.787   0.475   5.561
 8304TIP3    H224854   4.833   0.332   5.538
 8305TIP3   OH224855   7.623   3.222   2.000
 8305TIP3    H124856   7.652   3.312   2.009
 8305TIP3    H224857   7.592   3.216   1.909
 8306TIP3   OH224858   1.853   7.307   4.785
 8306TIP3    H124859   1.848   7.357   4.867
 8306TIP3    H224860   1.947   7.294   4.771
 8307TIP3   OH224861   5.449   3.602   3.686
 8307TIP3    H124862   5.472   3.525   3.633
 8307TIP3    H224863   5.385   3.650   3.633
 8308TIP3   OH224864   1.541   4.298   0.237
 8308TIP3    H124865   1.628   4.312   0.199
 8308TIP3    H224866   1.493   4.378   0.216
 8309TIP3   OH224867   4.900   7.315   0.233
 8309TIP3    H124868   4.904   7.237   0.179
 8309TIP3    H224869   4.884   7.387   0.172
 8310TIP3   OH224870   1.062   5.378   2.479
 8310TIP3    H124871   1.068   5.395   2.573
 8310TIP3    H224872   0.976   5.339   2.466
 8311TIP3   OH224873   1.553   0.404   2.294
 8311TIP3    H124874   1.476   0.347   2.296
 8311TIP3    H224875   1.610   0.365   2.228
 8312TIP3   OH224876   4.301   0.505   1.110
 8312TIP3    H124877   4.300   0.423   1.062
 8312TIP3    H224878   4.353   0.488   1.188
 8313TIP3   OH224879   8.098   6.038   1.451
 8313TIP3    H124880   8.056   6.043   1.365
 8313TIP3    H224881   8.030   6.006   1.510
 8314TIP3   OH224882   3.990   5.092   5.617
 8314TIP3    H124883   4.008   5.170   5.565
 8314TIP3    H224884   3.900   5.104   5.647
 8315TIP3   OH224885   7.752   5.673   0.142
 8315TIP3    H124886   7.681   5.660   0.079
 8315TIP3    H224887   7.708   5.684   0.226
 8316TIP3   OH224888   1.869   1.479   1.718
 8316TIP3    H124889   1.892   1.508   1.806
 8316TIP3    H224890   1.801   1.413   1.732
 8317TIP3   OH224891   4.028   5.817   1.688
 8317TIP3    H124892   4.070   5.832   1.604
 8317TIP3    H224893   4.098   5.789   1.747
 8318TIP3   OH224894   4.021   6.967   4.805
 8318TIP3    H124895   3.962   6.927   4.869
 8318TIP3    H224896   3.963   7.023   4.752
 8319TIP3   OH224897   0.637   0.211   3.620
 8319TIP3    H124898   0.565   0.275   3.628
 8319TIP3    H224899   0.661   0.190   3.710
 8320TIP3   OH224900   3.046   2.071   3.661
 8320TIP3    H124901   2.963   2.099   3.624
 8320TIP3    H224902   3.052   1.978   3.637
 8321TIP3   OH224903   1.969   2.463   4.393
 8321TIP3    H124904   1.899   2.524   4.413
 8321TIP3    H224905   2.002   2.491   4.307
 8322TIP3   OH224906   6.809   7.736   3.233
 8322TIP3    H124907   6.892   7.756   3.276
 8322TIP3    H224908   6.832   7.672   3.165
 8323TIP3   OH224909   0.089   4.717   2.156
 8323TIP3    H124910   0.172   4.682   2.189
 8323TIP3    H224911   0.099   4.716   2.060
 8324TIP3   OH224912   8.226   0.896   6.592
 8324TIP3    H124913   8.192   0.943   6.516
 8324TIP3    H224914   8.289   0.957   6.632
 8325TIP3   OH224915   2.549   4.511   0.294
 8325TIP3    H124916   2.466   4.548   0.325
 8325TIP3    H224917   2.523   4.440   0.235
 8326TIP3   OH224918   5.399   0.588   0.312
 8326TIP3    H124919   5.349   0.587   0.393
 8326TIP3    H224920   5.481   0.543   0.333
 8327TIP3   OH224921   5.022   0.784   2.602
 8327TIP3    H124922   5.093   0.838   2.636
 8327TIP3    H224923   4.942   0.829   2.631
 8328TIP3   OH224924   0.471   7.100   4.949
 8328TIP3    H124925   0.401   7.106   4.884
 8328TIP3    H224926   0.513   7.186   4.948
 8329TIP3   OH224927   1.048   5.450   3.337
 8329TIP3    H124928   1.141   5.451   3.316
 8329TIP3    H224929   1.036   5.521   3.400
 8330TIP3   OH224930   7.583   4.792   3.813
 8330TIP3    H124931   7.531   4.712   3.819
 8330TIP3    H224932   7.518   4.862   3.807
 8331TIP3   OH224933   7.492   3.503   4.740
 8331TIP3    H124934   7.519   3.585   4.697
 8331TIP3    H224935   7.564   3.443   4.722
 8332TIP3   OH224936   5.432   4.038   2.775
 8332TIP3    H124937   5.519   4.001   2.766
 8332TIP3    H224938   5.430   4.077   2.862
 8333TIP3   OH224939   1.963   5.344   3.562
 8333TIP3    H124940   1.930   5.309   3.480
 8333TIP3    H224941   2.015   5.273   3.599
 8334TIP3   OH224942   6.566   7.501   2.268
 8334TIP3    H124943   6.630   7.557   2.311
 8334TIP3    H224944   6.504   7.478   2.337
 8335TIP3   OH224945   7.790   4.154   4.834
 8335TIP3    H124946   7.718   4.124   4.779
 8335TIP3    H224947   7.785   4.098   4.912
 8336TIP3   OH224948   1.465   0.095   5.601
 8336TIP3    H124949   1.491   0.187   5.591
 8336TIP3    H224950   1.490   0.055   5.517
 8337TIP3   OH224951   8.237   7.845   2.054
 8337TIP3    H124952   8.195   7.761   2.034
 8337TIP3    H224953   8.204   7.905   1.986
 8338TIP3   OH224954   4.457   3.765   3.207
 8338TIP3    H124955   4.515   3.831   3.244
 8338TIP3    H224956   4.403   3.736   3.281
 8339TIP3   OH224957   6.537   1.668   5.184
 8339TIP3    H124958   6.625   1.653   5.220
 8339TIP3    H224959   6.552   1.685   5.091
 8340TIP3   OH224960   4.749   5.889   1.640
 8340TIP3    H124961   4.772   5.981   1.655
 8340TIP3    H224962   4.831   5.849   1.611
 8341TIP3   OH224963   1.002   5.612   6.512
 8341TIP3    H124964   1.005   5.525   6.472
 8341TIP3    H224965   1.093   5.642   6.512
 8342TIP3   OH224966   6.413   2.086   5.307
 8342TIP3    H124967   6.441   2.106   5.396
 8342TIP3    H224968   6.372   1.999   5.314
 8343TIP3   OH224969   8.014   7.235   4.923
 8343TIP3    H124970   7.963   7.160   4.894
 8343TIP3    H224971   7.971   7.311   4.884
 8344TIP3   OH224972   1.785   5.691   4.677
 8344TIP3    H124973   1.789   5.785   4.660
 8344TIP3    H224974   1.747   5.685   4.765
 8345TIP3   OH224975   4.852   1.069   3.697
 8345TIP3    H124976   4.811   1.130   3.758
 8345TIP3    H224977   4.785   1.054   3.630
 8346TIP3   OH224978   7.580   0.361   4.270
 8346TIP3    H124979   7.613   0.447   4.244
 8346TIP3    H224980   7.657   0.306   4.278
 8347TIP3   OH224981   1.699   2.935   2.597
 8347TIP3    H124982   1.639   2.987   2.543
 8347TIP3    H224983   1.665   2.846   2.591
 8348TIP3   OH224984   6.712   6.213   3.599
 8348TIP3    H124985   6.713   6.202   3.694
 8348TIP3    H224986   6.771   6.287   3.583
 8349TIP3   OH224987   4.653   3.700   0.033
 8349TIP3    H124988   4.730   3.673   0.083
 8349TIP3    H224989   4.580   3.652   0.074
 8350TIP3   OH224990   2.751   6.436   1.501
 8350TIP3    H124991   2.795   6.484   1.571
 8350TIP3    H224992   2.666   6.413   1.537
 8351TIP3   OH224993   0.013   5.962   2.904
 8351TIP3    H124994   0.085   5.938   2.846
 8351TIP3    H224995   0.037   6.049   2.937
 8352TIP3   OH224996   7.019   1.031   6.471
 8352TIP3    H124997   6.991   0.987   6.552
 8352TIP3    H224998   6.946   1.019   6.410
 8353TIP3   OH224999   3.696   3.915   6.048
 8353TIP3    H125000   3.620   3.913   6.106
 8353TIP3    H225001   3.661   3.899   5.961
 8354TIP3   OH225002   6.644   0.707   0.204
 8354TIP3    H125003   6.662   0.789   0.249
 8354TIP3    H225004   6.717   0.696   0.144
 8355TIP3   OH225005   4.820   5.961   4.934
 8355TIP3    H125006   4.893   5.909   4.900
 8355TIP3    H225007   4.855   6.000   5.014
 8356TIP3   OH225008   2.160   5.880   1.193
 8356TIP3    H125009   2.092   5.941   1.163
 8356TIP3    H225010   2.242   5.926   1.177
 8357TIP3   OH225011   6.220   2.349   1.834
 8357TIP3    H125012   6.134   2.322   1.803
 8357TIP3    H225013   6.241   2.288   1.905
 8358TIP3   OH225014   3.009   1.376   1.992
 8358TIP3    H125015   3.041   1.341   2.075
 8358TIP3    H225016   2.971   1.301   1.947
 8359TIP3   OH225017   0.350   6.204   6.172
 8359TIP3    H125018   0.332   6.285   6.125
 8359TIP3    H225019   0.274   6.149   6.154
 8360TIP3   OH225020   1.844   6.312   2.880
 8360TIP3    H125021   1.917   6.318   2.818
 8360TIP3    H225022   1.787   6.386   2.857
 8361TIP3   OH225023   4.067   0.629   0.053
 8361TIP3    H125024   4.056   0.666   0.140
 8361TIP3    H225025   4.111   0.698   0.003
 8362TIP3   OH225026   5.620   5.833   6.475
 8362TIP3    H125027   5.536   5.864   6.507
 8362TIP3    H225028   5.608   5.821   6.381
 8363TIP3   OH225029   5.366   6.899   4.231
 8363TIP3    H125030   5.336   6.967   4.292
 8363TIP3    H225031   5.436   6.854   4.278
 8364TIP3   OH225032   5.257   2.866   0.966
 8364TIP3    H125033   5.218   2.887   0.882
 8364TIP3    H225034   5.351   2.876   0.952
 8365TIP3   OH225035   7.514   0.273   6.810
 8365TIP3    H125036   7.472   0.336   6.752
 8365TIP3    H225037   7.603   0.307   6.823
 8366TIP3   OH225038   5.193   3.975   4.557
 8366TIP3    H125039   5.191   3.937   4.470
 8366TIP3    H225040   5.116   3.939   4.601
 8367TIP3   OH225041   7.455   5.086   6.556
 8367TIP3    H125042   7.440   5.164   6.610
 8367TIP3    H225043   7.464   5.121   6.467
 8368TIP3   OH225044   5.984   5.255   0.409
 8368TIP3    H125045   6.035   5.315   0.465
 8368TIP3    H225046   5.893   5.272   0.433
 8369TIP3   OH225047   2.831   4.025   4.683
 8369TIP3    H125048   2.899   3.958   4.681
 8369TIP3    H225049   2.833   4.065   4.596
 8370TIP3   OH225050   0.740   2.390   1.991
 8370TIP3    H125051   0.806   2.457   1.973
 8370TIP3    H225052   0.696   2.377   1.907
 8371TIP3   OH225053   0.300   2.065   1.320
 8371TIP3    H125054   0.283   2.060   1.414
 8371TIP3    H225055   0.312   2.158   1.303
 8372TIP3   OH225056   6.470   1.114   1.209
 8372TIP3    H125057   6.380   1.081   1.203
 8372TIP3    H225058   6.476   1.149   1.298
 8373TIP3   OH225059   1.416   6.677   0.292
 8373TIP3    H125060   1.400   6.615   0.363
 8373TIP3    H225061   1.411   6.623   0.212
 8374TIP3   OH225062   2.175   3.512   0.239
 8374TIP3    H125063   2.085   3.541   0.222
 8374TIP3    H225064   2.228   3.591   0.226
 8375TIP3   OH225065   6.904   0.942   4.873
 8375TIP3    H125066   6.901   0.877   4.943
 8375TIP3    H225067   6.896   0.890   4.792
 8376TIP3   OH225068   1.897   5.938   4.605
 8376TIP3    H125069   1.854   6.022   4.589
 8376TIP3    H225070   1.925   5.908   4.519
 8377TIP3   OH225071   7.073   3.131   3.775
 8377TIP3    H125072   7.105   3.209   3.821
 8377TIP3    H225073   7.150   3.075   3.765
 8378TIP3   OH225074   2.045   2.902   5.378
 8378TIP3    H125075   2.085   2.818   5.354
 8378TIP3    H225076   2.050   2.905   5.473
 8379TIP3   OH225077   7.925   2.294   6.430
 8379TIP3    H125078   8.011   2.251   6.427
 8379TIP3    H225079   7.930   2.362   6.363
 8380TIP3   OH225080   1.243   5.750   0.097
 8380TIP3    H125081   1.193   5.800   0.031
 8380TIP3    H225082   1.282   5.678   0.048
 8381TIP3   OH225083   8.309   6.036   6.415
 8381TIP3    H125084   8.239   6.101   6.407
 8381TIP3    H225085   8.365   6.052   6.339
 8382TIP3   OH225086   2.144   7.597   5.467
 8382TIP3    H125087   2.186   7.638   5.392
 8382TIP3    H225088   2.050   7.613   5.455
 8383TIP3   OH225089   1.668   6.899   0.080
 8383TIP3    H125090   1.751   6.860   0.052
 8383TIP3    H225091   1.667   6.888   0.175
 8384TIP3   OH225092   7.557   7.337   5.017
 8384TIP3    H125093   7.609   7.280   4.960
 8384TIP3    H225094   7.467   7.306   5.006
 8385TIP3   OH225095   3.077   5.627   2.097
 8385TIP3    H125096   3.119   5.630   2.183
 8385TIP3    H225097   2.990   5.664   2.112
 8386TIP3   OH225098   3.734   2.264   4.258
 8386TIP3    H125099   3.694   2.339   4.302
 8386TIP3    H225100   3.660   2.206   4.238
 8387TIP3   OH225101   6.145   5.898   2.427
 8387TIP3    H125102   6.130   5.968   2.491
 8387TIP3    H225103   6.087   5.828   2.454
 8388TIP3   OH225104   4.731   7.291   4.724
 8388TIP3    H125105   4.706   7.378   4.693
 8388TIP3    H225106   4.652   7.258   4.768
 8389TIP3   OH225107   3.881   2.272   3.829
 8389TIP3    H125108   3.891   2.309   3.917
 8389TIP3    H225109   3.933   2.192   3.831
 8390TIP3   OH225110   7.164   0.454   2.338
 8390TIP3    H125111   7.095   0.520   2.351
 8390TIP3    H225112   7.132   0.377   2.385
 8391TIP3   OH225113   6.361   7.293   2.683
 8391TIP3    H125114   6.366   7.268   2.591
 8391TIP3    H225115   6.394   7.217   2.731
 8392TIP3   OH225116   2.362   4.831   6.860
 8392TIP3    H125117   2.410   4.767   6.807
 8392TIP3    H225118   2.407   4.914   6.844
 8393TIP3   OH225119   2.468   5.603   1.698
 8393TIP3    H125120   2.522   5.527   1.678
 8393TIP3    H225121   2.500   5.671   1.640
 8394TIP3   OH225122   1.624   3.806   4.549
 8394TIP3    H125123   1.537   3.765   4.548
 8394TIP3    H225124   1.644   3.815   4.642
 8395TIP3   OH225125   4.679  -0.002   1.862
 8395TIP3    H125126   4.616   0.067   1.882
 8395TIP3    H225127   4.722   0.026   1.781
 8396TIP3   OH225128   6.885   6.545   3.273
 8396TIP3    H125129   6.816   6.610   3.286
 8396TIP3    H225130   6.851   6.487   3.205
 8397TIP3   OH225131   2.834   3.828   2.168
 8397TIP3    H125132   2.858   3.822   2.261
 8397TIP3    H225133   2.739   3.834   2.168
 8398TIP3   OH225134   3.875   3.483   5.493
 8398TIP3    H125135   3.904   3.487   5.584
 8398TIP3    H225136   3.952   3.454   5.444
 8399TIP3   OH225137   5.080   1.669   4.459
 8399TIP3    H125138   5.119   1.586   4.485
 8399TIP3    H225139   5.154   1.720   4.425
 8400TIP3   OH225140   7.147   4.326   3.675
 8400TIP3    H125141   7.140   4.322   3.580
 8400TIP3    H225142   7.114   4.413   3.698
 8401TIP3   OH225143   8.246   6.404   0.682
 8401TIP3    H125144   8.283   6.401   0.771
 8401TIP3    H225145   8.192   6.326   0.676
 8402TIP3   OH225146   2.523   5.333   1.328
 8402TIP3    H125147   2.478   5.291   1.401
 8402TIP3    H225148   2.581   5.264   1.294
 8403TIP3   OH225149   7.882   6.705   2.490
 8403TIP3    H125150   7.960   6.655   2.463
 8403TIP3    H225151   7.858   6.755   2.413
 8404TIP3   OH225152   0.869   2.862   2.528
 8404TIP3    H125153   0.809   2.936   2.517
 8404TIP3    H225154   0.833   2.813   2.602
 8405TIP3   OH225155   5.028   5.652   5.501
 8405TIP3    H125156   5.052   5.589   5.569
 8405TIP3    H225157   5.111   5.670   5.456
 8406TIP3   OH225158   4.742   3.006   0.977
 8406TIP3    H125159   4.822   3.005   0.924
 8406TIP3    H225160   4.733   2.915   1.007
 8407TIP3   OH225161   7.317   6.445   4.806
 8407TIP3    H125162   7.224   6.448   4.785
 8407TIP3    H225163   7.357   6.512   4.751
 8408TIP3   OH225164   8.049   0.882   1.684
 8408TIP3    H125165   8.140   0.864   1.662
 8408TIP3    H225166   8.010   0.912   1.602
 8409TIP3   OH225167   1.544   3.298   3.305
 8409TIP3    H125168   1.449   3.291   3.310
 8409TIP3    H225169   1.572   3.311   3.396
 8410TIP3   OH225170   0.477   2.370   1.405
 8410TIP3    H125171   0.386   2.369   1.432
 8410TIP3    H225172   0.474   2.370   1.309
 8411TIP3   OH225173   6.276   2.637   3.132
 8411TIP3    H125174   6.258   2.621   3.224
 8411TIP3    H225175   6.345   2.575   3.110
 8412TIP3   OH225176   5.082   0.114   6.746
 8412TIP3    H125177   5.138   0.043   6.778
 8412TIP3    H225178   5.014   0.071   6.695
 8413TIP3   OH225179   3.972   1.400   5.523
 8413TIP3    H125180   4.037   1.403   5.453
 8413TIP3    H225181   3.999   1.469   5.583
 8414TIP3   OH225182   0.625   1.860   3.704
 8414TIP3    H125183   0.720   1.850   3.711
 8414TIP3    H225184   0.600   1.907   3.783
 8415TIP3   OH225185   0.516   4.638   5.746
 8415TIP3    H125186   0.542   4.570   5.808
 8415TIP3    H225187   0.535   4.720   5.792
 8416TIP3   OH225188   0.538   7.821   6.038
 8416TIP3    H125189   0.507   7.746   6.089
 8416TIP3    H225190   0.616   7.852   6.084
 8417TIP3   OH225191   3.524   0.361   3.578
 8417TIP3    H125192   3.501   0.268   3.580
 8417TIP3    H225193   3.559   0.375   3.491
 8418TIP3   OH225194   6.619   2.159   1.238
 8418TIP3    H125195   6.541   2.152   1.293
 8418TIP3    H225196   6.624   2.074   1.194
 8419TIP3   OH225197   7.514   1.092   0.460
 8419TIP3    H125198   7.510   1.000   0.434
 8419TIP3    H225199   7.437   1.132   0.421
 8420TIP3   OH225200   7.896   4.868   4.428
 8420TIP3    H125201   7.921   4.779   4.451
 8420TIP3    H225202   7.973   4.905   4.385
 8421TIP3   OH225203   6.026   6.956   0.086
 8421TIP3    H125204   6.016   6.882   0.146
 8421TIP3    H225205   6.087   6.925   0.019
 8422TIP3   OH225206   2.322   0.040   6.829
 8422TIP3    H125207   2.244   0.029   6.774
 8422TIP3    H225208   2.394   0.008   6.774
 8423TIP3   OH225209   1.655   7.186   4.281
 8423TIP3    H125210   1.736   7.137   4.263
 8423TIP3    H225211   1.597   7.123   4.322
 8424TIP3   OH225212   7.815   5.032   4.698
 8424TIP3    H125213   7.731   5.077   4.708
 8424TIP3    H225214   7.854   5.071   4.620
 8425TIP3   OH225215   6.268   5.740   1.220
 8425TIP3    H125216   6.198   5.767   1.161
 8425TIP3    H225217   6.253   5.647   1.236
 8426TIP3   OH225218   0.436   0.243   0.345
 8426TIP3    H125219   0.506   0.179   0.363
 8426TIP3    H225220   0.445   0.308   0.415
 8427TIP3   OH225221   0.267   5.850   1.364
 8427TIP3    H125222   0.181   5.872   1.329
 8427TIP3    H225223   0.266   5.756   1.377
 8428TIP3   OH225224   4.683   7.046   0.837
 8428TIP3    H125225   4.666   6.984   0.767
 8428TIP3    H225226   4.776   7.035   0.857
 8429TIP3   OH225227   0.214   0.562   4.911
 8429TIP3    H125228   0.283   0.550   4.977
 8429TIP3    H225229   0.239   0.504   4.839
 8430TIP3   OH225230   1.082   6.318   2.746
 8430TIP3    H125231   1.046   6.378   2.680
 8430TIP3    H225232   1.046   6.233   2.723
 8431TIP3   OH225233   8.378   3.101   2.490
 8431TIP3    H125234   8.323   3.179   2.486
 8431TIP3    H225235   8.454   3.123   2.436
 8432TIP3   OH225236   5.667   0.618   5.557
 8432TIP3    H125237   5.748   0.639   5.602
 8432TIP3    H225238   5.633   0.702   5.526
 8433TIP3   OH225239   2.445   4.889   6.461
 8433TIP3    H125240   2.462   4.823   6.528
 8433TIP3    H225241   2.358   4.867   6.428
 8434TIP3   OH225242   7.366   3.482   3.713
 8434TIP3    H125243   7.309   3.547   3.755
 8434TIP3    H225244   7.341   3.485   3.621
 8435TIP3   OH225245   4.264   7.390   0.325
 8435TIP3    H125246   4.283   7.484   0.315
 8435TIP3    H225247   4.349   7.348   0.317
 8436TIP3   OH225248   3.629   3.331   6.547
 8436TIP3    H125249   3.694   3.280   6.596
 8436TIP3    H225250   3.671   3.349   6.463
 8437TIP3   OH225251   2.787   0.136   6.451
 8437TIP3    H125252   2.743   0.144   6.366
 8437TIP3    H225253   2.737   0.068   6.497
 8438TIP3   OH225254   4.063   3.912   5.946
 8438TIP3    H125255   3.999   3.972   5.985
 8438TIP3    H225256   4.067   3.938   5.854
 8439TIP3   OH225257   1.585   0.399   6.430
 8439TIP3    H125258   1.579   0.311   6.394
 8439TIP3    H225259   1.630   0.449   6.362
 8440TIP3   OH225260   3.940   5.505   1.892
 8440TIP3    H125261   4.020   5.552   1.915
 8440TIP3    H225262   3.873   5.541   1.950
 8441TIP3   OH225263   3.543   3.555   3.475
 8441TIP3    H125264   3.622   3.502   3.484
 8441TIP3    H225265   3.576   3.644   3.460
 8442TIP3   OH225266   5.553   5.286   4.879
 8442TIP3    H125267   5.464   5.287   4.844
 8442TIP3    H225268   5.569   5.195   4.902
 8443TIP3   OH225269   1.898   7.206   0.250
 8443TIP3    H125270   1.850   7.240   0.175
 8443TIP3    H225271   1.854   7.243   0.326
 8444TIP3   OH225272   8.026   3.896   2.305
 8444TIP3    H125273   8.102   3.859   2.351
 8444TIP3    H225274   8.009   3.979   2.351
 8445TIP3   OH225275   8.070   3.982   6.167
 8445TIP3    H125276   8.034   3.991   6.255
 8445TIP3    H225277   7.993   3.975   6.110
 8446TIP3   OH225278   3.585   2.965   2.071
 8446TIP3    H125279   3.554   3.025   2.002
 8446TIP3    H225280   3.659   3.012   2.111
 8447TIP3   OH225281   7.971   6.148   1.229
 8447TIP3    H125282   7.998   6.154   1.138
 8447TIP3    H225283   7.880   6.119   1.226
 8448TIP3   OH225284   2.586   0.932   3.509
 8448TIP3    H125285   2.629   0.857   3.467
 8448TIP3    H225286   2.657   0.990   3.535
 8449TIP3   OH225287   8.062   5.390   4.032
 8449TIP3    H125288   8.148   5.349   4.026
 8449TIP3    H225289   8.068   5.467   3.975
 8450TIP3   OH225290   0.035   4.825   4.761
 8450TIP3    H125291   0.111   4.811   4.817
 8450TIP3    H225292   0.002   4.911   4.787
 8451TIP3   OH225293   6.419   6.095   2.631
 8451TIP3    H125294   6.381   6.069   2.716
 8451TIP3    H225295   6.457   6.181   2.647
 8452TIP3   OH225296   1.428   4.569   2.399
 8452TIP3    H125297   1.443   4.511   2.324
 8452TIP3    H225298   1.499   4.548   2.460
 8453TIP3   OH225299   5.219   4.558   0.939
 8453TIP3    H125300   5.231   4.467   0.967
 8453TIP3    H225301   5.252   4.610   1.012
 8454TIP3   OH225302   3.659   5.751   1.028
 8454TIP3    H125303   3.657   5.667   1.074
 8454TIP3    H225304   3.688   5.730   0.939
 8455TIP3   OH225305   5.469   5.595   5.220
 8455TIP3    H125306   5.468   5.505   5.186
 8455TIP3    H225307   5.548   5.599   5.274
 8456TIP3   OH225308   0.098   4.094   0.318
 8456TIP3    H125309   0.076   4.178   0.280
 8456TIP3    H225310   0.072   4.030   0.252
 8457TIP3   OH225311   7.666   3.404   6.459
 8457TIP3    H125312   7.598   3.465   6.486
 8457TIP3    H225313   7.742   3.460   6.442
 8458TIP3   OH225314   0.485   4.234   5.333
 8458TIP3    H125315   0.516   4.223   5.243
 8458TIP3    H225316   0.544   4.298   5.372
 8459TIP3   OH225317   8.010   4.679   2.607
 8459TIP3    H125318   8.011   4.774   2.592
 8459TIP3    H225319   8.091   4.648   2.567
 8460TIP3   OH225320   6.846   0.205   2.824
 8460TIP3    H125321   6.858   0.251   2.907
 8460TIP3    H225322   6.831   0.275   2.760
 8461TIP3   OH225323   1.618   0.963   1.185
 8461TIP3    H125324   1.567   0.989   1.261
 8461TIP3    H225325   1.621   1.041   1.130
 8462TIP3   OH225326   2.063   6.070   6.553
 8462TIP3    H125327   2.049   6.004   6.485
 8462TIP3    H225328   1.975   6.089   6.586
 8463TIP3   OH225329   3.661   4.310   0.026
 8463TIP3    H125330   3.590   4.289   0.086
 8463TIP3    H225331   3.724   4.360   0.079
 8464TIP3   OH225332   4.618   7.122   2.186
 8464TIP3    H125333   4.647   7.060   2.253
 8464TIP3    H225334   4.645   7.208   2.219
 8465TIP3   OH225335   3.772   5.515   4.472
 8465TIP3    H125336   3.816   5.590   4.513
 8465TIP3    H225337   3.844   5.461   4.439
 8466TIP3   OH225338   0.824   2.714   2.787
 8466TIP3    H125339   0.882   2.640   2.770
 8466TIP3    H225340   0.822   2.721   2.883
 8467TIP3   OH225341   2.258   6.219   3.326
 8467TIP3    H125342   2.255   6.297   3.382
 8467TIP3    H225343   2.299   6.250   3.245
 8468TIP3   OH225344   3.416   0.061   2.549
 8468TIP3    H125345   3.461  -0.022   2.567
 8468TIP3    H225346   3.387   0.052   2.458
 8469TIP3   OH225347   5.120   6.986   3.076
 8469TIP3    H125348   5.145   6.948   3.160
 8469TIP3    H225349   5.024   6.984   3.077
 8470TIP3   OH225350   5.900   1.887   0.191
 8470TIP3    H125351   5.831   1.851   0.136
 8470TIP3    H225352   5.896   1.982   0.177
 8471TIP3   OH225353   5.601   2.254   4.663
 8471TIP3    H125354   5.609   2.191   4.735
 8471TIP3    H225355   5.515   2.293   4.675
 8472TIP3   OH225356   5.727   0.958   3.854
 8472TIP3    H125357   5.680   0.920   3.781
 8472TIP3    H225358   5.660   1.004   3.905
 8473TIP3   OH225359   5.904   7.317   4.657
 8473TIP3    H125360   5.869   7.298   4.744
 8473TIP3    H225361   5.941   7.405   4.665
 8474TIP3   OH225362   5.405   3.226   3.188
 8474TIP3    H125363   5.449   3.228   3.273
 8474TIP3    H225364   5.462   3.173   3.133
 8475TIP3   OH225365   3.956   1.416   0.458
 8475TIP3    H125366   3.936   1.487   0.398
 8475TIP3    H225367   3.950   1.455   0.545
 8476TIP3   OH225368   1.530   5.478   1.319
 8476TIP3    H125369   1.583   5.555   1.339
 8476TIP3    H225370   1.456   5.512   1.269
 8477TIP3   OH225371   3.551   2.026   2.801
 8477TIP3    H125372   3.578   2.100   2.748
 8477TIP3    H225373   3.458   2.042   2.820
 8478TIP3   OH225374   8.197   0.796   2.914
 8478TIP3    H125375   8.223   0.853   2.842
 8478TIP3    H225376   8.161   0.718   2.871
 8479TIP3   OH225377   0.544   2.268   4.473
 8479TIP3    H125378   0.543   2.352   4.518
 8479TIP3    H225379   0.455   2.256   4.441
 8480TIP3   OH225380   2.256   6.914   1.069
 8480TIP3    H125381   2.305   6.944   1.145
 8480TIP3    H225382   2.297   6.959   0.995
 8481TIP3   OH225383   8.120   7.107   2.000
 8481TIP3    H125384   8.040   7.071   2.037
 8481TIP3    H225385   8.175   7.126   2.075
 8482TIP3   OH225386   0.586   6.827   5.004
 8482TIP3    H125387   0.547   6.904   4.962
 8482TIP3    H225388   0.681   6.840   4.994
 8483TIP3   OH225389   2.411   3.224   6.850
 8483TIP3    H125390   2.504   3.241   6.863
 8483TIP3    H225391   2.399   3.133   6.879
 8484TIP3   OH225392   0.218   4.172   5.331
 8484TIP3    H125393   0.302   4.155   5.374
 8484TIP3    H225394   0.222   4.122   5.249
 8485TIP3   OH225395   1.252   6.436   4.610
 8485TIP3    H125396   1.292   6.385   4.680
 8485TIP3    H225397   1.324   6.454   4.549
 8486TIP3   OH225398   2.880   4.476   0.303
 8486TIP3    H125399   2.867   4.569   0.323
 8486TIP3    H225400   2.854   4.467   0.211
 8487TIP3   OH225401   6.524   4.514   3.354
 8487TIP3    H125402   6.583   4.500   3.280
 8487TIP3    H225403   6.582   4.522   3.430
 8488TIP3   OH225404   0.490   5.902   6.783
 8488TIP3    H125405   0.438   5.879   6.707
 8488TIP3    H225406   0.568   5.846   6.777
 8489TIP3   OH225407   3.825   5.094   4.971
 8489TIP3    H125408   3.777   5.013   4.991
 8489TIP3    H225409   3.849   5.128   5.057
 8490TIP3   OH225410   8.042   1.506   4.730
 8490TIP3    H125411   8.118   1.535   4.781
 8490TIP3    H225412   8.033   1.571   4.660
 8491TIP3   OH225413   7.325   0.639   0.154
 8491TIP3    H125414   7.345   0.711   0.095
 8491TIP3    H225415   7.271   0.579   0.102
 8492TIP3   OH225416   3.791   4.211   5.125
 8492TIP3    H125417   3.763   4.182   5.212
 8492TIP3    H225418   3.813   4.130   5.079
 8493TIP3   OH225419   1.650   5.192   0.395
 8493TIP3    H125420   1.712   5.184   0.468
 8493TIP3    H225421   1.700   5.163   0.319
 8494TIP3   OH225422   5.907   5.567   0.744
 8494TIP3    H125423   5.974   5.633   0.725
 8494TIP3    H225424   5.919   5.547   0.837
 8495TIP3   OH225425   1.045   5.653   0.848
 8495TIP3    H125426   1.123   5.694   0.812
 8495TIP3    H225427   1.017   5.712   0.918
 8496TIP3   OH225428   1.195   3.488   1.861
 8496TIP3    H125429   1.267   3.436   1.823
 8496TIP3    H225430   1.124   3.481   1.797
 8497TIP3   OH225431   5.518   4.958   1.105
 8497TIP3    H125432   5.505   5.053   1.110
 8497TIP3    H225433   5.557   4.944   1.019
 8498TIP3   OH225434   5.217   5.074   0.296
 8498TIP3    H125435   5.168   5.108   0.371
 8498TIP3    H225436   5.201   5.138   0.226
 8499TIP3   OH225437   8.159   6.351   4.048
 8499TIP3    H125438   8.210   6.360   3.968
 8499TIP3    H225439   8.223   6.325   4.114
 8500TIP3   OH225440   0.987   5.179   5.871
 8500TIP3    H125441   0.991   5.166   5.776
 8500TIP3    H225442   0.907   5.230   5.885
 8501TIP3   OH225443   3.369   6.440   4.538
 8501TIP3    H125444   3.405   6.439   4.449
 8501TIP3    H225445   3.297   6.378   4.535
 8502TIP3   OH225446   4.173   5.065   0.246
 8502TIP3    H125447   4.269   5.066   0.244
 8502TIP3    H225448   4.149   5.133   0.309
 8503TIP3   OH225449   7.812   5.303   6.487
 8503TIP3    H125450   7.891   5.278   6.535
 8503TIP3    H225451   7.748   5.234   6.508
 8504TIP3   OH225452   2.601   6.837   0.773
 8504TIP3    H125453   2.645   6.754   0.761
 8504TIP3    H225454   2.512   6.822   0.741
 8505TIP3   OH225455   2.241   4.652   2.725
 8505TIP3    H125456   2.230   4.566   2.684
 8505TIP3    H225457   2.313   4.692   2.677
 8506TIP3   OH225458   2.136   0.335   1.336
 8506TIP3    H125459   2.114   0.428   1.340
 8506TIP3    H225460   2.173   0.315   1.422
 8507TIP3   OH225461   5.879   1.628   4.409
 8507TIP3    H125462   5.905   1.655   4.321
 8507TIP3    H225463   5.959   1.634   4.461
 8508TIP3   OH225464   5.024   6.040   5.751
 8508TIP3    H125465   5.072   6.063   5.671
 8508TIP3    H225466   4.932   6.050   5.728
 8509TIP3   OH225467   1.634   2.370   3.230
 8509TIP3    H125468   1.570   2.362   3.300
 8509TIP3    H225469   1.629   2.462   3.203
 8510TIP3   OH225470   6.986   0.659   3.556
 8510TIP3    H125471   6.898   0.667   3.592
 8510TIP3    H225472   7.033   0.735   3.591
 8511TIP3   OH225473   6.032   7.033   6.710
 8511TIP3    H125474   6.029   7.006   6.802
 8511TIP3    H225475   5.952   6.998   6.672
 8512TIP3   OH225476   3.926   0.325   2.563
 8512TIP3    H125477   3.981   0.313   2.485
 8512TIP3    H225478   3.838   0.301   2.535
 8513TIP3   OH225479   1.158   0.287   2.220
 8513TIP3    H125480   1.166   0.264   2.127
 8513TIP3    H225481   1.243   0.266   2.257
 8514TIP3   OH225482   4.899   1.947   2.195
 8514TIP3    H125483   4.913   1.874   2.256
 8514TIP3    H225484   4.971   1.942   2.133
 8515TIP3   OH225485   4.061   4.221   4.815
 8515TIP3    H125486   3.973   4.194   4.790
 8515TIP3    H225487   4.070   4.197   4.907
 8516TIP3   OH225488   4.764   4.841   4.254
 8516TIP3    H125489   4.853   4.860   4.283
 8516TIP3    H225490   4.722   4.798   4.328
 8517TIP3   OH225491   4.114   4.637   0.858
 8517TIP3    H125492   4.089   4.725   0.883
 8517TIP3    H225493   4.040   4.604   0.807
 8518TIP3   OH225494   1.865   6.906   5.139
 8518TIP3    H125495   1.814   6.825   5.130
 8518TIP3    H225496   1.809   6.974   5.104
 8519TIP3   OH225497   1.522   2.494   5.920
 8519TIP3    H125498   1.537   2.400   5.932
 8519TIP3    H225499   1.431   2.499   5.890
 8520TIP3   OH225500   1.015   0.401   3.059
 8520TIP3    H125501   0.933   0.352   3.067
 8520TIP3    H225502   1.068   0.373   3.133
 8521TIP3   OH225503   8.336   2.030   2.676
 8521TIP3    H125504   8.430   2.046   2.682
 8521TIP3    H225505   8.319   2.029   2.582
 8522TIP3   OH225506   1.852   6.695   0.384
 8522TIP3    H125507   1.915   6.692   0.311
 8522TIP3    H225508   1.899   6.656   0.458
 8523TIP3   OH225509   2.676   7.122   0.264
 8523TIP3    H125510   2.691   7.125   0.169
 8523TIP3    H225511   2.582   7.133   0.274
 8524TIP3   OH225512   8.374   2.327   5.260
 8524TIP3    H125513   8.444   2.302   5.320
 8524TIP3    H225514   8.304   2.358   5.317
 8525TIP3   OH225515   0.167   1.085   4.820
 8525TIP3    H125516   0.215   1.164   4.794
 8525TIP3    H225517   0.143   1.100   4.911
 8526TIP3   OH225518   0.892   7.488   0.451
 8526TIP3    H125519   0.924   7.404   0.484
 8526TIP3    H225520   0.963   7.521   0.397
 8527TIP3   OH225521   7.475   5.029   3.820
 8527TIP3    H125522   7.408   5.090   3.850
 8527TIP3    H225523   7.523   5.078   3.752
 8528TIP3   OH225524   7.501   6.563   3.412
 8528TIP3    H125525   7.475   6.636   3.468
 8528TIP3    H225526   7.525   6.493   3.473
 8529TIP3   OH225527   1.531   3.516   4.721
 8529TIP3    H125528   1.608   3.571   4.735
 8529TIP3    H225529   1.545   3.440   4.777
 8530TIP3   OH225530   4.869   4.972   6.845
 8530TIP3    H125531   4.871   4.912   6.771
 8530TIP3    H225532   4.834   4.920   6.917
 8531TIP3   OH225533   6.674   6.566   6.124
 8531TIP3    H125534   6.636   6.578   6.037
 8531TIP3    H225535   6.680   6.654   6.161
 8532TIP3   OH225536   7.250   2.159   0.874
 8532TIP3    H125537   7.306   2.228   0.838
 8532TIP3    H225538   7.243   2.179   0.967
 8533TIP3   OH225539   7.503   2.310   2.027
 8533TIP3    H125540   7.574   2.273   2.080
 8533TIP3    H225541   7.423   2.283   2.071
 8534TIP3   OH225542   2.721   5.448   2.231
 8534TIP3    H125543   2.792   5.450   2.296
 8534TIP3    H225544   2.647   5.409   2.278
 8535TIP3   OH225545   8.097   0.565   0.301
 8535TIP3    H125546   8.011   0.594   0.331
 8535TIP3    H225547   8.094   0.573   0.206
 8536TIP3   OH225548   2.647   7.803   6.176
 8536TIP3    H125549   2.651   7.713   6.208
 8536TIP3    H225550   2.714   7.849   6.226
 8537TIP3   OH225551   2.680   5.895   6.728
 8537TIP3    H125552   2.623   5.972   6.718
 8537TIP3    H225553   2.769   5.931   6.723
 8538TIP3   OH225554   6.845   3.182   3.415
 8538TIP3    H125555   6.805   3.267   3.393
 8538TIP3    H225556   6.856   3.186   3.510
 8539TIP3   OH225557   2.260   5.526   3.220
 8539TIP3    H125558   2.306   5.548   3.301
 8539TIP3    H225559   2.322   5.471   3.171
 8540TIP3   OH225560   2.372   5.775   5.148
 8540TIP3    H125561   2.301   5.757   5.086
 8540TIP3    H225562   2.332   5.762   5.234
 8541TIP3   OH225563   6.057   1.215   2.083
 8541TIP3    H125564   6.068   1.305   2.115
 8541TIP3    H225565   6.055   1.162   2.163
 8542TIP3   OH225566   6.686   0.021   2.193
 8542TIP3    H125567   6.637   0.074   2.256
 8542TIP3    H225568   6.770   0.067   2.183
 8543TIP3   OH225569   4.424   7.730   1.569
 8543TIP3    H125570   4.389   7.693   1.650
 8543TIP3    H225571   4.377   7.683   1.499
 8544TIP3   OH225572   3.645   4.364   5.582
 8544TIP3    H125573   3.608   4.452   5.587
 8544TIP3    H225574   3.727   4.369   5.631
 8545TIP3   OH225575   4.518   2.175   1.737
 8545TIP3    H125576   4.536   2.266   1.710
 8545TIP3    H225577   4.450   2.183   1.803
 8546TIP3   OH225578   2.502   5.433   3.096
 8546TIP3    H125579   2.541   5.353   3.059
 8546TIP3    H225580   2.467   5.480   3.021
 8547TIP3   OH225581   6.855   4.824   3.023
 8547TIP3    H125582   6.942   4.827   3.063
 8547TIP3    H225583   6.870   4.850   2.932
 8548TIP3   OH225584   5.821   4.692   6.423
 8548TIP3    H125585   5.757   4.760   6.445
 8548TIP3    H225586   5.812   4.628   6.494
 8549TIP3   OH225587   7.887   5.458   0.855
 8549TIP3    H125588   7.918   5.372   0.884
 8549TIP3    H225589   7.897   5.456   0.760
 8550TIP3   OH225590   4.420   4.876   2.392
 8550TIP3    H125591   4.364   4.947   2.424
 8550TIP3    H225592   4.414   4.882   2.297
 8551TIP3   OH225593   2.297   3.628   0.587
 8551TIP3    H125594   2.292   3.533   0.585
 8551TIP3    H225595   2.385   3.648   0.554
 8552TIP3   OH225596   4.404   5.346   1.647
 8552TIP3    H125597   4.341   5.389   1.590
 8552TIP3    H225598   4.421   5.261   1.606
 8553TIP3   OH225599   6.492   0.277   2.753
 8553TIP3    H125600   6.469   0.368   2.738
 8553TIP3    H225601   6.409   0.233   2.769
 8554TIP3   OH225602   1.902   3.937   0.818
 8554TIP3    H125603   1.927   3.931   0.910
 8554TIP3    H225604   1.980   3.908   0.770
 8555TIP3   OH225605   5.885   0.146   0.723
 8555TIP3    H125606   5.801   0.108   0.745
 8555TIP3    H225607   5.884   0.233   0.763
 8556TIP3   OH225608   0.312   3.844   2.492
 8556TIP3    H125609   0.396   3.888   2.509
 8556TIP3    H225610   0.337   3.755   2.466
 8557TIP3   OH225611   6.722   4.763   3.707
 8557TIP3    H125612   6.633   4.794   3.726
 8557TIP3    H225613   6.745   4.708   3.782
 8558TIP3   OH225614   6.036   0.469   5.408
 8558TIP3    H125615   6.060   0.540   5.349
 8558TIP3    H225616   6.001   0.401   5.350
 8559TIP3   OH225617   3.876   4.345   3.859
 8559TIP3    H125618   3.899   4.341   3.766
 8559TIP3    H225619   3.951   4.387   3.901
 8560TIP3   OH225620   0.379   0.471   0.490
 8560TIP3    H125621   0.316   0.424   0.544
 8560TIP3    H225622   0.333   0.551   0.464
 8561TIP3   OH225623   7.786   6.698   6.033
 8561TIP3    H125624   7.835   6.661   6.106
 8561TIP3    H225625   7.705   6.647   6.031
 8562TIP3   OH225626   2.380   1.563   4.104
 8562TIP3    H125627   2.390   1.629   4.035
 8562TIP3    H225628   2.376   1.613   4.185
 8563TIP3   OH225629   4.325   7.403   3.652
 8563TIP3    H125630   4.357   7.463   3.584
 8563TIP3    H225631   4.376   7.322   3.638
 8564TIP3   OH225632   0.389   4.603   4.381
 8564TIP3    H125633   0.330   4.531   4.404
 8564TIP3    H225634   0.447   4.611   4.458
 8565TIP3   OH225635   6.456   2.522   5.279
 8565TIP3    H125636   6.462   2.467   5.200
 8565TIP3    H225637   6.510   2.599   5.258
 8566TIP3   OH225638   8.246   6.986   0.934
 8566TIP3    H125639   8.231   6.910   0.877
 8566TIP3    H225640   8.208   7.059   0.886
 8567TIP3   OH225641   0.994   1.060   2.824
 8567TIP3    H125642   1.077   1.087   2.784
 8567TIP3    H225643   0.994   0.964   2.815
 8568TIP3   OH225644   0.475   6.438   1.914
 8568TIP3    H125645   0.521   6.447   1.998
 8568TIP3    H225646   0.499   6.351   1.883
 8569TIP3   OH225647   1.314   3.428   6.085
 8569TIP3    H125648   1.275   3.399   6.167
 8569TIP3    H225649   1.405   3.398   6.091
 8570TIP3   OH225650   4.595   5.418   5.135
 8570TIP3    H125651   4.545   5.488   5.177
 8570TIP3    H225652   4.538   5.386   5.065
 8571TIP3   OH225653   2.223   0.092   5.470
 8571TIP3    H125654   2.243   0.001   5.489
 8571TIP3    H225655   2.255   0.141   5.546
 8572TIP3   OH225656   0.079   6.754   2.641
 8572TIP3    H125657  -0.014   6.736   2.659
 8572TIP3    H225658   0.093   6.719   2.553
 8573TIP3   OH225659   2.601   6.781   6.132
 8573TIP3    H125660   2.679   6.785   6.188
 8573TIP3    H225661   2.536   6.835   6.177
 8574TIP3   OH225662   7.947   3.068   4.799
 8574TIP3    H125663   7.854   3.083   4.781
 8574TIP3    H225664   7.967   3.129   4.870
 8575TIP3   OH225665   2.995   3.475   4.303
 8575TIP3    H125666   3.073   3.528   4.316
 8575TIP3    H225667   2.930   3.511   4.363
 8576TIP3   OH225668   5.135   5.356   1.026
 8576TIP3    H125669   5.146   5.262   1.009
 8576TIP3    H225670   5.111   5.393   0.941
 8577TIP3   OH225671   0.029   1.595   4.131
 8577TIP3    H125672   0.085   1.559   4.063
 8577TIP3    H225673  -0.028   1.657   4.085
 8578TIP3   OH225674   2.642   7.045   1.551
 8578TIP3    H125675   2.702   7.120   1.548
 8578TIP3    H225676   2.560   7.083   1.582
 8579TIP3   OH225677   7.149   3.067   5.326
 8579TIP3    H125678   7.122   2.991   5.378
 8579TIP3    H225679   7.180   3.029   5.243
 8580TIP3   OH225680   4.969   4.486   3.555
 8580TIP3    H125681   4.979   4.552   3.486
 8580TIP3    H225682   5.019   4.521   3.628
 8581TIP3   OH225683   2.037   2.065   5.981
 8581TIP3    H125684   1.979   2.141   5.978
 8581TIP3    H225685   2.030   2.032   6.070
 8582TIP3   OH225686   7.456   4.669   2.090
 8582TIP3    H125687   7.389   4.634   2.148
 8582TIP3    H225688   7.501   4.736   2.142
 8583TIP3   OH225689   5.762   2.790   2.590
 8583TIP3    H125690   5.750   2.878   2.626
 8583TIP3    H225691   5.821   2.747   2.652
 8584TIP3   OH225692   1.770   7.080   1.261
 8584TIP3    H125693   1.805   7.116   1.180
 8584TIP3    H225694   1.703   7.143   1.290
 8585TIP3   OH225695   1.824   0.110   4.610
 8585TIP3    H125696   1.908   0.063   4.602
 8585TIP3    H225697   1.839   0.194   4.567
 8586TIP3   OH225698   1.273   6.969   4.001
 8586TIP3    H125699   1.251   7.023   3.925
 8586TIP3    H225700   1.266   6.879   3.970
 8587TIP3   OH225701   4.942   3.085   6.257
 8587TIP3    H125702   4.949   3.127   6.343
 8587TIP3    H225703   5.000   3.009   6.263
 8588TIP3   OH225704   1.779   0.371   5.941
 8588TIP3    H125705   1.864   0.368   5.899
 8588TIP3    H225706   1.730   0.298   5.903
 8589TIP3   OH225707   0.689   1.953   0.836
 8589TIP3    H125708   0.621   1.955   0.904
 8589TIP3    H225709   0.755   2.016   0.866
 8590TIP3   OH225710   3.308   2.369   5.310
 8590TIP3    H125711   3.277   2.457   5.289
 8590TIP3    H225712   3.257   2.311   5.253
 8591TIP3   OH225713   0.901   1.085   2.546
 8591TIP3    H125714   0.978   1.029   2.539
 8591TIP3    H225715   0.911   1.130   2.630
 8592TIP3   OH225716   3.870   3.065   5.178
 8592TIP3    H125717   3.839   3.145   5.135
 8592TIP3    H225718   3.936   3.094   5.240
 8593TIP3   OH225719   3.769   0.415   4.018
 8593TIP3    H125720   3.843   0.372   4.061
 8593TIP3    H225721   3.712   0.442   4.091
 8594TIP3   OH225722   5.708   0.784   3.091
 8594TIP3    H125723   5.633   0.727   3.074
 8594TIP3    H225724   5.671   0.860   3.136
 8595TIP3   OH225725   4.444   1.919   0.848
 8595TIP3    H125726   4.373   1.974   0.881
 8595TIP3    H225727   4.517   1.937   0.907
 8596TIP3   OH225728   7.459   2.788   4.372
 8596TIP3    H125729   7.469   2.716   4.435
 8596TIP3    H225730   7.445   2.744   4.288
 8597TIP3   OH225731   0.811   4.396   4.196
 8597TIP3    H125732   0.869   4.430   4.127
 8597TIP3    H225733   0.810   4.466   4.262
 8598TIP3   OH225734   3.229   2.908   2.244
 8598TIP3    H125735   3.215   2.999   2.218
 8598TIP3    H225736   3.151   2.862   2.211
 8599TIP3   OH225737   5.675   3.487   1.646
 8599TIP3    H125738   5.744   3.448   1.591
 8599TIP3    H225739   5.639   3.413   1.695
 8600TIP3   OH225740   3.050   1.979   0.203
 8600TIP3    H125741   3.047   2.008   0.112
 8600TIP3    H225742   3.007   2.050   0.252
 8601TIP3   OH225743   2.563   3.446   2.893
 8601TIP3    H125744   2.580   3.416   2.983
 8601TIP3    H225745   2.526   3.370   2.849
 8602TIP3   OH225746   5.524   0.058   2.905
 8602TIP3    H125747   5.471   0.040   2.982
 8602TIP3    H225748   5.462   0.096   2.842
 8603TIP3   OH225749   0.632   3.671   1.537
 8603TIP3    H125750   0.667   3.707   1.619
 8603TIP3    H225751   0.561   3.613   1.565
 8604TIP3   OH225752   4.917   6.687   4.734
 8604TIP3    H125753   4.855   6.756   4.757
 8604TIP3    H225754   4.996   6.734   4.706
 8605TIP3   OH225755   6.642   5.865   6.087
 8605TIP3    H125756   6.736   5.847   6.076
 8605TIP3    H225757   6.632   5.957   6.060
 8606TIP3   OH225758   5.562   0.119   1.139
 8606TIP3    H125759   5.547   0.027   1.120
 8606TIP3    H225760   5.488   0.165   1.099
 8607TIP3   OH225761   2.405   2.771   2.274
 8607TIP3    H125762   2.478   2.727   2.318
 8607TIP3    H225763   2.327   2.732   2.314
 8608TIP3   OH225764   7.793   3.047   6.343
 8608TIP3    H125765   7.771   3.060   6.435
 8608TIP3    H225766   7.741   3.113   6.296
 8609TIP3   OH225767   2.801   1.759   6.707
 8609TIP3    H125768   2.873   1.814   6.677
 8609TIP3    H225769   2.744   1.750   6.630
 8610TIP3   OH225770   5.768   5.452   2.161
 8610TIP3    H125771   5.862   5.432   2.158
 8610TIP3    H225772   5.734   5.422   2.077
 8611TIP3   OH225773   5.509   3.826   0.443
 8611TIP3    H125774   5.471   3.820   0.531
 8611TIP3    H225775   5.545   3.739   0.426
 8612TIP3   OH225776   0.903   4.668   5.178
 8612TIP3    H125777   0.889   4.684   5.272
 8612TIP3    H225778   0.816   4.644   5.145
 8613TIP3   OH225779   2.272   6.161   1.472
 8613TIP3    H125780   2.312   6.089   1.522
 8613TIP3    H225781   2.191   6.179   1.519
 8614TIP3   OH225782   4.369   6.582   4.966
 8614TIP3    H125783   4.334   6.493   4.976
 8614TIP3    H225784   4.305   6.638   5.010
 8615TIP3   OH225785   2.612   6.395   6.581
 8615TIP3    H125786   2.604   6.380   6.486
 8615TIP3    H225787   2.610   6.307   6.618
 8616TIP3   OH225788   4.697   5.163   3.490
 8616TIP3    H125789   4.609   5.129   3.478
 8616TIP3    H225790   4.699   5.245   3.440
 8617TIP3   OH225791   0.511   5.109   1.619
 8617TIP3    H125792   0.543   5.180   1.675
 8617TIP3    H225793   0.587   5.085   1.565
 8618TIP3   OH225794   1.477   0.954   1.931
 8618TIP3    H125795   1.492   0.944   2.025
 8618TIP3    H225796   1.555   0.999   1.899
 8619TIP3   OH225797   3.212   0.656   3.351
 8619TIP3    H125798   3.135   0.712   3.359
 8619TIP3    H225799   3.287   0.716   3.352
 8620TIP3   OH225800   3.291   3.225   4.908
 8620TIP3    H125801   3.264   3.135   4.925
 8620TIP3    H225802   3.375   3.234   4.952
 8621TIP3   OH225803   0.730   6.351   0.645
 8621TIP3    H125804   0.716   6.331   0.738
 8621TIP3    H225805   0.653   6.402   0.620
 8622TIP3   OH225806   6.002   7.833   3.687
 8622TIP3    H125807   6.044   7.759   3.732
 8622TIP3    H225808   6.011   7.906   3.748
 8623TIP3   OH225809   0.044   4.270   6.689
 8623TIP3    H125810   0.042   4.176   6.677
 8623TIP3    H225811   0.088   4.283   6.773
 8624TIP3   OH225812   3.141   4.077   4.693
 8624TIP3    H125813   3.162   4.142   4.761
 8624TIP3    H225814   3.128   4.129   4.613
 8625TIP3   OH225815   3.251   1.299   4.139
 8625TIP3    H125816   3.305   1.227   4.170
 8625TIP3    H225817   3.173   1.257   4.103
 8626TIP3   OH225818   6.666   0.553   5.668
 8626TIP3    H125819   6.605   0.514   5.605
 8626TIP3    H225820   6.752   0.545   5.626
 8627TIP3   OH225821   5.101   4.278   4.238
 8627TIP3    H125822   5.156   4.343   4.283
 8627TIP3    H225823   5.163   4.210   4.211
 8628TIP3   OH225824   5.162   6.773   1.099
 8628TIP3    H125825   5.079   6.819   1.112
 8628TIP3    H225826   5.224   6.842   1.074
 8629TIP3   OH225827   2.580   4.235   4.358
 8629TIP3    H125828   2.505   4.295   4.366
 8629TIP3    H225829   2.642   4.283   4.302
 8630TIP3   OH225830   1.923   5.252   0.201
 8630TIP3    H125831   1.940   5.174   0.255
 8630TIP3    H225832   1.909   5.322   0.264
 8631TIP3   OH225833   7.301   6.464   6.117
 8631TIP3    H125834   7.256   6.437   6.197
 8631TIP3    H225835   7.239   6.524   6.074
 8632TIP3   OH225836   4.397   5.619   5.243
 8632TIP3    H125837   4.459   5.689   5.225
 8632TIP3    H225838   4.347   5.609   5.162
 8633TIP3   OH225839   4.255   5.561   4.065
 8633TIP3    H125840   4.313   5.599   4.131
 8633TIP3    H225841   4.203   5.635   4.033
 8634TIP3   OH225842   3.704   0.859   5.235
 8634TIP3    H125843   3.672   0.931   5.181
 8634TIP3    H225844   3.625   0.811   5.261
 8635TIP3   OH225845   2.465   6.894   4.607
 8635TIP3    H125846   2.540   6.877   4.664
 8635TIP3    H225847   2.481   6.841   4.529
 8636TIP3   OH225848   0.073   3.323   3.546
 8636TIP3    H125849   0.037   3.315   3.635
 8636TIP3    H225850   0.045   3.243   3.502
 8637TIP3   OH225851   7.935   4.577   0.771
 8637TIP3    H125852   7.922   4.618   0.685
 8637TIP3    H225853   7.851   4.587   0.815
 8638TIP3   OH225854   5.804   1.788   6.169
 8638TIP3    H125855   5.840   1.720   6.111
 8638TIP3    H225856   5.804   1.867   6.115
 8639TIP3   OH225857   6.009   6.274   4.295
 8639TIP3    H125858   6.024   6.310   4.208
 8639TIP3    H225859   5.992   6.350   4.351
 8640TIP3   OH225860   7.035   7.067   3.142
 8640TIP3    H125861   7.062   7.141   3.089
 8640TIP3    H225862   7.118   7.028   3.173
 8641TIP3   OH225863   3.944   5.983   6.212
 8641TIP3    H125864   4.002   6.038   6.160
 8641TIP3    H225865   3.948   5.897   6.169
 8642TIP3   OH225866   1.618   1.174   0.570
 8642TIP3    H125867   1.631   1.242   0.503
 8642TIP3    H225868   1.706   1.147   0.595
 8643TIP3   OH225869   7.671   0.280   2.153
 8643TIP3    H125870   7.684   0.193   2.117
 8643TIP3    H225871   7.632   0.331   2.082
 8644TIP3   OH225872   1.867   3.958   2.218
 8644TIP3    H125873   1.955   3.972   2.181
 8644TIP3    H225874   1.818   3.915   2.148
 8645TIP3   OH225875   1.456   2.375   4.113
 8645TIP3    H125876   1.436   2.282   4.102
 8645TIP3    H225877   1.486   2.404   4.027
 8646TIP3   OH225878   7.902   1.803   3.749
 8646TIP3    H125879   7.861   1.753   3.678
 8646TIP3    H225880   7.943   1.737   3.805
 8647TIP3   OH225881   6.608   3.052   2.149
 8647TIP3    H125882   6.645   3.022   2.232
 8647TIP3    H225883   6.545   3.120   2.174
 8648TIP3   OH225884   3.774   6.639   4.607
 8648TIP3    H125885   3.788   6.689   4.687
 8648TIP3    H225886   3.693   6.591   4.622
 8649TIP3   OH225887   3.287   0.697   5.926
 8649TIP3    H125888   3.265   0.647   5.848
 8649TIP3    H225889   3.261   0.786   5.906
 8650TIP3   OH225890   6.988   0.204   3.493
 8650TIP3    H125891   6.924   0.239   3.555
 8650TIP3    H225892   6.935   0.168   3.422
 8651TIP3   OH225893   0.668   1.197   1.948
 8651TIP3    H125894   0.636   1.249   1.874
 8651TIP3    H225895   0.603   1.210   2.016
 8652TIP3   OH225896   7.433   5.024   3.439
 8652TIP3    H125897   7.462   5.083   3.508
 8652TIP3    H225898   7.437   4.937   3.478
 8653TIP3   OH225899   6.601   0.512   0.386
 8653TIP3    H125900   6.513   0.493   0.353
 8653TIP3    H225901   6.632   0.584   0.331
 8654TIP3   OH225902   7.166   4.809   1.383
 8654TIP3    H125903   7.169   4.757   1.463
 8654TIP3    H225904   7.233   4.771   1.326
 8655TIP3   OH225905   1.014   6.790   6.329
 8655TIP3    H125906   1.012   6.764   6.237
 8655TIP3    H225907   1.088   6.742   6.366
 8656TIP3   OH225908   7.445   7.525   5.962
 8656TIP3    H125909   7.351   7.538   5.952
 8656TIP3    H225910   7.455   7.486   6.049
 8657TIP3   OH225911   4.106   2.909   1.264
 8657TIP3    H125912   4.130   2.969   1.192
 8657TIP3    H225913   4.146   2.948   1.341
 8658TIP3   OH225914   3.253   0.588   0.065
 8658TIP3    H125915   3.339   0.610   0.029
 8658TIP3    H225916   3.192   0.602  -0.008
 8659TIP3   OH225917   4.961   0.254   5.163
 8659TIP3    H125918   4.930   0.336   5.201
 8659TIP3    H225919   5.050   0.243   5.197
 8660TIP3   OH225920   1.867   3.319   6.146
 8660TIP3    H125921   1.891   3.269   6.068
 8660TIP3    H225922   1.773   3.337   6.134
 8661TIP3   OH225923   1.063   3.604   3.357
 8661TIP3    H125924   1.092   3.603   3.449
 8661TIP3    H225925   1.144   3.613   3.307
 8662TIP3   OH225926   4.895   0.508   5.255
 8662TIP3    H125927   4.942   0.575   5.205
 8662TIP3    H225928   4.864   0.554   5.333
 8663TIP3   OH225929   4.567   7.171   3.175
 8663TIP3    H125930   4.531   7.096   3.221
 8663TIP3    H225931   4.509   7.184   3.100
 8664TIP3   OH225932   4.077   1.924   6.700
 8664TIP3    H125933   4.051   1.851   6.756
 8664TIP3    H225934   3.996   1.971   6.682
 8665TIP3   OH225935   4.746   3.955   2.692
 8665TIP3    H125936   4.795   4.034   2.712
 8665TIP3    H225937   4.667   3.986   2.649
 8666TIP3   OH225938   1.851   0.086   3.823
 8666TIP3    H125939   1.931   0.039   3.847
 8666TIP3    H225940   1.782   0.043   3.874
 8667TIP3   OH225941   2.805   6.751   6.345
 8667TIP3    H125942   2.803   6.845   6.364
 8667TIP3    H225943   2.839   6.711   6.425
 8668TIP3   OH225944   7.764   1.469   4.740
 8668TIP3    H125945   7.859   1.473   4.754
 8668TIP3    H225946   7.749   1.380   4.709
 8669TIP3   OH225947   2.361   1.537   6.404
 8669TIP3    H125948   2.436   1.517   6.348
 8669TIP3    H225949   2.319   1.452   6.419
 8670TIP3   OH225950   1.288   2.622   6.314
 8670TIP3    H125951   1.294   2.584   6.401
 8670TIP3    H225952   1.376   2.654   6.295
 8671TIP3   OH225953   7.957   1.865   6.696
 8671TIP3    H125954   7.884   1.862   6.634
 8671TIP3    H225955   7.921   1.828   6.777
 8672TIP3   OH225956   4.488   6.965   0.181
 8672TIP3    H125957   4.562   6.989   0.237
 8672TIP3    H225958   4.413   6.964   0.240
 8673TIP3   OH225959   7.491   4.507   3.752
 8673TIP3    H125960   7.444   4.426   3.772
 8673TIP3    H225961   7.423   4.570   3.728
 8674TIP3   OH225962   3.255   2.191   1.820
 8674TIP3    H125963   3.285   2.268   1.869
 8674TIP3    H225964   3.251   2.121   1.885
 8675TIP3   OH225965   7.403   7.856   5.876
 8675TIP3    H125966   7.419   7.820   5.963
 8675TIP3    H225967   7.489   7.861   5.835
 8676TIP3   OH225968   4.105   7.486   0.557
 8676TIP3    H125969   4.161   7.537   0.497
 8676TIP3    H225970   4.052   7.431   0.500
 8677TIP3   OH225971   7.332   3.034   3.697
 8677TIP3    H125972   7.416   3.063   3.734
 8677TIP3    H225973   7.349   3.027   3.603
 8678TIP3   OH225974   8.237   7.345   3.530
 8678TIP3    H125975   8.261   7.385   3.614
 8678TIP3    H225976   8.153   7.302   3.548
 8679TIP3   OH225977   6.730   6.749   0.039
 8679TIP3    H125978   6.751   6.818   0.102
 8679TIP3    H225979   6.795   6.759  -0.031
 8680TIP3   OH225980   0.829   2.587   0.473
 8680TIP3    H125981   0.921   2.563   0.459
 8680TIP3    H225982   0.816   2.579   0.568
 8681TIP3   OH225983   6.622   2.691   5.141
 8681TIP3    H125984   6.691   2.709   5.206
 8681TIP3    H225985   6.625   2.767   5.083
 8682TIP3   OH225986   7.422   4.062   1.575
 8682TIP3    H125987   7.376   4.014   1.643
 8682TIP3    H225988   7.434   4.150   1.611
 8683TIP3   OH225989   2.489   5.761   6.533
 8683TIP3    H125990   2.556   5.792   6.594
 8683TIP3    H225991   2.407   5.774   6.580
 8684TIP3   OH225992   1.341   7.902   1.839
 8684TIP3    H125993   1.400   7.832   1.867
 8684TIP3    H225994   1.284   7.861   1.774
 8685TIP3   OH225995   0.041   2.313   3.488
 8685TIP3    H125996  -0.015   2.309   3.565
 8685TIP3    H225997  -0.012   2.277   3.417
 8686TIP3   OH225998   0.520   4.201   1.111
 8686TIP3    H125999   0.444   4.149   1.135
 8686TIP3    H226000   0.575   4.200   1.189
 8687TIP3   OH226001   2.421   6.582   1.414
 8687TIP3    H126002   2.499   6.638   1.414
 8687TIP3    H226003   2.395   6.577   1.322
 8688TIP3   OH226004   0.882   1.892   5.943
 8688TIP3    H126005   0.893   1.963   6.006
 8688TIP3    H226006   0.791   1.865   5.953
 8689TIP3   OH226007   5.078   5.839   4.984
 8689TIP3    H126008   5.012   5.773   4.964
 8689TIP3    H226009   5.158   5.789   4.997
 8690TIP3   OH226010   3.656   6.574   2.443
 8690TIP3    H126011   3.573   6.547   2.404
 8690TIP3    H226012   3.633   6.638   2.510
 8691TIP3   OH226013   3.308   5.729   2.581
 8691TIP3    H126014   3.389   5.772   2.608
 8691TIP3    H226015   3.290   5.765   2.494
 8692TIP3   OH226016   2.846   4.044   3.927
 8692TIP3    H126017   2.863   4.000   4.010
 8692TIP3    H226018   2.932   4.073   3.896
 8693TIP3   OH226019   5.813   5.092   0.996
 8693TIP3    H126020   5.734   5.143   1.014
 8693TIP3    H226021   5.824   5.036   1.073
 8694TIP3   OH226022   5.689   1.359   0.933
 8694TIP3    H126023   5.647   1.418   0.872
 8694TIP3    H226024   5.783   1.372   0.919
 8695TIP3   OH226025   6.472   0.443   5.499
 8695TIP3    H126026   6.452   0.522   5.448
 8695TIP3    H226027   6.508   0.381   5.436
 8696TIP3   OH226028   8.076   4.932   1.429
 8696TIP3    H126029   8.150   4.883   1.392
 8696TIP3    H226030   8.009   4.929   1.360
 8697TIP3   OH226031   7.342   7.484   3.325
 8697TIP3    H126032   7.364   7.440   3.243
 8697TIP3    H226033   7.328   7.575   3.300
 8698TIP3   OH226034   2.143   3.482   4.635
 8698TIP3    H126035   2.150   3.405   4.691
 8698TIP3    H226036   2.122   3.553   4.695
 8699TIP3   OH226037   1.938   0.852   2.929
 8699TIP3    H126038   1.942   0.801   2.848
 8699TIP3    H226039   1.892   0.933   2.905
 8700TIP3   OH226040   2.744   0.554   2.297
 8700TIP3    H126041   2.770   0.469   2.333
 8700TIP3    H226042   2.823   0.608   2.304
 8701TIP3   OH226043   7.867   3.795   0.212
 8701TIP3    H126044   7.927   3.789   0.137
 8701TIP3    H226045   7.887   3.718   0.265
 8702TIP3   OH226046   5.153   2.817   4.308
 8702TIP3    H126047   5.058   2.817   4.300
 8702TIP3    H226048   5.185   2.848   4.223
 8703TIP3   OH226049   6.047   0.843   5.342
 8703TIP3    H126050   6.111   0.775   5.326
 8703TIP3    H226051   5.964   0.807   5.310
 8704TIP3   OH226052   0.790   5.998   5.712
 8704TIP3    H126053   0.805   5.964   5.800
 8704TIP3    H226054   0.858   5.958   5.658
 8705TIP3   OH226055   7.494   5.355   0.948
 8705TIP3    H126056   7.413   5.360   0.999
 8705TIP3    H226057   7.547   5.428   0.980
 8706TIP3   OH226058   7.300   3.257   4.148
 8706TIP3    H126059   7.346   3.268   4.231
 8706TIP3    H226060   7.208   3.272   4.169
 8707TIP3   OH226061   0.138   6.161   3.848
 8707TIP3    H126062   0.099   6.093   3.902
 8707TIP3    H226063   0.159   6.117   3.765
 8708TIP3   OH226064   0.709   2.929   3.823
 8708TIP3    H126065   0.778   2.985   3.787
 8708TIP3    H226066   0.634   2.944   3.765
 8709TIP3   OH226067   4.819   1.928   6.723
 8709TIP3    H126068   4.754   1.941   6.791
 8709TIP3    H226069   4.804   1.838   6.693
 8710TIP3   OH226070   0.269   1.968   0.619
 8710TIP3    H126071   0.230   1.938   0.537
 8710TIP3    H226072   0.254   2.063   0.620
 8711TIP3   OH226073   2.406   2.475   5.209
 8711TIP3    H126074   2.465   2.535   5.255
 8711TIP3    H226075   2.369   2.420   5.278
 8712TIP3   OH226076   0.055   2.909   4.507
 8712TIP3    H126077   0.098   2.889   4.424
 8712TIP3    H226078  -0.011   2.976   4.484
 8713TIP3   OH226079   8.313   2.908   5.244
 8713TIP3    H126080   8.387   2.870   5.291
 8713TIP3    H226081   8.305   2.997   5.279
 8714TIP3   OH226082   4.658   3.845   0.698
 8714TIP3    H126083   4.605   3.778   0.655
 8714TIP3    H226084   4.743   3.803   0.714
 8715TIP3   OH226085   5.139   1.731   4.087
 8715TIP3    H126086   5.162   1.646   4.124
 8715TIP3    H226087   5.209   1.790   4.115
 8716TIP3   OH226088   3.054   3.625   1.499
 8716TIP3    H126089   3.097   3.602   1.582
 8716TIP3    H226090   3.126   3.646   1.440
 8717TIP3   OH226091   2.426   1.817   1.527
 8717TIP3    H126092   2.509   1.861   1.547
 8717TIP3    H226093   2.418   1.822   1.432
 8718TIP3   OH226094   1.349   2.403   0.435
 8718TIP3    H126095   1.435   2.366   0.416
 8718TIP3    H226096   1.290   2.361   0.372
 8719TIP3   OH226097   1.064   2.846   6.528
 8719TIP3    H126098   1.159   2.846   6.539
 8719TIP3    H226099   1.043   2.755   6.506
 8720TIP3   OH226100   3.301   2.456   6.191
 8720TIP3    H126101   3.341   2.533   6.151
 8720TIP3    H226102   3.372   2.415   6.241
 8721TIP3   OH226103   8.063   2.876   5.165
 8721TIP3    H126104   8.152   2.909   5.178
 8721TIP3    H226105   8.060   2.848   5.074
 8722TIP3   OH226106   0.175   1.412   6.120
 8722TIP3    H126107   0.261   1.379   6.094
 8722TIP3    H226108   0.144   1.350   6.186
 8723TIP3   OH226109   1.148   7.217   1.199
 8723TIP3    H126110   1.066   7.249   1.236
 8723TIP3    H226111   1.182   7.156   1.264
 8724TIP3   OH226112   7.832   0.761   0.700
 8724TIP3    H126113   7.887   0.831   0.734
 8724TIP3    H226114   7.792   0.721   0.778
 8725TIP3   OH226115   1.613   2.666   4.093
 8725TIP3    H126116   1.532   2.699   4.055
 8725TIP3    H226117   1.625   2.580   4.055
 8726TIP3   OH226118   5.276   3.072   1.396
 8726TIP3    H126119   5.273   3.102   1.487
 8726TIP3    H226120   5.242   3.146   1.346
 8727TIP3   OH226121   4.367   6.226   4.403
 8727TIP3    H126122   4.347   6.158   4.339
 8727TIP3    H226123   4.451   6.200   4.440
 8728TIP3   OH226124   2.035   2.009   0.443
 8728TIP3    H126125   2.043   2.089   0.392
 8728TIP3    H226126   2.006   2.038   0.529
 8729TIP3   OH226127   1.309   3.908   4.309
 8729TIP3    H126128   1.315   3.954   4.225
 8729TIP3    H226129   1.216   3.886   4.318
 8730TIP3   OH226130   2.503   3.893   6.508
 8730TIP3    H126131   2.547   3.917   6.427
 8730TIP3    H226132   2.572   3.897   6.575
 8731TIP3   OH226133   6.374   2.796   5.869
 8731TIP3    H126134   6.465   2.803   5.899
 8731TIP3    H226135   6.336   2.729   5.927
 8732TIP3   OH226136   0.062   1.780   4.540
 8732TIP3    H126137   0.154   1.799   4.561
 8732TIP3    H226138   0.064   1.692   4.502
 8733TIP3   OH226139   2.836   6.389   0.896
 8733TIP3    H126140   2.919   6.354   0.865
 8733TIP3    H226141   2.770   6.347   0.841
 8734TIP3   OH226142   7.123   1.424   0.014
 8734TIP3    H126143   7.213   1.457   0.016
 8734TIP3    H226144   7.129   1.338   0.056
 8735TIP3   OH226145   1.548   1.365   0.352
 8735TIP3    H126146   1.526   1.451   0.385
 8735TIP3    H226147   1.466   1.332   0.314
 8736TIP3   OH226148   5.023   2.691   1.764
 8736TIP3    H126149   4.968   2.678   1.687
 8736TIP3    H226150   5.107   2.719   1.728
 8737TIP3   OH226151   0.222   2.296   0.011
 8737TIP3    H126152   0.146   2.353   0.010
 8737TIP3    H226153   0.203   2.230  -0.056
 8738TIP3   OH226154   4.679   0.125   1.553
 8738TIP3    H126155   4.599   0.169   1.581
 8738TIP3    H226156   4.651   0.038   1.526
 8739TIP3   OH226157   7.990   7.550   0.260
 8739TIP3    H126158   7.941   7.629   0.283
 8739TIP3    H226159   8.068   7.584   0.214
 8740TIP3   OH226160   5.508   6.241   2.184
 8740TIP3    H126161   5.425   6.198   2.202
 8740TIP3    H226162   5.505   6.323   2.234
 8741TIP3   OH226163   2.783   0.086   2.272
 8741TIP3    H126164   2.717   0.147   2.307
 8741TIP3    H226165   2.736   0.039   2.203
 8742TIP3   OH226166   3.395   2.117   5.362
 8742TIP3    H126167   3.371   2.210   5.368
 8742TIP3    H226168   3.487   2.117   5.338
 8743TIP3   OH226169   3.052   2.702   3.832
 8743TIP3    H126170   3.136   2.670   3.800
 8743TIP3    H226171   3.024   2.635   3.896
 8744TIP3   OH226172   3.474   1.125   0.686
 8744TIP3    H126173   3.569   1.136   0.691
 8744TIP3    H226174   3.438   1.208   0.716
 8745TIP3   OH226175   4.683   5.046   0.197
 8745TIP3    H126176   4.694   4.951   0.206
 8745TIP3    H226177   4.772   5.080   0.193
 8746TIP3   OH226178   7.381   2.472   2.903
 8746TIP3    H126179   7.462   2.523   2.903
 8746TIP3    H226180   7.385   2.420   2.983
 8747TIP3   OH226181   3.860   6.334   2.172
 8747TIP3    H126182   3.776   6.378   2.182
 8747TIP3    H226183   3.846   6.246   2.209
 8748TIP3   OH226184   0.432   0.201   2.777
 8748TIP3    H126185   0.345   0.193   2.817
 8748TIP3    H226186   0.464   0.286   2.807
 8749TIP3   OH226187   2.192   2.048   1.417
 8749TIP3    H126188   2.221   1.977   1.360
 8749TIP3    H226189   2.194   2.126   1.361
 8750TIP3   OH226190   2.196   6.514   0.418
 8750TIP3    H126191   2.268   6.534   0.478
 8750TIP3    H226192   2.157   6.434   0.452
 8751TIP3   OH226193   5.379   1.298   0.626
 8751TIP3    H126194   5.453   1.265   0.575
 8751TIP3    H226195   5.302   1.258   0.586
 8752TIP3   OH226196   6.288   0.772   1.514
 8752TIP3    H126197   6.220   0.705   1.512
 8752TIP3    H226198   6.253   0.844   1.461
 8753TIP3   OH226199   0.955   1.518   6.170
 8753TIP3    H126200   0.975   1.502   6.262
 8753TIP3    H226201   1.038   1.506   6.124
 8754TIP3   OH226202   4.743   4.111   4.671
 8754TIP3    H126203   4.711   4.192   4.631
 8754TIP3    H226204   4.678   4.090   4.737
 8755TIP3   OH226205   0.972   0.116   0.048
 8755TIP3    H126206   0.982   0.205   0.016
 8755TIP3    H226207   0.968   0.062  -0.031
 8756TIP3   OH226208   1.459   3.732   1.418
 8756TIP3    H126209   1.473   3.761   1.508
 8756TIP3    H226210   1.546   3.710   1.385
 8757TIP3   OH226211   2.861   6.955   1.019
 8757TIP3    H126212   2.897   6.920   0.937
 8757TIP3    H226213   2.873   6.885   1.083
 8758TIP3   OH226214   0.190   3.116   2.894
 8758TIP3    H126215   0.123   3.091   2.831
 8758TIP3    H226216   0.223   3.200   2.863
 8759TIP3   OH226217   6.408   2.508   4.130
 8759TIP3    H126218   6.440   2.476   4.215
 8759TIP3    H226219   6.404   2.430   4.075
 8760TIP3   OH226220   6.168   5.666   3.003
 8760TIP3    H126221   6.248   5.714   2.982
 8760TIP3    H226222   6.165   5.665   3.099
 8761TIP3   OH226223   0.834   0.105   0.290
 8761TIP3    H126224   0.865   0.186   0.330
 8761TIP3    H226225   0.873   0.105   0.202
 8762TIP3   OH226226   4.566   4.050   4.858
 8762TIP3    H126227   4.611   3.967   4.842
 8762TIP3    H226228   4.533   4.043   4.948
 8763TIP3   OH226229   6.200   1.876   5.941
 8763TIP3    H126230   6.162   1.798   5.981
 8763TIP3    H226231   6.126   1.921   5.899
 8764TIP3   OH226232   8.393   3.092   0.658
 8764TIP3    H126233   8.410   3.076   0.751
 8764TIP3    H226234   8.303   3.125   0.655
 8765TIP3   OH226235   7.867   0.626   5.371
 8765TIP3    H126236   7.922   0.557   5.334
 8765TIP3    H226237   7.859   0.691   5.301
 8766TIP3   OH226238   3.632   2.653   2.015
 8766TIP3    H126239   3.706   2.662   2.075
 8766TIP3    H226240   3.555   2.647   2.072
 8767TIP3   OH226241   6.879   0.385   3.076
 8767TIP3    H126242   6.795   0.339   3.081
 8767TIP3    H226243   6.855   0.478   3.066
 8768TIP3   OH226244   7.631   5.831   5.174
 8768TIP3    H126245   7.674   5.794   5.097
 8768TIP3    H226246   7.647   5.925   5.168
 8769TIP3   OH226247   0.681   7.419   6.343
 8769TIP3    H126248   0.710   7.498   6.298
 8769TIP3    H226249   0.586   7.419   6.334
 8770TIP3   OH226250   1.534   7.542   5.088
 8770TIP3    H126251   1.498   7.595   5.159
 8770TIP3    H226252   1.473   7.553   5.015
 8771TIP3   OH226253   1.919   0.519   1.400
 8771TIP3    H126254   1.852   0.502   1.333
 8771TIP3    H226255   1.901   0.608   1.429
 8772TIP3   OH226256   3.776   5.248   6.189
 8772TIP3    H126257   3.835   5.324   6.185
 8772TIP3    H226258   3.835   5.172   6.183
 8773TIP3   OH226259   0.559   6.559   0.564
 8773TIP3    H126260   0.498   6.617   0.518
 8773TIP3    H226261   0.568   6.597   0.652
 8774TIP3   OH226262   4.046   5.975   2.364
 8774TIP3    H126263   4.032   5.938   2.277
 8774TIP3    H226264   4.093   6.057   2.349
 8775TIP3   OH226265   1.191   3.752   6.546
 8775TIP3    H126266   1.121   3.787   6.601
 8775TIP3    H226267   1.199   3.814   6.474
 8776TIP3   OH226268   5.509   1.487   3.855
 8776TIP3    H126269   5.507   1.520   3.945
 8776TIP3    H226270   5.601   1.498   3.828
 8777TIP3   OH226271   4.636   2.020   1.035
 8777TIP3    H126272   4.714   2.047   1.085
 8777TIP3    H226273   4.588   1.963   1.095
 8778TIP3   OH226274   1.460   6.560   2.935
 8778TIP3    H126275   1.550   6.562   2.903
 8778TIP3    H226276   1.409   6.606   2.868
 8779TIP3   OH226277   2.612   2.299   1.642
 8779TIP3    H126278   2.556   2.376   1.635
 8779TIP3    H226279   2.697   2.328   1.608
 8780TIP3   OH226280   3.363   5.539   1.286
 8780TIP3    H126281   3.349   5.452   1.323
 8780TIP3    H226282   3.354   5.528   1.192
 8781TIP3   OH226283   8.101   6.814   1.530
 8781TIP3    H126284   8.066   6.886   1.583
 8781TIP3    H226285   8.027   6.785   1.476
 8782TIP3   OH226286   6.290   6.765   0.433
 8782TIP3    H126287   6.341   6.685   0.444
 8782TIP3    H226288   6.229   6.765   0.507
 8783TIP3   OH226289   2.991   0.876   5.978
 8783TIP3    H126290   3.077   0.917   5.981
 8783TIP3    H226291   2.953   0.906   5.896
 8784TIP3   OH226292   8.219   7.396   0.412
 8784TIP3    H126293   8.210   7.424   0.321
 8784TIP3    H226294   8.216   7.300   0.408
 8785TIP3   OH226295   4.535   5.393   3.025
 8785TIP3    H126296   4.444   5.412   3.047
 8785TIP3    H226297   4.530   5.339   2.946
 8786TIP3   OH226298   2.411   4.000   3.636
 8786TIP3    H126299   2.391   3.963   3.550
 8786TIP3    H226300   2.503   4.024   3.631
 8787TIP3   OH226301   7.324   0.786   5.033
 8787TIP3    H126302   7.376   0.782   4.952
 8787TIP3    H226303   7.265   0.860   5.020
 8788TIP3   OH226304   1.893   3.600   0.241
 8788TIP3    H126305   1.886   3.678   0.297
 8788TIP3    H226306   1.810   3.554   0.254
 8789TIP3   OH226307   4.087   6.895   0.562
 8789TIP3    H126308   4.157   6.943   0.606
 8789TIP3    H226309   4.018   6.960   0.548
 8790TIP3   OH226310   6.250   0.873   6.090
 8790TIP3    H126311   6.247   0.781   6.063
 8790TIP3    H226312   6.192   0.878   6.166
 8791TIP3   OH226313   5.649   7.750   0.136
 8791TIP3    H126314   5.641   7.729   0.229
 8791TIP3    H226315   5.685   7.671   0.097
 8792TIP3   OH226316   1.962   6.272   5.047
 8792TIP3    H126317   2.022   6.330   4.999
 8792TIP3    H226318   1.966   6.189   5.000
 8793TIP3   OH226319   6.733   1.136   4.719
 8793TIP3    H126320   6.650   1.167   4.756
 8793TIP3    H226321   6.775   1.088   4.791
 8794TIP3   OH226322   0.738   1.149   0.292
 8794TIP3    H126323   0.712   1.070   0.340
 8794TIP3    H226324   0.815   1.123   0.242
 8795TIP3   OH226325   2.922   6.410   2.705
 8795TIP3    H126326   2.892   6.471   2.772
 8795TIP3    H226327   2.886   6.444   2.623
 8796TIP3   OH226328   2.073   6.500   3.755
 8796TIP3    H126329   2.009   6.500   3.684
 8796TIP3    H226330   2.071   6.411   3.789
 8797TIP3   OH226331   0.489   0.073   1.209
 8797TIP3    H126332   0.459   0.125   1.134
 8797TIP3    H226333   0.428   0.096   1.279
 8798TIP3   OH226334   7.582   0.988   6.123
 8798TIP3    H126335   7.492   0.969   6.097
 8798TIP3    H226336   7.636   0.927   6.073
 8799TIP3   OH226337   3.949   3.640   4.405
 8799TIP3    H126338   3.977   3.563   4.454
 8799TIP3    H226339   3.952   3.613   4.314
 8800TIP3   OH226340   2.751   7.467   3.157
 8800TIP3    H126341   2.776   7.397   3.096
 8800TIP3    H226342   2.761   7.547   3.106
 8801TIP3   OH226343   2.835   6.468   3.341
 8801TIP3    H126344   2.930   6.467   3.353
 8801TIP3    H226345   2.820   6.526   3.267
 8802TIP3   OH226346   7.705   2.430   3.158
 8802TIP3    H126347   7.707   2.345   3.113
 8802TIP3    H226348   7.744   2.490   3.095
 8803TIP3   OH226349   7.418   7.105   6.149
 8803TIP3    H126350   7.361   7.102   6.226
 8803TIP3    H226351   7.485   7.040   6.167
 8804TIP3   OH226352   7.064   7.445   3.650
 8804TIP3    H126353   7.139   7.459   3.708
 8804TIP3    H226354   7.002   7.396   3.703
 8805TIP3   OH226355   1.424   2.402   2.873
 8805TIP3    H126356   1.393   2.488   2.903
 8805TIP3    H226357   1.343   2.352   2.858
 8806TIP3   OH226358   8.176   6.819   4.974
 8806TIP3    H126359   8.251   6.768   4.943
 8806TIP3    H226360   8.206   6.858   5.057
 8807TIP3   OH226361   7.743   2.659   1.722
 8807TIP3    H126362   7.802   2.729   1.695
 8807TIP3    H226363   7.759   2.589   1.659
 8808TIP3   OH226364   6.106   7.458   1.825
 8808TIP3    H126365   6.096   7.480   1.918
 8808TIP3    H226366   6.199   7.471   1.807
 8809TIP3   OH226367   3.483   2.999   4.224
 8809TIP3    H126368   3.543   3.011   4.298
 8809TIP3    H226369   3.397   2.986   4.263
 8810TIP3   OH226370   6.938   4.410   4.486
 8810TIP3    H126371   7.007   4.422   4.422
 8810TIP3    H226372   6.984   4.402   4.570
 8811TIP3   OH226373   4.470   4.662   3.821
 8811TIP3    H126374   4.522   4.708   3.888
 8811TIP3    H226375   4.379   4.685   3.842
 8812TIP3   OH226376   1.071   3.680   1.117
 8812TIP3    H126377   1.115   3.741   1.176
 8812TIP3    H226378   1.002   3.640   1.171
 8813TIP3   OH226379   5.321   3.770   2.723
 8813TIP3    H126380   5.356   3.857   2.744
 8813TIP3    H226381   5.287   3.780   2.634
 8814TIP3   OH226382   1.582   5.075   1.789
 8814TIP3    H126383   1.654   5.043   1.734
 8814TIP3    H226384   1.524   4.999   1.798
 8815TIP3   OH226385   2.219   6.704   5.095
 8815TIP3    H126386   2.129   6.735   5.084
 8815TIP3    H226387   2.272   6.767   5.046
 8816TIP3   OH226388   6.845   4.301   0.384
 8816TIP3    H126389   6.803   4.369   0.332
 8816TIP3    H226390   6.858   4.341   0.470
 8817TIP3   OH226391   1.995   4.132   2.011
 8817TIP3    H126392   1.905   4.111   2.038
 8817TIP3    H226393   2.049   4.067   2.057
 8818TIP3   OH226394   3.703   5.350   5.438
 8818TIP3    H126395   3.777   5.410   5.424
 8818TIP3    H226396   3.711   5.325   5.530
 8819TIP3   OH226397   6.139   0.583   0.091
 8819TIP3    H126398   6.083   0.657   0.118
 8819TIP3    H226399   6.170   0.607   0.004
 8820TIP3   OH226400   2.548   4.794   5.044
 8820TIP3    H126401   2.599   4.724   5.004
 8820TIP3    H226402   2.610   4.839   5.101
 8821TIP3   OH226403   5.837   0.285   5.202
 8821TIP3    H126404   5.835   0.253   5.292
 8821TIP3    H226405   5.790   0.219   5.152
 8822TIP3   OH226406   4.310   6.463   2.675
 8822TIP3    H126407   4.333   6.468   2.582
 8822TIP3    H226408   4.389   6.432   2.718
 8823TIP3   OH226409   7.543   0.455   1.327
 8823TIP3    H126410   7.478   0.385   1.330
 8823TIP3    H226411   7.562   0.467   1.234
 8824TIP3   OH226412   5.225   0.643   1.473
 8824TIP3    H126413   5.145   0.694   1.465
 8824TIP3    H226414   5.205   0.560   1.428
 8825TIP3   OH226415   4.149   0.506   0.336
 8825TIP3    H126416   4.157   0.601   0.335
 8825TIP3    H226417   4.239   0.474   0.331
 8826TIP3   OH226418   0.483   3.402   4.013
 8826TIP3    H126419   0.404   3.380   4.064
 8826TIP3    H226420   0.471   3.493   3.988
 8827TIP3   OH226421   7.827   6.277   5.218
 8827TIP3    H126422   7.734   6.276   5.241
 8827TIP3    H226423   7.873   6.262   5.301
 8828TIP3   OH226424   7.095   6.869   1.243
 8828TIP3    H126425   7.141   6.796   1.202
 8828TIP3    H226426   7.033   6.899   1.177
 8829TIP3   OH226427   5.347   3.383   2.637
 8829TIP3    H126428   5.353   3.450   2.570
 8829TIP3    H226429   5.335   3.301   2.589
 8830TIP3   OH226430   7.015   2.144   4.050
 8830TIP3    H126431   7.061   2.191   4.119
 8830TIP3    H226432   6.975   2.212   3.996
 8831TIP3   OH226433   0.284   5.762   1.761
 8831TIP3    H126434   0.212   5.705   1.733
 8831TIP3    H226435   0.315   5.722   1.843
 8832TIP3   OH226436   4.500   4.828   4.810
 8832TIP3    H126437   4.470   4.891   4.876
 8832TIP3    H226438   4.488   4.743   4.851
 8833TIP3   OH226439   1.314   6.236   2.436
 8833TIP3    H126440   1.388   6.178   2.419
 8833TIP3    H226441   1.275   6.252   2.350
 8834TIP3   OH226442   3.525   2.494   4.913
 8834TIP3    H126443   3.442   2.482   4.867
 8834TIP3    H226444   3.543   2.588   4.906
 8835TIP3   OH226445   3.915   5.257   1.797
 8835TIP3    H126446   3.843   5.283   1.740
 8835TIP3    H226447   3.930   5.333   1.853
 8836TIP3   OH226448   5.032   0.133   6.226
 8836TIP3    H126449   5.034   0.106   6.134
 8836TIP3    H226450   5.100   0.200   6.232
 8837TIP3   OH226451   4.992   6.250   4.140
 8837TIP3    H126452   5.058   6.195   4.179
 8837TIP3    H226453   5.029   6.339   4.143
 8838TIP3   OH226454   5.420   1.742   2.965
 8838TIP3    H126455   5.349   1.745   2.900
 8838TIP3    H226456   5.374   1.733   3.049
 8839TIP3   OH226457   4.805   1.558   4.448
 8839TIP3    H126458   4.897   1.580   4.436
 8839TIP3    H226459   4.764   1.574   4.363
 8840TIP3   OH226460   7.831   0.362   6.497
 8840TIP3    H126461   7.838   0.320   6.411
 8840TIP3    H226462   7.792   0.295   6.553
 8841TIP3   OH226463   0.464   3.692   3.957
 8841TIP3    H126464   0.524   3.762   3.934
 8841TIP3    H226465   0.377   3.731   3.947
 8842TIP3   OH226466   3.311   1.381   0.120
 8842TIP3    H126467   3.282   1.351   0.206
 8842TIP3    H226468   3.328   1.301   0.070
 8843TIP3   OH226469   4.289   6.924   6.441
 8843TIP3    H126470   4.294   6.985   6.514
 8843TIP3    H226471   4.251   6.844   6.479
 8844TIP3   OH226472   0.788   6.468   6.395
 8844TIP3    H126473   0.865   6.412   6.404
 8844TIP3    H226474   0.767   6.496   6.484
 8845TIP3   OH226475   1.250   4.354   1.625
 8845TIP3    H126476   1.163   4.363   1.665
 8845TIP3    H226477   1.239   4.286   1.559
 8846TIP3   OH226478   7.657   7.455   6.395
 8846TIP3    H126479   7.700   7.504   6.464
 8846TIP3    H226480   7.583   7.412   6.438
 8847TIP3   OH226481   5.272   0.189   2.856
 8847TIP3    H126482   5.252   0.125   2.925
 8847TIP3    H226483   5.196   0.185   2.798
 8848TIP3   OH226484   4.213   5.592   1.957
 8848TIP3    H126485   4.225   5.507   1.999
 8848TIP3    H226486   4.221   5.655   2.028
 8849TIP3   OH226487   3.880   1.172   4.231
 8849TIP3    H126488   3.862   1.265   4.215
 8849TIP3    H226489   3.802   1.139   4.275
 8850TIP3   OH226490   8.229   2.839   0.146
 8850TIP3    H126491   8.260   2.902   0.081
 8850TIP3    H226492   8.289   2.849   0.220
 8851TIP3   OH226493   1.228   7.821   5.096
 8851TIP3    H126494   1.157   7.820   5.160
 8851TIP3    H226495   1.239   7.913   5.073
 8852TIP3   OH226496   7.529   6.219   0.601
 8852TIP3    H126497   7.552   6.176   0.684
 8852TIP3    H226498   7.529   6.148   0.537
 8853TIP3   OH226499   7.287   3.807   6.181
 8853TIP3    H126500   7.253   3.854   6.257
 8853TIP3    H226501   7.240   3.724   6.180
 8854TIP3   OH226502   0.619   1.819   5.934
 8854TIP3    H126503   0.554   1.887   5.913
 8854TIP3    H226504   0.567   1.745   5.964
 8855TIP3   OH226505   8.014   3.893   3.789
 8855TIP3    H126506   8.044   3.902   3.698
 8855TIP3    H226507   8.002   3.799   3.801
 8856TIP3   OH226508   5.754   0.400   6.265
 8856TIP3    H126509   5.715   0.440   6.188
 8856TIP3    H226510   5.843   0.376   6.238
 8857TIP3   OH226511   0.024   4.327   1.684
 8857TIP3    H126512   0.047   4.333   1.591
 8857TIP3    H226513   0.106   4.344   1.730
 8858TIP3   OH226514   0.974   1.987   4.416
 8858TIP3    H126515   0.951   2.070   4.375
 8858TIP3    H226516   0.889   1.947   4.437
 8859TIP3   OH226517   0.216   2.994   0.142
 8859TIP3    H126518   0.129   3.033   0.141
 8859TIP3    H226519   0.262   3.039   0.213
 8860TIP3   OH226520   0.280   6.601   6.801
 8860TIP3    H126521   0.213   6.613   6.734
 8860TIP3    H226522   0.303   6.690   6.828
 8861TIP3   OH226523   4.318   1.832   4.988
 8861TIP3    H126524   4.313   1.926   4.968
 8861TIP3    H226525   4.351   1.828   5.078
 8862TIP3   OH226526   7.313   4.088   5.914
 8862TIP3    H126527   7.284   4.178   5.894
 8862TIP3    H226528   7.241   4.051   5.966
 8863TIP3   OH226529   3.063   6.931   6.202
 8863TIP3    H126530   3.041   6.967   6.116
 8863TIP3    H226531   2.990   6.959   6.258
 8864TIP3   OH226532   5.748   3.380   5.513
 8864TIP3    H126533   5.696   3.448   5.472
 8864TIP3    H226534   5.839   3.404   5.495
 8865TIP3   OH226535   6.325   6.718   0.096
 8865TIP3    H126536   6.239   6.714   0.055
 8865TIP3    H226537   6.310   6.760   0.181
 8866TIP3   OH226538   7.102   2.802   5.466
 8866TIP3    H126539   7.134   2.719   5.431
 8866TIP3    H226540   7.088   2.785   5.559
 8867TIP3   OH226541   3.945   3.452   6.112
 8867TIP3    H126542   4.037   3.429   6.118
 8867TIP3    H226543   3.944   3.547   6.105
 8868TIP3   OH226544   7.767   2.633   5.431
 8868TIP3    H126545   7.718   2.600   5.507
 8868TIP3    H226546   7.739   2.578   5.358
 8869TIP3   OH226547   7.437   3.835   1.114
 8869TIP3    H126548   7.461   3.907   1.173
 8869TIP3    H226549   7.404   3.767   1.172
 8870TIP3   OH226550   3.241   2.165   2.389
 8870TIP3    H126551   3.301   2.222   2.437
 8870TIP3    H226552   3.232   2.087   2.445
 8871TIP3   OH226553   8.364   3.825   4.251
 8871TIP3    H126554   8.314   3.855   4.175
 8871TIP3    H226555   8.340   3.886   4.321
 8872TIP3   OH226556   2.778   5.309   4.811
 8872TIP3    H126557   2.854   5.359   4.840
 8872TIP3    H226558   2.718   5.312   4.885
 8873TIP3   OH226559   3.548   1.540   0.156
 8873TIP3    H126560   3.578   1.540   0.065
 8873TIP3    H226561   3.475   1.477   0.157
 8874TIP3   OH226562   2.048   1.782   5.180
 8874TIP3    H126563   2.038   1.721   5.253
 8874TIP3    H226564   2.138   1.769   5.150
 8875TIP3   OH226565   1.301   6.717   3.918
 8875TIP3    H126566   1.331   6.710   3.827
 8875TIP3    H226567   1.287   6.626   3.945
 8876TIP3   OH226568   6.416   0.825   3.197
 8876TIP3    H126569   6.480   0.874   3.251
 8876TIP3    H226570   6.331   0.847   3.236
 8877TIP3   OH226571   6.279   4.092   2.764
 8877TIP3    H126572   6.201   4.098   2.818
 8877TIP3    H226573   6.346   4.055   2.822
 8878TIP3   OH226574   0.882   0.108   1.665
 8878TIP3    H126575   0.879   0.017   1.696
 8878TIP3    H226576   0.965   0.142   1.699
 8879TIP3   OH226577   5.545   0.652   5.015
 8879TIP3    H126578   5.580   0.617   5.097
 8879TIP3    H226579   5.622   0.681   4.966
 8880TIP3   OH226580   3.424   1.088   5.132
 8880TIP3    H126581   3.389   1.177   5.124
 8880TIP3    H226582   3.472   1.088   5.215
 8881TIP3   OH226583   7.939   6.379   1.435
 8881TIP3    H126584   7.976   6.297   1.401
 8881TIP3    H226585   7.876   6.406   1.369
 8882TIP3   OH226586   0.614   3.545   5.059
 8882TIP3    H126587   0.550   3.609   5.090
 8882TIP3    H226588   0.602   3.544   4.964
 8883TIP3   OH226589   3.540   7.812   1.092
 8883TIP3    H126590   3.477   7.792   1.161
 8883TIP3    H226591   3.501   7.886   1.045
 8884TIP3   OH226592   4.092   6.013   5.752
 8884TIP3    H126593   4.147   5.974   5.819
 8884TIP3    H226594   4.046   5.939   5.712
 8885TIP3   OH226595   6.711   2.478   4.045
 8885TIP3    H126596   6.792   2.457   3.997
 8885TIP3    H226597   6.654   2.518   3.979
 8886TIP3   OH226598   1.767   2.949   5.623
 8886TIP3    H126599   1.793   2.863   5.592
 8886TIP3    H226600   1.689   2.971   5.572
 8887TIP3   OH226601   6.460   7.706   0.198
 8887TIP3    H126602   6.474   7.684   0.290
 8887TIP3    H226603   6.541   7.681   0.154
 8888TIP3   OH226604   0.874   4.719   0.396
 8888TIP3    H126605   0.912   4.731   0.309
 8888TIP3    H226606   0.904   4.632   0.423
 8889TIP3   OH226607   0.804   1.561   2.069
 8889TIP3    H126608   0.827   1.654   2.062
 8889TIP3    H226609   0.713   1.561   2.099
 8890TIP3   OH226610   6.102   2.445   0.323
 8890TIP3    H126611   6.022   2.438   0.271
 8890TIP3    H226612   6.112   2.539   0.339
 8891TIP3   OH226613   1.932   0.525   0.946
 8891TIP3    H126614   2.022   0.552   0.960
 8891TIP3    H226615   1.880   0.583   1.001
 8892TIP3   OH226616   2.294   6.782   5.709
 8892TIP3    H126617   2.389   6.791   5.719
 8892TIP3    H226618   2.271   6.843   5.640
 8893TIP3   OH226619   3.146   1.660   3.368
 8893TIP3    H126620   3.102   1.579   3.393
 8893TIP3    H226621   3.117   1.677   3.278
 8894TIP3   OH226622   7.215   5.369   1.125
 8894TIP3    H126623   7.190   5.450   1.170
 8894TIP3    H226624   7.192   5.383   1.034
 8895TIP3   OH226625   3.470   6.314   3.200
 8895TIP3    H126626   3.423   6.397   3.205
 8895TIP3    H226627   3.530   6.317   3.275
 8896TIP3   OH226628   3.933   5.973   3.730
 8896TIP3    H126629   3.986   6.050   3.708
 8896TIP3    H226630   3.869   6.005   3.794
 8897TIP3   OH226631   3.367   7.225   2.403
 8897TIP3    H126632   3.278   7.213   2.438
 8897TIP3    H226633   3.355   7.273   2.322
 8898TIP3   OH226634   6.787   5.359   4.840
 8898TIP3    H126635   6.774   5.347   4.934
 8898TIP3    H226636   6.753   5.447   4.823
 8899TIP3   OH226637   8.266   1.355   4.166
 8899TIP3    H126638   8.308   1.439   4.182
 8899TIP3    H226639   8.212   1.369   4.088
 8900TIP3   OH226640   6.784   3.753   3.631
 8900TIP3    H126641   6.839   3.733   3.707
 8900TIP3    H226642   6.835   3.817   3.581
 8901TIP3   OH226643   3.252   3.902   1.572
 8901TIP3    H126644   3.296   3.868   1.494
 8901TIP3    H226645   3.172   3.942   1.538
 8902TIP3   OH226646   6.874   4.413   1.866
 8902TIP3    H126647   6.849   4.487   1.922
 8902TIP3    H226648   6.926   4.453   1.796
 8903TIP3   OH226649   3.557   2.557   0.321
 8903TIP3    H126650   3.628   2.528   0.379
 8903TIP3    H226651   3.577   2.517   0.237
 8904TIP3   OH226652   3.452   3.224   2.306
 8904TIP3    H126653   3.547   3.216   2.316
 8904TIP3    H226654   3.441   3.250   2.214
 8905TIP3   OH226655   5.540   4.010   4.483
 8905TIP3    H126656   5.498   4.000   4.569
 8905TIP3    H226657   5.536   3.923   4.444
 8906TIP3   OH226658   0.104   2.771   3.684
 8906TIP3    H126659   0.146   2.734   3.607
 8906TIP3    H226660   0.107   2.866   3.669
 8907TIP3   OH226661   1.881   1.666   2.551
 8907TIP3    H126662   1.842   1.602   2.610
 8907TIP3    H226663   1.941   1.716   2.606
 8908TIP3   OH226664   7.016   1.212   1.062
 8908TIP3    H126665   7.048   1.190   0.974
 8908TIP3    H226666   7.074   1.282   1.092
 8909TIP3   OH226667   4.300   5.196   3.497
 8909TIP3    H126668   4.346   5.246   3.564
 8909TIP3    H226669   4.361   5.126   3.472
 8910TIP3   OH226670   7.835   6.669   5.262
 8910TIP3    H126671   7.817   6.760   5.240
 8910TIP3    H226672   7.862   6.629   5.179
 8911TIP3   OH226673   8.201   1.660   2.690
 8911TIP3    H126674   8.166   1.582   2.647
 8911TIP3    H226675   8.247   1.707   2.622
 8912TIP3   OH226676   0.047   2.071   2.017
 8912TIP3    H126677   0.007   2.111   1.940
 8912TIP3    H226678  -0.027   2.049   2.074
 8913TIP3   OH226679   5.980   3.532   2.575
 8913TIP3    H126680   5.970   3.612   2.522
 8913TIP3    H226681   6.073   3.513   2.573
 8914TIP3   OH226682   0.898   3.673   5.907
 8914TIP3    H126683   0.962   3.634   5.966
 8914TIP3    H226684   0.829   3.705   5.964
 8915TIP3   OH226685   3.534   1.009   3.978
 8915TIP3    H126686   3.562   0.977   3.892
 8915TIP3    H226687   3.556   1.102   3.977
 8916TIP3   OH226688   3.971   3.045   2.722
 8916TIP3    H126689   4.009   2.991   2.792
 8916TIP3    H226690   3.913   3.106   2.767
 8917TIP3   OH226691   3.495   0.917   1.536
 8917TIP3    H126692   3.442   0.864   1.596
 8917TIP3    H226693   3.583   0.914   1.573
 8918TIP3   OH226694   7.742   7.239   6.790
 8918TIP3    H126695   7.666   7.182   6.778
 8918TIP3    H226696   7.761   7.235   6.883
 8919TIP3   OH226697   5.159   0.262   5.855
 8919TIP3    H126698   5.220   0.206   5.904
 8919TIP3    H226699   5.136   0.210   5.778
 8920TIP3   OH226700   5.556   1.561   4.953
 8920TIP3    H126701   5.596   1.518   5.029
 8920TIP3    H226702   5.480   1.507   4.933
 8921TIP3   OH226703   4.223   4.537   0.253
 8921TIP3    H126704   4.236   4.522   0.347
 8921TIP3    H226705   4.208   4.631   0.246
 8922TIP3   OH226706   5.120   1.586   4.992
 8922TIP3    H126707   5.039   1.608   4.945
 8922TIP3    H226708   5.190   1.624   4.939
 8923TIP3   OH226709   7.076   7.513   4.940
 8923TIP3    H126710   7.136   7.441   4.925
 8923TIP3    H226711   7.022   7.484   5.014
 8924TIP3   OH226712   5.155   3.115   3.315
 8924TIP3    H126713   5.144   3.027   3.353
 8924TIP3    H226714   5.245   3.115   3.282
 8925TIP3   OH226715   2.466   0.820   1.535
 8925TIP3    H126716   2.531   0.851   1.472
 8925TIP3    H226717   2.422   0.900   1.565
 8926TIP3   OH226718   7.585   4.035   3.080
 8926TIP3    H126719   7.513   3.975   3.062
 8926TIP3    H226720   7.554   4.089   3.153
 8927TIP3   OH226721   8.281   5.443   3.071
 8927TIP3    H126722   8.359   5.498   3.064
 8927TIP3    H226723   8.208   5.504   3.064
 8928TIP3   OH226724   6.128   5.844   6.226
 8928TIP3    H126725   6.151   5.913   6.164
 8928TIP3    H226726   6.132   5.763   6.175
 8929TIP3   OH226727   1.133   1.219   0.188
 8929TIP3    H126728   1.172   1.224   0.275
 8929TIP3    H226729   1.071   1.292   0.186
 8930TIP3   OH226730   3.513   5.740   3.851
 8930TIP3    H126731   3.477   5.733   3.762
 8930TIP3    H226732   3.500   5.831   3.875
 8931TIP3   OH226733   5.058   2.676   2.499
 8931TIP3    H126734   4.964   2.658   2.493
 8931TIP3    H226735   5.098   2.607   2.446
 8932TIP3   OH226736   5.692   4.181   5.361
 8932TIP3    H126737   5.598   4.187   5.344
 8932TIP3    H226738   5.729   4.141   5.283
 8933TIP3   OH226739   4.982   4.542   5.727
 8933TIP3    H126740   4.946   4.631   5.727
 8933TIP3    H226741   4.977   4.514   5.818
 8934TIP3   OH226742   2.209   3.339   2.083
 8934TIP3    H126743   2.240   3.367   2.169
 8934TIP3    H226744   2.271   3.377   2.022
 8935TIP3   OH226745   7.633   3.515   1.023
 8935TIP3    H126746   7.570   3.447   0.998
 8935TIP3    H226747   7.664   3.488   1.109
 8936TIP3   OH226748   2.139   3.943   2.164
 8936TIP3    H126749   2.150   3.935   2.259
 8936TIP3    H226750   2.227   3.930   2.129
 8937TIP3   OH226751   6.947   2.188   3.584
 8937TIP3    H126752   6.887   2.126   3.542
 8937TIP3    H226753   7.034   2.157   3.559
 8938TIP3   OH226754   0.887   5.806   3.811
 8938TIP3    H126755   0.901   5.711   3.802
 8938TIP3    H226756   0.792   5.816   3.804
 8939TIP3   OH226757   1.791   2.776   1.491
 8939TIP3    H126758   1.707   2.755   1.531
 8939TIP3    H226759   1.797   2.719   1.414
 8940TIP3   OH226760   4.494   6.361   3.916
 8940TIP3    H126761   4.429   6.422   3.950
 8940TIP3    H226762   4.553   6.346   3.990
 8941TIP3   OH226763   5.415   2.928   3.694
 8941TIP3    H126764   5.465   2.848   3.680
 8941TIP3    H226765   5.480   2.993   3.720
 8942TIP3   OH226766   2.837   3.429   0.749
 8942TIP3    H126767   2.754   3.477   0.739
 8942TIP3    H226768   2.897   3.473   0.690
 8943TIP3   OH226769   6.303   7.344   3.489
 8943TIP3    H126770   6.300   7.434   3.520
 8943TIP3    H226771   6.314   7.352   3.394
 8944TIP3   OH226772   0.815   2.305   0.947
 8944TIP3    H126773   0.787   2.343   1.030
 8944TIP3    H226774   0.900   2.265   0.967
 8945TIP3   OH226775   4.566   2.466   1.838
 8945TIP3    H126776   4.539   2.406   1.908
 8945TIP3    H226777   4.652   2.497   1.866
 8946TIP3   OH226778   4.470   1.815   2.983
 8946TIP3    H126779   4.378   1.807   3.010
 8946TIP3    H226780   4.509   1.873   3.048
 8947TIP3   OH226781   0.797   3.077   0.610
 8947TIP3    H126782   0.793   2.984   0.585
 8947TIP3    H226783   0.751   3.122   0.539
 8948TIP3   OH226784   6.599   6.978   5.883
 8948TIP3    H126785   6.599   6.940   5.971
 8948TIP3    H226786   6.525   7.038   5.882
 8949TIP3   OH226787   1.865   2.140   0.979
 8949TIP3    H126788   1.789   2.140   1.037
 8949TIP3    H226789   1.934   2.098   1.030
 8950TIP3   OH226790   2.829   2.661   6.411
 8950TIP3    H126791   2.868   2.575   6.403
 8950TIP3    H226792   2.807   2.668   6.504
 8951TIP3   OH226793   6.273   0.019   3.523
 8951TIP3    H126794   6.257  -0.059   3.470
 8951TIP3    H226795   6.202   0.079   3.500
 8952TIP3   OH226796   1.255   3.559   0.738
 8952TIP3    H126797   1.186   3.508   0.695
 8952TIP3    H226798   1.328   3.499   0.746
 8953TIP3   OH226799   8.301   7.848   1.769
 8953TIP3    H126800   8.375   7.838   1.710
 8953TIP3    H226801   8.280   7.941   1.766
 8954TIP3   OH226802   4.256   6.924   3.953
 8954TIP3    H126803   4.332   6.980   3.939
 8954TIP3    H226804   4.266   6.853   3.888
 8955TIP3   OH226805   1.439   0.629   3.791
 8955TIP3    H126806   1.407   0.617   3.880
 8955TIP3    H226807   1.392   0.563   3.739
 8956TIP3   OH226808   1.186   7.890   2.110
 8956TIP3    H126809   1.252   7.820   2.113
 8956TIP3    H226810   1.155   7.889   2.020
 8957TIP3   OH226811   2.676   6.151   5.222
 8957TIP3    H126812   2.735   6.081   5.249
 8957TIP3    H226813   2.612   6.107   5.165
 8958TIP3   OH226814   1.656   1.709   1.406
 8958TIP3    H126815   1.685   1.751   1.325
 8958TIP3    H226816   1.732   1.659   1.436
 8959TIP3   OH226817   7.395   4.343   5.795
 8959TIP3    H126818   7.468   4.403   5.780
 8959TIP3    H226819   7.317   4.398   5.793
 8960TIP3   OH226820   2.793   4.771   4.070
 8960TIP3    H126821   2.843   4.725   4.137
 8960TIP3    H226822   2.762   4.701   4.012
 8961TIP3   OH226823   8.308   2.376   0.674
 8961TIP3    H126824   8.279   2.427   0.598
 8961TIP3    H226825   8.364   2.308   0.638
 8962TIP3   OH226826   3.415   7.868   3.201
 8962TIP3    H126827   3.437   7.947   3.152
 8962TIP3    H226828   3.319   7.867   3.202
 8963TIP3   OH226829   4.435   3.111   6.606
 8963TIP3    H126830   4.451   3.018   6.620
 8963TIP3    H226831   4.497   3.136   6.538
 8964TIP3   OH226832   5.984   5.404   5.974
 8964TIP3    H126833   6.016   5.435   5.890
 8964TIP3    H226834   5.911   5.346   5.952
 8965TIP3   OH226835   3.655   3.402   0.215
 8965TIP3    H126836   3.675   3.449   0.134
 8965TIP3    H226837   3.687   3.459   0.285
 8966TIP3   OH226838   2.438   4.099   5.268
 8966TIP3    H126839   2.469   4.185   5.297
 8966TIP3    H226840   2.343   4.107   5.267
 8967TIP3   OH226841   2.912   3.528   6.521
 8967TIP3    H126842   2.826   3.566   6.535
 8967TIP3    H226843   2.915   3.452   6.580
 8968TIP3   OH226844   8.049   6.131   3.346
 8968TIP3    H126845   8.144   6.140   3.352
 8968TIP3    H226846   8.034   6.036   3.348
 8969TIP3   OH226847   4.559   6.362   2.769
 8969TIP3    H126848   4.625   6.315   2.820
 8969TIP3    H226849   4.561   6.321   2.683
 8970TIP3   OH226850   7.326   5.988   2.967
 8970TIP3    H126851   7.333   5.895   2.945
 8970TIP3    H226852   7.351   5.993   3.059
 8971TIP3   OH226853   6.381   6.447   5.764
 8971TIP3    H126854   6.351   6.512   5.700
 8971TIP3    H226855   6.330   6.369   5.745
 8972TIP3   OH226856   5.386   2.151   5.388
 8972TIP3    H126857   5.308   2.095   5.394
 8972TIP3    H226858   5.390   2.195   5.473
 8973TIP3   OH226859   3.800   2.211   1.367
 8973TIP3    H126860   3.818   2.305   1.373
 8973TIP3    H226861   3.792   2.182   1.457
 8974TIP3   OH226862   3.367   1.210   1.129
 8974TIP3    H126863   3.403   1.124   1.151
 8974TIP3    H226864   3.343   1.248   1.213
 8975TIP3   OH226865   4.257   2.797   4.045
 8975TIP3    H126866   4.231   2.771   4.134
 8975TIP3    H226867   4.245   2.718   3.993
 8976TIP3   OH226868   8.101   3.237   2.718
 8976TIP3    H126869   8.096   3.278   2.632
 8976TIP3    H226870   8.170   3.285   2.764
 8977TIP3   OH226871   4.795   0.414   4.634
 8977TIP3    H126872   4.756   0.342   4.683
 8977TIP3    H226873   4.873   0.438   4.683
 8978TIP3   OH226874   4.417   2.418   0.008
 8978TIP3    H126875   4.455   2.453   0.089
 8978TIP3    H226876   4.323   2.430   0.019
 8979TIP3   OH226877   5.150   5.502   2.433
 8979TIP3    H126878   5.193   5.430   2.479
 8979TIP3    H226879   5.060   5.472   2.422
 8980TIP3   OH226880   4.496   1.664   6.340
 8980TIP3    H126881   4.475   1.692   6.251
 8980TIP3    H226882   4.575   1.611   6.331
 8981TIP3   OH226883   0.250   0.958   3.719
 8981TIP3    H126884   0.261   1.007   3.800
 8981TIP3    H226885   0.326   0.981   3.666
 8982TIP3   OH226886   6.426   0.257   2.030
 8982TIP3    H126887   6.515   0.247   2.063
 8982TIP3    H226888   6.403   0.170   1.996
 8983TIP3   OH226889   1.880   1.253   5.110
 8983TIP3    H126890   1.946   1.191   5.140
 8983TIP3    H226891   1.807   1.199   5.081
 8984TIP3   OH226892   6.403   0.698   4.273
 8984TIP3    H126893   6.496   0.703   4.250
 8984TIP3    H226894   6.369   0.626   4.220
 8985TIP3   OH226895   5.627   7.399   5.205
 8985TIP3    H126896   5.714   7.434   5.225
 8985TIP3    H226897   5.643   7.307   5.184
 8986TIP3   OH226898   1.471   0.090   2.041
 8986TIP3    H126899   1.381   0.114   2.021
 8986TIP3    H226900   1.523   0.132   1.972
 8987TIP3   OH226901   6.943   1.287   1.645
 8987TIP3    H126902   6.961   1.210   1.700
 8987TIP3    H226903   7.001   1.355   1.679
 8988TIP3   OH226904   7.935   1.376   2.755
 8988TIP3    H126905   7.917   1.322   2.833
 8988TIP3    H226906   7.929   1.466   2.787
 8989TIP3   OH226907   3.093   1.203   3.397
 8989TIP3    H126908   3.007   1.180   3.432
 8989TIP3    H226909   3.145   1.123   3.404
 8990TIP3   OH226910   5.729   2.833   6.807
 8990TIP3    H126911   5.737   2.921   6.843
 8990TIP3    H226912   5.714   2.847   6.713
 8991TIP3   OH226913   6.845   7.427   3.272
 8991TIP3    H126914   6.831   7.460   3.183
 8991TIP3    H226915   6.921   7.370   3.264
 8992TIP3   OH226916   3.433   6.836   4.606
 8992TIP3    H126917   3.458   6.808   4.518
 8992TIP3    H226918   3.516   6.848   4.652
 8993TIP3   OH226919   0.678   7.555   1.586
 8993TIP3    H126920   0.604   7.616   1.585
 8993TIP3    H226921   0.754   7.611   1.572
 8994TIP3   OH226922   6.179   5.482   3.901
 8994TIP3    H126923   6.154   5.411   3.961
 8994TIP3    H226924   6.191   5.558   3.958
 8995TIP3   OH226925   7.120   6.679   2.605
 8995TIP3    H126926   7.078   6.652   2.523
 8995TIP3    H226927   7.148   6.597   2.646
 8996TIP3   OH226928   1.223   1.783   1.671
 8996TIP3    H126929   1.158   1.848   1.697
 8996TIP3    H226930   1.173   1.704   1.651
 8997TIP3   OH226931   3.599   6.503   6.498
 8997TIP3    H126932   3.601   6.522   6.592
 8997TIP3    H226933   3.583   6.409   6.492
 8998TIP3   OH226934   0.336   7.751   5.569
 8998TIP3    H126935   0.334   7.658   5.548
 8998TIP3    H226936   0.246   7.780   5.560
 8999TIP3   OH226937   2.795   5.668   0.879
 8999TIP3    H126938   2.811   5.603   0.948
 8999TIP3    H226939   2.875   5.668   0.827
 9000TIP3   OH226940   3.254   3.030   6.054
 9000TIP3    H126941   3.166   3.045   6.088
 9000TIP3    H226942   3.244   3.035   5.959
 9001TIP3   OH226943   7.266   6.830   2.807
 9001TIP3    H126944   7.347   6.825   2.757
 9001TIP3    H226945   7.201   6.785   2.752
 9002TIP3   OH226946   0.565   4.801   6.412
 9002TIP3    H126947   0.656   4.830   6.405
 9002TIP3    H226948   0.557   4.769   6.502
 9003TIP3   OH226949   1.483   3.648   5.354
 9003TIP3    H126950   1.519   3.559   5.354
 9003TIP3    H226951   1.392   3.636   5.327
 9004TIP3   OH226952   3.686   6.250   1.500
 9004TIP3    H126953   3.779   6.262   1.480
 9004TIP3    H226954   3.674   6.155   1.500
 9005TIP3   OH226955   4.625   1.851   2.754
 9005TIP3    H126956   4.584   1.823   2.836
 9005TIP3    H226957   4.716   1.821   2.761
 9006TIP3   OH226958   5.220   7.073   2.288
 9006TIP3    H126959   5.289   7.047   2.350
 9006TIP3    H226960   5.139   7.045   2.329
 9007TIP3   OH226961   2.591   3.039   0.767
 9007TIP3    H126962   2.633   3.092   0.699
 9007TIP3    H226963   2.648   2.963   0.777
 9008TIP3   OH226964   4.571   3.149   4.291
 9008TIP3    H126965   4.542   3.082   4.229
 9008TIP3    H226966   4.496   3.161   4.350
 9009TIP3   OH226967   3.274   7.789   0.719
 9009TIP3    H126968   3.274   7.808   0.625
 9009TIP3    H226969   3.198   7.837   0.753
 9010TIP3   OH226970   0.848   4.831   6.374
 9010TIP3    H126971   0.907   4.756   6.382
 9010TIP3    H226972   0.890   4.900   6.425
 9011TIP3   OH226973   7.211   6.448   4.338
 9011TIP3    H126974   7.189   6.498   4.416
 9011TIP3    H226975   7.305   6.464   4.326
 9012TIP3   OH226976   2.127   0.204   6.547
 9012TIP3    H126977   2.110   0.179   6.456
 9012TIP3    H226978   2.105   0.297   6.551
 9013TIP3   OH226979   4.135   7.160   6.243
 9013TIP3    H126980   4.079   7.236   6.258
 9013TIP3    H226981   4.204   7.168   6.309
 9014TIP3   OH226982   4.501   1.668   0.712
 9014TIP3    H126983   4.579   1.656   0.766
 9014TIP3    H226984   4.465   1.752   0.740
 9015TIP3   OH226985   3.592   3.456   2.977
 9015TIP3    H126986   3.540   3.495   2.907
 9015TIP3    H226987   3.603   3.365   2.951
 9016TIP3   OH226988   7.572   2.136   5.003
 9016TIP3    H126989   7.580   2.170   5.092
 9016TIP3    H226990   7.581   2.212   4.947
 9017TIP3   OH226991   5.049   0.178   1.937
 9017TIP3    H126992   5.020   0.090   1.960
 9017TIP3    H226993   5.141   0.181   1.963
 9018TIP3   OH226994   6.185   7.268   5.283
 9018TIP3    H126995   6.167   7.292   5.192
 9018TIP3    H226996   6.214   7.177   5.278
 9019TIP3   OH226997   2.333   6.455   6.406
 9019TIP3    H126998   2.395   6.499   6.347
 9019TIP3    H226999   2.321   6.368   6.368
 9020TIP3   OH227000   5.740   2.550   4.937
 9020TIP3    H127001   5.792   2.595   5.004
 9020TIP3    H227002   5.780   2.463   4.930
 9021TIP3   OH227003   3.330   5.906   1.549
 9021TIP3    H127004   3.403   5.929   1.492
 9021TIP3    H227005   3.256   5.895   1.490
 9022TIP3   OH227006   4.718   6.202   4.739
 9022TIP3    H127007   4.727   6.293   4.711
 9022TIP3    H227008   4.797   6.184   4.790
 9023TIP3   OH227009   1.799   3.350   4.925
 9023TIP3    H127010   1.705   3.355   4.943
 9023TIP3    H227011   1.806   3.311   4.838
 9024TIP3   OH227012   4.265   1.926   0.409
 9024TIP3    H127013   4.267   1.917   0.504
 9024TIP3    H227014   4.356   1.911   0.382
 9025TIP3   OH227015   7.349   0.551   2.153
 9025TIP3    H127016   7.302   0.525   2.232
 9025TIP3    H227017   7.334   0.479   2.091
 9026TIP3   OH227018   6.809   5.847   1.525
 9026TIP3    H127019   6.812   5.751   1.525
 9026TIP3    H227020   6.734   5.868   1.580
 9027TIP3   OH227021   4.580   3.601   3.930
 9027TIP3    H127022   4.517   3.616   4.000
 9027TIP3    H227023   4.585   3.506   3.921
 9028TIP3   OH227024   0.769   2.763   5.936
 9028TIP3    H127025   0.766   2.750   6.030
 9028TIP3    H227026   0.692   2.816   5.916
 9029TIP3   OH227027   6.738   1.303   5.974
 9029TIP3    H127028   6.732   1.384   6.024
 9029TIP3    H227029   6.658   1.255   5.996
 9030TIP3   OH227030   7.964   7.298   3.930
 9030TIP3    H127031   8.057   7.312   3.949
 9030TIP3    H227032   7.919   7.317   4.012
 9031TIP3   OH227033   4.191   3.305   3.845
 9031TIP3    H127034   4.263   3.342   3.896
 9031TIP3    H227035   4.179   3.217   3.880
 9032TIP3   OH227036   6.525   3.160   0.202
 9032TIP3    H127037   6.512   3.065   0.194
 9032TIP3    H227038   6.620   3.171   0.197
 9033TIP3   OH227039   7.869   5.853   0.765
 9033TIP3    H127040   7.964   5.847   0.756
 9033TIP3    H227041   7.852   5.836   0.857
 9034TIP3   OH227042   8.308   5.191   2.232
 9034TIP3    H127043   8.305   5.109   2.183
 9034TIP3    H227044   8.282   5.258   2.169
 9035TIP3   OH227045   3.566   4.854   2.852
 9035TIP3    H127046   3.507   4.783   2.878
 9035TIP3    H227047   3.634   4.855   2.919
 9036TIP3   OH227048   4.638   4.853   2.575
 9036TIP3    H127049   4.565   4.854   2.513
 9036TIP3    H227050   4.639   4.763   2.608
 9037TIP3   OH227051   7.877   4.592   2.862
 9037TIP3    H127052   7.848   4.508   2.827
 9037TIP3    H227053   7.800   4.626   2.909
 9038TIP3   OH227054   2.934   3.568   3.007
 9038TIP3    H127055   3.003   3.504   3.023
 9038TIP3    H227056   2.855   3.528   3.042
 9039TIP3   OH227057   4.487   5.315   6.526
 9039TIP3    H127058   4.545   5.242   6.549
 9039TIP3    H227059   4.458   5.295   6.437
 9040TIP3   OH227060   5.847   0.957   4.120
 9040TIP3    H127061   5.840   0.985   4.029
 9040TIP3    H227062   5.893   1.029   4.164
 9041TIP3   OH227063   3.945   1.187   1.135
 9041TIP3    H127064   3.908   1.171   1.222
 9041TIP3    H227065   3.972   1.101   1.104
 9042TIP3   OH227066   2.844   4.840   2.305
 9042TIP3    H127067   2.836   4.745   2.312
 9042TIP3    H227068   2.770   4.874   2.354
 9043TIP3   OH227069   0.128   6.180   1.753
 9043TIP3    H127070   0.216   6.149   1.730
 9043TIP3    H227071   0.069   6.134   1.694
 9044TIP3   OH227072   0.265   5.619   5.855
 9044TIP3    H127073   0.245   5.610   5.948
 9044TIP3    H227074   0.196   5.570   5.811
 9045TIP3   OH227075   1.450   0.266   5.147
 9045TIP3    H127076   1.545   0.253   5.145
 9045TIP3    H227077   1.417   0.211   5.076
 9046TIP3   OH227078   4.066   5.382   2.456
 9046TIP3    H127079   4.145   5.415   2.413
 9046TIP3    H227080   4.090   5.377   2.549
 9047TIP3   OH227081   2.941   2.259   5.332
 9047TIP3    H127082   2.941   2.351   5.307
 9047TIP3    H227083   2.874   2.219   5.277
 9048TIP3   OH227084   6.646   2.145   5.492
 9048TIP3    H127085   6.670   2.117   5.403
 9048TIP3    H227086   6.727   2.180   5.529
 9049TIP3   OH227087   4.697   7.594   1.692
 9049TIP3    H127088   4.603   7.604   1.709
 9049TIP3    H227089   4.702   7.564   1.601
 9050TIP3   OH227090   4.450   6.687   1.985
 9050TIP3    H127091   4.514   6.679   2.056
 9050TIP3    H227092   4.487   6.634   1.914
 9051TIP3   OH227093   5.914   6.233   0.490
 9051TIP3    H127094   5.977   6.224   0.562
 9051TIP3    H227095   5.900   6.328   0.483
 9052TIP3   OH227096   0.250   3.382   6.346
 9052TIP3    H127097   0.247   3.472   6.376
 9052TIP3    H227098   0.340   3.369   6.315
 9053TIP3   OH227099   0.720   7.835   5.806
 9053TIP3    H127100   0.674   7.782   5.740
 9053TIP3    H227101   0.653   7.858   5.870
 9054TIP3   OH227102   4.628   7.911   0.218
 9054TIP3    H127103   4.539   7.883   0.238
 9054TIP3    H227104   4.631   7.916   0.123
 9055TIP3   OH227105   2.955   7.774   1.630
 9055TIP3    H127106   3.010   7.793   1.705
 9055TIP3    H227107   2.960   7.679   1.619
 9056TIP3   OH227108   1.718   4.316   3.600
 9056TIP3    H127109   1.729   4.355   3.513
 9056TIP3    H227110   1.689   4.389   3.655
 9057TIP3   OH227111   1.351   6.244   4.814
 9057TIP3    H127112   1.293   6.195   4.872
 9057TIP3    H227113   1.422   6.273   4.870
 9058TIP3   OH227114   4.906   6.008   1.922
 9058TIP3    H127115   4.968   6.043   1.858
 9058TIP3    H227116   4.928   6.052   2.004
 9059TIP3   OH227117   2.084   6.656   4.405
 9059TIP3    H127118   1.997   6.629   4.435
 9059TIP3    H227119   2.110   6.726   4.465
 9060TIP3   OH227120   4.401   7.854   6.707
 9060TIP3    H127121   4.489   7.863   6.671
 9060TIP3    H227122   4.383   7.938   6.748
 9061TIP3   OH227123   5.988   4.585   4.602
 9061TIP3    H127124   5.934   4.506   4.610
 9061TIP3    H227125   6.044   4.584   4.679
 9062TIP3   OH227126   7.942   4.477   1.407
 9062TIP3    H127127   8.001   4.552   1.403
 9062TIP3    H227128   7.974   4.424   1.481
 9063TIP3   OH227129   5.630   4.889   4.340
 9063TIP3    H127130   5.643   4.982   4.358
 9063TIP3    H227131   5.688   4.844   4.401
 9064TIP3   OH227132   4.155   4.022   5.663
 9064TIP3    H127133   4.099   4.026   5.585
 9064TIP3    H227134   4.167   3.929   5.679
 9065TIP3   OH227135   7.707   4.340   1.438
 9065TIP3    H127136   7.750   4.262   1.474
 9065TIP3    H227137   7.777   4.405   1.433
 9066TIP3   OH227138   1.087   2.388   0.208
 9066TIP3    H127139   1.128   2.467   0.245
 9066TIP3    H227140   1.138   2.369   0.129
 9067TIP3   OH227141   1.227   0.548   1.170
 9067TIP3    H127142   1.137   0.547   1.139
 9067TIP3    H227143   1.237   0.633   1.213
 9068TIP3   OH227144   3.214   2.100   4.205
 9068TIP3    H127145   3.156   2.047   4.150
 9068TIP3    H227146   3.226   2.048   4.284
 9069TIP3   OH227147   4.255   6.134   0.804
 9069TIP3    H127148   4.169   6.154   0.768
 9069TIP3    H227149   4.251   6.164   0.895
 9070TIP3   OH227150   5.743   6.519   4.410
 9070TIP3    H127151   5.803   6.477   4.471
 9070TIP3    H227152   5.778   6.499   4.323
 9071TIP3   OH227153   3.572   0.551   2.602
 9071TIP3    H127154   3.490   0.505   2.583
 9071TIP3    H227155   3.634   0.518   2.536
 9072TIP3   OH227156   3.732   3.812   2.077
 9072TIP3    H127157   3.678   3.771   2.144
 9072TIP3    H227158   3.720   3.758   2.000
 9073TIP3   OH227159   1.489   4.078   4.964
 9073TIP3    H127160   1.464   4.030   5.042
 9073TIP3    H227161   1.563   4.132   4.991
 9074TIP3   OH227162   1.103   7.200   0.681
 9074TIP3    H127163   1.136   7.258   0.750
 9074TIP3    H227164   1.010   7.222   0.674
 9075TIP3   OH227165   1.273   5.145   3.162
 9075TIP3    H127166   1.272   5.236   3.192
 9075TIP3    H227167   1.306   5.150   3.073
 9076TIP3   OH227168   5.796   1.740   2.603
 9076TIP3    H127169   5.725   1.719   2.663
 9076TIP3    H227170   5.772   1.825   2.566
 9077TIP3   OH227171   6.705   1.133   5.392
 9077TIP3    H127172   6.612   1.138   5.369
 9077TIP3    H227173   6.750   1.123   5.309
 9078TIP3   OH227174   6.506   7.606   2.948
 9078TIP3    H127175   6.422   7.644   2.922
 9078TIP3    H227176   6.570   7.646   2.888
 9079TIP3   OH227177   0.547   1.226   6.318
 9079TIP3    H127178   0.544   1.287   6.244
 9079TIP3    H227179   0.637   1.232   6.351
 9080TIP3   OH227180   3.043   1.079   6.267
 9080TIP3    H127181   3.096   1.093   6.189
 9080TIP3    H227182   3.090   1.014   6.318
 9081TIP3   OH227183   3.031   0.593   6.264
 9081TIP3    H127184   2.989   0.679   6.264
 9081TIP3    H227185   3.125   0.613   6.265
 9082TIP3   OH227186   1.818   7.791   2.114
 9082TIP3    H127187   1.830   7.697   2.099
 9082TIP3    H227188   1.820   7.830   2.027
 9083TIP3   OH227189   7.834   3.278   2.782
 9083TIP3    H127190   7.778   3.200   2.784
 9083TIP3    H227191   7.920   3.245   2.757
 9084TIP3   OH227192   6.184   4.644   6.016
 9084TIP3    H127193   6.108   4.609   6.062
 9084TIP3    H227194   6.194   4.589   5.938
 9085TIP3   OH227195   1.141   6.126   5.716
 9085TIP3    H127196   1.153   6.083   5.801
 9085TIP3    H227197   1.220   6.179   5.705
 9086TIP3   OH227198   6.644   4.786   0.477
 9086TIP3    H127199   6.640   4.722   0.405
 9086TIP3    H227200   6.555   4.787   0.512
 9087TIP3   OH227201   3.924   5.721   1.179
 9087TIP3    H127202   3.952   5.808   1.209
 9087TIP3    H227203   3.883   5.681   1.255
 9088TIP3   OH227204   1.989   7.039   0.744
 9088TIP3    H127205   1.969   7.109   0.681
 9088TIP3    H227206   1.907   6.989   0.750
 9089TIP3   OH227207   4.417   5.194   5.941
 9089TIP3    H127208   4.410   5.099   5.927
 9089TIP3    H227209   4.331   5.220   5.974
 9090TIP3   OH227210   4.323   5.650   4.977
 9090TIP3    H127211   4.316   5.559   4.945
 9090TIP3    H227212   4.320   5.703   4.897
 9091TIP3   OH227213   1.788   5.134   5.308
 9091TIP3    H127214   1.861   5.084   5.346
 9091TIP3    H227215   1.754   5.186   5.380
 9092TIP3   OH227216   7.582   4.946   0.264
 9092TIP3    H127217   7.532   4.864   0.263
 9092TIP3    H227218   7.585   4.973   0.173
 9093TIP3   OH227219   7.428   6.797   5.939
 9093TIP3    H127220   7.336   6.810   5.960
 9093TIP3    H227221   7.449   6.866   5.876
 9094TIP3   OH227222   8.025   4.820   4.039
 9094TIP3    H127223   8.039   4.780   3.953
 9094TIP3    H227224   7.934   4.801   4.060
 9095TIP3   OH227225   1.966   6.841   0.968
 9095TIP3    H127226   2.030   6.785   1.011
 9095TIP3    H227227   2.018   6.897   0.909
 9096TIP3   OH227228   1.226   0.741   5.869
 9096TIP3    H127229   1.141   0.773   5.837
 9096TIP3    H227230   1.213   0.731   5.964
 9097TIP3   OH227231   6.993   6.579   3.802
 9097TIP3    H127232   6.926   6.632   3.846
 9097TIP3    H227233   7.033   6.528   3.872
 9098TIP3   OH227234   5.230   0.913   3.712
 9098TIP3    H127235   5.200   0.828   3.678
 9098TIP3    H227236   5.197   0.916   3.802
 9099TIP3   OH227237   4.589   6.126   4.510
 9099TIP3    H127238   4.614   6.173   4.589
 9099TIP3    H227239   4.662   6.067   4.493
 9100TIP3   OH227240   1.851   1.484   3.463
 9100TIP3    H127241   1.857   1.401   3.509
 9100TIP3    H227242   1.798   1.465   3.385
 9101TIP3   OH227243   1.275   5.386   5.699
 9101TIP3    H127244   1.197   5.431   5.730
 9101TIP3    H227245   1.327   5.454   5.656
 9102TIP3   OH227246   1.506   3.921   0.470
 9102TIP3    H127247   1.572   3.920   0.540
 9102TIP3    H227248   1.467   4.008   0.475
 9103TIP3   OH227249   6.442   4.126   6.212
 9103TIP3    H127250   6.471   4.217   6.204
 9103TIP3    H227251   6.380   4.114   6.140
 9104TIP3   OH227252   6.180   5.447   1.135
 9104TIP3    H127253   6.252   5.414   1.080
 9104TIP3    H227254   6.108   5.460   1.074
 9105TIP3   OH227255   0.802   6.901   3.733
 9105TIP3    H127256   0.824   6.854   3.813
 9105TIP3    H227257   0.835   6.846   3.662
 9106TIP3   OH227258   2.679   4.249   3.978
 9106TIP3    H127259   2.730   4.174   3.948
 9106TIP3    H227260   2.599   4.246   3.926
 9107TIP3   OH227261   0.335   5.206   2.970
 9107TIP3    H127262   0.402   5.219   3.038
 9107TIP3    H227263   0.255   5.189   3.019
 9108TIP3   OH227264   1.951   2.138   2.333
 9108TIP3    H127265   1.968   2.079   2.259
 9108TIP3    H227266   2.026   2.127   2.391
 9109TIP3   OH227267   0.719   3.170   6.692
 9109TIP3    H127268   0.731   3.176   6.598
 9109TIP3    H227269   0.740   3.257   6.725
 9110TIP3   OH227270   0.499   5.211   3.778
 9110TIP3    H127271   0.516   5.282   3.839
 9110TIP3    H227272   0.524   5.246   3.692
 9111TIP3   OH227273   0.704   1.885   1.711
 9111TIP3    H127274   0.711   1.957   1.648
 9111TIP3    H227275   0.659   1.924   1.786
 9112TIP3   OH227276   8.198   5.259   5.415
 9112TIP3    H127277   8.260   5.215   5.357
 9112TIP3    H227278   8.191   5.202   5.491
 9113TIP3   OH227279   5.166   1.476   0.851
 9113TIP3    H127280   5.083   1.472   0.899
 9113TIP3    H227281   5.176   1.568   0.828
 9114TIP3   OH227282   3.137   3.961   5.518
 9114TIP3    H127283   3.119   3.927   5.605
 9114TIP3    H227284   3.061   4.015   5.496
 9115TIP3   OH227285   0.121   2.478   2.251
 9115TIP3    H127286   0.036   2.491   2.209
 9115TIP3    H227287   0.178   2.542   2.209
 9116TIP3   OH227288   0.247   6.533   2.517
 9116TIP3    H127289   0.166   6.530   2.466
 9116TIP3    H227290   0.278   6.442   2.518
 9117TIP3   OH227291   3.627   0.773   2.768
 9117TIP3    H127292   3.632   0.692   2.718
 9117TIP3    H227293   3.686   0.833   2.721
 9118TIP3   OH227294   6.157   5.236   1.800
 9118TIP3    H127295   6.183   5.250   1.891
 9118TIP3    H227296   6.222   5.176   1.764
 9119TIP3   OH227297   4.328   1.152   1.093
 9119TIP3    H127298   4.320   1.067   1.050
 9119TIP3    H227299   4.352   1.131   1.183
 9120TIP3   OH227300   6.535   6.979   0.541
 9120TIP3    H127301   6.511   6.981   0.633
 9120TIP3    H227302   6.532   7.070   0.513
 9121TIP3   OH227303   0.238   3.376   4.839
 9121TIP3    H127304   0.204   3.320   4.769
 9121TIP3    H227305   0.303   3.431   4.796
 9122TIP3   OH227306   5.726   6.155   4.319
 9122TIP3    H127307   5.794   6.216   4.292
 9122TIP3    H227308   5.768   6.069   4.312
 9123TIP3   OH227309   5.363   2.071   0.830
 9123TIP3    H127310   5.415   2.076   0.910
 9123TIP3    H227311   5.376   2.156   0.787
 9124TIP3   OH227312   5.365   7.442   1.290
 9124TIP3    H127313   5.386   7.525   1.249
 9124TIP3    H227314   5.440   7.422   1.346
 9125TIP3   OH227315   6.747   5.715   3.456
 9125TIP3    H127316   6.805   5.786   3.486
 9125TIP3    H227317   6.737   5.659   3.533
 9126TIP3   OH227318   0.329   4.323   6.471
 9126TIP3    H127319   0.288   4.291   6.551
 9126TIP3    H227320   0.417   4.285   6.472
 9127TIP3   OH227321   5.574   1.987   2.098
 9127TIP3    H127322   5.569   1.901   2.139
 9127TIP3    H227323   5.657   1.987   2.051
 9128TIP3   OH227324   7.383   7.764   1.925
 9128TIP3    H127325   7.393   7.831   1.992
 9128TIP3    H227326   7.444   7.790   1.856
 9129TIP3   OH227327   4.908   4.356   4.925
 9129TIP3    H127328   4.898   4.412   4.848
 9129TIP3    H227329   4.911   4.267   4.890
 9130TIP3   OH227330   3.172   1.476   5.507
 9130TIP3    H127331   3.139   1.491   5.595
 9130TIP3    H227332   3.244   1.413   5.519
 9131TIP3   OH227333   6.255   5.513   0.742
 9131TIP3    H127334   6.301   5.507   0.659
 9131TIP3    H227335   6.176   5.461   0.730
 9132TIP3   OH227336   0.857   3.496   2.593
 9132TIP3    H127337   0.900   3.442   2.527
 9132TIP3    H227338   0.781   3.445   2.620
 9133TIP3   OH227339   3.105   5.965   0.075
 9133TIP3    H127340   3.136   5.900   0.012
 9133TIP3    H227341   3.031   6.008   0.032
 9134TIP3   OH227342   5.743   6.949   6.704
 9134TIP3    H127343   5.689   6.997   6.766
 9134TIP3    H227344   5.736   6.858   6.731
 9135TIP3   OH227345   3.063   6.562   2.987
 9135TIP3    H127346   3.035   6.645   2.949
 9135TIP3    H227347   3.057   6.575   3.082
 9136TIP3   OH227348   5.195   2.541   2.306
 9136TIP3    H127349   5.222   2.467   2.252
 9136TIP3    H227350   5.148   2.599   2.246
 9137TIP3   OH227351   5.860   2.524   0.189
 9137TIP3    H127352   5.885   2.600   0.136
 9137TIP3    H227353   5.819   2.464   0.128
 9138TIP3   OH227354   1.455   7.526   2.721
 9138TIP3    H127355   1.401   7.525   2.799
 9138TIP3    H227356   1.466   7.618   2.700
 9139TIP3   OH227357   2.594   3.451   3.629
 9139TIP3    H127358   2.674   3.452   3.680
 9139TIP3    H227359   2.523   3.454   3.693
 9140TIP3   OH227360   6.286   0.453   6.194
 9140TIP3    H127361   6.200   0.489   6.173
 9140TIP3    H227362   6.317   0.505   6.268
 9141TIP3   OH227363   4.239   2.655   1.215
 9141TIP3    H127364   4.292   2.722   1.172
 9141TIP3    H227365   4.170   2.704   1.261
 9142TIP3   OH227366   7.327   4.058   3.917
 9142TIP3    H127367   7.402   4.007   3.949
 9142TIP3    H227368   7.274   3.994   3.869
 9143TIP3   OH227369   4.161   5.454   1.503
 9143TIP3    H127370   4.086   5.496   1.545
 9143TIP3    H227371   4.176   5.505   1.424
 9144TIP3   OH227372   6.811   1.378   3.619
 9144TIP3    H127373   6.873   1.374   3.691
 9144TIP3    H227374   6.741   1.436   3.650
 9145TIP3   OH227375   0.666   3.037   2.456
 9145TIP3    H127376   0.588   3.092   2.469
 9145TIP3    H227377   0.648   2.991   2.374
 9146TIP3   OH227378   5.909   6.732   1.448
 9146TIP3    H127379   5.996   6.767   1.468
 9146TIP3    H227380   5.860   6.740   1.530
 9147TIP3   OH227381   8.276   5.385   0.128
 9147TIP3    H127382   8.320   5.300   0.117
 9147TIP3    H227383   8.193   5.363   0.170
 9148TIP3   OH227384   7.673   0.062   6.414
 9148TIP3    H127385   7.649   0.101   6.330
 9148TIP3    H227386   7.638  -0.027   6.410
 9149TIP3   OH227387   0.979   5.626   1.991
 9149TIP3    H127388   0.896   5.665   1.963
 9149TIP3    H227389   0.962   5.532   1.988
 9150TIP3   OH227390   1.622   4.568   4.334
 9150TIP3    H127391   1.712   4.566   4.300
 9150TIP3    H227392   1.575   4.623   4.272
 9151TIP3   OH227393   2.455   3.476   2.510
 9151TIP3    H127394   2.532   3.426   2.535
 9151TIP3    H227395   2.490   3.557   2.471
 9152TIP3   OH227396   8.150   2.785   1.880
 9152TIP3    H127397   8.127   2.712   1.823
 9152TIP3    H227398   8.221   2.830   1.834
 9153TIP3   OH227399   4.589   6.425   3.114
 9153TIP3    H127400   4.631   6.378   3.042
 9153TIP3    H227401   4.586   6.516   3.085
 9154TIP3   OH227402   3.311   0.183   4.560
 9154TIP3    H127403   3.246   0.167   4.492
 9154TIP3    H227404   3.274   0.142   4.639
 9155TIP3   OH227405   5.670   0.505   5.228
 9155TIP3    H127406   5.736   0.437   5.221
 9155TIP3    H227407   5.616   0.479   5.302
 9156TIP3   OH227408   6.438   0.423   3.138
 9156TIP3    H127409   6.370   0.467   3.087
 9156TIP3    H227410   6.491   0.494   3.174
 9157TIP3   OH227411   7.720   7.633   6.173
 9157TIP3    H127412   7.795   7.667   6.221
 9157TIP3    H227413   7.696   7.552   6.219
 9158TIP3   OH227414   8.069   3.052   3.201
 9158TIP3    H127415   8.024   3.050   3.286
 9158TIP3    H227416   8.144   2.994   3.214
 9159TIP3   OH227417   5.066   7.293   3.352
 9159TIP3    H127418   5.112   7.214   3.324
 9159TIP3    H227419   4.988   7.260   3.397
 9160TIP3   OH227420   6.867   0.389   1.517
 9160TIP3    H127421   6.847   0.428   1.432
 9160TIP3    H227422   6.905   0.303   1.496
 9161TIP3   OH227423   7.192   0.602   6.524
 9161TIP3    H127424   7.111   0.567   6.487
 9161TIP3    H227425   7.213   0.677   6.468
 9162TIP3   OH227426   7.440   0.296   0.241
 9162TIP3    H127427   7.521   0.250   0.263
 9162TIP3    H227428   7.424   0.273   0.150
 9163TIP3   OH227429   5.377   5.096   2.435
 9163TIP3    H127430   5.466   5.089   2.468
 9163TIP3    H227431   5.377   5.176   2.382
 9164TIP3   OH227432   5.096   0.503   4.405
 9164TIP3    H127433   5.062   0.427   4.452
 9164TIP3    H227434   5.142   0.553   4.472
 9165TIP3   OH227435   2.142   6.480   4.921
 9165TIP3    H127436   2.139   6.532   4.840
 9165TIP3    H227437   2.170   6.542   4.988
 9166TIP3   OH227438   2.458   0.993   5.408
 9166TIP3    H127439   2.530   0.943   5.371
 9166TIP3    H227440   2.402   0.927   5.450
 9167TIP3   OH227441   4.592   3.163   0.812
 9167TIP3    H127442   4.614   3.088   0.866
 9167TIP3    H227443   4.542   3.221   0.870
 9168TIP3   OH227444   3.609   5.396   0.444
 9168TIP3    H127445   3.557   5.316   0.446
 9168TIP3    H227446   3.670   5.383   0.371
 9169TIP3   OH227447   3.205   0.134   5.473
 9169TIP3    H127448   3.230   0.121   5.382
 9169TIP3    H227449   3.189   0.046   5.507
 9170TIP3   OH227450   3.855   1.197   3.026
 9170TIP3    H127451   3.928   1.146   2.989
 9170TIP3    H227452   3.780   1.138   3.018
 9171TIP3   OH227453   1.040   5.007   6.530
 9171TIP3    H127454   1.045   5.057   6.611
 9171TIP3    H227455   1.127   5.014   6.492
 9172TIP3   OH227456   5.940   6.587   0.093
 9172TIP3    H127457   5.953   6.670   0.140
 9172TIP3    H227458   5.850   6.562   0.113
 9173TIP3   OH227459   1.344   7.181   0.481
 9173TIP3    H127460   1.315   7.108   0.427
 9173TIP3    H227461   1.364   7.141   0.566
 9174TIP3   OH227462   0.166   6.824   3.142
 9174TIP3    H127463   0.091   6.854   3.194
 9174TIP3    H227464   0.193   6.901   3.092
 9175TIP3   OH227465   7.789   4.961   0.406
 9175TIP3    H127466   7.724   4.929   0.344
 9175TIP3    H227467   7.853   5.007   0.353
 9176TIP3   OH227468   2.062   4.927   0.845
 9176TIP3    H127469   2.086   4.895   0.758
 9176TIP3    H227470   2.119   4.878   0.905
 9177TIP3   OH227471   7.081   4.053   1.689
 9177TIP3    H127472   7.153   4.116   1.693
 9177TIP3    H227473   7.025   4.085   1.618
 9178TIP3   OH227474   6.917   5.457   5.375
 9178TIP3    H127475   6.874   5.509   5.307
 9178TIP3    H227476   6.941   5.375   5.331
 9179TIP3   OH227477   1.880   4.523   3.196
 9179TIP3    H127478   1.928   4.604   3.214
 9179TIP3    H227479   1.860   4.527   3.103
 9180TIP3   OH227480   2.889   0.256   1.138
 9180TIP3    H127481   2.826   0.312   1.183
 9180TIP3    H227482   2.914   0.191   1.204
 9181TIP3   OH227483   5.958   4.083   4.736
 9181TIP3    H127484   5.955   3.990   4.717
 9181TIP3    H227485   6.046   4.099   4.770
 9182TIP3   OH227486   5.966   1.336   0.907
 9182TIP3    H127487   6.024   1.276   0.860
 9182TIP3    H227488   5.997   1.333   0.998
 9183TIP3   OH227489   5.622   1.438   6.059
 9183TIP3    H127490   5.584   1.523   6.082
 9183TIP3    H227491   5.704   1.460   6.015
 9184TIP3   OH227492   5.868   2.705   1.561
 9184TIP3    H127493   5.875   2.636   1.495
 9184TIP3    H227494   5.777   2.704   1.589
 9185TIP3   OH227495   5.179   5.464   2.925
 9185TIP3    H127496   5.273   5.450   2.913
 9185TIP3    H227497   5.138   5.392   2.877
 9186TIP3   OH227498   7.476   7.778   6.138
 9186TIP3    H127499   7.556   7.726   6.149
 9186TIP3    H227500   7.426   7.763   6.218
 9187TIP3   OH227501   1.674   1.194   1.947
 9187TIP3    H127502   1.767   1.215   1.952
 9187TIP3    H227503   1.644   1.195   2.038
 9188TIP3   OH227504   8.256   2.070   3.663
 9188TIP3    H127505   8.188   2.024   3.614
 9188TIP3    H227506   8.226   2.161   3.667
 9189TIP3   OH227507   4.452   5.598   3.442
 9189TIP3    H127508   4.436   5.676   3.388
 9189TIP3    H227509   4.390   5.533   3.409
 9190TIP3   OH227510   7.918   2.817   2.356
 9190TIP3    H127511   7.928   2.912   2.350
 9190TIP3    H227512   7.972   2.792   2.432
 9191TIP3   OH227513   6.934   0.316   6.151
 9191TIP3    H127514   6.930   0.222   6.166
 9191TIP3    H227515   6.958   0.325   6.059
 9192TIP3   OH227516   3.524   0.573   1.535
 9192TIP3    H127517   3.542   0.487   1.497
 9192TIP3    H227518   3.609   0.600   1.572
 9193TIP3   OH227519   4.356   0.063   1.602
 9193TIP3    H127520   4.288   0.070   1.535
 9193TIP3    H227521   4.346  -0.026   1.637
 9194TIP3   OH227522   6.747   3.988   1.618
 9194TIP3    H127523   6.826   4.041   1.629
 9194TIP3    H227524   6.676   4.043   1.650
 9195TIP3   OH227525   1.954   2.588   6.171
 9195TIP3    H127526   1.879   2.550   6.216
 9195TIP3    H227527   1.937   2.574   6.078
 9196TIP3   OH227528   3.332   6.553   3.255
 9196TIP3    H127529   3.390   6.622   3.287
 9196TIP3    H227530   3.269   6.541   3.326
 9197TIP3   OH227531   5.021   1.606   2.496
 9197TIP3    H127532   5.107   1.640   2.520
 9197TIP3    H227533   5.038   1.520   2.458
 9198TIP3   OH227534   2.321   1.711   5.180
 9198TIP3    H127535   2.379   1.786   5.191
 9198TIP3    H227536   2.354   1.644   5.239
 9199TIP3   OH227537   7.861   7.156   2.162
 9199TIP3    H127538   7.897   7.227   2.216
 9199TIP3    H227539   7.838   7.088   2.225
 9200TIP3   OH227540   2.888   2.300   3.425
 9200TIP3    H127541   2.955   2.359   3.460
 9200TIP3    H227542   2.821   2.359   3.391
 9201TIP3   OH227543   1.845   1.542   3.097
 9201TIP3    H127544   1.774   1.581   3.148
 9201TIP3    H227545   1.925   1.572   3.141
 9202TIP3   OH227546   5.579   5.257   2.707
 9202TIP3    H127547   5.671   5.271   2.685
 9202TIP3    H227548   5.552   5.184   2.652
 9203TIP3   OH227549   0.762   6.706   5.931
 9203TIP3    H127550   0.773   6.768   5.859
 9203TIP3    H227551   0.682   6.658   5.910
 9204TIP3   OH227552   7.634   0.604   2.081
 9204TIP3    H127553   7.552   0.643   2.111
 9204TIP3    H227554   7.609   0.553   2.004
 9205TIP3   OH227555   2.615   7.592   6.782
 9205TIP3    H127556   2.684   7.592   6.716
 9205TIP3    H227557   2.662   7.592   6.865
 9206TIP3   OH227558   3.369   3.226   4.505
 9206TIP3    H127559   3.441   3.206   4.447
 9206TIP3    H227560   3.405   3.287   4.569
 9207TIP3   OH227561   2.760   4.249   1.067
 9207TIP3    H127562   2.735   4.218   1.154
 9207TIP3    H227563   2.677   4.254   1.019
 9208TIP3   OH227564   1.195   3.739   0.104
 9208TIP3    H127565   1.243   3.765   0.183
 9208TIP3    H227566   1.122   3.801   0.099
 9209TIP3   OH227567   0.912   3.276   6.094
 9209TIP3    H127568   0.834   3.332   6.089
 9209TIP3    H227569   0.970   3.323   6.155
 9210TIP3   OH227570   6.478   1.821   5.594
 9210TIP3    H127571   6.438   1.810   5.508
 9210TIP3    H227572   6.462   1.738   5.640
 9211TIP3   OH227573   2.499   6.019   2.109
 9211TIP3    H127574   2.504   5.944   2.169
 9211TIP3    H227575   2.556   5.996   2.036
 9212TIP3   OH227576   7.561   5.113   4.753
 9212TIP3    H127577   7.495   5.181   4.756
 9212TIP3    H227578   7.514   5.032   4.774
 9213TIP3   OH227579   6.779   7.126   0.441
 9213TIP3    H127580   6.869   7.113   0.412
 9213TIP3    H227581   6.728   7.128   0.360
 9214TIP3   OH227582   0.603   5.993   5.494
 9214TIP3    H127583   0.587   5.901   5.471
 9214TIP3    H227584   0.647   5.988   5.579
 9215TIP3   OH227585   6.789   7.866   4.315
 9215TIP3    H127586   6.742   7.937   4.272
 9215TIP3    H227587   6.858   7.909   4.365
 9216TIP3   OH227588   6.854   2.319   5.510
 9216TIP3    H127589   6.926   2.289   5.565
 9216TIP3    H227590   6.825   2.401   5.550
 9217TIP3   OH227591   6.217   0.317   4.389
 9217TIP3    H127592   6.200   0.223   4.388
 9217TIP3    H227593   6.295   0.327   4.334
 9218TIP3   OH227594   6.044   2.768   3.290
 9218TIP3    H127595   5.978   2.828   3.253
 9218TIP3    H227596   6.054   2.700   3.223
 9219TIP3   OH227597   7.375   3.561   1.597
 9219TIP3    H127598   7.378   3.614   1.677
 9219TIP3    H227599   7.293   3.512   1.604
 9220TIP3   OH227600   2.752   0.236   1.805
 9220TIP3    H127601   2.660   0.220   1.823
 9220TIP3    H227602   2.784   0.284   1.882
 9221TIP3   OH227603   6.422   6.544   1.055
 9221TIP3    H127604   6.473   6.471   1.088
 9221TIP3    H227605   6.472   6.578   0.980
 9222TIP3   OH227606   5.993   2.562   4.578
 9222TIP3    H127607   5.965   2.471   4.594
 9222TIP3    H227608   5.921   2.615   4.613
 9223TIP3   OH227609   2.053   2.731   0.561
 9223TIP3    H127610   1.985   2.728   0.629
 9223TIP3    H227611   2.135   2.734   0.610
 9224TIP3   OH227612   6.569   2.246   5.745
 9224TIP3    H127613   6.571   2.248   5.649
 9224TIP3    H227614   6.514   2.171   5.766
 9225TIP3   OH227615   5.362   0.127   2.258
 9225TIP3    H127616   5.279   0.160   2.293
 9225TIP3    H227617   5.429   0.181   2.299
 9226TIP3   OH227618   3.901   7.681   3.812
 9226TIP3    H127619   3.969   7.614   3.808
 9226TIP3    H227620   3.929   7.748   3.749
 9227TIP3   OH227621   4.633   3.620   3.008
 9227TIP3    H127622   4.675   3.701   2.981
 9227TIP3    H227623   4.598   3.639   3.095
 9228TIP3   OH227624   0.743   0.480   5.993
 9228TIP3    H127625   0.719   0.489   6.085
 9228TIP3    H227626   0.818   0.539   5.982
 9229TIP3   OH227627   3.354   6.934   5.351
 9229TIP3    H127628   3.284   6.869   5.344
 9229TIP3    H227629   3.435   6.883   5.343
 9230TIP3   OH227630   7.255   7.892   5.135
 9230TIP3    H127631   7.290   7.894   5.046
 9230TIP3    H227632   7.296   7.966   5.179
 9231TIP3   OH227633   0.186   3.254   2.359
 9231TIP3    H127634   0.207   3.275   2.268
 9231TIP3    H227635   0.172   3.339   2.401
 9232TIP3   OH227636   5.481   2.581   5.794
 9232TIP3    H127637   5.539   2.657   5.783
 9232TIP3    H227638   5.541   2.508   5.811
 9233TIP3   OH227639   3.335   7.001   3.185
 9233TIP3    H127640   3.387   7.027   3.260
 9233TIP3    H227641   3.347   7.072   3.121
 9234TIP3   OH227642   5.506   7.469   4.857
 9234TIP3    H127643   5.460   7.462   4.773
 9234TIP3    H227644   5.443   7.437   4.922
 9235TIP3   OH227645   0.118   5.650   1.061
 9235TIP3    H127646   0.200   5.602   1.053
 9235TIP3    H227647   0.118   5.712   0.987
 9236TIP3   OH227648   0.554   4.943   3.748
 9236TIP3    H127649   0.508   5.027   3.750
 9236TIP3    H227650   0.501   4.885   3.802
 9237TIP3   OH227651   7.481   3.092   3.062
 9237TIP3    H127652   7.421   3.018   3.057
 9237TIP3    H227653   7.568   3.054   3.053
 9238TIP3   OH227654   7.575   6.871   5.108
 9238TIP3    H127655   7.614   6.958   5.096
 9238TIP3    H227656   7.605   6.843   5.195
 9239TIP3   OH227657   0.204   4.689   3.099
 9239TIP3    H127658   0.215   4.677   3.004
 9239TIP3    H227659   0.165   4.776   3.107
 9240TIP3   OH227660   6.688   2.122   6.115
 9240TIP3    H127661   6.704   2.124   6.021
 9240TIP3    H227662   6.643   2.205   6.133
 9241TIP3   OH227663   4.524   5.431   1.871
 9241TIP3    H127664   4.467   5.417   1.796
 9241TIP3    H227665   4.553   5.344   1.896
 9242TIP3   OH227666   2.497   5.126   0.162
 9242TIP3    H127667   2.407   5.093   0.154
 9242TIP3    H227668   2.505   5.149   0.255
 9243TIP3   OH227669   1.414   5.191   2.917
 9243TIP3    H127670   1.336   5.243   2.901
 9243TIP3    H227671   1.482   5.231   2.863
 9244TIP3   OH227672   2.512   2.328   3.560
 9244TIP3    H127673   2.597   2.318   3.603
 9244TIP3    H227674   2.525   2.399   3.498
 9245TIP3   OH227675   5.710   5.011   3.174
 9245TIP3    H127676   5.619   4.992   3.149
 9245TIP3    H227677   5.749   4.926   3.191
 9246TIP3   OH227678   6.516   3.779   0.483
 9246TIP3    H127679   6.504   3.710   0.548
 9246TIP3    H227680   6.485   3.740   0.401
 9247TIP3   OH227681   5.679   5.459   0.156
 9247TIP3    H127682   5.644   5.548   0.157
 9247TIP3    H227683   5.736   5.454   0.233
 9248TIP3   OH227684   4.089   0.776   2.644
 9248TIP3    H127685   4.120   0.815   2.561
 9248TIP3    H227686   4.160   0.792   2.706
 9249TIP3   OH227687   2.656   0.186   1.524
 9249TIP3    H127688   2.599   0.173   1.448
 9249TIP3    H227689   2.733   0.231   1.489
 9250TIP3   OH227690   0.605   0.079   2.502
 9250TIP3    H127691   0.681   0.039   2.459
 9250TIP3    H227692   0.619   0.173   2.491
 9251TIP3   OH227693   1.800   2.866   1.198
 9251TIP3    H127694   1.728   2.904   1.249
 9251TIP3    H227695   1.778   2.774   1.189
 9252TIP3   OH227696   8.088   5.153   1.237
 9252TIP3    H127697   8.179   5.123   1.240
 9252TIP3    H227698   8.093   5.244   1.207
 9253TIP3   OH227699   7.608   5.214   6.010
 9253TIP3    H127700   7.655   5.294   5.987
 9253TIP3    H227701   7.515   5.238   6.005
 9254TIP3   OH227702   4.511   0.265   3.825
 9254TIP3    H127703   4.502   0.172   3.842
 9254TIP3    H227704   4.441   0.306   3.876
 9255TIP3   OH227705   0.540   2.093   1.835
 9255TIP3    H127706   0.486   2.083   1.913
 9255TIP3    H227707   0.565   2.185   1.834
 9256TIP3   OH227708   8.239   2.603   3.900
 9256TIP3    H127709   8.331   2.576   3.897
 9256TIP3    H227710   8.215   2.618   3.809
 9257TIP3   OH227711   2.768   5.894   1.646
 9257TIP3    H127712   2.774   5.967   1.707
 9257TIP3    H227713   2.733   5.934   1.566
 9258TIP3   OH227714   7.823   3.995   5.505
 9258TIP3    H127715   7.881   3.999   5.582
 9258TIP3    H227716   7.763   4.069   5.517
 9259TIP3   OH227717   2.985   7.492   6.278
 9259TIP3    H127718   2.904   7.542   6.283
 9259TIP3    H227719   3.045   7.549   6.229
 9260TIP3   OH227720   3.695   2.758   5.412
 9260TIP3    H127721   3.681   2.697   5.485
 9260TIP3    H227722   3.667   2.843   5.446
 9261TIP3   OH227723   8.371   7.329   4.281
 9261TIP3    H127724   8.328   7.269   4.342
 9261TIP3    H227725   8.439   7.276   4.239
 9262TIP3   OH227726   3.318   3.380   1.345
 9262TIP3    H127727   3.313   3.374   1.250
 9262TIP3    H227728   3.373   3.306   1.371
 9263TIP3   OH227729   1.792   7.599   5.901
 9263TIP3    H127730   1.733   7.525   5.920
 9263TIP3    H227731   1.738   7.677   5.912
 9264TIP3   OH227732   2.263   0.470   0.001
 9264TIP3    H127733   2.217   0.404  -0.051
 9264TIP3    H227734   2.194   0.523   0.039
 9265TIP3   OH227735   0.834   4.974   4.555
 9265TIP3    H127736   0.925   4.995   4.577
 9265TIP3    H227737   0.807   4.911   4.622
 9266TIP3   OH227738   6.688   5.679   1.335
 9266TIP3    H127739   6.601   5.696   1.369
 9266TIP3    H227740   6.738   5.649   1.411
 9267TIP3   OH227741   1.177   7.408   0.453
 9267TIP3    H127742   1.197   7.491   0.495
 9267TIP3    H227743   1.231   7.344   0.498
 9268TIP3   OH227744   7.710   6.018   1.251
 9268TIP3    H127745   7.762   5.943   1.281
 9268TIP3    H227746   7.630   6.013   1.304
 9269TIP3   OH227747   6.045   1.433   2.918
 9269TIP3    H127748   6.068   1.489   2.844
 9269TIP3    H227749   6.123   1.378   2.932
 9270TIP3   OH227750   7.822   5.597   4.620
 9270TIP3    H127751   7.784   5.530   4.677
 9270TIP3    H227752   7.766   5.674   4.632
 9271TIP3   OH227753   8.086   0.019   2.751
 9271TIP3    H127754   8.051  -0.069   2.756
 9271TIP3    H227755   8.046   0.066   2.824
 9272TIP3   OH227756   1.205   7.723   1.690
 9272TIP3    H127757   1.173   7.633   1.686
 9272TIP3    H227758   1.139   7.774   1.643
 9273TIP3   OH227759   0.411   3.601   4.792
 9273TIP3    H127760   0.390   3.692   4.772
 9273TIP3    H227761   0.501   3.589   4.760
 9274TIP3   OH227762   7.966   2.705   0.436
 9274TIP3    H127763   7.981   2.793   0.400
 9274TIP3    H227764   8.001   2.710   0.525
 9275TIP3   OH227765   0.293   0.691   0.167
 9275TIP3    H127766   0.291   0.602   0.131
 9275TIP3    H227767   0.256   0.683   0.254
 9276TIP3   OH227768   3.221   1.028   4.232
 9276TIP3    H127769   3.145   1.064   4.277
 9276TIP3    H227770   3.189   1.005   4.145
 9277TIP3   OH227771   0.773   4.476   0.979
 9277TIP3    H127772   0.727   4.547   0.934
 9277TIP3    H227773   0.763   4.496   1.072
 9278TIP3   OH227774   0.059   7.668   2.945
 9278TIP3    H127775   0.027   7.746   2.900
 9278TIP3    H227776   0.091   7.701   3.029
 9279TIP3   OH227777   4.517   2.783   3.713
 9279TIP3    H127778   4.456   2.856   3.723
 9279TIP3    H227779   4.575   2.790   3.789
 9280TIP3   OH227780   1.915   6.742   1.807
 9280TIP3    H127781   1.882   6.809   1.867
 9280TIP3    H227782   2.006   6.768   1.791
 9281TIP3   OH227783   2.702   2.629   6.666
 9281TIP3    H127784   2.721   2.537   6.645
 9281TIP3    H227785   2.627   2.625   6.725
 9282TIP3   OH227786   0.437   5.535   1.296
 9282TIP3    H127787   0.351   5.572   1.317
 9282TIP3    H227788   0.428   5.441   1.314
 9283TIP3   OH227789   6.225   6.566   6.023
 9283TIP3    H127790   6.134   6.551   5.999
 9283TIP3    H227791   6.272   6.489   5.990
 9284TIP3   OH227792   5.724   0.888   5.833
 9284TIP3    H127793   5.706   0.967   5.884
 9284TIP3    H227794   5.639   0.865   5.795
 9285TIP3   OH227795   3.242   1.683   4.819
 9285TIP3    H127796   3.316   1.743   4.806
 9285TIP3    H227797   3.256   1.647   4.907
 9286TIP3   OH227798   5.860   0.139   1.077
 9286TIP3    H127799   5.771   0.109   1.096
 9286TIP3    H227800   5.848   0.212   1.016
 9287TIP3   OH227801   5.365   6.665   5.215
 9287TIP3    H127802   5.279   6.635   5.185
 9287TIP3    H227803   5.385   6.740   5.159
 9288TIP3   OH227804   1.740   1.046   5.043
 9288TIP3    H127805   1.662   1.070   4.993
 9288TIP3    H227806   1.764   0.960   5.010
 9289TIP3   OH227807   7.281   2.532   4.271
 9289TIP3    H127808   7.192   2.566   4.268
 9289TIP3    H227809   7.306   2.536   4.363
 9290TIP3   OH227810   5.107   0.925   1.624
 9290TIP3    H127811   5.061   0.868   1.563
 9290TIP3    H227812   5.163   0.979   1.568
 9291TIP3   OH227813   5.705   7.855   3.816
 9291TIP3    H127814   5.749   7.938   3.799
 9291TIP3    H227815   5.753   7.791   3.763
 9292TIP3   OH227816   6.476   0.269   0.636
 9292TIP3    H127817   6.498   0.351   0.680
 9292TIP3    H227818   6.398   0.290   0.583
 9293TIP3   OH227819   7.692   6.882   5.378
 9293TIP3    H127820   7.758   6.849   5.439
 9293TIP3    H227821   7.730   6.960   5.340
 9294TIP3   OH227822   5.814   5.959   0.565
 9294TIP3    H127823   5.844   6.046   0.540
 9294TIP3    H227824   5.757   5.973   0.640
 9295TIP3   OH227825   4.088   2.795   2.607
 9295TIP3    H127826   4.046   2.876   2.638
 9295TIP3    H227827   4.104   2.745   2.687
 9296TIP3   OH227828   5.597   3.408   2.472
 9296TIP3    H127829   5.610   3.421   2.565
 9296TIP3    H227830   5.629   3.319   2.454
 9297TIP3   OH227831   3.014   7.802   4.294
 9297TIP3    H127832   3.100   7.824   4.331
 9297TIP3    H227833   3.021   7.710   4.269
 9298TIP3   OH227834   7.729   0.575   2.364
 9298TIP3    H127835   7.685   0.595   2.281
 9298TIP3    H227836   7.820   0.558   2.339
 9299TIP3   OH227837   1.968   4.807   6.204
 9299TIP3    H127838   1.931   4.890   6.173
 9299TIP3    H227839   1.929   4.741   6.147
 9300TIP3   OH227840   0.649   0.906   2.941
 9300TIP3    H127841   0.726   0.937   2.892
 9300TIP3    H227842   0.575   0.945   2.895
 9301TIP3   OH227843   4.949   7.478   1.225
 9301TIP3    H127844   4.908   7.394   1.207
 9301TIP3    H227845   4.991   7.503   1.142
 9302TIP3   OH227846   5.920   3.811   0.237
 9302TIP3    H127847   6.005   3.842   0.269
 9302TIP3    H227848   5.936   3.719   0.212
 9303TIP3   OH227849   2.881   7.875   0.079
 9303TIP3    H127850   2.944   7.835   0.020
 9303TIP3    H227851   2.812   7.908   0.022
 9304TIP3   OH227852   2.584   0.498   5.458
 9304TIP3    H127853   2.521   0.539   5.517
 9304TIP3    H227854   2.533   0.433   5.409
 9305TIP3   OH227855   4.892   4.891   1.181
 9305TIP3    H127856   4.936   4.863   1.101
 9305TIP3    H227857   4.799   4.883   1.161
 9306TIP3   OH227858   7.202   6.992   5.514
 9306TIP3    H127859   7.181   6.982   5.607
 9306TIP3    H227860   7.297   6.999   5.511
 9307TIP3   OH227861   5.704   3.843   1.474
 9307TIP3    H127862   5.726   3.763   1.427
 9307TIP3    H227863   5.713   3.912   1.408
 9308TIP3   OH227864   2.394   4.256   5.619
 9308TIP3    H127865   2.359   4.307   5.545
 9308TIP3    H227866   2.373   4.309   5.696
 9309TIP3   OH227867   5.046   2.651   2.105
 9309TIP3    H127868   5.045   2.656   2.009
 9309TIP3    H227869   4.965   2.695   2.131
 9310TIP3   OH227870   4.316   5.206   4.613
 9310TIP3    H127871   4.409   5.205   4.593
 9310TIP3    H227872   4.305   5.281   4.672
 9311TIP3   OH227873   8.219   3.444   5.544
 9311TIP3    H127874   8.301   3.468   5.588
 9311TIP3    H227875   8.221   3.349   5.539
 9312TIP3   OH227876   5.240   4.202   1.504
 9312TIP3    H127877   5.217   4.112   1.478
 9312TIP3    H227878   5.333   4.197   1.525
 9313TIP3   OH227879   0.732   5.671   6.119
 9313TIP3    H127880   0.642   5.650   6.092
 9313TIP3    H227881   0.767   5.587   6.149
 9314TIP3   OH227882   1.660   0.859   6.395
 9314TIP3    H127883   1.721   0.798   6.354
 9314TIP3    H227884   1.714   0.934   6.420
 9315TIP3   OH227885   0.581   0.950   0.162
 9315TIP3    H127886   0.582   0.910   0.075
 9315TIP3    H227887   0.630   1.032   0.152
 9316TIP3   OH227888   0.525   7.117   4.244
 9316TIP3    H127889   0.473   7.076   4.313
 9316TIP3    H227890   0.477   7.197   4.222
 9317TIP3   OH227891   2.114   0.630   1.724
 9317TIP3    H127892   2.069   0.663   1.802
 9317TIP3    H227893   2.124   0.707   1.668
 9318TIP3   OH227894   5.335   0.377   1.914
 9318TIP3    H127895   5.364   0.436   1.845
 9318TIP3    H227896   5.312   0.296   1.869
 9319TIP3   OH227897   0.363   4.233   0.535
 9319TIP3    H127898   0.365   4.300   0.604
 9319TIP3    H227899   0.410   4.159   0.572
 9320TIP3   OH227900   5.418   1.712   5.749
 9320TIP3    H127901   5.437   1.625   5.714
 9320TIP3    H227902   5.366   1.755   5.681
 9321TIP3   OH227903   0.902   7.285   1.294
 9321TIP3    H127904   0.833   7.271   1.358
 9321TIP3    H227905   0.923   7.378   1.301
 9322TIP3   OH227906   2.442   3.896   0.818
 9322TIP3    H127907   2.496   3.967   0.853
 9322TIP3    H227908   2.475   3.884   0.729
 9323TIP3   OH227909   7.217   2.866   0.255
 9323TIP3    H127910   7.292   2.842   0.309
 9323TIP3    H227911   7.234   2.956   0.228
 9324TIP3   OH227912   3.783   3.160   6.693
 9324TIP3    H127913   3.877   3.150   6.706
 9324TIP3    H227914   3.746   3.074   6.714
 9325TIP3   OH227915   6.697   7.894   5.177
 9325TIP3    H127916   6.688   7.845   5.259
 9325TIP3    H227917   6.754   7.839   5.122
 9326TIP3   OH227918   6.244   2.061   6.679
 9326TIP3    H127919   6.255   2.096   6.767
 9326TIP3    H227920   6.157   2.022   6.680
 9327TIP3   OH227921   5.496   2.534   5.173
 9327TIP3    H127922   5.554   2.545   5.098
 9327TIP3    H227923   5.454   2.449   5.159
 9328TIP3   OH227924   8.186   3.626   1.954
 9328TIP3    H127925   8.276   3.611   1.926
 9328TIP3    H227926   8.139   3.548   1.925
 9329TIP3   OH227927   7.439   5.928   6.556
 9329TIP3    H127928   7.496   5.883   6.619
 9329TIP3    H227929   7.447   6.021   6.579
 9330TIP3   OH227930   0.424   6.339   3.059
 9330TIP3    H127931   0.360   6.333   2.988
 9330TIP3    H227932   0.405   6.422   3.102
 9331TIP3   OH227933   5.106   1.656   5.506
 9331TIP3    H127934   5.106   1.601   5.427
 9331TIP3    H227935   5.076   1.598   5.576
 9332TIP3   OH227936   0.838   1.248   6.029
 9332TIP3    H127937   0.910   1.201   5.987
 9332TIP3    H227938   0.878   1.329   6.062
 9333TIP3   OH227939   1.481   5.645   5.076
 9333TIP3    H127940   1.447   5.556   5.081
 9333TIP3    H227941   1.407   5.699   5.048
 9334TIP3   OH227942   7.466   2.957   2.686
 9334TIP3    H127943   7.460   2.940   2.592
 9334TIP3    H227944   7.560   2.967   2.703
 9335TIP3   OH227945   3.343   6.304   2.563
 9335TIP3    H127946   3.425   6.279   2.606
 9335TIP3    H227947   3.280   6.312   2.635
 9336TIP3   OH227948   4.990   6.008   3.228
 9336TIP3    H127949   4.899   6.017   3.257
 9336TIP3    H227950   5.041   6.026   3.307
 9337TIP3   OH227951   1.994   0.234   0.992
 9337TIP3    H127952   2.068   0.263   1.045
 9337TIP3    H227953   1.956   0.315   0.958
 9338TIP3   OH227954   6.904   7.628   3.908
 9338TIP3    H127955   6.826   7.594   3.864
 9338TIP3    H227956   6.894   7.723   3.903
 9339TIP3   OH227957   0.304   2.701   4.265
 9339TIP3    H127958   0.346   2.734   4.345
 9339TIP3    H227959   0.253   2.626   4.294
 9340TIP3   OH227960   2.625   5.683   4.433
 9340TIP3    H127961   2.593   5.663   4.345
 9340TIP3    H227962   2.692   5.617   4.451
 9341TIP3   OH227963   1.694   2.413   2.912
 9341TIP3    H127964   1.726   2.432   3.000
 9341TIP3    H227965   1.599   2.405   2.923
 9342TIP3   OH227966   2.987   7.319   5.806
 9342TIP3    H127967   3.002   7.278   5.721
 9342TIP3    H227968   3.036   7.265   5.868
 9343TIP3   OH227969   1.223   6.711   2.713
 9343TIP3    H127970   1.278   6.754   2.647
 9343TIP3    H227971   1.225   6.771   2.788
 9344TIP3   OH227972   3.613   4.158   6.167
 9344TIP3    H127973   3.629   4.246   6.200
 9344TIP3    H227974   3.552   4.171   6.094
 9345TIP3   OH227975   1.960   0.219   5.345
 9345TIP3    H127976   1.935   0.177   5.427
 9345TIP3    H227977   2.034   0.276   5.368
 9346TIP3   OH227978   2.925   1.177   2.292
 9346TIP3    H127979   2.872   1.097   2.291
 9346TIP3    H227980   3.003   1.154   2.241
 9347TIP3   OH227981   1.078   0.778   1.735
 9347TIP3    H127982   1.169   0.773   1.704
 9347TIP3    H227983   1.085   0.806   1.826
 9348TIP3   OH227984   7.486   6.155   4.125
 9348TIP3    H127985   7.516   6.217   4.192
 9348TIP3    H227986   7.473   6.073   4.173
 9349TIP3   OH227987   1.572   2.422   1.405
 9349TIP3    H127988   1.539   2.490   1.346
 9349TIP3    H227989   1.624   2.470   1.470
 9350TIP3   OH227990   0.339   4.042   1.219
 9350TIP3    H127991   0.332   4.020   1.312
 9350TIP3    H227992   0.249   4.062   1.192
 9351TIP3   OH227993   7.756   2.347   2.149
 9351TIP3    H127994   7.821   2.394   2.201
 9351TIP3    H227995   7.712   2.415   2.098
 9352TIP3   OH227996   5.486   0.605   3.066
 9352TIP3    H127997   5.419   0.546   3.032
 9352TIP3    H227998   5.454   0.632   3.152
 9353TIP3   OH227999   6.019   6.534   4.453
 9353TIP3    H128000   6.086   6.600   4.465
 9353TIP3    H228001   5.976   6.528   4.538
 9354TIP3   OH228002   5.770   0.689   4.631
 9354TIP3    H128003   5.865   0.703   4.622
 9354TIP3    H228004   5.745   0.744   4.705
 9355TIP3   OH228005   8.134   6.475   0.164
 9355TIP3    H128006   8.115   6.568   0.176
 9355TIP3    H228007   8.085   6.450   0.086
 9356TIP3   OH228008   7.893   3.726   5.139
 9356TIP3    H128009   7.804   3.748   5.165
 9356TIP3    H228010   7.928   3.808   5.103
 9357TIP3   OH228011   1.218   3.082   5.844
 9357TIP3    H128012   1.132   3.043   5.861
 9357TIP3    H228013   1.276   3.042   5.909
 9358TIP3   OH228014   5.777   0.765   6.160
 9358TIP3    H128015   5.722   0.689   6.143
 9358TIP3    H228016   5.847   0.731   6.217
 9359TIP3   OH228017   3.161   6.821   4.698
 9359TIP3    H128018   3.253   6.829   4.672
 9359TIP3    H228019   3.130   6.911   4.705
 9360TIP3   OH228020   7.870   4.685   1.911
 9360TIP3    H128021   7.783   4.646   1.922
 9360TIP3    H228022   7.917   4.624   1.854
 9361TIP3   OH228023   4.470   0.537   3.637
 9361TIP3    H128024   4.439   0.572   3.720
 9361TIP3    H228025   4.479   0.443   3.652
 9362TIP3   OH228026   2.928   1.613   3.157
 9362TIP3    H128027   2.985   1.537   3.140
 9362TIP3    H228028   2.852   1.598   3.101
 9363TIP3   OH228029   3.243   7.043   1.538
 9363TIP3    H128030   3.235   6.952   1.569
 9363TIP3    H228031   3.263   7.034   1.445
 9364TIP3   OH228032   7.889   6.160   3.561
 9364TIP3    H128033   7.952   6.152   3.489
 9364TIP3    H228034   7.868   6.254   3.564
 9365TIP3   OH228035   1.928   1.114   1.518
 9365TIP3    H128036   1.993   1.166   1.471
 9365TIP3    H228037   1.896   1.052   1.453
 9366TIP3   OH228038   7.157   7.549   3.900
 9366TIP3    H128039   7.074   7.594   3.912
 9366TIP3    H228040   7.167   7.496   3.979
 9367TIP3   OH228041   6.240   5.308   2.966
 9367TIP3    H128042   6.159   5.310   3.018
 9367TIP3    H228043   6.252   5.216   2.943
 9368TIP3   OH228044   0.214   7.777   4.163
 9368TIP3    H128045   0.282   7.837   4.132
 9368TIP3    H228046   0.137   7.798   4.110
 9369TIP3   OH228047   1.527   4.446   6.825
 9369TIP3    H128048   1.574   4.370   6.860
 9369TIP3    H228049   1.509   4.424   6.734
 9370TIP3   OH228050   2.628   2.972   4.348
 9370TIP3    H128051   2.565   3.041   4.328
 9370TIP3    H228052   2.698   2.984   4.284
 9371TIP3   OH228053   6.331   4.947   4.679
 9371TIP3    H128054   6.418   4.964   4.642
 9371TIP3    H228055   6.306   5.029   4.720
 9372TIP3   OH228056   4.995   5.448   0.796
 9372TIP3    H128057   5.018   5.541   0.789
 9372TIP3    H228058   4.907   5.442   0.760
 9373TIP3   OH228059   1.631   7.218   4.631
 9373TIP3    H128060   1.694   7.244   4.699
 9373TIP3    H228061   1.679   7.156   4.577
 9374TIP3   OH228062   3.150   4.464   1.788
 9374TIP3    H128063   3.167   4.380   1.745
 9374TIP3    H228064   3.146   4.443   1.881
 9375TIP3   OH228065   5.764   5.751   0.401
 9375TIP3    H128066   5.672   5.755   0.374
 9375TIP3    H228067   5.767   5.802   0.482
 9376TIP3   OH228068   0.377   2.225   5.258
 9376TIP3    H128069   0.332   2.258   5.180
 9376TIP3    H228070   0.309   2.181   5.308
 9377TIP3   OH228071   4.896   4.643   6.200
 9377TIP3    H128072   4.802   4.624   6.196
 9377TIP3    H228073   4.915   4.654   6.293
 9378TIP3   OH228074   6.432   1.053   4.409
 9378TIP3    H128075   6.517   1.056   4.365
 9378TIP3    H228076   6.368   1.054   4.337
 9379TIP3   OH228077   5.326   4.947   4.802
 9379TIP3    H128078   5.313   5.010   4.873
 9379TIP3    H228079   5.238   4.920   4.776
 9380TIP3   OH228080   4.724   5.279   3.206
 9380TIP3    H128081   4.654   5.303   3.145
 9380TIP3    H228082   4.764   5.201   3.168
 9381TIP3   OH228083   2.462   2.444   6.542
 9381TIP3    H128084   2.460   2.540   6.539
 9381TIP3    H228085   2.371   2.418   6.534
 9382TIP3   OH228086   0.859   6.994   6.652
 9382TIP3    H128087   0.852   6.924   6.588
 9382TIP3    H228088   0.930   6.966   6.710
 9383TIP3   OH228089   7.636   1.858   2.919
 9383TIP3    H128090   7.545   1.877   2.941
 9383TIP3    H228091   7.659   1.922   2.852
 9384TIP3   OH228092   1.010   5.909   4.650
 9384TIP3    H128093   0.951   5.889   4.722
 9384TIP3    H228094   0.970   5.985   4.607
 9385TIP3   OH228095   7.891   6.682   4.989
 9385TIP3    H128096   7.806   6.688   4.947
 9385TIP3    H228097   7.903   6.766   5.033
 9386TIP3   OH228098   5.781   5.173   2.233
 9386TIP3    H128099   5.777   5.268   2.219
 9386TIP3    H228100   5.859   5.145   2.186
 9387TIP3   OH228101   4.179   0.217   6.205
 9387TIP3    H128102   4.261   0.241   6.248
 9387TIP3    H228103   4.206   0.184   6.119
 9388TIP3   OH228104   3.661   4.654   1.786
 9388TIP3    H128105   3.692   4.583   1.730
 9388TIP3    H228106   3.586   4.617   1.832
 9389TIP3   OH228107   6.873   1.659   5.919
 9389TIP3    H128108   6.918   1.733   5.961
 9389TIP3    H228109   6.842   1.606   5.992
 9390TIP3   OH228110   2.270   3.401   2.328
 9390TIP3    H128111   2.208   3.471   2.311
 9390TIP3    H228112   2.327   3.435   2.396
 9391TIP3   OH228113   1.457   4.804   6.513
 9391TIP3    H128114   1.518   4.790   6.586
 9391TIP3    H228115   1.513   4.804   6.436
 9392TIP3   OH228116   2.849   2.273   0.730
 9392TIP3    H128117   2.808   2.193   0.697
 9392TIP3    H228118   2.936   2.274   0.689
 9393TIP3   OH228119   1.214   3.185   0.814
 9393TIP3    H128120   1.178   3.135   0.888
 9393TIP3    H228121   1.187   3.275   0.831
 9394TIP3   OH228122   5.671   0.307   2.251
 9394TIP3    H128123   5.642   0.230   2.299
 9394TIP3    H228124   5.764   0.291   2.234
 9395TIP3   OH228125   2.577   2.055   4.186
 9395TIP3    H128126   2.537   2.053   4.099
 9395TIP3    H228127   2.638   2.129   4.183
 9396TIP3   OH228128   2.572   5.020   2.780
 9396TIP3    H128129   2.610   4.933   2.788
 9396TIP3    H228130   2.600   5.051   2.694
 9397TIP3   OH228131   5.883   5.040   6.770
 9397TIP3    H128132   5.866   4.998   6.854
 9397TIP3    H228133   5.965   5.000   6.740
 9398TIP3   OH228134   0.489   6.264   4.770
 9398TIP3    H128135   0.479   6.340   4.714
 9398TIP3    H228136   0.577   6.231   4.753
 9399TIP3   OH228137   4.881   2.023   1.261
 9399TIP3    H128138   4.863   1.929   1.249
 9399TIP3    H228139   4.910   2.031   1.352
 9400TIP3   OH228140   5.805   1.069   2.122
 9400TIP3    H128141   5.887   1.034   2.157
 9400TIP3    H228142   5.831   1.149   2.076
 9401TIP3   OH228143   3.202   5.284   6.495
 9401TIP3    H128144   3.163   5.205   6.458
 9401TIP3    H228145   3.137   5.317   6.557
 9402TIP3   OH228146   7.088   4.947   4.037
 9402TIP3    H128147   7.116   4.938   4.129
 9402TIP3    H228148   7.005   4.899   4.032
 9403TIP3   OH228149   4.480   1.881   4.258
 9403TIP3    H128150   4.485   1.958   4.202
 9403TIP3    H228151   4.533   1.903   4.334
 9404TIP3   OH228152   1.112   2.598   0.524
 9404TIP3    H128153   1.148   2.596   0.435
 9404TIP3    H228154   1.173   2.545   0.576
 9405TIP3   OH228155   8.175   0.803   1.394
 9405TIP3    H128156   8.088   0.842   1.383
 9405TIP3    H228157   8.169   0.719   1.349
 9406TIP3   OH228158   0.593   2.526   5.136
 9406TIP3    H128159   0.610   2.432   5.143
 9406TIP3    H228160   0.613   2.561   5.223
 9407TIP3   OH228161   5.616   6.873   6.140
 9407TIP3    H128162   5.650   6.819   6.211
 9407TIP3    H228163   5.554   6.816   6.093
 9408TIP3   OH228164   8.090   1.023   1.033
 9408TIP3    H128165   8.142   0.968   0.975
 9408TIP3    H228166   8.015   0.969   1.057
 9409TIP3   OH228167   5.994   3.039   3.523
 9409TIP3    H128168   5.906   3.001   3.524
 9409TIP3    H228169   6.020   3.040   3.615
 9410TIP3   OH228170   7.421   4.359   1.500
 9410TIP3    H128171   7.358   4.410   1.449
 9410TIP3    H228172   7.503   4.367   1.452
 9411TIP3   OH228173   8.255   7.910   1.025
 9411TIP3    H128174   8.291   7.969   0.959
 9411TIP3    H228175   8.248   7.963   1.104
 9412TIP3   OH228176   5.581   1.419   1.288
 9412TIP3    H128177   5.611   1.503   1.322
 9412TIP3    H228178   5.572   1.434   1.194
 9413TIP3   OH228179   7.994   6.111   4.059
 9413TIP3    H128180   8.013   6.204   4.047
 9413TIP3    H228181   7.962   6.082   3.974
 9414TIP3   OH228182   6.854   6.706   6.810
 9414TIP3    H128183   6.905   6.786   6.821
 9414TIP3    H228184   6.857   6.689   6.716
 9415TIP3   OH228185   0.419   3.988   4.549
 9415TIP3    H128186   0.479   4.016   4.480
 9415TIP3    H228187   0.337   4.032   4.529
 9416TIP3   OH228188   6.085   6.016   0.795
 9416TIP3    H128189   6.115   6.047   0.880
 9416TIP3    H228190   6.067   6.095   0.745
 9417TIP3   OH228191   3.560   0.489   2.072
 9417TIP3    H128192   3.593   0.402   2.094
 9417TIP3    H228193   3.465   0.478   2.069
 9418TIP3   OH228194   2.785   2.874   2.704
 9418TIP3    H128195   2.750   2.898   2.618
 9418TIP3    H228196   2.708   2.860   2.758
 9419TIP3   OH228197   4.346   3.717   4.389
 9419TIP3    H128198   4.266   3.666   4.404
 9419TIP3    H228199   4.403   3.692   4.462
 9420TIP3   OH228200   7.439   2.320   3.705
 9420TIP3    H128201   7.441   2.231   3.740
 9420TIP3    H228202   7.392   2.312   3.622
 9421TIP3   OH228203   0.426   0.361   3.300
 9421TIP3    H128204   0.500   0.422   3.305
 9421TIP3    H228205   0.348   0.417   3.305
 9422TIP3   OH228206   5.836   4.859   0.510
 9422TIP3    H128207   5.868   4.770   0.495
 9422TIP3    H228208   5.896   4.914   0.459
 9423TIP3   OH228209   6.371   6.160   5.350
 9423TIP3    H128210   6.453   6.185   5.392
 9423TIP3    H228211   6.330   6.098   5.411
 9424TIP3   OH228212   7.715   3.922   4.338
 9424TIP3    H128213   7.749   3.859   4.402
 9424TIP3    H228214   7.793   3.956   4.294
 9425TIP3   OH228215   2.938   6.345   3.862
 9425TIP3    H128216   2.904   6.257   3.848
 9425TIP3    H228217   2.871   6.389   3.915
 9426TIP3   OH228218   3.534   3.187   5.151
 9426TIP3    H128219   3.453   3.143   5.127
 9426TIP3    H228220   3.542   3.174   5.245
 9427TIP3   OH228221   5.337   6.662   3.899
 9427TIP3    H128222   5.366   6.605   3.971
 9427TIP3    H228223   5.418   6.699   3.864
 9428TIP3   OH228224   1.332   1.447   2.890
 9428TIP3    H128225   1.419   1.483   2.906
 9428TIP3    H228226   1.323   1.376   2.954
 9429TIP3   OH228227   0.543   4.724   4.013
 9429TIP3    H128228   0.473   4.784   3.989
 9429TIP3    H228229   0.498   4.645   4.045
 9430TIP3   OH228230   1.513   5.877   1.606
 9430TIP3    H128231   1.527   5.972   1.606
 9430TIP3    H228232   1.545   5.848   1.691
 9431TIP3   OH228233   7.444   7.681   4.109
 9431TIP3    H128234   7.451   7.607   4.170
 9431TIP3    H228235   7.431   7.641   4.023
 9432TIP3   OH228236   0.651   3.396   4.784
 9432TIP3    H128237   0.600   3.317   4.768
 9432TIP3    H228238   0.716   3.369   4.849
 9433TIP3   OH228239   3.892   0.185   6.298
 9433TIP3    H128240   3.869   0.233   6.378
 9433TIP3    H228241   3.985   0.204   6.285
 9434TIP3   OH228242   5.396   6.000   3.960
 9434TIP3    H128243   5.408   6.081   3.910
 9434TIP3    H228244   5.313   5.964   3.928
 9435TIP3   OH228245   7.916   3.573   4.891
 9435TIP3    H128246   7.916   3.573   4.987
 9435TIP3    H228247   7.915   3.665   4.867
 9436TIP3   OH228248   5.328   5.517   3.273
 9436TIP3    H128249   5.262   5.585   3.259
 9436TIP3    H228250   5.364   5.537   3.360
 9437TIP3   OH228251   0.953   0.577   4.278
 9437TIP3    H128252   0.931   0.484   4.283
 9437TIP3    H228253   0.960   0.605   4.369
 9438TIP3   OH228254   1.490   7.428   0.309
 9438TIP3    H128255   1.489   7.505   0.366
 9438TIP3    H228256   1.499   7.354   0.370
 9439TIP3   OH228257   6.077   1.863   2.270
 9439TIP3    H128258   6.148   1.900   2.217
 9439TIP3    H228259   6.100   1.885   2.360
 9440TIP3   OH228260   8.356   6.139   5.618
 9440TIP3    H128261   8.407   6.143   5.537
 9440TIP3    H228262   8.299   6.063   5.607
 9441TIP3   OH228263   7.949   6.258   2.058
 9441TIP3    H128264   7.944   6.312   2.137
 9441TIP3    H228265   7.906   6.176   2.082
 9442TIP3   OH228266   4.161   1.790   6.117
 9442TIP3    H128267   4.231   1.733   6.084
 9442TIP3    H228268   4.206   1.852   6.174
 9443TIP3   OH228269   4.349   3.143   4.510
 9443TIP3    H128270   4.268   3.131   4.460
 9443TIP3    H228271   4.331   3.219   4.566
 9444TIP3   OH228272   3.950   6.151   0.774
 9444TIP3    H128273   3.873   6.157   0.830
 9444TIP3    H228274   3.955   6.058   0.751
 9445TIP3   OH228275   5.342   1.741   4.900
 9445TIP3    H128276   5.423   1.691   4.911
 9445TIP3    H228277   5.333   1.791   4.981
 9446TIP3   OH228278   0.269   7.029   3.687
 9446TIP3    H128279   0.232   6.956   3.638
 9446TIP3    H228280   0.362   7.025   3.669
 9447TIP3   OH228281   1.917   4.294   1.287
 9447TIP3    H128282   1.888   4.357   1.221
 9447TIP3    H228283   1.863   4.216   1.272
 9448TIP3   OH228284   6.935   7.586   5.676
 9448TIP3    H128285   6.984   7.656   5.719
 9448TIP3    H228286   6.957   7.594   5.583
 9449TIP3   OH228287   3.159   6.547   1.381
 9449TIP3    H128288   3.179   6.516   1.469
 9449TIP3    H228289   3.193   6.479   1.323
 9450TIP3   OH228290   0.619   7.053   3.109
 9450TIP3    H128291   0.677   7.050   3.186
 9450TIP3    H228292   0.532   7.064   3.146
 9451TIP3   OH228293   4.352   7.129   6.047
 9451TIP3    H128294   4.275   7.132   6.104
 9451TIP3    H228295   4.329   7.064   5.980
 9452TIP3   OH228296   5.744   6.472   3.472
 9452TIP3    H128297   5.798   6.400   3.504
 9452TIP3    H228298   5.682   6.431   3.412
 9453TIP3   OH228299   5.739   5.683   4.006
 9453TIP3    H128300   5.805   5.623   4.043
 9453TIP3    H228301   5.791   5.751   3.963
 9454TIP3   OH228302   4.246   0.172   5.318
 9454TIP3    H128303   4.155   0.175   5.348
 9454TIP3    H228304   4.286   0.101   5.369
 9455TIP3   OH228305   8.283   5.675   2.824
 9455TIP3    H128306   8.228   5.649   2.750
 9455TIP3    H228307   8.330   5.753   2.794
 9456TIP3   OH228308   6.104   3.766   4.374
 9456TIP3    H128309   6.010   3.765   4.360
 9456TIP3    H228310   6.142   3.753   4.287
 9457TIP3   OH228311   2.448   4.275   1.389
 9457TIP3    H128312   2.481   4.314   1.470
 9457TIP3    H228313   2.390   4.342   1.352
 9458TIP3   OH228314   2.843   3.183   5.522
 9458TIP3    H128315   2.793   3.160   5.600
 9458TIP3    H228316   2.790   3.248   5.476
 9459TIP3   OH228317   8.382   1.991   6.160
 9459TIP3    H128318   8.391   1.899   6.135
 9459TIP3    H228319   8.324   1.989   6.236
 9460TIP3   OH228320   0.854   1.698   1.599
 9460TIP3    H128321   0.790   1.749   1.648
 9460TIP3    H228322   0.829   1.709   1.507
 9461TIP3   OH228323   0.697   6.656   5.612
 9461TIP3    H128324   0.660   6.568   5.622
 9461TIP3    H228325   0.782   6.642   5.571
 9462TIP3   OH228326   6.843   6.458   2.717
 9462TIP3    H128327   6.884   6.507   2.789
 9462TIP3    H228328   6.853   6.366   2.742
 9463TIP3   OH228329   3.821   5.633   5.430
 9463TIP3    H128330   3.911   5.603   5.413
 9463TIP3    H228331   3.806   5.700   5.364
 9464TIP3   OH228332   2.237   0.393   1.076
 9464TIP3    H128333   2.229   0.486   1.058
 9464TIP3    H228334   2.196   0.381   1.162
 9465TIP3   OH228335   5.160   7.088   3.624
 9465TIP3    H128336   5.200   7.164   3.666
 9465TIP3    H228337   5.173   7.016   3.685
 9466TIP3   OH228338   0.195   4.185   2.708
 9466TIP3    H128339   0.211   4.101   2.751
 9466TIP3    H228340   0.278   4.231   2.712
 9467TIP3   OH228341   5.449   2.801   0.202
 9467TIP3    H128342   5.471   2.848   0.122
 9467TIP3    H228343   5.436   2.710   0.174
 9468TIP3   OH228344   7.009   0.792   6.834
 9468TIP3    H128345   6.993   0.885   6.819
 9468TIP3    H228346   7.104   0.782   6.824
 9469TIP3   OH228347   5.062   1.905   2.715
 9469TIP3    H128348   5.133   1.841   2.710
 9469TIP3    H228349   5.006   1.874   2.786
 9470TIP3   OH228350   2.483   4.682   2.578
 9470TIP3    H128351   2.554   4.744   2.595
 9470TIP3    H228352   2.476   4.630   2.658
 9471TIP3   OH228353   3.539   5.511   0.840
 9471TIP3    H128354   3.555   5.428   0.797
 9471TIP3    H228355   3.623   5.556   0.837
 9472TIP3   OH228356   7.180   7.060   0.181
 9472TIP3    H128357   7.125   7.137   0.193
 9472TIP3    H228358   7.257   7.093   0.134
 9473TIP3   OH228359   6.880   6.990   6.752
 9473TIP3    H128360   6.812   6.946   6.700
 9473TIP3    H228361   6.866   7.083   6.734
 9474TIP3   OH228362   0.596   3.184   2.807
 9474TIP3    H128363   0.681   3.199   2.849
 9474TIP3    H228364   0.591   3.089   2.795
 9475TIP3   OH228365   0.611   7.163   4.640
 9475TIP3    H128366   0.561   7.181   4.719
 9475TIP3    H228367   0.610   7.245   4.591
 9476TIP3   OH228368   2.060   5.490   5.879
 9476TIP3    H128369   2.092   5.547   5.949
 9476TIP3    H228370   1.965   5.498   5.884
 9477TIP3   OH228371   7.197   1.005   4.836
 9477TIP3    H128372   7.120   0.949   4.821
 9477TIP3    H228373   7.235   1.018   4.750
 9478TIP3   OH228374   2.896   0.904   1.585
 9478TIP3    H128375   2.823   0.856   1.623
 9478TIP3    H228376   2.929   0.959   1.656
 9479TIP3   OH228377   7.962   6.938   0.439
 9479TIP3    H128378   8.053   6.959   0.460
 9479TIP3    H228379   7.911   7.002   0.490
 9480TIP3   OH228380   3.893   0.241   2.272
 9480TIP3    H128381   3.976   0.289   2.272
 9480TIP3    H228382   3.919   0.149   2.274
 9481TIP3   OH228383   1.510   4.469   0.542
 9481TIP3    H128384   1.597   4.428   0.544
 9481TIP3    H228385   1.525   4.553   0.500
 9482TIP3   OH228386   4.868   4.802   5.661
 9482TIP3    H128387   4.828   4.824   5.745
 9482TIP3    H228388   4.818   4.851   5.596
 9483TIP3   OH228389   1.625   5.394   3.068
 9483TIP3    H128390   1.687   5.321   3.064
 9483TIP3    H228391   1.544   5.358   3.033
 9484TIP3   OH228392   6.037   3.946   0.912
 9484TIP3    H128393   5.960   3.977   0.864
 9484TIP3    H228394   6.110   3.963   0.852
 9485TIP3   OH228395   1.704   4.325   2.946
 9485TIP3    H128396   1.695   4.292   2.857
 9485TIP3    H228397   1.766   4.398   2.938
 9486TIP3   OH228398   0.924   1.942   1.149
 9486TIP3    H128399   0.963   1.861   1.180
 9486TIP3    H228400   0.955   2.009   1.210
 9487TIP3   OH228401   4.024   1.700   2.874
 9487TIP3    H128402   4.051   1.667   2.959
 9487TIP3    H228403   3.947   1.754   2.892
 9488TIP3   OH228404   5.138   3.927   0.645
 9488TIP3    H128405   5.146   3.999   0.582
 9488TIP3    H228406   5.084   3.862   0.600
 9489TIP3   OH228407   2.159   6.839   4.607
 9489TIP3    H128408   2.159   6.932   4.630
 9489TIP3    H228409   2.250   6.811   4.619
 9490TIP3   OH228410   4.277   0.982   0.203
 9490TIP3    H128411   4.269   1.078   0.205
 9490TIP3    H228412   4.369   0.966   0.223
 9491TIP3   OH228413   2.643   6.112   2.935
 9491TIP3    H128414   2.624   6.206   2.927
 9491TIP3    H228415   2.667   6.101   3.027
 9492TIP3   OH228416   1.050   1.329   0.971
 9492TIP3    H128417   1.000   1.411   0.968
 9492TIP3    H228418   1.045   1.302   1.063
 9493TIP3   OH228419   0.507   1.163   4.362
 9493TIP3    H128420   0.502   1.193   4.453
 9493TIP3    H228421   0.574   1.095   4.362
 9494TIP3   OH228422   3.607   2.220   4.881
 9494TIP3    H128423   3.524   2.196   4.923
 9494TIP3    H228424   3.614   2.314   4.895
 9495TIP3   OH228425   3.306   5.855   0.272
 9495TIP3    H128426   3.233   5.916   0.262
 9495TIP3    H228427   3.278   5.777   0.223
 9496TIP3   OH228428   3.889   3.870   4.655
 9496TIP3    H128429   3.889   3.881   4.560
 9496TIP3    H228430   3.832   3.941   4.687
 9497TIP3   OH228431   3.047   0.202   6.438
 9497TIP3    H128432   3.056   0.282   6.490
 9497TIP3    H228433   2.953   0.186   6.435
 9498TIP3   OH228434   2.935   0.884   1.252
 9498TIP3    H128435   2.940   0.904   1.159
 9498TIP3    H228436   2.952   0.790   1.258
 9499TIP3   OH228437   2.852   4.361   0.758
 9499TIP3    H128438   2.901   4.375   0.839
 9499TIP3    H228439   2.835   4.449   0.725
 9500TIP3   OH228440   7.141   5.885   0.146
 9500TIP3    H128441   7.047   5.906   0.148
 9500TIP3    H228442   7.184   5.967   0.169
 9501TIP3   OH228443   2.963   5.590   1.829
 9501TIP3    H128444   2.870   5.576   1.846
 9501TIP3    H228445   3.005   5.582   1.914
 9502TIP3   OH228446   2.318   4.901   5.917
 9502TIP3    H128447   2.393   4.909   5.976
 9502TIP3    H228448   2.245   4.941   5.964
 9503TIP3   OH228449   0.014   0.919   4.234
 9503TIP3    H128450  -0.056   0.871   4.279
 9503TIP3    H228451  -0.031   0.991   4.190
 9504TIP3   OH228452   7.702   0.332   0.819
 9504TIP3    H128453   7.772   0.339   0.753
 9504TIP3    H228454   7.632   0.284   0.775
 9505TIP3   OH228455   7.187   1.721   5.241
 9505TIP3    H128456   7.238   1.710   5.161
 9505TIP3    H228457   7.182   1.634   5.278
 9506TIP3   OH228458   2.698   4.790   0.382
 9506TIP3    H128459   2.713   4.861   0.319
 9506TIP3    H228460   2.609   4.760   0.363
 9507TIP3   OH228461   5.112   4.172   0.190
 9507TIP3    H128462   5.173   4.244   0.176
 9507TIP3    H228463   5.119   4.119   0.110
 9508TIP3   OH228464   4.725   6.181   1.262
 9508TIP3    H128465   4.741   6.274   1.279
 9508TIP3    H228466   4.730   6.174   1.166
 9509TIP3   OH228467   2.970   7.219   0.023
 9509TIP3    H128468   3.042   7.157   0.007
 9509TIP3    H228469   2.968   7.229   0.118
 9510TIP3   OH228470   6.292   1.574   5.122
 9510TIP3    H128471   6.384   1.597   5.135
 9510TIP3    H228472   6.244   1.656   5.136
 9511TIP3   OH228473   0.200   4.723   1.893
 9511TIP3    H128474   0.274   4.663   1.893
 9511TIP3    H228475   0.221   4.788   1.826
 9512TIP3   OH228476   2.728   4.114   2.768
 9512TIP3    H128477   2.710   4.145   2.680
 9512TIP3    H228478   2.642   4.103   2.808
 9513TIP3   OH228479   1.432   7.213   1.014
 9513TIP3    H128480   1.351   7.169   0.987
 9513TIP3    H228481   1.495   7.141   1.025
 9514TIP3   OH228482   6.694   5.980   1.308
 9514TIP3    H128483   6.725   5.905   1.358
 9514TIP3    H228484   6.605   5.956   1.282
 9515TIP3   OH228485   2.314   2.769   0.624
 9515TIP3    H128486   2.377   2.748   0.555
 9515TIP3    H228487   2.364   2.761   0.705
 9516TIP3   OH228488   4.978   7.394   2.793
 9516TIP3    H128489   4.896   7.346   2.808
 9516TIP3    H228490   5.044   7.325   2.784
 9517TIP3   OH228491   6.322   2.870   2.993
 9517TIP3    H128492   6.278   2.797   3.037
 9517TIP3    H228493   6.411   2.869   3.029
 9518TIP3   OH228494   4.445   7.128   4.364
 9518TIP3    H128495   4.373   7.180   4.330
 9518TIP3    H228496   4.419   7.106   4.454
 9519TIP3   OH228497   6.483   6.343   2.238
 9519TIP3    H128498   6.451   6.342   2.328
 9519TIP3    H228499   6.546   6.415   2.236
 9520TIP3   OH228500   2.605   3.441   5.369
 9520TIP3    H128501   2.579   3.483   5.451
 9520TIP3    H228502   2.647   3.511   5.318
 9521TIP3   OH228503   3.880   1.406   0.932
 9521TIP3    H128504   3.914   1.387   0.844
 9521TIP3    H228505   3.925   1.344   0.989
 9522TIP3   OH228506   3.758   7.196   5.355
 9522TIP3    H128507   3.707   7.207   5.435
 9522TIP3    H228508   3.848   7.187   5.384
 9523TIP3   OH228509   2.171   1.987   2.401
 9523TIP3    H128510   2.221   1.916   2.441
 9523TIP3    H228511   2.237   2.042   2.358
 9524TIP3   OH228512   1.866   4.563   6.135
 9524TIP3    H128513   1.780   4.547   6.095
 9524TIP3    H228514   1.849   4.564   6.229
 9525TIP3   OH228515   7.775   4.479   6.051
 9525TIP3    H128516   7.810   4.395   6.082
 9525TIP3    H228517   7.794   4.540   6.122
 9526TIP3   OH228518   7.109   0.149   1.718
 9526TIP3    H128519   7.045   0.078   1.717
 9526TIP3    H228520   7.103   0.189   1.631
 9527TIP3   OH228521   3.580   0.168   1.816
 9527TIP3    H128522   3.561   0.209   1.900
 9527TIP3    H228523   3.502   0.187   1.763
 9528TIP3   OH228524   3.018   7.429   4.484
 9528TIP3    H128525   2.954   7.469   4.544
 9528TIP3    H228526   3.078   7.382   4.541
 9529TIP3   OH228527   1.329   6.477   2.254
 9529TIP3    H128528   1.330   6.571   2.236
 9529TIP3    H228529   1.421   6.456   2.273
 9530TIP3   OH228530   4.621   5.177   0.902
 9530TIP3    H128531   4.699   5.220   0.937
 9530TIP3    H228532   4.585   5.239   0.840
 9531TIP3   OH228533   3.373   7.850   4.377
 9531TIP3    H128534   3.304   7.909   4.408
 9531TIP3    H228535   3.366   7.852   4.282
 9532TIP3   OH228536   5.962   0.646   5.613
 9532TIP3    H128537   6.040   0.699   5.625
 9532TIP3    H228538   5.981   0.592   5.536
 9533TIP3   OH228539   4.570   2.924   5.240
 9533TIP3    H128540   4.603   2.837   5.218
 9533TIP3    H228541   4.567   2.925   5.336
 9534TIP3   OH228542   7.832   7.170   6.189
 9534TIP3    H128543   7.922   7.140   6.202
 9534TIP3    H228544   7.794   7.169   6.277
 9535TIP3   OH228545   7.298   7.790   0.509
 9535TIP3    H128546   7.322   7.738   0.432
 9535TIP3    H228547   7.205   7.774   0.520
 9536TIP3   OH228548   7.133   6.173   4.976
 9536TIP3    H128549   7.098   6.250   5.021
 9536TIP3    H228550   7.058   6.134   4.932
 9537TIP3   OH228551   3.342   6.435   6.191
 9537TIP3    H128552   3.286   6.504   6.229
 9537TIP3    H228553   3.334   6.446   6.097
 9538TIP3   OH228554   8.100   0.299   5.915
 9538TIP3    H128555   8.107   0.206   5.939
 9538TIP3    H228556   8.173   0.314   5.855
 9539TIP3   OH228557   5.057   4.681   1.722
 9539TIP3    H128558   5.015   4.688   1.636
 9539TIP3    H228559   5.023   4.755   1.772
 9540TIP3   OH228560   1.380   6.026   4.563
 9540TIP3    H128561   1.340   6.021   4.477
 9540TIP3    H228562   1.322   6.084   4.613
 9541TIP3   OH228563   3.010   1.180   2.915
 9541TIP3    H128564   3.010   1.270   2.949
 9541TIP3    H228565   3.086   1.139   2.955
 9542TIP3   OH228566   0.105   2.516   4.338
 9542TIP3    H128567   0.056   2.475   4.409
 9542TIP3    H228568   0.039   2.547   4.277
 9543TIP3   OH228569   1.071   4.711   6.630
 9543TIP3    H128570   1.123   4.648   6.679
 9543TIP3    H228571   1.119   4.794   6.638
 9544TIP3   OH228572   4.481   2.502   5.609
 9544TIP3    H128573   4.576   2.502   5.595
 9544TIP3    H228574   4.471   2.496   5.704
 9545TIP3   OH228575   5.717   7.565   2.469
 9545TIP3    H128576   5.755   7.559   2.381
 9545TIP3    H228577   5.736   7.654   2.498
 9546TIP3   OH228578   6.047   0.929   2.642
 9546TIP3    H128579   5.977   0.991   2.622
 9546TIP3    H228580   6.057   0.877   2.562
 9547TIP3   OH228581   0.051   7.590   3.447
 9547TIP3    H128582  -0.032   7.542   3.449
 9547TIP3    H228583   0.048   7.648   3.524
 9548TIP3   OH228584   2.345   5.939   2.967
 9548TIP3    H128585   2.320   5.979   3.051
 9548TIP3    H228586   2.261   5.912   2.928
 9549TIP3   OH228587   1.151   1.368   3.424
 9549TIP3    H128588   1.190   1.328   3.502
 9549TIP3    H228589   1.084   1.304   3.396
 9550TIP3   OH228590   2.943   7.506   0.914
 9550TIP3    H128591   2.915   7.444   0.847
 9550TIP3    H228592   2.950   7.453   0.994
 9551TIP3   OH228593   0.833   0.919   3.884
 9551TIP3    H128594   0.773   0.920   3.809
 9551TIP3    H228595   0.919   0.902   3.847
 9552TIP3   OH228596   7.431   5.124   2.274
 9552TIP3    H128597   7.500   5.163   2.328
 9552TIP3    H228598   7.477   5.061   2.218
 9553TIP3   OH228599   3.400   6.339   4.025
 9553TIP3    H128600   3.480   6.346   3.974
 9553TIP3    H228601   3.346   6.277   3.976
 9554TIP3   OH228602   3.673   2.213   6.176
 9554TIP3    H128603   3.743   2.273   6.202
 9554TIP3    H228604   3.630   2.256   6.102
 9555TIP3   OH228605   0.104   2.238   5.714
 9555TIP3    H128606   0.195   2.268   5.713
 9555TIP3    H228607   0.100   2.177   5.788
 9556TIP3   OH228608   0.485   6.465   5.217
 9556TIP3    H128609   0.434   6.540   5.187
 9556TIP3    H228610   0.464   6.457   5.309
 9557TIP3   OH228611   0.615   0.274   4.663
 9557TIP3    H128612   0.576   0.287   4.576
 9557TIP3    H228613   0.620   0.179   4.672
 9558TIP3   OH228614   3.970   6.622   5.962
 9558TIP3    H128615   4.057   6.656   5.941
 9558TIP3    H228616   3.911   6.695   5.940
 9559TIP3   OH228617   5.225   5.850   1.740
 9559TIP3    H128618   5.291   5.919   1.736
 9559TIP3    H228619   5.272   5.770   1.717
 9560TIP3   OH228620   6.268   4.751   4.904
 9560TIP3    H128621   6.269   4.832   4.852
 9560TIP3    H228622   6.223   4.775   4.984
 9561TIP3   OH228623   1.965   5.709   5.056
 9561TIP3    H128624   2.042   5.719   5.000
 9561TIP3    H228625   1.940   5.799   5.078
 9562TIP3   OH228626   2.208   3.083   3.016
 9562TIP3    H128627   2.249   3.058   3.099
 9562TIP3    H228628   2.118   3.106   3.040
 9563TIP3   OH228629   1.276   1.110   2.798
 9563TIP3    H128630   1.276   1.102   2.893
 9563TIP3    H228631   1.322   1.033   2.767
 9564TIP3   OH228632   7.198   4.613   5.519
 9564TIP3    H128633   7.117   4.661   5.501
 9564TIP3    H228634   7.193   4.590   5.612
 9565TIP3   OH228635   1.388   0.385   1.594
 9565TIP3    H128636   1.413   0.309   1.542
 9565TIP3    H228637   1.294   0.393   1.582
 9566TIP3   OH228638   5.548   7.768   6.127
 9566TIP3    H128639   5.497   7.778   6.047
 9566TIP3    H228640   5.625   7.719   6.101
 9567TIP3   OH228641   2.000   5.216   2.126
 9567TIP3    H128642   2.000   5.302   2.084
 9567TIP3    H228643   1.922   5.172   2.092
 9568TIP3   OH228644   0.883   0.929   6.147
 9568TIP3    H128645   0.976   0.909   6.146
 9568TIP3    H228646   0.856   0.916   6.237
 9569TIP3   OH228647   1.354   0.497   0.011
 9569TIP3    H128648   1.307   0.414   0.014
 9569TIP3    H228649   1.330   0.541   0.092
 9570TIP3   OH228650   7.954   5.247   6.264
 9570TIP3    H128651   7.912   5.246   6.350
 9570TIP3    H228652   8.026   5.310   6.274
 9571TIP3   OH228653   4.844   6.600   4.989
 9571TIP3    H128654   4.889   6.628   4.909
 9571TIP3    H228655   4.752   6.591   4.963
 9572TIP3   OH228656   5.693   5.267   4.147
 9572TIP3    H128657   5.748   5.332   4.190
 9572TIP3    H228658   5.753   5.218   4.090
 9573TIP3   OH228659   0.743   5.405   4.973
 9573TIP3    H128660   0.679   5.374   5.037
 9573TIP3    H228661   0.820   5.427   5.024
 9574TIP3   OH228662   1.526   4.173   6.098
 9574TIP3    H128663   1.467   4.149   6.026
 9574TIP3    H228664   1.590   4.102   6.102
 9575TIP3   OH228665   3.369   5.970   4.221
 9575TIP3    H128666   3.443   6.026   4.244
 9575TIP3    H228667   3.296   6.006   4.271
 9576TIP3   OH228668   6.000   3.269   2.474
 9576TIP3    H128669   5.990   3.359   2.504
 9576TIP3    H228670   6.093   3.249   2.487
 9577TIP3   OH228671   4.056   3.687   5.670
 9577TIP3    H128672   4.067   3.616   5.732
 9577TIP3    H228673   3.973   3.727   5.693
 9578TIP3   OH228674   0.583   7.566   6.599
 9578TIP3    H128675   0.659   7.609   6.560
 9578TIP3    H228676   0.509   7.622   6.575
 9579TIP3   OH228677   7.970   3.084   2.336
 9579TIP3    H128678   7.903   3.141   2.297
 9579TIP3    H228679   8.042   3.143   2.358
 9580TIP3   OH228680   2.475   3.184   6.496
 9580TIP3    H128681   2.404   3.166   6.557
 9580TIP3    H228682   2.458   3.125   6.422
 9581TIP3   OH228683   2.374   0.305   5.302
 9581TIP3    H128684   2.328   0.230   5.338
 9581TIP3    H228685   2.408   0.275   5.218
 9582TIP3   OH228686   0.787   2.116   3.208
 9582TIP3    H128687   0.881   2.124   3.195
 9582TIP3    H228688   0.776   2.034   3.255
 9583TIP3   OH228689   2.756   2.119   5.781
 9583TIP3    H128690   2.674   2.146   5.740
 9583TIP3    H228691   2.783   2.041   5.732
 9584TIP3   OH228692   8.365   6.681   4.246
 9584TIP3    H128693   8.388   6.647   4.159
 9584TIP3    H228694   8.318   6.762   4.228
 9585TIP3   OH228695   1.428   5.054   6.034
 9585TIP3    H128696   1.363   5.002   6.082
 9585TIP3    H228697   1.379   5.092   5.962
 9586TIP3   OH228698   7.110   5.899   0.679
 9586TIP3    H128699   7.036   5.915   0.738
 9586TIP3    H228700   7.170   5.844   0.729
 9587TIP3   OH228701   5.814   5.928   0.003
 9587TIP3    H128702   5.778   5.898   0.086
 9587TIP3    H228703   5.764   6.007  -0.018
 9588TIP3   OH228704   7.050   2.775   4.968
 9588TIP3    H128705   6.987   2.721   5.015
 9588TIP3    H228706   7.117   2.714   4.937
 9589TIP3   OH228707   4.938   0.012   1.379
 9589TIP3    H128708   4.979   0.080   1.324
 9589TIP3    H228709   4.908  -0.054   1.317
 9590TIP3   OH228710   1.978   2.213   1.749
 9590TIP3    H128711   1.983   2.295   1.799
 9590TIP3    H228712   1.890   2.179   1.767
 9591TIP3   OH228713   4.933   2.210   2.982
 9591TIP3    H128714   4.994   2.137   2.969
 9591TIP3    H228715   4.929   2.253   2.896
 9592TIP3   OH228716   2.455   3.800   5.335
 9592TIP3    H128717   2.449   3.895   5.343
 9592TIP3    H228718   2.384   3.776   5.275
 9593TIP3   OH228719   6.458   4.344   4.521
 9593TIP3    H128720   6.542   4.359   4.563
 9593TIP3    H228721   6.458   4.403   4.445
 9594TIP3   OH228722   6.399   1.964   2.357
 9594TIP3    H128723   6.342   1.945   2.432
 9594TIP3    H228724   6.339   1.974   2.283
 9595TIP3   OH228725   0.765   4.909   0.984
 9595TIP3    H128726   0.751   4.927   0.891
 9595TIP3    H228727   0.679   4.921   1.024
 9596TIP3   OH228728   1.395   4.199   0.990
 9596TIP3    H128729   1.300   4.188   0.994
 9596TIP3    H228730   1.410   4.288   1.021
 9597TIP3   OH228731   1.263   7.015   1.942
 9597TIP3    H128732   1.349   6.994   1.978
 9597TIP3    H228733   1.265   6.978   1.854
 9598TIP3   OH228734   7.961   7.913   0.960
 9598TIP3    H128735   8.039   7.893   1.012
 9598TIP3    H228736   7.994   7.963   0.885
 9599TIP3   OH228737   0.918   2.767   5.715
 9599TIP3    H128738   0.936   2.861   5.725
 9599TIP3    H228739   0.885   2.740   5.801
 9600TIP3   OH228740   4.758   6.816   3.400
 9600TIP3    H128741   4.790   6.877   3.467
 9600TIP3    H228742   4.826   6.749   3.395
 9601TIP3   OH228743   3.314   3.279   1.756
 9601TIP3    H128744   3.339   3.351   1.698
 9601TIP3    H228745   3.221   3.267   1.741
 9602TIP3   OH228746   3.009   4.231   5.881
 9602TIP3    H128747   2.918   4.245   5.857
 9602TIP3    H228748   3.013   4.255   5.974
 9603TIP3   OH228749   2.381   5.465   1.908
 9603TIP3    H128750   2.411   5.489   1.820
 9603TIP3    H228751   2.286   5.479   1.905
 9604TIP3   OH228752   7.525   5.485   5.391
 9604TIP3    H128753   7.558   5.396   5.403
 9604TIP3    H228754   7.456   5.477   5.326
 9605TIP3   OH228755   0.389   5.588   1.008
 9605TIP3    H128756   0.402   5.563   1.100
 9605TIP3    H228757   0.461   5.546   0.962
 9606TIP3   OH228758   3.799   6.099   2.937
 9606TIP3    H128759   3.768   6.180   2.898
 9606TIP3    H228760   3.822   6.043   2.863
 9607TIP3   OH228761   5.589   4.398   5.547
 9607TIP3    H128762   5.622   4.329   5.489
 9607TIP3    H228763   5.594   4.478   5.495
 9608TIP3   OH228764   3.983   6.978   6.179
 9608TIP3    H128765   3.928   6.947   6.251
 9608TIP3    H228766   4.019   7.061   6.210
 9609TIP3   OH228767   2.505   7.631   3.191
 9609TIP3    H128768   2.419   7.590   3.189
 9609TIP3    H228769   2.567   7.560   3.174
 9610TIP3   OH228770   3.560   5.347   5.921
 9610TIP3    H128771   3.493   5.360   5.988
 9610TIP3    H228772   3.514   5.356   5.838
 9611TIP3   OH228773   7.321   0.793   2.520
 9611TIP3    H128774   7.355   0.704   2.527
 9611TIP3    H228775   7.398   0.848   2.511
 9612TIP3   OH228776   6.632   2.569   0.337
 9612TIP3    H128777   6.650   2.497   0.398
 9612TIP3    H228778   6.606   2.642   0.393
 9613TIP3   OH228779   0.338   7.736   0.373
 9613TIP3    H128780   0.420   7.688   0.374
 9613TIP3    H228781   0.351   7.806   0.310
 9614TIP3   OH228782   2.870   7.052   6.689
 9614TIP3    H128783   2.881   7.135   6.735
 9614TIP3    H228784   2.780   7.025   6.708
 9615TIP3   OH228785   5.183   3.204   1.183
 9615TIP3    H128786   5.128   3.133   1.150
 9615TIP3    H228787   5.270   3.185   1.148
 9616TIP3   OH228788   0.819   5.076   1.895
 9616TIP3    H128789   0.901   5.060   1.942
 9616TIP3    H228790   0.811   5.002   1.835
 9617TIP3   OH228791   2.287   4.668   5.680
 9617TIP3    H128792   2.239   4.701   5.604
 9617TIP3    H228793   2.279   4.738   5.745
 9618TIP3   OH228794   4.534   4.275   1.155
 9618TIP3    H128795   4.511   4.217   1.227
 9618TIP3    H228796   4.629   4.267   1.148
 9619TIP3   OH228797   7.420   3.342   6.856
 9619TIP3    H128798   7.325   3.353   6.865
 9619TIP3    H228799   7.452   3.428   6.828
 9620TIP3   OH228800   6.051   7.633   4.167
 9620TIP3    H128801   5.983   7.618   4.233
 9620TIP3    H228802   6.130   7.593   4.204
 9621TIP3   OH228803   2.728   7.450   0.014
 9621TIP3    H128804   2.758   7.369  -0.027
 9621TIP3    H228805   2.672   7.421   0.086
 9622TIP3   OH228806   5.727   4.881   4.089
 9622TIP3    H128807   5.698   4.871   4.180
 9622TIP3    H228808   5.822   4.876   4.094
 9623TIP3   OH228809   3.738   3.226   2.317
 9623TIP3    H128810   3.762   3.148   2.267
 9623TIP3    H228811   3.747   3.298   2.254
 9624TIP3   OH228812   1.472   3.937   3.672
 9624TIP3    H128813   1.562   3.906   3.689
 9624TIP3    H228814   1.478   3.986   3.590
 9625TIP3   OH228815   7.116   5.092   3.078
 9625TIP3    H128816   7.084   5.007   3.108
 9625TIP3    H228817   7.203   5.100   3.117
 9626TIP3   OH228818   2.064   6.972   6.304
 9626TIP3    H128819   1.971   6.967   6.282
 9626TIP3    H228820   2.066   7.003   6.394
 9627TIP3   OH228821   2.915   0.534   3.997
 9627TIP3    H128822   2.870   0.592   4.059
 9627TIP3    H228823   2.846   0.505   3.938
 9628TIP3   OH228824   6.935   5.946   0.898
 9628TIP3    H128825   6.887   5.872   0.936
 9628TIP3    H228826   6.924   6.017   0.961
 9629TIP3   OH228827   6.542   5.198   4.974
 9629TIP3    H128828   6.514   5.124   4.921
 9629TIP3    H228829   6.463   5.227   5.019
 9630TIP3   OH228830   7.962   6.635   1.943
 9630TIP3    H128831   7.990   6.722   1.915
 9630TIP3    H228832   8.042   6.582   1.942
 9631TIP3   OH228833   0.890   5.357   3.942
 9631TIP3    H128834   0.852   5.273   3.917
 9631TIP3    H228835   0.929   5.342   4.028
 9632TIP3   OH228836   1.870   1.532   1.973
 9632TIP3    H128837   1.776   1.531   1.994
 9632TIP3    H228838   1.911   1.572   2.049
 9633TIP3   OH228839   4.322   7.039   4.589
 9633TIP3    H128840   4.259   6.971   4.565
 9633TIP3    H228841   4.359   7.009   4.672
 9634TIP3   OH228842   6.100   5.617   2.077
 9634TIP3    H128843   6.064   5.531   2.057
 9634TIP3    H228844   6.138   5.608   2.164
 9635TIP3   OH228845   5.500   6.593   0.617
 9635TIP3    H128846   5.455   6.512   0.643
 9635TIP3    H228847   5.519   6.637   0.700
 9636TIP3   OH228848   5.303   6.670   5.726
 9636TIP3    H128849   5.292   6.656   5.632
 9636TIP3    H228850   5.396   6.687   5.737
 9637TIP3   OH228851   4.080   1.771   1.267
 9637TIP3    H128852   4.056   1.856   1.231
 9637TIP3    H228853   4.093   1.715   1.191
 9638TIP3   OH228854   2.902   4.930   6.011
 9638TIP3    H128855   2.816   4.932   6.054
 9638TIP3    H228856   2.943   5.012   6.037
 9639TIP3   OH228857   3.679   4.891   6.403
 9639TIP3    H128858   3.647   4.842   6.479
 9639TIP3    H228859   3.659   4.834   6.328
 9640TIP3   OH228860   1.840   3.997   1.539
 9640TIP3    H128861   1.929   4.015   1.508
 9640TIP3    H228862   1.810   4.080   1.576
 9641TIP3   OH228863   7.808   7.339   1.367
 9641TIP3    H128864   7.835   7.269   1.427
 9641TIP3    H228865   7.887   7.392   1.355
 9642TIP3   OH228866   1.366   6.880   2.480
 9642TIP3    H128867   1.330   6.961   2.515
 9642TIP3    H228868   1.428   6.850   2.547
 9643TIP3   OH228869   4.187   1.473   6.709
 9643TIP3    H128870   4.148   1.548   6.753
 9643TIP3    H228871   4.208   1.504   6.621
 9644TIP3   OH228872   4.975   0.711   1.448
 9644TIP3    H128873   4.971   0.794   1.400
 9644TIP3    H228874   4.896   0.664   1.421
 9645TIP3   OH228875   8.241   0.400   2.949
 9645TIP3    H128876   8.333   0.426   2.949
 9645TIP3    H228877   8.225   0.363   3.036
 9646TIP3   OH228878   4.526   4.143   6.215
 9646TIP3    H128879   4.520   4.186   6.300
 9646TIP3    H228880   4.498   4.209   6.152
 9647TIP3   OH228881   8.343   1.682   0.704
 9647TIP3    H128882   8.303   1.644   0.782
 9647TIP3    H228883   8.398   1.753   0.738
 9648TIP3   OH228884   0.296   4.961   1.701
 9648TIP3    H128885   0.282   4.915   1.618
 9648TIP3    H228886   0.341   5.042   1.675
 9649TIP3   OH228887   1.774   6.834   0.686
 9649TIP3    H128888   1.850   6.786   0.653
 9649TIP3    H228889   1.732   6.870   0.608
 9650TIP3   OH228890   3.732   2.461   3.676
 9650TIP3    H128891   3.784   2.539   3.661
 9650TIP3    H228892   3.786   2.406   3.733
 9651TIP3   OH228893   2.400   4.931   4.829
 9651TIP3    H128894   2.464   4.925   4.900
 9651TIP3    H228895   2.453   4.939   4.749
 9652TIP3   OH228896   7.781   7.780   0.020
 9652TIP3    H128897   7.792   7.824   0.105
 9652TIP3    H228898   7.858   7.723   0.013
 9653TIP3   OH228899   5.357   3.142   5.649
 9653TIP3    H128900   5.409   3.108   5.576
 9653TIP3    H228901   5.321   3.224   5.617
 9654TIP3   OH228902   2.142   5.321   6.273
 9654TIP3    H128903   2.157   5.227   6.280
 9654TIP3    H228904   2.227   5.361   6.290
 9655TIP3   OH228905   1.102   5.350   4.836
 9655TIP3    H128906   1.173   5.398   4.793
 9655TIP3    H228907   1.142   5.310   4.913
 9656TIP3   OH228908   2.889   2.255   0.997
 9656TIP3    H128909   2.874   2.282   0.906
 9656TIP3    H228910   2.982   2.231   0.999
 9657TIP3   OH228911   5.908   7.425   3.672
 9657TIP3    H128912   5.925   7.353   3.733
 9657TIP3    H228913   5.930   7.504   3.722
 9658TIP3   OH228914   5.152   2.969   0.680
 9658TIP3    H128915   5.212   2.920   0.625
 9658TIP3    H228916   5.200   3.049   0.703
 9659TIP3   OH228917   6.516   7.282   5.154
 9659TIP3    H128918   6.452   7.235   5.101
 9659TIP3    H228919   6.600   7.264   5.112
 9660TIP3   OH228920   2.599   0.233   2.404
 9660TIP3    H128921   2.529   0.294   2.381
 9660TIP3    H228922   2.665   0.287   2.448
 9661TIP3   OH228923   1.207   7.762   2.519
 9661TIP3    H128924   1.181   7.807   2.600
 9661TIP3    H228925   1.286   7.713   2.544
 9662TIP3   OH228926   6.416   7.254   4.085
 9662TIP3    H128927   6.483   7.321   4.070
 9662TIP3    H228928   6.466   7.174   4.104
 9663TIP3   OH228929   5.761   2.005   1.665
 9663TIP3    H128930   5.838   1.995   1.610
 9663TIP3    H228931   5.706   1.929   1.643
 9664TIP3   OH228932   5.114   2.401   6.440
 9664TIP3    H128933   5.093   2.459   6.513
 9664TIP3    H228934   5.031   2.356   6.421
 9665TIP3   OH228935   2.103   1.434   5.838
 9665TIP3    H128936   2.009   1.449   5.853
 9665TIP3    H228937   2.124   1.357   5.890
 9666TIP3   OH228938   7.604   7.787   5.594
 9666TIP3    H128939   7.637   7.854   5.653
 9666TIP3    H228940   7.545   7.833   5.535
 9667TIP3   OH228941   4.568   3.369   1.355
 9667TIP3    H128942   4.473   3.366   1.361
 9667TIP3    H228943   4.588   3.453   1.314
 9668TIP3   OH228944   6.317   1.013   5.530
 9668TIP3    H128945   6.384   1.039   5.594
 9668TIP3    H228946   6.267   0.944   5.573
 9669TIP3   OH228947   5.047   7.642   5.838
 9669TIP3    H128948   5.041   7.552   5.869
 9669TIP3    H228949   4.980   7.649   5.770
 9670TIP3   OH228950   5.180   5.511   2.151
 9670TIP3    H128951   5.150   5.593   2.113
 9670TIP3    H228952   5.131   5.503   2.233
 9671TIP3   OH228953   7.909   6.399   2.277
 9671TIP3    H128954   7.957   6.475   2.309
 9671TIP3    H228955   7.848   6.378   2.347
 9672TIP3   OH228956   6.585   1.031   5.704
 9672TIP3    H128957   6.543   1.113   5.729
 9672TIP3    H228958   6.679   1.051   5.703
 9673TIP3   OH228959   6.828   0.255   0.017
 9673TIP3    H128960   6.777   0.323   0.061
 9673TIP3    H228961   6.892   0.227   0.084
 9674TIP3   OH228962   3.626   1.684   3.137
 9674TIP3    H128963   3.669   1.627   3.073
 9674TIP3    H228964   3.641   1.640   3.221
 9675TIP3   OH228965   1.348   6.966   6.687
 9675TIP3    H128966   1.362   7.030   6.617
 9675TIP3    H228967   1.436   6.949   6.721
 9676TIP3   OH228968   4.030   1.047   2.896
 9676TIP3    H128969   4.122   1.072   2.905
 9676TIP3    H228970   4.013   1.047   2.802
 9677TIP3   OH228971   8.091   3.636   1.591
 9677TIP3    H128972   8.091   3.553   1.640
 9677TIP3    H228973   8.076   3.610   1.500
 9678TIP3   OH228974   7.599   6.236   5.845
 9678TIP3    H128975   7.540   6.306   5.872
 9678TIP3    H228976   7.581   6.165   5.907
 9679TIP3   OH228977   0.974   4.618   0.156
 9679TIP3    H128978   1.034   4.583   0.090
 9679TIP3    H228979   0.966   4.711   0.134
 9680TIP3   OH228980   0.714   4.435   1.770
 9680TIP3    H128981   0.781   4.495   1.737
 9680TIP3    H228982   0.706   4.367   1.703
 9681TIP3   OH228983   7.978   2.115   3.410
 9681TIP3    H128984   7.891   2.095   3.444
 9681TIP3    H228985   8.010   2.031   3.377
 9682TIP3   OH228986   2.483   4.133   2.333
 9682TIP3    H128987   2.420   4.183   2.282
 9682TIP3    H228988   2.466   4.159   2.424
 9683TIP3   OH228989   0.510   7.767   4.596
 9683TIP3    H128990   0.570   7.694   4.577
 9683TIP3    H228991   0.529   7.831   4.528
 9684TIP3   OH228992   2.083   0.041   6.049
 9684TIP3    H128993   2.030  -0.038   6.067
 9684TIP3    H228994   2.100   0.078   6.135
 9685TIP3   OH228995   2.011   4.298   6.387
 9685TIP3    H128996   2.056   4.213   6.385
 9685TIP3    H228997   2.070   4.355   6.438
 9686TIP3   OH228998   4.358   4.459   3.438
 9686TIP3    H128999   4.320   4.512   3.508
 9686TIP3    H229000   4.451   4.456   3.458
 9687TIP3   OH229001   1.359   5.154   5.809
 9687TIP3    H129002   1.317   5.240   5.801
 9687TIP3    H229003   1.436   5.160   5.752
 9688TIP3   OH229004   1.400   1.631   1.476
 9688TIP3    H129005   1.491   1.659   1.462
 9688TIP3    H229006   1.362   1.701   1.528
 9689TIP3   OH229007   7.718   7.570   3.029
 9689TIP3    H129008   7.648   7.630   3.005
 9689TIP3    H229009   7.683   7.483   3.010
 9690TIP3   OH229010   2.643   6.493   2.141
 9690TIP3    H129011   2.670   6.575   2.101
 9690TIP3    H229012   2.724   6.445   2.156
 9691TIP3   OH229013   3.190   4.461   0.745
 9691TIP3    H129014   3.196   4.367   0.760
 9691TIP3    H229015   3.199   4.499   0.833
 9692TIP3   OH229016   6.148   5.553   6.636
 9692TIP3    H129017   6.156   5.631   6.581
 9692TIP3    H229018   6.238   5.523   6.648
 9693TIP3   OH229019   3.552   4.900   0.412
 9693TIP3    H129020   3.611   4.838   0.455
 9693TIP3    H229021   3.544   4.867   0.323
 9694TIP3   OH229022   4.773   0.192   6.311
 9694TIP3    H129023   4.727   0.119   6.269
 9694TIP3    H229024   4.864   0.182   6.284
 9695TIP3   OH229025   3.528   5.569   2.871
 9695TIP3    H129026   3.560   5.515   2.943
 9695TIP3    H229027   3.466   5.512   2.825
 9696TIP3   OH229028   5.345   7.327   5.507
 9696TIP3    H129029   5.372   7.416   5.484
 9696TIP3    H229030   5.312   7.290   5.425
 9697TIP3   OH229031   6.510   3.002   2.600
 9697TIP3    H129032   6.481   2.912   2.616
 9697TIP3    H229033   6.590   2.994   2.548
 9698TIP3   OH229034   2.525   4.480   2.789
 9698TIP3    H129035   2.459   4.487   2.858
 9698TIP3    H229036   2.600   4.439   2.832
 9699TIP3   OH229037   0.558   3.759   0.177
 9699TIP3    H129038   0.463   3.749   0.167
 9699TIP3    H229039   0.570   3.850   0.201
 9700TIP3   OH229040   2.596   1.840   4.409
 9700TIP3    H129041   2.649   1.826   4.331
 9700TIP3    H229042   2.641   1.791   4.478
 9701TIP3   OH229043   5.104   6.548   1.244
 9701TIP3    H129044   5.162   6.560   1.319
 9701TIP3    H229045   5.112   6.630   1.195
 9702TIP3   OH229046   4.077   3.086   4.415
 9702TIP3    H129047   4.093   3.058   4.324
 9702TIP3    H229048   4.064   3.004   4.463
 9703TIP3   OH229049   7.703   5.845   4.630
 9703TIP3    H129050   7.644   5.853   4.705
 9703TIP3    H229051   7.703   5.931   4.589
 9704TIP3   OH229052   2.732   0.678   4.992
 9704TIP3    H129053   2.654   0.656   4.941
 9704TIP3    H229054   2.699   0.735   5.062
 9705TIP3   OH229055   1.046   6.273   1.957
 9705TIP3    H129056   1.047   6.280   2.052
 9705TIP3    H229057   0.953   6.273   1.934
 9706TIP3   OH229058   1.190   7.683   0.540
 9706TIP3    H129059   1.150   7.669   0.454
 9706TIP3    H229060   1.115   7.697   0.599
 9707TIP3   OH229061   7.392   5.995   4.699
 9707TIP3    H129062   7.470   5.944   4.678
 9707TIP3    H229063   7.421   6.086   4.699
 9708TIP3   OH229064   6.437   4.063   5.450
 9708TIP3    H129065   6.518   4.013   5.452
 9708TIP3    H229066   6.419   4.077   5.357
 9709TIP3   OH229067   8.398   2.180   4.217
 9709TIP3    H129068   8.334   2.153   4.283
 9709TIP3    H229069   8.346   2.191   4.137
 9710TIP3   OH229070   7.665   4.100   3.603
 9710TIP3    H129071   7.588   4.157   3.609
 9710TIP3    H229072   7.712   4.115   3.685
 9711TIP3   OH229073   4.842   3.320   5.403
 9711TIP3    H129074   4.797   3.281   5.327
 9711TIP3    H229075   4.773   3.367   5.449
 9712TIP3   OH229076   0.117   2.750   5.338
 9712TIP3    H129077   0.210   2.764   5.321
 9712TIP3    H229078   0.115   2.692   5.414
 9713TIP3   OH229079   1.044   5.638   0.284
 9713TIP3    H129080   1.138   5.618   0.274
 9713TIP3    H229081   1.031   5.718   0.234
 9714TIP3   OH229082   7.853   5.800   2.824
 9714TIP3    H129083   7.933   5.832   2.863
 9714TIP3    H229084   7.865   5.813   2.730
 9715TIP3   OH229085   8.261   6.119   4.453
 9715TIP3    H129086   8.180   6.112   4.503
 9715TIP3    H229087   8.290   6.028   4.442
 9716TIP3   OH229088   4.314   5.546   2.386
 9716TIP3    H129089   4.307   5.618   2.323
 9716TIP3    H229090   4.367   5.581   2.457
 9717TIP3   OH229091   3.016   3.971   1.411
 9717TIP3    H129092   2.986   3.892   1.368
 9717TIP3    H229093   3.018   4.037   1.342
 9718TIP3   OH229094   2.380   0.178   2.771
 9718TIP3    H129095   2.448   0.229   2.726
 9718TIP3    H229096   2.409   0.087   2.764
 9719TIP3   OH229097   0.597   2.518   3.669
 9719TIP3    H129098   0.656   2.502   3.595
 9719TIP3    H229099   0.525   2.569   3.632
 9720TIP3   OH229100   8.386   7.405   2.141
 9720TIP3    H129101   8.304   7.374   2.179
 9720TIP3    H229102   8.417   7.472   2.202
 9721TIP3   OH229103   7.667   2.861   3.609
 9721TIP3    H129104   7.642   2.945   3.647
 9721TIP3    H229105   7.761   2.855   3.624
 9722TIP3   OH229106   3.645   4.641   5.271
 9722TIP3    H129107   3.688   4.560   5.299
 9722TIP3    H229108   3.560   4.612   5.237
 9723TIP3   OH229109   2.331   6.620   2.712
 9723TIP3    H129110   2.283   6.691   2.670
 9723TIP3    H229111   2.291   6.540   2.679
 9724TIP3   OH229112   4.843   4.057   3.547
 9724TIP3    H129113   4.862   4.070   3.455
 9724TIP3    H229114   4.888   3.975   3.570
 9725TIP3   OH229115   7.300   2.698   5.931
 9725TIP3    H129116   7.275   2.753   6.005
 9725TIP3    H229117   7.393   2.716   5.918
 9726TIP3   OH229118   5.584   1.699   2.157
 9726TIP3    H129119   5.634   1.627   2.194
 9726TIP3    H229120   5.499   1.660   2.135
 9727TIP3   OH229121   6.777   4.686   6.437
 9727TIP3    H129122   6.804   4.606   6.481
 9727TIP3    H229123   6.725   4.733   6.502
 9728TIP3   OH229124   6.213   3.527   0.884
 9728TIP3    H129125   6.137   3.566   0.927
 9728TIP3    H229126   6.223   3.576   0.803
 9729TIP3   OH229127   0.659   3.378   4.515
 9729TIP3    H129128   0.750   3.354   4.500
 9729TIP3    H229129   0.646   3.368   4.609
 9730TIP3   OH229130   0.915   7.634   2.411
 9730TIP3    H129131   0.836   7.664   2.455
 9730TIP3    H229132   0.948   7.712   2.366
 9731TIP3   OH229133   7.185   6.017   2.144
 9731TIP3    H129134   7.229   5.982   2.222
 9731TIP3    H229135   7.256   6.044   2.086
 9732TIP3   OH229136   7.943   3.843   4.799
 9732TIP3    H129137   7.922   3.917   4.855
 9732TIP3    H229138   8.034   3.856   4.774
 9733TIP3   OH229139   4.720   4.389   4.248
 9733TIP3    H129140   4.721   4.420   4.339
 9733TIP3    H229141   4.709   4.295   4.254
 9734TIP3   OH229142   0.454   0.727   2.644
 9734TIP3    H129143   0.437   0.692   2.731
 9734TIP3    H229144   0.417   0.815   2.646
 9735TIP3   OH229145   4.030   6.525   2.054
 9735TIP3    H129146   3.990   6.448   2.094
 9735TIP3    H229147   3.984   6.537   1.971
 9736TIP3   OH229148   5.886   7.271   1.897
 9736TIP3    H129149   5.863   7.308   1.983
 9736TIP3    H229150   5.897   7.348   1.840
 9737TIP3   OH229151   0.569   3.171   5.013
 9737TIP3    H129152   0.509   3.227   5.061
 9737TIP3    H229153   0.531   3.165   4.925
 9738TIP3   OH229154   4.390   6.102   2.506
 9738TIP3    H129155   4.472   6.145   2.484
 9738TIP3    H229156   4.324   6.147   2.454
 9739TIP3   OH229157   4.768   5.543   4.194
 9739TIP3    H129158   4.692   5.596   4.169
 9739TIP3    H229159   4.730   5.463   4.230
 9740TIP3   OH229160   2.064   2.393   3.793
 9740TIP3    H129161   2.041   2.309   3.753
 9740TIP3    H229162   1.986   2.448   3.780
 9741TIP3   OH229163   1.309   6.043   1.746
 9741TIP3    H129164   1.330   6.004   1.661
 9741TIP3    H229165   1.227   6.001   1.771
 9742TIP3   OH229166   0.226   4.425   0.349
 9742TIP3    H129167   0.296   4.364   0.370
 9742TIP3    H229168   0.176   4.434   0.430
 9743TIP3   OH229169   8.022   6.266   0.947
 9743TIP3    H129170   7.932   6.234   0.961
 9743TIP3    H229171   8.065   6.196   0.898
 9744TIP3   OH229172   0.360   1.546   0.093
 9744TIP3    H129173   0.439   1.494   0.104
 9744TIP3    H229174   0.319   1.545   0.179
 9745TIP3   OH229175   3.235   3.811   6.073
 9745TIP3    H129176   3.199   3.738   6.021
 9745TIP3    H229177   3.236   3.885   6.012
 9746TIP3   OH229178   5.098   1.766   1.624
 9746TIP3    H129179   5.007   1.749   1.646
 9746TIP3    H229180   5.148   1.717   1.689
 9747TIP3   OH229181   3.993   0.183   5.033
 9747TIP3    H129182   4.069   0.178   4.974
 9747TIP3    H229183   3.932   0.242   4.988
 9748TIP3   OH229184   1.300   7.559   0.126
 9748TIP3    H129185   1.346   7.495   0.180
 9748TIP3    H229186   1.342   7.643   0.148
 9749TIP3   OH229187   4.706   2.808   0.699
 9749TIP3    H129188   4.734   2.822   0.789
 9749TIP3    H229189   4.642   2.737   0.704
 9750TIP3   OH229190   3.095   7.889   6.126
 9750TIP3    H129191   3.160   7.869   6.193
 9750TIP3    H229192   3.139   7.949   6.066
 9751TIP3   OH229193   3.706   7.359   4.347
 9751TIP3    H129194   3.639   7.302   4.385
 9751TIP3    H229195   3.706   7.436   4.404
 9752TIP3   OH229196   1.645   4.863   2.460
 9752TIP3    H129197   1.619   4.797   2.524
 9752TIP3    H229198   1.605   4.944   2.491
 9753TIP3   OH229199   0.111   1.435   3.054
 9753TIP3    H129200   0.161   1.513   3.080
 9753TIP3    H229201   0.020   1.459   3.070
 9754TIP3   OH229202   2.005   4.492   2.149
 9754TIP3    H129203   2.062   4.492   2.072
 9754TIP3    H229204   1.966   4.579   2.150
 9755TIP3   OH229205   3.547   0.233   1.171
 9755TIP3    H129206   3.499   0.217   1.089
 9755TIP3    H229207   3.545   0.328   1.181
 9756TIP3   OH229208   7.728   6.293   6.133
 9756TIP3    H129209   7.685   6.378   6.122
 9756TIP3    H229210   7.801   6.295   6.070
 9757TIP3   OH229211   3.929   7.899   1.658
 9757TIP3    H129212   3.864   7.829   1.670
 9757TIP3    H229213   4.006   7.870   1.706
 9758TIP3   OH229214   8.297   1.622   4.379
 9758TIP3    H129215   8.350   1.619   4.300
 9758TIP3    H229216   8.280   1.715   4.393
 9759TIP3   OH229217   5.258   1.709   2.694
 9759TIP3    H129218   5.286   1.625   2.728
 9759TIP3    H229219   5.328   1.736   2.634
 9760TIP3   OH229220   0.730   3.021   4.138
 9760TIP3    H129221   0.758   2.970   4.062
 9760TIP3    H229222   0.669   3.085   4.103
 9761TIP3   OH229223   6.784   6.174   1.819
 9761TIP3    H129224   6.851   6.236   1.790
 9761TIP3    H229225   6.702   6.224   1.817
 9762TIP3   OH229226   1.367   0.065   6.675
 9762TIP3    H129227   1.430   0.136   6.672
 9762TIP3    H229228   1.380   0.024   6.761
 9763TIP3   OH229229   0.304   1.472   0.346
 9763TIP3    H129230   0.253   1.514   0.415
 9763TIP3    H229231   0.272   1.382   0.343
 9764TIP3   OH229232   0.988   4.093   1.454
 9764TIP3    H129233   1.002   4.114   1.362
 9764TIP3    H229234   1.064   4.040   1.479
 9765TIP3   OH229235   6.212   7.719   6.075
 9765TIP3    H129236   6.203   7.769   5.994
 9765TIP3    H229237   6.306   7.700   6.081
 9766TIP3   OH229238   1.137   3.238   3.515
 9766TIP3    H129239   1.066   3.302   3.519
 9766TIP3    H229240   1.180   3.257   3.431
 9767TIP3   OH229241   4.010   0.550   5.012
 9767TIP3    H129242   3.958   0.498   4.951
 9767TIP3    H229243   3.951   0.619   5.041
 9768TIP3   OH229244   7.121   0.389   2.901
 9768TIP3    H129245   7.173   0.459   2.940
 9768TIP3    H229246   7.054   0.369   2.967
 9769TIP3   OH229247   7.893   2.449   0.459
 9769TIP3    H129248   7.916   2.534   0.423
 9769TIP3    H229249   7.940   2.386   0.404
 9770TIP3   OH229250   5.326   5.758   5.030
 9770TIP3    H129251   5.377   5.698   5.084
 9770TIP3    H229252   5.374   5.764   4.948
 9771TIP3   OH229253   4.258   6.561   0.884
 9771TIP3    H129254   4.329   6.556   0.821
 9771TIP3    H229255   4.254   6.473   0.923
 9772TIP3   OH229256   7.423   0.185   3.367
 9772TIP3    H129257   7.381   0.211   3.285
 9772TIP3    H229258   7.497   0.245   3.376
 9773TIP3   OH229259   4.959   6.419   0.832
 9773TIP3    H129260   5.013   6.498   0.842
 9773TIP3    H229261   5.009   6.350   0.876
 9774TIP3   OH229262   7.355   5.926   3.910
 9774TIP3    H129263   7.383   5.955   3.823
 9774TIP3    H229264   7.282   5.985   3.932
 9775TIP3   OH229265   6.595   5.993   4.043
 9775TIP3    H129266   6.509   5.997   4.002
 9775TIP3    H229267   6.648   6.057   3.995
 9776TIP3   OH229268   5.326   2.271   6.566
 9776TIP3    H129269   5.306   2.178   6.574
 9776TIP3    H229270   5.259   2.305   6.506
 9777TIP3   OH229271   2.372   1.982   3.988
 9777TIP3    H129272   2.408   2.035   3.917
 9777TIP3    H229273   2.432   1.908   3.996
 9778TIP3   OH229274   5.684   1.923   1.237
 9778TIP3    H129275   5.625   1.955   1.305
 9778TIP3    H229276   5.740   1.998   1.216
 9779TIP3   OH229277   1.625   6.892   1.792
 9779TIP3    H129278   1.699   6.909   1.733
 9779TIP3    H229279   1.623   6.968   1.850
 9780TIP3   OH229280   0.649   1.373   5.911
 9780TIP3    H129281   0.710   1.446   5.906
 9780TIP3    H229282   0.699   1.303   5.953
 9781TIP3   OH229283   4.988   7.902   2.642
 9781TIP3    H129284   5.013   7.908   2.734
 9781TIP3    H229285   4.992   7.992   2.610
 9782TIP3   OH229286   7.959   1.449   5.846
 9782TIP3    H129287   7.950   1.486   5.758
 9782TIP3    H229288   7.980   1.357   5.831
 9783TIP3   OH229289   2.460   6.488   5.326
 9783TIP3    H129290   2.425   6.399   5.318
 9783TIP3    H229291   2.416   6.524   5.402
 9784TIP3   OH229292   8.295   5.936   5.398
 9784TIP3    H129293   8.286   5.841   5.410
 9784TIP3    H229294   8.206   5.969   5.403
 9785TIP3   OH229295   7.995   4.310   5.464
 9785TIP3    H129296   7.996   4.380   5.528
 9785TIP3    H229297   7.909   4.315   5.423
 9786TIP3   OH229298   4.568   3.480   2.168
 9786TIP3    H129299   4.641   3.543   2.166
 9786TIP3    H229300   4.497   3.525   2.122
 9787TIP3   OH229301   0.142   1.205   6.305
 9787TIP3    H129302   0.215   1.186   6.364
 9787TIP3    H229303   0.066   1.214   6.362
 9788TIP3   OH229304   2.546   5.780   3.041
 9788TIP3    H129305   2.497   5.852   3.000
 9788TIP3    H229306   2.515   5.702   2.995
 9789TIP3   OH229307   8.061   2.055   4.900
 9789TIP3    H129308   8.047   2.147   4.921
 9789TIP3    H229309   8.077   2.013   4.984
 9790TIP3   OH229310   7.250   1.338   6.806
 9790TIP3    H129311   7.220   1.427   6.786
 9790TIP3    H229312   7.325   1.324   6.748
 9791TIP3   OH229313   4.080   3.991   0.890
 9791TIP3    H129314   4.135   3.922   0.853
 9791TIP3    H229315   4.120   4.073   0.860
 9792TIP3   OH229316   5.185   2.334   1.883
 9792TIP3    H129317   5.269   2.294   1.907
 9792TIP3    H229318   5.202   2.428   1.886
 9793TIP3   OH229319   8.021   3.498   1.342
 9793TIP3    H129320   7.926   3.492   1.327
 9793TIP3    H229321   8.047   3.408   1.363
 9794TIP3   OH229322   8.362   4.433   2.771
 9794TIP3    H129323   8.330   4.367   2.710
 9794TIP3    H229324   8.457   4.423   2.770
 9795TIP3   OH229325   4.836   5.250   1.550
 9795TIP3    H129326   4.788   5.168   1.555
 9795TIP3    H229327   4.919   5.233   1.594
 9796TIP3   OH229328   1.598   5.944   3.961
 9796TIP3    H129329   1.588   5.881   4.033
 9796TIP3    H229330   1.685   5.925   3.926
 9797TIP3   OH229331   2.526   7.378   0.162
 9797TIP3    H129332   2.488   7.293   0.137
 9797TIP3    H229333   2.450   7.432   0.186
 9798TIP3   OH229334   5.112   5.049   2.643
 9798TIP3    H129335   5.091   5.126   2.696
 9798TIP3    H229336   5.084   4.975   2.696
 9799TIP3   OH229337   0.136   1.407   3.469
 9799TIP3    H129338   0.211   1.449   3.428
 9799TIP3    H229339   0.064   1.469   3.457
 9800TIP3   OH229340   5.001   1.353   0.307
 9800TIP3    H129341   5.019   1.314   0.222
 9800TIP3    H229342   4.907   1.340   0.320
 9801TIP3   OH229343   1.564   2.085   6.500
 9801TIP3    H129344   1.536   2.163   6.547
 9801TIP3    H229345   1.492   2.064   6.442
 9802TIP3   OH229346   3.014   5.059   1.808
 9802TIP3    H129347   2.946   5.004   1.846
 9802TIP3    H229348   2.966   5.126   1.760
 9803TIP3   OH229349   4.841   3.920   4.098
 9803TIP3    H129350   4.781   3.970   4.153
 9803TIP3    H229351   4.881   3.986   4.041
 9804TIP3   OH229352   4.437   1.728   2.209
 9804TIP3    H129353   4.411   1.643   2.244
 9804TIP3    H229354   4.427   1.788   2.283
 9805TIP3   OH229355   2.038   7.031   0.085
 9805TIP3    H129356   1.995   7.086   0.150
 9805TIP3    H229357   2.055   7.089   0.011
 9806TIP3   OH229358   3.707   0.966   0.124
 9806TIP3    H129359   3.791   0.921   0.125
 9806TIP3    H229360   3.710   1.023   0.048
 9807TIP3   OH229361   2.295   5.104   0.815
 9807TIP3    H129362   2.277   5.018   0.853
 9807TIP3    H229363   2.341   5.151   0.884
 9808TIP3   OH229364   0.957   2.177   0.317
 9808TIP3    H129365   0.925   2.233   0.388
 9808TIP3    H229366   1.016   2.233   0.267
 9809TIP3   OH229367   0.246   5.434   4.292
 9809TIP3    H129368   0.187   5.481   4.350
 9809TIP3    H229369   0.278   5.500   4.230
 9810TIP3   OH229370   4.129   3.586   0.195
 9810TIP3    H129371   4.058   3.646   0.215
 9810TIP3    H229372   4.090   3.519   0.139
 9811TIP3   OH229373   2.281   4.569   4.599
 9811TIP3    H129374   2.305   4.476   4.597
 9811TIP3    H229375   2.279   4.592   4.692
 9812TIP3   OH229376   5.759   6.726   1.685
 9812TIP3    H129377   5.724   6.784   1.751
 9812TIP3    H229378   5.750   6.638   1.722
 9813TIP3   OH229379   1.165   0.311   0.002
 9813TIP3    H129380   1.094   0.375  -0.006
 9813TIP3    H229381   1.157   0.278   0.092
 9814TIP3   OH229382   3.721   3.687   3.112
 9814TIP3    H129383   3.695   3.606   3.067
 9814TIP3    H229384   3.766   3.739   3.046
 9815TIP3   OH229385   1.216   4.133   5.055
 9815TIP3    H129386   1.134   4.111   5.011
 9815TIP3    H229387   1.283   4.092   5.002
 9816TIP3   OH229388   1.905   7.905   2.361
 9816TIP3    H129389   1.875   7.862   2.281
 9816TIP3    H229390   1.986   7.860   2.384
 9817TIP3   OH229391   1.528   7.493   3.057
 9817TIP3    H129392   1.468   7.498   2.983
 9817TIP3    H229393   1.548   7.585   3.078
 9818TIP3   OH229394   6.335   1.032   2.681
 9818TIP3    H129395   6.240   1.024   2.674
 9818TIP3    H229396   6.354   1.023   2.774
 9819TIP3   OH229397   4.417   5.017   4.391
 9819TIP3    H129398   4.482   4.997   4.458
 9819TIP3    H229399   4.339   5.042   4.439
 9820TIP3   OH229400   8.175   0.488   6.260
 9820TIP3    H129401   8.220   0.496   6.176
 9820TIP3    H229402   8.208   0.561   6.312
 9821TIP3   OH229403   2.950   5.417   4.163
 9821TIP3    H129404   3.040   5.451   4.168
 9821TIP3    H229405   2.895   5.490   4.193
 9822TIP3   OH229406   4.337   2.482   0.672
 9822TIP3    H129407   4.301   2.415   0.730
 9822TIP3    H229408   4.284   2.476   0.593
 9823TIP3   OH229409   7.439   3.795   3.455
 9823TIP3    H129410   7.534   3.802   3.446
 9823TIP3    H229411   7.422   3.819   3.547
 9824TIP3   OH229412   0.389   1.942   5.843
 9824TIP3    H129413   0.330   2.003   5.887
 9824TIP3    H229414   0.337   1.863   5.830
 9825TIP3   OH229415   8.115   4.278   2.437
 9825TIP3    H129416   8.151   4.271   2.349
 9825TIP3    H229417   8.022   4.297   2.424
 9826TIP3   OH229418   1.747   6.678   5.001
 9826TIP3    H129419   1.759   6.586   5.025
 9826TIP3    H229420   1.654   6.684   4.975
 9827TIP3   OH229421   6.258   4.868   6.177
 9827TIP3    H129422   6.227   4.802   6.115
 9827TIP3    H229423   6.232   4.951   6.138
 9828TIP3   OH229424   5.620   6.711   3.824
 9828TIP3    H129425   5.666   6.791   3.851
 9828TIP3    H229426   5.687   6.656   3.785
 9829TIP3   OH229427   6.455   4.724   0.960
 9829TIP3    H129428   6.458   4.643   1.012
 9829TIP3    H229429   6.471   4.696   0.870
 9830TIP3   OH229430   5.906   2.304   0.786
 9830TIP3    H129431   5.871   2.215   0.787
 9830TIP3    H229432   5.968   2.304   0.713
 9831TIP3   OH229433   2.350   3.631   6.713
 9831TIP3    H129434   2.290   3.680   6.656
 9831TIP3    H229435   2.389   3.566   6.654
 9832TIP3   OH229436   8.244   7.626   0.159
 9832TIP3    H129437   8.309   7.574   0.112
 9832TIP3    H229438   8.293   7.699   0.195
 9833TIP3   OH229439   6.726   5.132   6.618
 9833TIP3    H129440   6.709   5.221   6.585
 9833TIP3    H229441   6.644   5.106   6.659
 9834TIP3   OH229442   2.321   6.873   6.228
 9834TIP3    H129443   2.319   6.780   6.205
 9834TIP3    H229444   2.243   6.887   6.282
 9835TIP3   OH229445   7.717   1.695   4.537
 9835TIP3    H129446   7.781   1.639   4.493
 9835TIP3    H229447   7.689   1.643   4.613
 9836TIP3   OH229448   3.392   5.740   0.913
 9836TIP3    H129449   3.411   5.648   0.898
 9836TIP3    H229450   3.473   5.777   0.947
 9837TIP3   OH229451   8.133   3.528   0.720
 9837TIP3    H129452   8.147   3.616   0.683
 9837TIP3    H229453   8.110   3.544   0.811
 9838TIP3   OH229454   1.068   2.414   1.720
 9838TIP3    H129455   1.141   2.472   1.696
 9838TIP3    H229456   1.005   2.423   1.648
 9839TIP3   OH229457   0.348   1.249   1.748
 9839TIP3    H129458   0.346   1.213   1.659
 9839TIP3    H229459   0.424   1.307   1.749
 9840TIP3   OH229460   2.942   5.063   5.648
 9840TIP3    H129461   2.893   5.055   5.729
 9840TIP3    H229462   3.013   4.999   5.655
 9841TIP3   OH229463   3.336   0.331   2.054
 9841TIP3    H129464   3.309   0.246   2.018
 9841TIP3    H229465   3.301   0.395   1.993
 9842TIP3   OH229466   3.763   4.439   6.854
 9842TIP3    H129467   3.792   4.517   6.807
 9842TIP3    H229468   3.668   4.447   6.858
 9843TIP3   OH229469   6.183   5.004   5.827
 9843TIP3    H129470   6.215   5.023   5.915
 9843TIP3    H229471   6.101   4.957   5.840
 9844TIP3   OH229472   0.628   5.645   5.041
 9844TIP3    H129473   0.601   5.709   4.975
 9844TIP3    H229474   0.708   5.606   5.005
 9845TIP3   OH229475   4.474   0.724   5.862
 9845TIP3    H129476   4.545   0.764   5.912
 9845TIP3    H229477   4.507   0.719   5.772
 9846TIP3   OH229478   5.535   2.144   1.060
 9846TIP3    H129479   5.586   2.222   1.039
 9846TIP3    H229480   5.593   2.071   1.040
 9847TIP3   OH229481   1.326   4.684   0.870
 9847TIP3    H129482   1.418   4.671   0.846
 9847TIP3    H229483   1.319   4.778   0.887
 9848TIP3   OH229484   4.548   3.461   0.141
 9848TIP3    H129485   4.577   3.480   0.230
 9848TIP3    H229486   4.453   3.451   0.148
 9849TIP3   OH229487   3.962   0.903   0.901
 9849TIP3    H129488   3.926   0.966   0.839
 9849TIP3    H229489   3.886   0.858   0.937
 9850TIP3   OH229490   2.703   5.719   1.239
 9850TIP3    H129491   2.775   5.762   1.193
 9850TIP3    H229492   2.733   5.711   1.329
 9851TIP3   OH229493   7.423   2.290   3.116
 9851TIP3    H129494   7.480   2.214   3.128
 9851TIP3    H229495   7.436   2.342   3.196
 9852TIP3   OH229496   5.131   2.249   0.265
 9852TIP3    H129497   5.117   2.298   0.184
 9852TIP3    H229498   5.174   2.311   0.324
 9853TIP3   OH229499   0.792   6.618   4.823
 9853TIP3    H129500   0.769   6.597   4.913
 9853TIP3    H229501   0.852   6.549   4.796
 9854TIP3   OH229502   1.512   2.835   1.617
 9854TIP3    H129503   1.441   2.772   1.629
 9854TIP3    H229504   1.516   2.883   1.700
 9855TIP3   OH229505   5.725   4.016   1.962
 9855TIP3    H129506   5.646   3.963   1.952
 9855TIP3    H229507   5.772   4.003   1.879
 9856TIP3   OH229508   7.834   4.238   5.771
 9856TIP3    H129509   7.754   4.224   5.719
 9856TIP3    H229510   7.878   4.312   5.729
 9857TIP3   OH229511   5.285   6.012   1.062
 9857TIP3    H129512   5.344   5.994   1.135
 9857TIP3    H229513   5.199   5.982   1.093
 9858TIP3   OH229514   6.870   3.910   4.689
 9858TIP3    H129515   6.930   3.845   4.653
 9858TIP3    H229516   6.831   3.952   4.613
 9859TIP3   OH229517   7.972   2.143   0.357
 9859TIP3    H129518   7.882   2.143   0.325
 9859TIP3    H229519   7.966   2.108   0.446
 9860TIP3   OH229520   7.077   0.250   1.245
 9860TIP3    H129521   7.027   0.175   1.215
 9860TIP3    H229522   7.059   0.318   1.180
 9861TIP3   OH229523   0.561   1.634   2.183
 9861TIP3    H129524   0.574   1.657   2.275
 9861TIP3    H229525   0.518   1.711   2.145
 9862TIP3   OH229526   2.746   5.192   2.036
 9862TIP3    H129527   2.744   5.097   2.027
 9862TIP3    H229528   2.654   5.218   2.031
 9863TIP3   OH229529   1.823   5.665   6.415
 9863TIP3    H129530   1.763   5.623   6.476
 9863TIP3    H229531   1.827   5.605   6.340
 9864TIP3   OH229532   5.543   3.029   0.565
 9864TIP3    H129533   5.476   3.051   0.500
 9864TIP3    H229534   5.626   3.040   0.519
 9865TIP3   OH229535   7.253   5.567   3.808
 9865TIP3    H129536   7.182   5.516   3.845
 9865TIP3    H229537   7.317   5.575   3.879
 9866TIP3   OH229538   6.814   3.875   6.627
 9866TIP3    H129539   6.748   3.907   6.688
 9866TIP3    H229540   6.764   3.826   6.562
 9867TIP3   OH229541   7.819   0.892   3.528
 9867TIP3    H129542   7.764   0.843   3.589
 9867TIP3    H229543   7.854   0.964   3.581
 9868TIP3   OH229544   1.771   7.376   6.745
 9868TIP3    H129545   1.819   7.336   6.818
 9868TIP3    H229546   1.711   7.437   6.786
 9869TIP3   OH229547   6.293   2.375   2.355
 9869TIP3    H129548   6.203   2.362   2.384
 9869TIP3    H229549   6.322   2.454   2.402
 9870TIP3   OH229550   3.171   4.530   1.003
 9870TIP3    H129551   3.166   4.624   0.987
 9870TIP3    H229552   3.080   4.502   1.015
 9871TIP3   OH229553   5.655   3.538   5.872
 9871TIP3    H129554   5.682   3.581   5.791
 9871TIP3    H229555   5.624   3.452   5.844
 9872TIP3   OH229556   5.551   0.105   4.149
 9872TIP3    H129557   5.619   0.041   4.127
 9872TIP3    H229558   5.575   0.183   4.099
 9873TIP3   OH229559   0.552   2.499   6.462
 9873TIP3    H129560   0.541   2.519   6.555
 9873TIP3    H229561   0.634   2.543   6.438
 9874TIP3   OH229562   6.866   5.763   1.130
 9874TIP3    H129563   6.942   5.778   1.185
 9874TIP3    H229564   6.797   5.737   1.190
 9875TIP3   OH229565   3.348   5.045   2.269
 9875TIP3    H129566   3.283   5.084   2.210
 9875TIP3    H229567   3.306   4.964   2.299
 9876TIP3   OH229568   5.598   6.837   3.409
 9876TIP3    H129569   5.622   6.850   3.317
 9876TIP3    H229570   5.588   6.926   3.443
 9877TIP3   OH229571   5.277   2.851   0.434
 9877TIP3    H129572   5.186   2.824   0.422
 9877TIP3    H229573   5.326   2.801   0.370
 9878TIP3   OH229574   7.220   5.505   3.022
 9878TIP3    H129575   7.289   5.481   3.084
 9878TIP3    H229576   7.157   5.555   3.074
 9879TIP3   OH229577   5.471   1.940   6.356
 9879TIP3    H129578   5.420   1.983   6.425
 9879TIP3    H229579   5.478   2.005   6.286
 9880TIP3   OH229580   3.349   3.058   2.842
 9880TIP3    H129581   3.373   2.987   2.782
 9880TIP3    H229582   3.430   3.105   2.858
 9881TIP3   OH229583   6.610   2.829   6.747
 9881TIP3    H129584   6.558   2.815   6.668
 9881TIP3    H229585   6.668   2.753   6.751
 9882TIP3   OH229586   5.120   3.908   5.223
 9882TIP3    H129587   5.114   3.815   5.243
 9882TIP3    H229588   5.202   3.936   5.263
 9883TIP3   OH229589   2.347   7.855   2.398
 9883TIP3    H129590   2.361   7.796   2.323
 9883TIP3    H229591   2.367   7.942   2.364
 9884TIP3   OH229592   7.103   6.207   6.607
 9884TIP3    H129593   7.075   6.203   6.699
 9884TIP3    H229594   7.105   6.116   6.579
 9885TIP3   OH229595   3.535   1.815   2.652
 9885TIP3    H129596   3.543   1.872   2.728
 9885TIP3    H229597   3.456   1.763   2.669
 9886TIP3   OH229598   0.274   0.915   6.520
 9886TIP3    H129599   0.258   0.974   6.594
 9886TIP3    H229600   0.210   0.845   6.532
 9887TIP3   OH229601   3.688   6.854   2.606
 9887TIP3    H129602   3.598   6.887   2.598
 9887TIP3    H229603   3.701   6.845   2.700
 9888TIP3   OH229604   6.866   4.990   5.409
 9888TIP3    H129605   6.865   5.044   5.488
 9888TIP3    H229606   6.796   5.026   5.355
 9889TIP3   OH229607   7.614   1.264   6.152
 9889TIP3    H129608   7.599   1.170   6.148
 9889TIP3    H229609   7.707   1.273   6.172
 9890TIP3   OH229610   0.063   3.739   2.197
 9890TIP3    H129611   0.154   3.720   2.216
 9890TIP3    H229612   0.019   3.654   2.201
 9891TIP3   OH229613   0.209   0.057   0.078
 9891TIP3    H129614   0.156  -0.023   0.071
 9891TIP3    H229615   0.203   0.081   0.171
 9892TIP3   OH229616   5.361   0.800   4.065
 9892TIP3    H129617   5.413   0.724   4.041
 9892TIP3    H229618   5.405   0.874   4.023
 9893TIP3   OH229619   4.021   1.952   0.303
 9893TIP3    H129620   4.011   2.043   0.274
 9893TIP3    H229621   4.106   1.950   0.346
 9894TIP3   OH229622   3.710   0.499   2.387
 9894TIP3    H129623   3.646   0.548   2.336
 9894TIP3    H229624   3.789   0.498   2.333
 9895TIP3   OH229625   2.506   6.097   2.715
 9895TIP3    H129626   2.547   6.093   2.801
 9895TIP3    H229627   2.448   6.020   2.713
 9896TIP3   OH229628   1.149   4.849   1.909
 9896TIP3    H129629   1.057   4.864   1.887
 9896TIP3    H229630   1.167   4.760   1.880
 9897TIP3   OH229631   6.127   5.874   3.451
 9897TIP3    H129632   6.109   5.955   3.405
 9897TIP3    H229633   6.222   5.864   3.446
 9898TIP3   OH229634   3.081   3.673   6.698
 9898TIP3    H129635   3.019   3.627   6.641
 9898TIP3    H229636   3.108   3.749   6.648
 9899TIP3   OH229637   6.489   4.197   2.106
 9899TIP3    H129638   6.551   4.166   2.039
 9899TIP3    H229639   6.495   4.292   2.103
 9900TIP3   OH229640   3.551   7.563   2.883
 9900TIP3    H129641   3.607   7.602   2.950
 9900TIP3    H229642   3.612   7.515   2.826
 9901TIP3   OH229643   4.666   7.238   5.891
 9901TIP3    H129644   4.762   7.240   5.891
 9901TIP3    H229645   4.643   7.177   5.822
 9902TIP3   OH229646   7.134   4.915   5.003
 9902TIP3    H129647   7.105   4.923   5.094
 9902TIP3    H229648   7.162   4.824   4.995
 9903TIP3   OH229649   0.331   2.554   6.324
 9903TIP3    H129650   0.401   2.512   6.373
 9903TIP3    H229651   0.322   2.502   6.244
 9904TIP3   OH229652   1.704   0.374   2.536
 9904TIP3    H129653   1.631   0.410   2.486
 9904TIP3    H229654   1.752   0.319   2.474
 9905TIP3   OH229655   6.243   4.579   5.453
 9905TIP3    H129656   6.247   4.648   5.519
 9905TIP3    H229657   6.197   4.507   5.496
 9906TIP3   OH229658   4.667   4.332   5.307
 9906TIP3    H129659   4.687   4.359   5.397
 9906TIP3    H229660   4.681   4.411   5.254
 9907TIP3   OH229661   8.204   2.606   4.596
 9907TIP3    H129662   8.253   2.618   4.677
 9907TIP3    H229663   8.257   2.544   4.545
 9908TIP3   OH229664   7.095   1.497   1.753
 9908TIP3    H129665   7.190   1.490   1.770
 9908TIP3    H229666   7.086   1.579   1.705
 9909TIP3   OH229667   0.433   2.619   0.417
 9909TIP3    H129668   0.447   2.699   0.468
 9909TIP3    H229669   0.373   2.645   0.347
 9910TIP3   OH229670   7.767   1.528   5.471
 9910TIP3    H129671   7.815   1.447   5.455
 9910TIP3    H229672   7.817   1.571   5.541
 9911TIP3   OH229673   6.098   3.747   0.703
 9911TIP3    H129674   6.172   3.776   0.757
 9911TIP3    H229675   6.040   3.823   0.698
 9912TIP3   OH229676   7.772   0.353   3.364
 9912TIP3    H129677   7.825   0.364   3.443
 9912TIP3    H229678   7.696   0.410   3.379
 9913TIP3   OH229679   3.571   7.680   5.642
 9913TIP3    H129680   3.630   7.608   5.663
 9913TIP3    H229681   3.486   7.639   5.628
 9914TIP3   OH229682   1.050   2.867   6.015
 9914TIP3    H129683   0.970   2.919   6.019
 9914TIP3    H229684   1.034   2.793   6.074
 9915TIP3   OH229685   0.637   7.339   4.873
 9915TIP3    H129686   0.721   7.356   4.915
 9915TIP3    H229687   0.576   7.399   4.917
 9916TIP3   OH229688   4.717   0.014   3.521
 9916TIP3    H129689   4.677  -0.062   3.561
 9916TIP3    H229690   4.781   0.045   3.585
 9917TIP3   OH229691   2.991   0.212   3.028
 9917TIP3    H129692   3.039   0.252   2.955
 9917TIP3    H229693   2.935   0.282   3.061
 9918TIP3   OH229694   5.635   1.185   5.544
 9918TIP3    H129695   5.542   1.205   5.528
 9918TIP3    H229696   5.633   1.121   5.616
 9919TIP3   OH229697   2.424   2.558   5.510
 9919TIP3    H129698   2.410   2.582   5.602
 9919TIP3    H229699   2.512   2.591   5.490
 9920TIP3   OH229700   7.512   6.574   6.481
 9920TIP3    H129701   7.448   6.506   6.502
 9920TIP3    H229702   7.468   6.628   6.415
 9921TIP3   OH229703   1.954   0.767   4.424
 9921TIP3    H129704   1.931   0.860   4.425
 9921TIP3    H229705   1.882   0.725   4.375
 9922TIP3   OH229706   4.523   4.287   3.816
 9922TIP3    H129707   4.583   4.212   3.817
 9922TIP3    H229708   4.578   4.361   3.790
 9923TIP3   OH229709   6.461   0.768   1.950
 9923TIP3    H129710   6.386   0.738   1.899
 9923TIP3    H229711   6.430   0.848   1.993
 9924TIP3   OH229712   0.811   2.240   2.213
 9924TIP3    H129713   0.804   2.306   2.145
 9924TIP3    H229714   0.792   2.157   2.169
 9925TIP3   OH229715   4.056   2.649   0.354
 9925TIP3    H129716   4.077   2.557   0.339
 9925TIP3    H229717   4.139   2.690   0.377
 9926TIP3   OH229718   7.840   1.145   4.357
 9926TIP3    H129719   7.885   1.148   4.273
 9926TIP3    H229720   7.905   1.110   4.418
 9927TIP3   OH229721   5.682   6.125   4.887
 9927TIP3    H129722   5.639   6.110   4.971
 9927TIP3    H229723   5.771   6.093   4.899
 9928TIP3   OH229724   1.827   0.423   0.527
 9928TIP3    H129725   1.893   0.482   0.564
 9928TIP3    H229726   1.848   0.419   0.434
 9929TIP3   OH229727   3.782   1.828   3.372
 9929TIP3    H129728   3.691   1.833   3.344
 9929TIP3    H229729   3.813   1.919   3.370
 9930TIP3   OH229730   7.404   2.090   5.327
 9930TIP3    H129731   7.484   2.142   5.325
 9930TIP3    H229732   7.416   2.031   5.401
 9931TIP3   OH229733   7.736   6.418   1.244
 9931TIP3    H129734   7.664   6.464   1.201
 9931TIP3    H229735   7.803   6.409   1.176
 9932TIP3   OH229736   0.205   0.043   6.138
 9932TIP3    H129737   0.218   0.023   6.046
 9932TIP3    H229738   0.285   0.088   6.165
 9933TIP3   OH229739   2.765   7.608   5.646
 9933TIP3    H129740   2.694   7.623   5.584
 9933TIP3    H229741   2.722   7.575   5.725
 9934TIP3   OH229742   4.734   2.121   6.241
 9934TIP3    H129743   4.711   2.190   6.180
 9934TIP3    H229744   4.666   2.054   6.228
 9935TIP3   OH229745   0.180   2.791   2.795
 9935TIP3    H129746   0.126   2.758   2.867
 9935TIP3    H229747   0.128   2.861   2.757
 9936TIP3   OH229748   5.939   4.165   2.711
 9936TIP3    H129749   5.905   4.249   2.741
 9936TIP3    H229750   5.987   4.185   2.631
 9937TIP3   OH229751   8.375   5.658   5.919
 9937TIP3    H129752   8.411   5.739   5.882
 9937TIP3    H229753   8.288   5.683   5.949
 9938TIP3   OH229754   8.363   3.713   0.934
 9938TIP3    H129755   8.397   3.794   0.973
 9938TIP3    H229756   8.269   3.731   0.921
 9939TIP3   OH229757   7.862   7.014   4.848
 9939TIP3    H129758   7.803   7.084   4.822
 9939TIP3    H229759   7.805   6.943   4.878
 9940TIP3   OH229760   4.660   7.282   0.066
 9940TIP3    H129761   4.725   7.221   0.101
 9940TIP3    H229762   4.636   7.245  -0.019
 9941TIP3   OH229763   1.851   2.752   3.279
 9941TIP3    H129764   1.869   2.769   3.371
 9941TIP3    H229765   1.930   2.781   3.233
 9942TIP3   OH229766   5.923   6.040   6.269
 9942TIP3    H129767   5.996   5.978   6.264
 9942TIP3    H229768   5.965   6.126   6.268
 9943TIP3   OH229769   3.826   5.718   3.406
 9943TIP3    H129770   3.798   5.712   3.315
 9943TIP3    H229771   3.849   5.811   3.418
 9944TIP3   OH229772   1.301   3.305   0.261
 9944TIP3    H129773   1.366   3.240   0.289
 9944TIP3    H229774   1.217   3.270   0.290
 9945TIP3   OH229775   8.124   1.220   6.086
 9945TIP3    H129776   8.211   1.180   6.084
 9945TIP3    H229777   8.064   1.146   6.088
 9946TIP3   OH229778   3.019   2.992   1.227
 9946TIP3    H129779   3.031   3.086   1.214
 9946TIP3    H229780   3.055   2.976   1.314
 9947TIP3   OH229781   3.395   5.261   3.983
 9947TIP3    H129782   3.452   5.207   4.037
 9947TIP3    H229783   3.404   5.349   4.019
 9948TIP3   OH229784   4.506   1.808   2.474
 9948TIP3    H129785   4.592   1.792   2.435
 9948TIP3    H229786   4.524   1.817   2.568
 9949TIP3   OH229787   2.316   3.738   0.185
 9949TIP3    H129788   2.406   3.720   0.157
 9949TIP3    H229789   2.277   3.783   0.110
 9950TIP3   OH229790   0.230   2.755   1.895
 9950TIP3    H129791   0.142   2.761   1.933
 9950TIP3    H229792   0.277   2.695   1.953
 9951TIP3   OH229793   3.016   1.534   0.945
 9951TIP3    H129794   2.972   1.525   1.030
 9951TIP3    H229795   3.104   1.498   0.960
 9952TIP3   OH229796   6.319   6.278   3.694
 9952TIP3    H129797   6.388   6.314   3.639
 9952TIP3    H229798   6.238   6.300   3.649
 9953TIP3   OH229799   5.197   1.548   1.815
 9953TIP3    H129800   5.163   1.511   1.896
 9953TIP3    H229801   5.263   1.612   1.843
 9954TIP3   OH229802   7.996   4.636   3.466
 9954TIP3    H129803   7.959   4.561   3.514
 9954TIP3    H229804   7.944   4.640   3.385
 9955TIP3   OH229805   6.458   4.224   3.402
 9955TIP3    H129806   6.379   4.255   3.356
 9955TIP3    H229807   6.530   4.260   3.350
 9956TIP3   OH229808   2.293   2.146   2.845
 9956TIP3    H129809   2.266   2.220   2.899
 9956TIP3    H229810   2.219   2.085   2.848
 9957TIP3   OH229811   6.192   2.108   3.664
 9957TIP3    H129812   6.139   2.186   3.682
 9957TIP3    H229813   6.282   2.138   3.670
 9958TIP3   OH229814   1.008   6.417   5.940
 9958TIP3    H129815   1.095   6.437   5.973
 9958TIP3    H229816   1.022   6.381   5.853
 9959TIP3   OH229817   3.065   3.819   4.598
 9959TIP3    H129818   3.112   3.800   4.679
 9959TIP3    H229819   3.089   3.910   4.577
 9960TIP3   OH229820   3.721   2.831   5.143
 9960TIP3    H129821   3.711   2.803   5.234
 9960TIP3    H229822   3.762   2.917   5.148
 9961TIP3   OH229823   5.971   7.252   0.826
 9961TIP3    H129824   6.052   7.201   0.829
 9961TIP3    H229825   5.915   7.213   0.892
 9962TIP3   OH229826   3.334   7.135   6.687
 9962TIP3    H129827   3.383   7.059   6.718
 9962TIP3    H229828   3.283   7.102   6.613
 9963TIP3   OH229829   4.838   3.830   6.154
 9963TIP3    H129830   4.907   3.818   6.089
 9963TIP3    H229831   4.835   3.925   6.169
 9964TIP3   OH229832   0.429   7.294   5.297
 9964TIP3    H129833   0.517   7.298   5.259
 9964TIP3    H229834   0.436   7.229   5.367
 9965TIP3   OH229835   4.708   3.102   4.000
 9965TIP3    H129836   4.706   3.010   3.977
 9965TIP3    H229837   4.798   3.119   4.026
 9966TIP3   OH229838   2.846   7.711   0.555
 9966TIP3    H129839   2.905   7.782   0.579
 9966TIP3    H229840   2.868   7.692   0.463
 9967TIP3   OH229841   5.917   0.777   3.283
 9967TIP3    H129842   5.839   0.763   3.229
 9967TIP3    H229843   5.898   0.857   3.332
 9968TIP3   OH229844   0.509   6.154   2.399
 9968TIP3    H129845   0.541   6.110   2.478
 9968TIP3    H229846   0.480   6.084   2.342
 9969TIP3   OH229847   7.466   0.601   3.826
 9969TIP3    H129848   7.534   0.534   3.826
 9969TIP3    H229849   7.440   0.609   3.734
 9970TIP3   OH229850   4.907   6.783   5.485
 9970TIP3    H129851   4.973   6.728   5.441
 9970TIP3    H229852   4.878   6.730   5.559
 9971TIP3   OH229853   0.565   2.688   2.408
 9971TIP3    H129854   0.571   2.778   2.375
 9971TIP3    H229855   0.596   2.634   2.335
 9972TIP3   OH229856   2.985   2.336   2.000
 9972TIP3    H129857   2.992   2.330   2.095
 9972TIP3    H229858   2.972   2.245   1.972
 9973TIP3   OH229859   7.186   0.232   0.580
 9973TIP3    H129860   7.217   0.276   0.501
 9973TIP3    H229861   7.094   0.257   0.587
 9974TIP3   OH229862   6.634   5.318   5.600
 9974TIP3    H129863   6.678   5.234   5.592
 9974TIP3    H229864   6.543   5.301   5.577
 9975TIP3   OH229865   6.433   0.780   1.265
 9975TIP3    H129866   6.458   0.701   1.218
 9975TIP3    H229867   6.415   0.751   1.354
 9976TIP3   OH229868   1.937   1.525   4.606
 9976TIP3    H129869   1.920   1.617   4.586
 9976TIP3    H229870   1.934   1.521   4.702
 9977TIP3   OH229871   5.051   3.926   6.397
 9977TIP3    H129872   5.112   3.897   6.464
 9977TIP3    H229873   5.047   4.021   6.407
 9978TIP3   OH229874   0.793   6.071   2.092
 9978TIP3    H129875   0.740   5.995   2.118
 9978TIP3    H229876   0.864   6.074   2.156
 9979TIP3   OH229877   7.209   3.458   1.047
 9979TIP3    H129878   7.156   3.532   1.017
 9979TIP3    H229879   7.295   3.473   1.009
 9980TIP3   OH229880   4.363   1.338   1.382
 9980TIP3    H129881   4.297   1.402   1.356
 9980TIP3    H229882   4.446   1.385   1.376
 9981TIP3   OH229883   5.816   1.421   0.615
 9981TIP3    H129884   5.835   1.455   0.528
 9981TIP3    H229885   5.723   1.439   0.628
 9982TIP3   OH229886   4.635   6.028   4.234
 9982TIP3    H129887   4.664   5.950   4.186
 9982TIP3    H229888   4.663   6.012   4.324
 9983TIP3   OH229889   6.835   7.527   3.002
 9983TIP3    H129890   6.765   7.463   2.990
 9983TIP3    H229891   6.882   7.528   2.919
 9984TIP3   OH229892   4.424   5.154   4.152
 9984TIP3    H129893   4.425   5.129   4.245
 9984TIP3    H229894   4.338   5.129   4.121
 9985TIP3   OH229895   1.951   6.615   6.325
 9985TIP3    H129896   1.862   6.618   6.362
 9985TIP3    H229897   1.949   6.539   6.267
 9986TIP3   OH229898   4.769   7.715   0.734
 9986TIP3    H129899   4.773   7.773   0.810
 9986TIP3    H229900   4.835   7.748   0.674
 9987TIP3   OH229901   2.435   7.114   6.082
 9987TIP3    H129902   2.429   7.203   6.116
 9987TIP3    H229903   2.376   7.063   6.136
 9988TIP3   OH229904   3.494   1.677   5.623
 9988TIP3    H129905   3.497   1.746   5.690
 9988TIP3    H229906   3.475   1.724   5.542
 9989TIP3   OH229907   2.156   5.037   4.724
 9989TIP3    H129908   2.244   5.007   4.745
 9989TIP3    H229909   2.157   5.131   4.739
 9990TIP3   OH229910   1.247   6.800   0.074
 9990TIP3    H129911   1.268   6.878   0.023
 9990TIP3    H229912   1.187   6.830   0.142
 9991TIP3   OH229913   6.973   2.655   2.377
 9991TIP3    H129914   6.911   2.603   2.326
 9991TIP3    H229915   7.004   2.595   2.445
 9992TIP3   OH229916   2.039   2.383   4.969
 9992TIP3    H129917   1.982   2.367   4.894
 9992TIP3    H229918   2.108   2.441   4.935
 9993TIP3   OH229919   6.050   6.520   0.846
 9993TIP3    H129920   5.955   6.516   0.845
 9993TIP3    H229921   6.072   6.566   0.926
 9994TIP3   OH229922   4.244   0.345   2.531
 9994TIP3    H129923   4.207   0.260   2.511
 9994TIP3    H229924   4.219   0.401   2.458
 9995TIP3   OH229925   1.411   7.050   0.704
 9995TIP3    H129926   1.402   6.961   0.669
 9995TIP3    H229927   1.368   7.047   0.789
 9996TIP3   OH229928   6.042   0.304   4.733
 9996TIP3    H129929   6.124   0.342   4.703
 9996TIP3    H229930   5.979   0.326   4.664
 9997TIP3   OH229931   1.590   3.182   0.909
 9997TIP3    H129932   1.589   3.173   1.005
 9997TIP3    H229933   1.621   3.271   0.893
 9998TIP3   OH229934   4.203   5.090   2.182
 9998TIP3    H129935   4.266   5.021   2.163
 9998TIP3    H229936   4.121   5.059   2.144
 9999TIP3   OH229937   7.866   6.502   0.993
 9999TIP3    H129938   7.784   6.515   0.945
 9999TIP3    H229939   7.901   6.419   0.960
10000TIP3   OH229940   7.862   3.015   5.350
10000TIP3    H129941   7.883   2.923   5.362
10000TIP3    H229942   7.766   3.017   5.343
10001TIP3   OH229943   2.393   4.830   0.631
10001TIP3    H129944   2.384   4.757   0.692
10001TIP3    H229945   2.478   4.869   0.652
10002TIP3   OH229946   1.957   1.540   1.206
10002TIP3    H129947   1.902   1.467   1.178
10002TIP3    H229948   1.919   1.569   1.289
10003TIP3   OH229949   6.550   6.459   1.298
10003TIP3    H129950   6.534   6.374   1.256
10003TIP3    H229951   6.616   6.440   1.365
10004TIP3   OH229952   4.256   7.659   0.366
10004TIP3    H129953   4.283   7.744   0.400
10004TIP3    H229954   4.167   7.673   0.334
10005TIP3   OH229955   5.696   0.306   4.061
10005TIP3    H129956   5.788   0.284   4.051
10005TIP3    H229957   5.681   0.312   4.155
10006TIP3   OH229958   2.907   1.187   3.667
10006TIP3    H129959   2.893   1.111   3.723
10006TIP3    H229960   2.882   1.158   3.580
10007TIP3   OH229961   4.075   2.371   4.864
10007TIP3    H129962   4.130   2.353   4.940
10007TIP3    H229963   4.051   2.463   4.873
10008TIP3   OH229964   7.660   4.715   2.985
10008TIP3    H129965   7.582   4.738   2.935
10008TIP3    H229966   7.645   4.750   3.072
10009TIP3   OH229967   0.453   7.867   1.377
10009TIP3    H129968   0.541   7.897   1.355
10009TIP3    H229969   0.458   7.842   1.470
10010TIP3   OH229970   7.333   7.181   5.892
10010TIP3    H129971   7.366   7.170   5.981
10010TIP3    H229972   7.388   7.250   5.855
10011TIP3   OH229973   0.590   5.199   6.438
10011TIP3    H129974   0.578   5.261   6.367
10011TIP3    H229975   0.683   5.176   6.434
10012TIP3   OH229976   3.116   6.565   2.455
10012TIP3    H129977   3.178   6.530   2.520
10012TIP3    H229978   3.032   6.524   2.477
10013TIP3   OH229979   7.323   1.934   6.190
10013TIP3    H129980   7.367   1.852   6.215
10013TIP3    H229981   7.246   1.938   6.247
10014TIP3   OH229982   4.720   6.217   2.947
10014TIP3    H129983   4.660   6.193   3.017
10014TIP3    H229984   4.784   6.145   2.944
10015TIP3   OH229985   2.904   5.827   2.177
10015TIP3    H129986   2.902   5.785   2.263
10015TIP3    H229987   2.871   5.916   2.192
10016TIP3   OH229988   4.101   0.422   3.026
10016TIP3    H129989   4.013   0.420   2.989
10016TIP3    H229990   4.159   0.406   2.951
10017TIP3   OH229991   1.271   0.687   2.738
10017TIP3    H129992   1.310   0.608   2.775
10017TIP3    H229993   1.188   0.697   2.785
10018TIP3   OH229994   4.896   3.588   0.139
10018TIP3    H129995   4.971   3.593   0.198
10018TIP3    H229996   4.859   3.501   0.153
10019TIP3   OH229997   7.593   6.111   3.868
10019TIP3    H129998   7.498   6.118   3.882
10019TIP3    H229999   7.629   6.086   3.953
10020TIP3   OH230000   4.126   4.920   0.522
10020TIP3    H130001   4.197   4.959   0.572
10020TIP3    H230002   4.054   4.983   0.529
10021TIP3   OH230003   2.785   5.469   1.083
10021TIP3    H130004   2.809   5.510   1.166
10021TIP3    H230005   2.828   5.383   1.085
10022TIP3   OH230006   0.599   6.144   1.302
10022TIP3    H130007   0.539   6.218   1.303
10022TIP3    H230008   0.563   6.082   1.365
10023TIP3   OH230009   0.241   0.846   2.153
10023TIP3    H130010   0.233   0.766   2.101
10023TIP3    H230011   0.291   0.906   2.097
10024TIP3   OH230012   4.656   2.207   2.554
10024TIP3    H130013   4.639   2.148   2.481
10024TIP3    H230014   4.751   2.223   2.551
10025TIP3   OH230015   5.877   6.763   0.942
10025TIP3    H130016   5.971   6.782   0.949
10025TIP3    H230017   5.845   6.763   1.032
10026TIP3   OH230018   0.566   7.641   3.464
10026TIP3    H130019   0.583   7.568   3.525
10026TIP3    H230020   0.474   7.663   3.479
10027TIP3   OH230021   2.176   5.020   6.737
10027TIP3    H130022   2.175   5.092   6.674
10027TIP3    H230023   2.269   4.998   6.747
10028TIP3   OH230024   0.453   4.280   0.289
10028TIP3    H130025   0.548   4.274   0.302
10028TIP3    H230026   0.417   4.213   0.348
10029TIP3   OH230027   3.496   3.924   0.403
10029TIP3    H130028   3.492   3.947   0.310
10029TIP3    H230029   3.408   3.892   0.423
10030TIP3   OH230030   4.853   6.562   5.646
10030TIP3    H130031   4.853   6.612   5.728
10030TIP3    H230032   4.761   6.545   5.628
10031TIP3   OH230033   5.393   6.926   1.040
10031TIP3    H130034   5.330   6.993   1.067
10031TIP3    H230035   5.426   6.958   0.956
10032TIP3   OH230036   1.114   7.262   6.669
10032TIP3    H130037   1.090   7.173   6.642
10032TIP3    H230038   1.086   7.317   6.597
10033TIP3   OH230039   7.950   0.726   1.888
10033TIP3    H130040   7.979   0.799   1.834
10033TIP3    H230041   7.965   0.648   1.835
10034TIP3   OH230042   0.894   1.857   3.074
10034TIP3    H130043   0.970   1.801   3.057
10034TIP3    H230044   0.925   1.946   3.056
10035TIP3   OH230045   6.995   2.203   1.687
10035TIP3    H130046   6.911   2.189   1.731
10035TIP3    H230047   6.983   2.285   1.639
10036TIP3   OH230048   3.184   4.699   6.623
10036TIP3    H130049   3.258   4.720   6.566
10036TIP3    H230050   3.216   4.631   6.681
10037TIP3   OH230051   2.403   7.161   1.640
10037TIP3    H130052   2.342   7.089   1.658
10037TIP3    H230053   2.347   7.233   1.613
10038TIP3   OH230054   4.256   5.190   6.730
10038TIP3    H130055   4.270   5.226   6.643
10038TIP3    H230056   4.224   5.264   6.782
10039TIP3   OH230057   7.676   7.371   0.143
10039TIP3    H130058   7.622   7.320   0.203
10039TIP3    H230059   7.618   7.439   0.110
10040TIP3   OH230060   7.899   1.648   3.533
10040TIP3    H130061   7.971   1.589   3.512
10040TIP3    H230062   7.846   1.650   3.453
10041TIP3   OH230063   5.858   4.323   3.111
10041TIP3    H130064   5.899   4.376   3.043
10041TIP3    H230065   5.778   4.370   3.133
10042TIP3   OH230066   1.813   0.047   4.130
10042TIP3    H130067   1.740   0.101   4.101
10042TIP3    H230068   1.788  -0.042   4.108
10043TIP3   OH230069   3.010   5.389   4.964
10043TIP3    H130070   2.970   5.456   5.018
10043TIP3    H230071   3.060   5.437   4.898
10044TIP3   OH230072   5.059   6.977   0.451
10044TIP3    H130073   5.014   7.061   0.462
10044TIP3    H230074   4.993   6.919   0.414
10045TIP3   OH230075   5.694   0.520   3.727
10045TIP3    H130076   5.736   0.447   3.772
10045TIP3    H230077   5.758   0.548   3.661
10046TIP3   OH230078   5.716   2.346   0.025
10046TIP3    H130079   5.692   2.254   0.032
10046TIP3    H230080   5.722   2.362  -0.069
10047TIP3   OH230081   2.817   5.852   5.886
10047TIP3    H130082   2.908   5.879   5.872
10047TIP3    H230083   2.815   5.823   5.978
10048TIP3   OH230084   7.765   5.023   6.402
10048TIP3    H130085   7.854   5.008   6.371
10048TIP3    H230086   7.770   5.009   6.497
10049TIP3   OH230087   4.202   7.420   6.678
10049TIP3    H130088   4.215   7.470   6.759
10049TIP3    H230089   4.113   7.441   6.651
10050TIP3   OH230090   5.330   6.056   5.967
10050TIP3    H130091   5.289   6.141   5.949
10050TIP3    H230092   5.267   5.992   5.935
10051TIP3   OH230093   4.758   3.629   5.876
10051TIP3    H130094   4.702   3.675   5.939
10051TIP3    H230095   4.831   3.596   5.929
10052TIP3   OH230096   1.881   3.650   4.458
10052TIP3    H130097   1.799   3.691   4.430
10052TIP3    H230098   1.885   3.665   4.552
10053TIP3   OH230099   2.527   2.409   4.054
10053TIP3    H130100   2.508   2.369   3.969
10053TIP3    H230101   2.464   2.481   4.061
10054TIP3   OH230102   3.331   4.351   0.014
10054TIP3    H130103   3.386   4.370   0.091
10054TIP3    H230104   3.259   4.300   0.049
10055TIP3   OH230105   1.439   0.116   4.909
10055TIP3    H130106   1.533   0.104   4.892
10055TIP3    H230107   1.404   0.150   4.827
10056TIP3   OH230108   2.577   6.827   5.701
10056TIP3    H130109   2.610   6.887   5.769
10056TIP3    H230110   2.633   6.845   5.625
10057TIP3   OH230111   6.719   4.512   3.549
10057TIP3    H130112   6.806   4.530   3.514
10057TIP3    H230113   6.696   4.592   3.597
10058TIP3   OH230114   3.888   0.053   1.271
10058TIP3    H130115   3.831   0.045   1.194
10058TIP3    H230116   3.976   0.038   1.237
10059TIP3   OH230117   8.257   0.263   1.226
10059TIP3    H130118   8.203   0.329   1.182
10059TIP3    H230119   8.243   0.183   1.175
10060TIP3   OH230120   3.577   2.982   0.634
10060TIP3    H130121   3.663   3.018   0.657
10060TIP3    H230122   3.573   2.989   0.539
10061TIP3   OH230123   5.111   7.917   0.168
10061TIP3    H130124   5.145   7.830   0.146
10061TIP3    H230125   5.176   7.977   0.132
10062TIP3   OH230126   2.386   4.541   3.017
10062TIP3    H130127   2.373   4.635   3.032
10062TIP3    H230128   2.298   4.506   3.007
10063TIP3   OH230129   2.093   3.414   6.256
10063TIP3    H130130   2.099   3.396   6.350
10063TIP3    H230131   1.999   3.412   6.238
10064TIP3   OH230132   7.193   1.982   0.100
10064TIP3    H130133   7.156   2.035   0.170
10064TIP3    H230134   7.134   1.907   0.092
10065TIP3   OH230135   2.394   3.926   3.356
10065TIP3    H130136   2.476   3.889   3.324
10065TIP3    H230137   2.326   3.876   3.311
10066TIP3   OH230138   1.251   4.056   5.547
10066TIP3    H130139   1.269   4.085   5.637
10066TIP3    H230140   1.318   3.990   5.530
10067TIP3   OH230141   0.776   4.130   3.825
10067TIP3    H130142   0.858   4.179   3.839
10067TIP3    H230143   0.718   4.193   3.783
10068TIP3   OH230144   7.095   4.633   4.927
10068TIP3    H130145   7.019   4.690   4.930
10068TIP3    H230146   7.113   4.610   5.018
10069TIP3   OH230147   0.513   7.446   2.840
10069TIP3    H130148   0.422   7.454   2.870
10069TIP3    H230149   0.545   7.367   2.883
10070TIP3   OH230150   5.072   5.490   4.674
10070TIP3    H130151   5.022   5.455   4.600
10070TIP3    H230152   5.048   5.583   4.677
10071TIP3   OH230153   1.807   0.298   0.765
10071TIP3    H130154   1.838   0.376   0.813
10071TIP3    H230155   1.812   0.324   0.673
10072TIP3   OH230156   8.193   5.803   2.294
10072TIP3    H130157   8.157   5.825   2.380
10072TIP3    H230158   8.180   5.708   2.286
10073TIP3   OH230159   1.810   3.232   1.325
10073TIP3    H130160   1.771   3.300   1.270
10073TIP3    H230161   1.869   3.279   1.384
10074TIP3   OH230162   3.367   0.217   3.854
10074TIP3    H130163   3.460   0.199   3.841
10074TIP3    H230164   3.364   0.310   3.877
10075TIP3   OH230165   6.702   0.893   3.785
10075TIP3    H130166   6.623   0.917   3.834
10075TIP3    H230167   6.714   0.965   3.723
10076TIP3   OH230168   0.769   4.440   0.603
10076TIP3    H130169   0.845   4.451   0.546
10076TIP3    H230170   0.794   4.482   0.685
10077TIP3   OH230171   1.304   2.587   3.933
10077TIP3    H130172   1.258   2.619   3.855
10077TIP3    H230173   1.377   2.536   3.899
10078TIP3   OH230174   7.361   0.620   5.473
10078TIP3    H130175   7.351   0.675   5.551
10078TIP3    H230176   7.310   0.665   5.405
10079TIP3   OH230177   5.295   3.675   4.840
10079TIP3    H130178   5.209   3.713   4.824
10079TIP3    H230179   5.286   3.629   4.924
10080TIP3   OH230180   1.452   7.461   4.267
10080TIP3    H130181   1.529   7.409   4.243
10080TIP3    H230182   1.389   7.447   4.196
10081TIP3   OH230183   7.172   7.489   6.179
10081TIP3    H130184   7.173   7.548   6.103
10081TIP3    H230185   7.263   7.460   6.187
10082TIP3   OH230186   6.910   2.927   2.570
10082TIP3    H130187   6.954   2.968   2.496
10082TIP3    H230188   6.967   2.944   2.645
10083TIP3   OH230189   1.782   7.491   6.505
10083TIP3    H130190   1.794   7.449   6.590
10083TIP3    H230191   1.740   7.424   6.451
10084TIP3   OH230192   2.430   2.782   0.217
10084TIP3    H130193   2.339   2.797   0.244
10084TIP3    H230194   2.422   2.749   0.127
10085TIP3   OH230195   4.859   1.793   4.300
10085TIP3    H130196   4.951   1.817   4.305
10085TIP3    H230197   4.823   1.817   4.385
10086TIP3   OH230198   6.245   2.335   3.294
10086TIP3    H130199   6.337   2.327   3.267
10086TIP3    H230200   6.248   2.378   3.379
10087TIP3   OH230201   4.898   3.508   3.199
10087TIP3    H130202   4.825   3.543   3.147
10087TIP3    H230203   4.858   3.482   3.282
10088TIP3   OH230204   5.592   0.538   1.002
10088TIP3    H130205   5.589   0.604   1.072
10088TIP3    H230206   5.506   0.495   1.006
10089TIP3   OH230207   7.505   0.396   4.576
10089TIP3    H130208   7.469   0.314   4.543
10089TIP3    H230209   7.457   0.412   4.657
10090TIP3   OH230210   8.388   2.428   0.021
10090TIP3    H130211   8.360   2.518   0.044
10090TIP3    H230212   8.312   2.374   0.043
10091TIP3   OH230213   4.240   2.450   5.063
10091TIP3    H130214   4.256   2.541   5.089
10091TIP3    H230215   4.326   2.408   5.071
10092TIP3   OH230216   6.975   0.720   0.500
10092TIP3    H130217   7.024   0.657   0.446
10092TIP3    H230218   6.977   0.682   0.588
10093TIP3   OH230219   3.731   2.544   5.106
10093TIP3    H130220   3.662   2.525   5.043
10093TIP3    H230221   3.710   2.630   5.141
10094TIP3   OH230222   4.883   3.036   0.590
10094TIP3    H130223   4.820   2.965   0.588
10094TIP3    H230224   4.968   2.993   0.584
10095TIP3   OH230225   4.392   4.111   5.705
10095TIP3    H130226   4.453   4.047   5.742
10095TIP3    H230227   4.309   4.062   5.697
10096TIP3   OH230228   8.203   1.637   0.967
10096TIP3    H130229   8.117   1.629   0.926
10096TIP3    H230230   8.203   1.724   1.009
10097TIP3   OH230231   4.763   1.295   6.655
10097TIP3    H130232   4.755   1.207   6.617
10097TIP3    H230233   4.687   1.304   6.713
10098TIP3   OH230234   0.480   5.388   4.473
10098TIP3    H130235   0.444   5.354   4.392
10098TIP3    H230236   0.569   5.351   4.478
10099TIP3   OH230237   3.367   7.763   5.253
10099TIP3    H130238   3.340   7.815   5.328
10099TIP3    H230239   3.409   7.825   5.193
10100TIP3   OH230240   1.573   0.739   0.882
10100TIP3    H130241   1.659   0.740   0.924
10100TIP3    H230242   1.519   0.684   0.939
10101TIP3   OH230243   8.068   1.837   6.321
10101TIP3    H130244   7.994   1.894   6.300
10101TIP3    H230245   8.032   1.748   6.316
10102TIP3   OH230246   1.470   1.202   6.756
10102TIP3    H130247   1.547   1.145   6.760
10102TIP3    H230248   1.482   1.263   6.828
10103TIP3   OH230249   3.987   0.921   4.369
10103TIP3    H130250   4.032   1.005   4.375
10103TIP3    H230251   4.053   0.861   4.334
10104TIP3   OH230252   5.648   5.085   1.367
10104TIP3    H130253   5.708   5.062   1.296
10104TIP3    H230254   5.590   5.150   1.328
10105TIP3   OH230255   2.915   3.215   0.016
10105TIP3    H130256   2.970   3.168   0.079
10105TIP3    H230257   2.853   3.263   0.071
10106TIP3   OH230258   0.191   7.446   4.094
10106TIP3    H130259   0.175   7.358   4.127
10106TIP3    H230260   0.111   7.495   4.115
10107TIP3   OH230261   1.998   5.720   6.634
10107TIP3    H130262   1.936   5.694   6.566
10107TIP3    H230263   1.944   5.748   6.707
10108TIP3   OH230264   8.239   0.014   1.119
10108TIP3    H130265   8.163  -0.027   1.160
10108TIP3    H230266   8.224   0.001   1.025
10109TIP3   OH230267   3.756   6.469   2.765
10109TIP3    H130268   3.708   6.548   2.790
10109TIP3    H230269   3.839   6.475   2.812
10110TIP3   OH230270   5.639   7.755   3.406
10110TIP3    H130271   5.580   7.799   3.345
10110TIP3    H230272   5.611   7.664   3.405
10111TIP3   OH230273   2.551   2.678   2.800
10111TIP3    H130274   2.459   2.651   2.798
10111TIP3    H230275   2.591   2.621   2.867
10112TIP3   OH230276   1.345   7.541   4.684
10112TIP3    H130277   1.433   7.576   4.698
10112TIP3    H230278   1.329   7.553   4.590
10113TIP3   OH230279   8.043   4.914   3.661
10113TIP3    H130280   8.099   4.945   3.591
10113TIP3    H230281   7.954   4.936   3.633
10114TIP3   OH230282   0.469   5.051   0.695
10114TIP3    H130283   0.461   5.022   0.786
10114TIP3    H230284   0.524   4.984   0.653
10115TIP3   OH230285   5.280   4.386   4.925
10115TIP3    H130286   5.270   4.481   4.914
10115TIP3    H230287   5.241   4.349   4.845
10116TIP3   OH230288   5.108   5.610   6.731
10116TIP3    H130289   5.115   5.700   6.698
10116TIP3    H230290   5.141   5.555   6.659
10117TIP3   OH230291   0.085   5.622   3.707
10117TIP3    H130292   0.137   5.694   3.673
10117TIP3    H230293   0.000   5.630   3.663
10118TIP3   OH230294   6.032   0.658   1.513
10118TIP3    H130295   5.999   0.722   1.576
10118TIP3    H230296   5.957   0.639   1.457
10119TIP3   OH230297   4.597   3.899   1.135
10119TIP3    H130298   4.574   3.870   1.047
10119TIP3    H230299   4.513   3.907   1.180
10120TIP3   OH230300   1.555   2.867   2.132
10120TIP3    H130301   1.605   2.790   2.158
10120TIP3    H230302   1.564   2.928   2.206
10121TIP3   OH230303   4.096   0.358   0.039
10121TIP3    H130304   4.182   0.356  -0.002
10121TIP3    H230305   4.082   0.451   0.060
10122TIP3   OH230306   2.708   3.724   0.861
10122TIP3    H130307   2.754   3.795   0.814
10122TIP3    H230308   2.675   3.765   0.941
10123TIP3   OH230309   0.609   0.051   0.445
10123TIP3    H130310   0.567  -0.035   0.450
10123TIP3    H230311   0.691   0.035   0.397
10124TIP3   OH230312   3.325   3.775   5.438
10124TIP3    H130313   3.293   3.696   5.480
10124TIP3    H230314   3.253   3.837   5.444
10125TIP3   OH230315   3.504   3.325   5.936
10125TIP3    H130316   3.485   3.304   6.027
10125TIP3    H230317   3.481   3.418   5.927
10126TIP3   OH230318   1.134   1.537   2.710
10126TIP3    H130319   1.200   1.503   2.770
10126TIP3    H230320   1.164   1.510   2.624
10127TIP3   OH230321   1.950   2.486   5.886
10127TIP3    H130322   1.924   2.394   5.879
10127TIP3    H230323   1.875   2.535   5.854
10128TIP3   OH230324   0.812   5.524   1.513
10128TIP3    H130325   0.900   5.559   1.528
10128TIP3    H230326   0.780   5.572   1.436
10129TIP3   OH230327   0.876   0.908   1.135
10129TIP3    H130328   0.959   0.916   1.088
10129TIP3    H230329   0.864   0.993   1.177
10130TIP3   OH230330   1.925   6.499   3.079
10130TIP3    H130331   1.891   6.412   3.099
10130TIP3    H230332   1.885   6.523   2.996
10131TIP3   OH230333   5.435   7.654   1.879
10131TIP3    H130334   5.344   7.685   1.870
10131TIP3    H230335   5.486   7.716   1.827
10132TIP3   OH230336   2.870   5.790   3.425
10132TIP3    H130337   2.898   5.879   3.444
10132TIP3    H230338   2.944   5.735   3.453
10133TIP3   OH230339   1.093   3.883   1.842
10133TIP3    H130340   1.051   3.798   1.857
10133TIP3    H230341   1.021   3.946   1.845
10134TIP3   OH230342   2.782   0.560   1.403
10134TIP3    H130343   2.747   0.485   1.355
10134TIP3    H230344   2.784   0.532   1.494
10135TIP3   OH230345   4.039   1.067   1.412
10135TIP3    H130346   3.947   1.091   1.403
10135TIP3    H230347   4.038   0.973   1.425
10136TIP3   OH230348   4.141   7.919   4.761
10136TIP3    H130349   4.147   7.824   4.774
10136TIP3    H230350   4.127   7.955   4.848
10137TIP3   OH230351   4.235   4.635   4.867
10137TIP3    H130352   4.207   4.586   4.789
10137TIP3    H230353   4.185   4.597   4.939
10138TIP3   OH230354   2.184   4.090   6.482
10138TIP3    H130355   2.208   4.096   6.574
10138TIP3    H230356   2.171   3.997   6.466
10139TIP3   OH230357   3.178   6.628   5.664
10139TIP3    H130358   3.185   6.571   5.741
10139TIP3    H230359   3.088   6.661   5.667
10140TIP3   OH230360   7.985   3.878   1.713
10140TIP3    H130361   8.018   3.895   1.801
10140TIP3    H230362   8.043   3.810   1.678
10141TIP3   OH230363   0.005   5.166   2.866
10141TIP3    H130364   0.049   5.197   2.946
10141TIP3    H230365   0.018   5.238   2.803
10142TIP3   OH230366   8.297   6.929   5.987
10142TIP3    H130367   8.341   6.849   6.017
10142TIP3    H230368   8.369   6.989   5.966
10143TIP3   OH230369   0.899   0.439   6.392
10143TIP3    H130370   0.951   0.434   6.472
10143TIP3    H230371   0.933   0.369   6.336
10144TIP3   OH230372   8.035   3.652   5.596
10144TIP3    H130373   8.090   3.592   5.546
10144TIP3    H230374   7.955   3.661   5.544
10145TIP3   OH230375   1.083   5.947   3.970
10145TIP3    H130376   1.049   5.873   3.920
10145TIP3    H230377   1.028   6.021   3.944
10146TIP3   OH230378   0.582   5.463   0.794
10146TIP3    H130379   0.549   5.539   0.747
10146TIP3    H230380   0.583   5.393   0.729
10147TIP3   OH230381   7.658   0.136   1.096
10147TIP3    H130382   7.578   0.150   1.146
10147TIP3    H230383   7.687   0.225   1.072
10148TIP3   OH230384   5.757   2.028   6.052
10148TIP3    H130385   5.684   1.973   6.024
10148TIP3    H230386   5.723   2.118   6.047
10149TIP3   OH230387   2.930   5.746   6.620
10149TIP3    H130388   2.858   5.789   6.574
10149TIP3    H230389   2.887   5.682   6.677
10150TIP3   OH230390   0.495   0.451   2.853
10150TIP3    H130391   0.542   0.457   2.771
10150TIP3    H230392   0.424   0.515   2.845
10151TIP3   OH230393   3.918   3.483   5.793
10151TIP3    H130394   3.961   3.440   5.867
10151TIP3    H230395   3.833   3.512   5.828
10152TIP3   OH230396   2.662   6.385   3.010
10152TIP3    H130397   2.744   6.342   3.035
10152TIP3    H230398   2.672   6.476   3.038
10153TIP3   OH230399   3.966   4.529   6.551
10153TIP3    H130400   4.057   4.560   6.552
10153TIP3    H230401   3.920   4.589   6.610
10154TIP3   OH230402   1.958   5.561   5.302
10154TIP3    H130403   1.930   5.623   5.235
10154TIP3    H230404   1.956   5.611   5.384
10155TIP3   OH230405   1.723   0.352   4.495
10155TIP3    H130406   1.659   0.321   4.431
10155TIP3    H230407   1.684   0.430   4.534
10156TIP3   OH230408   3.845   3.211   0.640
10156TIP3    H130409   3.887   3.232   0.556
10156TIP3    H230410   3.903   3.147   0.681
10157TIP3   OH230411   5.448   1.889   2.513
10157TIP3    H130412   5.416   1.970   2.475
10157TIP3    H230413   5.540   1.907   2.535
10158TIP3   OH230414   7.139   3.891   3.783
10158TIP3    H130415   7.105   3.880   3.694
10158TIP3    H230416   7.061   3.898   3.838
10159TIP3   OH230417   7.620   3.554   4.199
10159TIP3    H130418   7.615   3.501   4.119
10159TIP3    H230419   7.706   3.595   4.196
10160TIP3   OH230420   3.293   2.919   1.590
10160TIP3    H130421   3.302   2.827   1.612
10160TIP3    H230422   3.199   2.930   1.572
10161TIP3   OH230423   6.599   2.896   5.525
10161TIP3    H130424   6.622   2.825   5.586
10161TIP3    H230425   6.682   2.939   5.506
10162TIP3   OH230426   5.742   5.184   6.403
10162TIP3    H130427   5.658   5.230   6.409
10162TIP3    H230428   5.789   5.230   6.334
10163TIP3   OH230429   1.829   5.111   2.633
10163TIP3    H130430   1.847   5.153   2.717
10163TIP3    H230431   1.807   5.021   2.657
10164TIP3   OH230432   7.138   0.461   3.458
10164TIP3    H130433   7.098   0.382   3.495
10164TIP3    H230434   7.075   0.531   3.478
10165TIP3   OH230435   5.222   0.978   3.423
10165TIP3    H130436   5.316   0.985   3.407
10165TIP3    H230437   5.214   0.975   3.519
10166TIP3   OH230438   5.959   3.127   4.936
10166TIP3    H130439   5.986   3.035   4.930
10166TIP3    H230440   5.904   3.141   4.859
10167TIP3   OH230441   7.792   2.039   1.486
10167TIP3    H130442   7.773   1.991   1.567
10167TIP3    H230443   7.783   1.974   1.417
10168TIP3   OH230444   5.456   4.185   4.299
10168TIP3    H130445   5.481   4.152   4.385
10168TIP3    H230446   5.403   4.115   4.260
10169TIP3   OH230447   5.524   7.179   4.566
10169TIP3    H130448   5.593   7.165   4.631
10169TIP3    H230449   5.466   7.245   4.606
10170TIP3   OH230450   4.959   0.583   2.428
10170TIP3    H130451   4.957   0.665   2.477
10170TIP3    H230452   5.013   0.603   2.351
10171TIP3   OH230453   0.890   0.594   1.752
10171TIP3    H130454   0.843   0.580   1.834
10171TIP3    H230455   0.926   0.683   1.760
10172TIP3   OH230456   2.858   4.257   4.827
10172TIP3    H130457   2.832   4.168   4.805
10172TIP3    H230458   2.839   4.308   4.749
10173TIP3   OH230459   8.252   2.308   1.486
10173TIP3    H130460   8.172   2.257   1.492
10173TIP3    H230461   8.260   2.330   1.393
10174TIP3   OH230462   5.239   0.171   5.588
10174TIP3    H130463   5.222   0.099   5.648
10174TIP3    H230464   5.266   0.129   5.506
10175TIP3   OH230465   4.536   3.884   6.104
10175TIP3    H130466   4.524   3.967   6.149
10175TIP3    H230467   4.593   3.833   6.162
10176TIP3   OH230468   1.257   4.438   3.713
10176TIP3    H130469   1.267   4.424   3.619
10176TIP3    H230470   1.224   4.528   3.720
10177TIP3   OH230471   5.401   7.335   3.476
10177TIP3    H130472   5.348   7.348   3.554
10177TIP3    H230473   5.360   7.392   3.410
10178TIP3   OH230474   3.702   1.445   6.254
10178TIP3    H130475   3.766   1.405   6.196
10178TIP3    H230476   3.627   1.464   6.198
10179TIP3   OH230477   4.392   1.594   3.952
10179TIP3    H130478   4.434   1.646   3.883
10179TIP3    H230479   4.446   1.516   3.959
10180TIP3   OH230480   2.243   4.807   2.176
10180TIP3    H130481   2.148   4.793   2.183
10180TIP3    H230482   2.281   4.758   2.249
10181TIP3   OH230483   0.884   6.074   1.252
10181TIP3    H130484   0.914   6.164   1.237
10181TIP3    H230485   0.791   6.083   1.275
10182TIP3   OH230486   5.283   6.950   1.506
10182TIP3    H130487   5.348   6.919   1.443
10182TIP3    H230488   5.270   7.042   1.483
10183TIP3   OH230489   3.934   7.082   3.734
10183TIP3    H130490   3.998   7.015   3.711
10183TIP3    H230491   3.952   7.154   3.674
10184TIP3   OH230492   7.651   6.349   2.389
10184TIP3    H130493   7.572   6.371   2.437
10184TIP3    H230494   7.661   6.254   2.401
10185TIP3   OH230495   1.339   6.749   1.522
10185TIP3    H130496   1.373   6.693   1.592
10185TIP3    H230497   1.405   6.745   1.454
10186TIP3   OH230498   3.515   0.764   5.557
10186TIP3    H130499   3.457   0.835   5.584
10186TIP3    H230500   3.498   0.694   5.620
10187TIP3   OH230501   8.047   4.262   1.098
10187TIP3    H130502   8.027   4.317   1.023
10187TIP3    H230503   7.963   4.255   1.145
10188TIP3   OH230504   7.013   3.706   4.571
10188TIP3    H130505   7.093   3.729   4.523
10188TIP3    H230506   7.035   3.623   4.614
10189TIP3   OH230507   4.658   0.832   2.197
10189TIP3    H130508   4.700   0.769   2.138
10189TIP3    H230509   4.571   0.846   2.160
10190TIP3   OH230510   5.450   4.165   3.037
10190TIP3    H130511   5.470   4.258   3.024
10190TIP3    H230512   5.466   4.150   3.130
10191TIP3   OH230513   5.343   4.254   2.269
10191TIP3    H130514   5.383   4.205   2.197
10191TIP3    H230515   5.411   4.258   2.336
10192TIP3   OH230516   4.481   0.419   2.944
10192TIP3    H130517   4.405   0.432   2.889
10192TIP3    H230518   4.555   0.449   2.891
10193TIP3   OH230519   3.088   5.824   5.339
10193TIP3    H130520   3.113   5.745   5.387
10193TIP3    H230521   3.161   5.840   5.280
10194TIP3   OH230522   0.677   1.816   1.129
10194TIP3    H130523   0.754   1.870   1.117
10194TIP3    H230524   0.612   1.874   1.169
10195TIP3   OH230525   7.097   6.497   0.531
10195TIP3    H130526   7.091   6.500   0.436
10195TIP3    H230527   7.180   6.542   0.551
10196TIP3   OH230528   4.413   0.967   2.327
10196TIP3    H130529   4.440   1.010   2.245
10196TIP3    H230530   4.457   1.018   2.395
10197TIP3   OH230531   5.914   2.581   5.154
10197TIP3    H130532   5.876   2.537   5.230
10197TIP3    H230533   6.008   2.581   5.171
10198TIP3   OH230534   7.851   1.162   0.804
10198TIP3    H130535   7.901   1.210   0.869
10198TIP3    H230536   7.805   1.094   0.853
10199TIP3   OH230537   6.190   1.099   0.642
10199TIP3    H130538   6.210   1.091   0.735
10199TIP3    H230539   6.141   1.020   0.620
10200TIP3   OH230540   6.311   2.652   2.135
10200TIP3    H130541   6.252   2.624   2.066
10200TIP3    H230542   6.270   2.624   2.216
10201TIP3   OH230543   6.781   7.205   2.182
10201TIP3    H130544   6.704   7.220   2.236
10201TIP3    H230545   6.806   7.292   2.151
10202TIP3   OH230546   4.643   5.030   1.743
10202TIP3    H130547   4.582   5.040   1.669
10202TIP3    H230548   4.638   5.113   1.789
10203TIP3   OH230549   0.263   2.491   0.722
10203TIP3    H130550   0.263   2.400   0.695
10203TIP3    H230551   0.198   2.533   0.666
10204TIP3   OH230552   7.144   7.777   5.732
10204TIP3    H130553   7.122   7.851   5.675
10204TIP3    H230554   7.209   7.812   5.792
10205TIP3   OH230555   6.359   6.503   0.638
10205TIP3    H130556   6.438   6.533   0.683
10205TIP3    H230557   6.327   6.430   0.692
10206TIP3   OH230558   6.811   6.466   1.425
10206TIP3    H130559   6.866   6.412   1.482
10206TIP3    H230560   6.839   6.555   1.443
10207TIP3   OH230561   6.881   1.654   1.380
10207TIP3    H130562   6.880   1.671   1.475
10207TIP3    H230563   6.897   1.740   1.341
10208TIP3   OH230564   2.436   6.817   6.499
10208TIP3    H130565   2.395   6.812   6.413
10208TIP3    H230566   2.370   6.784   6.560
10209TIP3   OH230567   7.110   2.286   4.502
10209TIP3    H130568   7.189   2.296   4.554
10209TIP3    H230569   7.078   2.375   4.489
10210TIP3   OH230570   1.104   3.834   3.045
10210TIP3    H130571   1.099   3.908   3.106
10210TIP3    H230572   1.100   3.875   2.958
10211TIP3   OH230573   7.245   6.767   3.723
10211TIP3    H130574   7.259   6.752   3.630
10211TIP3    H230575   7.310   6.833   3.747
10212TIP3   OH230576   6.336   0.410   2.454
10212TIP3    H130577   6.389   0.458   2.517
10212TIP3    H230578   6.248   0.407   2.491
10213TIP3   OH230579   1.974   2.863   2.282
10213TIP3    H130580   1.940   2.883   2.369
10213TIP3    H230581   1.976   2.947   2.237
10214TIP3   OH230582   6.757   0.368   3.641
10214TIP3    H130583   6.765   0.367   3.736
10214TIP3    H230584   6.735   0.459   3.619
10215TIP3   OH230585   5.040   3.650   1.884
10215TIP3    H130586   5.113   3.699   1.846
10215TIP3    H230587   4.966   3.668   1.826
10216TIP3   OH230588   2.742   5.937   4.271
10216TIP3    H130589   2.747   5.920   4.366
10216TIP3    H230590   2.814   5.999   4.255
10217TIP3   OH230591   0.224   0.672   1.934
10217TIP3    H130592   0.292   0.666   1.867
10217TIP3    H230593   0.143   0.650   1.888
10218TIP3   OH230594   7.194   6.837   1.776
10218TIP3    H130595   7.222   6.865   1.689
10218TIP3    H230596   7.099   6.840   1.774
10219TIP3   OH230597   2.657   6.337   0.210
10219TIP3    H130598   2.689   6.247   0.207
10219TIP3    H230599   2.696   6.379   0.133
10220TIP3   OH230600   5.454   1.656   4.619
10220TIP3    H130601   5.387   1.717   4.651
10220TIP3    H230602   5.492   1.618   4.698
10221TIP3   OH230603   3.168   0.038   1.717
10221TIP3    H130604   3.172   0.068   1.808
10221TIP3    H230605   3.075   0.025   1.699
10222TIP3   OH230606   3.753   2.868   5.841
10222TIP3    H130607   3.800   2.905   5.766
10222TIP3    H230608   3.670   2.916   5.842
10223TIP3   OH230609   4.258   3.687   1.205
10223TIP3    H130610   4.223   3.776   1.203
10223TIP3    H230611   4.308   3.678   1.124
10224TIP3   OH230612   5.353   4.821   4.290
10224TIP3    H130613   5.320   4.831   4.379
10224TIP3    H230614   5.438   4.865   4.291
10225TIP3   OH230615   7.789   2.962   0.144
10225TIP3    H130616   7.721   2.942   0.208
10225TIP3    H230617   7.871   2.949   0.192
10226TIP3   OH230618   5.543   4.326   0.805
10226TIP3    H130619   5.495   4.376   0.739
10226TIP3    H230620   5.530   4.376   0.886
10227TIP3   OH230621   3.296   2.185   3.134
10227TIP3    H130622   3.382   2.223   3.117
10227TIP3    H230623   3.279   2.205   3.227
10228TIP3   OH230624   4.994   6.318   3.090
10228TIP3    H130625   4.955   6.382   3.030
10228TIP3    H230626   5.069   6.363   3.128
10229TIP3   OH230627   0.157   1.180   5.777
10229TIP3    H130628   0.129   1.198   5.688
10229TIP3    H230629   0.204   1.096   5.771
10230TIP3   OH230630   0.892   6.264   3.624
10230TIP3    H130631   0.962   6.301   3.678
10230TIP3    H230632   0.927   6.265   3.535
10231TIP3   OH230633   6.391   2.068   2.962
10231TIP3    H130634   6.455   2.059   3.033
10231TIP3    H230635   6.342   1.986   2.963
10232TIP3   OH230636   3.607   1.746   3.989
10232TIP3    H130637   3.537   1.686   4.015
10232TIP3    H230638   3.658   1.697   3.925
10233TIP3   OH230639   1.842   0.837   5.867
10233TIP3    H130640   1.908   0.835   5.797
10233TIP3    H230641   1.846   0.926   5.901
10234TIP3   OH230642   7.276   0.187   5.485
10234TIP3    H130643   7.238   0.127   5.548
10234TIP3    H230644   7.301   0.264   5.537
10235TIP3   OH230645   1.134   6.691   5.081
10235TIP3    H130646   1.153   6.597   5.082
10235TIP3    H230647   1.164   6.722   5.167
10236TIP3   OH230648   7.879   7.389   0.795
10236TIP3    H130649   7.943   7.435   0.849
10236TIP3    H230650   7.883   7.432   0.710
10237TIP3   OH230651   3.572   5.353   5.195
10237TIP3    H130652   3.579   5.381   5.287
10237TIP3    H230653   3.563   5.435   5.146
10238TIP3   OH230654   6.009   7.606   5.840
10238TIP3    H130655   5.984   7.683   5.890
10238TIP3    H230656   5.931   7.550   5.841
10239TIP3   OH230657   7.142   0.803   3.759
10239TIP3    H130658   7.217   0.749   3.784
10239TIP3    H230659   7.115   0.847   3.840
10240TIP3   OH230660   0.407   3.284   0.671
10240TIP3    H130661   0.376   3.241   0.751
10240TIP3    H230662   0.350   3.360   0.661
10241TIP3   OH230663   3.477   7.372   6.671
10241TIP3    H130664   3.476   7.385   6.576
10241TIP3    H230665   3.419   7.297   6.686
10242TIP3   OH230666   0.450   0.701   6.317
10242TIP3    H130667   0.384   0.632   6.306
10242TIP3    H230668   0.414   0.776   6.271
10243TIP3   OH230669   6.543   3.166   5.540
10243TIP3    H130670   6.609   3.176   5.609
10243TIP3    H230671   6.568   3.084   5.496
10244TIP3   OH230672   3.050   0.546   2.609
10244TIP3    H130673   3.110   0.601   2.559
10244TIP3    H230674   3.106   0.482   2.653
10245TIP3   OH230675   3.038   0.446   4.804
10245TIP3    H130676   3.044   0.356   4.772
10245TIP3    H230677   3.088   0.497   4.740
10246TIP3   OH230678   3.310   4.406   6.394
10246TIP3    H130679   3.328   4.329   6.448
10246TIP3    H230680   3.217   4.399   6.373
10247TIP3   OH230681   3.441   7.005   1.911
10247TIP3    H130682   3.446   7.006   2.006
10247TIP3    H230683   3.414   7.093   1.887
10248TIP3   OH230684   5.518   0.629   2.023
10248TIP3    H130685   5.513   0.705   1.966
10248TIP3    H230686   5.432   0.588   2.015
10249TIP3   OH230687   6.536   3.436   1.007
10249TIP3    H130688   6.602   3.366   1.007
10249TIP3    H230689   6.461   3.398   1.051
10250TIP3   OH230690   4.901   5.482   6.155
10250TIP3    H130691   4.831   5.436   6.199
10250TIP3    H230692   4.879   5.477   6.062
10251TIP3   OH230693   4.621   2.225   0.601
10251TIP3    H130694   4.614   2.167   0.524
10251TIP3    H230695   4.539   2.211   0.648
10252TIP3   OH230696   5.668   0.912   0.319
10252TIP3    H130697   5.741   0.856   0.293
10252TIP3    H230698   5.686   0.996   0.277
10253TIP3   OH230699   4.986   1.291   0.713
10253TIP3    H130700   4.989   1.236   0.634
10253TIP3    H230701   5.076   1.292   0.744
10254TIP3   OH230702   5.927   0.789   1.755
10254TIP3    H130703   5.833   0.804   1.745
10254TIP3    H230704   5.958   0.865   1.805
10255TIP3   OH230705   4.776   7.901   5.924
10255TIP3    H130706   4.765   7.864   5.837
10255TIP3    H230707   4.700   7.870   5.974
10256TIP3   OH230708   7.786   7.119   1.521
10256TIP3    H130709   7.749   7.073   1.446
10256TIP3    H230710   7.712   7.135   1.579
10257TIP3   OH230711   0.761   4.658   5.451
10257TIP3    H130712   0.764   4.753   5.437
10257TIP3    H230713   0.844   4.638   5.495
10258TIP3   OH230714   5.812   0.580   1.366
10258TIP3    H130715   5.781   0.489   1.373
10258TIP3    H230716   5.744   0.626   1.317
10259TIP3   OH230717   7.930   6.338   4.373
10259TIP3    H130718   7.911   6.276   4.303
10259TIP3    H230719   8.026   6.343   4.376
10260TIP3   OH230720   4.471   6.478   4.374
10260TIP3    H130721   4.421   6.397   4.362
10260TIP3    H230722   4.406   6.548   4.369
10261TIP3   OH230723   5.799   5.485   0.411
10261TIP3    H130724   5.814   5.430   0.487
10261TIP3    H230725   5.793   5.574   0.447
10262TIP3   OH230726   6.217   1.583   0.911
10262TIP3    H130727   6.244   1.493   0.925
10262TIP3    H230728   6.145   1.596   0.972
10263TIP3   OH230729   1.105   4.114   1.170
10263TIP3    H130730   1.111   4.029   1.127
10263TIP3    H230731   1.062   4.171   1.106
10264TIP3   OH230732   1.143   6.396   1.361
10264TIP3    H130733   1.122   6.488   1.378
10264TIP3    H230734   1.238   6.395   1.349
10265TIP3   OH230735   2.075   3.358   2.784
10265TIP3    H130736   2.060   3.282   2.839
10265TIP3    H230737   2.121   3.324   2.708
10266TIP3   OH230738   5.890   6.396   6.741
10266TIP3    H130739   5.968   6.431   6.785
10266TIP3    H230740   5.893   6.434   6.653
10267TIP3   OH230741   7.653   1.934   5.959
10267TIP3    H130742   7.589   2.000   5.987
10267TIP3    H230743   7.643   1.863   6.023
10268TIP3   OH230744   1.097   0.394   1.622
10268TIP3    H130745   1.078   0.427   1.534
10268TIP3    H230746   1.014   0.400   1.669
10269TIP3   OH230747   0.909   4.595   1.653
10269TIP3    H130748   0.986   4.618   1.705
10269TIP3    H230749   0.944   4.549   1.577
10270TIP3   OH230750   3.392   1.246   3.234
10270TIP3    H130751   3.379   1.335   3.200
10270TIP3    H230752   3.487   1.234   3.236
10271TIP3   OH230753   8.187   4.394   5.295
10271TIP3    H130754   8.140   4.340   5.360
10271TIP3    H230755   8.119   4.422   5.234
10272TIP3   OH230756   5.657   4.142   6.218
10272TIP3    H130757   5.635   4.126   6.310
10272TIP3    H230758   5.615   4.071   6.170
10273TIP3   OH230759   3.496   4.873   3.806
10273TIP3    H130760   3.474   4.852   3.715
10273TIP3    H230761   3.573   4.821   3.825
10274TIP3   OH230762   5.756   1.301   6.707
10274TIP3    H130763   5.731   1.298   6.799
10274TIP3    H230764   5.760   1.210   6.680
10275TIP3   OH230765   7.988   2.304   0.694
10275TIP3    H130766   8.042   2.225   0.688
10275TIP3    H230767   7.941   2.308   0.611
10276TIP3   OH230768   3.805   4.849   3.947
10276TIP3    H130769   3.758   4.791   3.886
10276TIP3    H230770   3.874   4.794   3.984
10277TIP3   OH230771   4.676   4.427   3.183
10277TIP3    H130772   4.732   4.499   3.154
10277TIP3    H230773   4.608   4.422   3.116
10278TIP3   OH230774   0.579   4.014   4.329
10278TIP3    H130775   0.530   4.075   4.275
10278TIP3    H230776   0.628   3.960   4.267
10279TIP3   OH230777   0.873   0.328   4.345
10279TIP3    H130778   0.851   0.268   4.416
10279TIP3    H230779   0.798   0.325   4.286
10280TIP3   OH230780   3.775   4.539   3.566
10280TIP3    H130781   3.839   4.471   3.546
10280TIP3    H230782   3.718   4.541   3.488
10281TIP3   OH230783   6.133   6.680   1.067
10281TIP3    H130784   6.139   6.743   0.996
10281TIP3    H230785   6.222   6.647   1.079
10282TIP3   OH230786   3.417   0.673   1.291
10282TIP3    H130787   3.369   0.753   1.313
10282TIP3    H230788   3.434   0.630   1.375
10283TIP3   OH230789   6.373   6.515   1.924
10283TIP3    H130790   6.323   6.530   2.004
10283TIP3    H230791   6.310   6.530   1.853
10284TIP3   OH230792   7.373   4.714   2.836
10284TIP3    H130793   7.380   4.630   2.791
10284TIP3    H230794   7.310   4.765   2.785
10285TIP3   OH230795   2.612   5.696   2.224
10285TIP3    H130796   2.680   5.741   2.174
10285TIP3    H230797   2.632   5.603   2.214
10286TIP3   OH230798   5.443   4.984   4.014
10286TIP3    H130799   5.438   5.047   4.086
10286TIP3    H230800   5.521   4.931   4.034
10287TIP3   OH230801   8.011   4.546   5.116
10287TIP3    H130802   7.936   4.585   5.161
10287TIP3    H230803   7.972   4.490   5.049
10288TIP3   OH230804   2.784   2.851   5.586
10288TIP3    H130805   2.792   2.823   5.678
10288TIP3    H230806   2.828   2.783   5.536
10289TIP3   OH230807   7.455   2.825   0.371
10289TIP3    H130808   7.486   2.890   0.434
10289TIP3    H230809   7.530   2.768   0.355
10290TIP3   OH230810   5.745   3.210   2.390
10290TIP3    H130811   5.835   3.241   2.402
10290TIP3    H230812   5.754   3.120   2.360
10291TIP3   OH230813   7.993   2.532   0.814
10291TIP3    H130814   7.978   2.444   0.780
10291TIP3    H230815   7.907   2.561   0.844
10292TIP3   OH230816   8.068   3.175   5.840
10292TIP3    H130817   8.048   3.228   5.917
10292TIP3    H230818   8.069   3.237   5.767
10293TIP3   OH230819   5.514   2.369   2.516
10293TIP3    H130820   5.452   2.301   2.543
10293TIP3    H230821   5.576   2.324   2.460
10294TIP3   OH230822   1.626   5.807   1.376
10294TIP3    H130823   1.588   5.783   1.461
10294TIP3    H230824   1.592   5.894   1.358
10295TIP3   OH230825   3.889   3.832   2.329
10295TIP3    H130826   3.967   3.872   2.291
10295TIP3    H230827   3.903   3.837   2.423
10296TIP3   OH230828   6.358   6.776   3.041
10296TIP3    H130829   6.388   6.867   3.046
10296TIP3    H230830   6.263   6.782   3.046
10297TIP3   OH230831   4.637   2.038   2.294
10297TIP3    H130832   4.697   2.028   2.219
10297TIP3    H230833   4.657   1.963   2.350
10298TIP3   OH230834   8.329   5.385   5.900
10298TIP3    H130835   8.319   5.479   5.909
10298TIP3    H230836   8.251   5.348   5.940
10299TIP3   OH230837   4.639   2.937   2.817
10299TIP3    H130838   4.614   3.028   2.832
10299TIP3    H230839   4.601   2.916   2.731
10300TIP3   OH230840   8.352   1.820   5.293
10300TIP3    H130841   8.337   1.783   5.380
10300TIP3    H230842   8.383   1.909   5.311
10301TIP3   OH230843   5.543   7.437   2.838
10301TIP3    H130844   5.559   7.431   2.932
10301TIP3    H230845   5.594   7.366   2.800
10302TIP3   OH230846   5.534   2.184   3.260
10302TIP3    H130847   5.468   2.123   3.227
10302TIP3    H230848   5.487   2.239   3.322
10303TIP3   OH230849   8.108   7.361   1.651
10303TIP3    H130850   8.188   7.341   1.700
10303TIP3    H230851   8.039   7.354   1.717
10304TIP3   OH230852   8.024   5.945   0.208
10304TIP3    H130853   8.062   5.870   0.253
10304TIP3    H230854   7.957   5.907   0.151
10305TIP3   OH230855   1.297   3.946   3.404
10305TIP3    H130856   1.375   4.000   3.392
10305TIP3    H230857   1.325   3.858   3.377
10306TIP3   OH230858   2.404   5.095   3.234
10306TIP3    H130859   2.397   5.073   3.141
10306TIP3    H230860   2.455   5.175   3.236
10307TIP3   OH230861   1.091   0.437   4.677
10307TIP3    H130862   1.000   0.463   4.691
10307TIP3    H230863   1.142   0.512   4.710
10308TIP3   OH230864   3.829   3.372   5.148
10308TIP3    H130865   3.759   3.363   5.212
10308TIP3    H230866   3.832   3.466   5.129
10309TIP3   OH230867   4.339   7.114   6.654
10309TIP3    H130868   4.296   7.113   6.739
10309TIP3    H230869   4.329   7.204   6.623
10310TIP3   OH230870   0.643   3.172   3.235
10310TIP3    H130871   0.735   3.146   3.233
10310TIP3    H230872   0.645   3.263   3.265
10311TIP3   OH230873   6.149   6.044   6.047
10311TIP3    H130874   6.180   6.071   5.960
10311TIP3    H230875   6.114   6.124   6.086
10312TIP3   OH230876   2.091   1.199   6.031
10312TIP3    H130877   2.105   1.272   6.092
10312TIP3    H230878   1.996   1.194   6.021
10313TIP3   OH230879   5.384   0.505   1.657
10313TIP3    H130880   5.347   0.539   1.576
10313TIP3    H230881   5.421   0.419   1.633
10314TIP3   OH230882   5.426   1.619   2.454
10314TIP3    H130883   5.383   1.614   2.369
10314TIP3    H230884   5.445   1.713   2.466
10315TIP3   OH230885   6.251   6.795   4.868
10315TIP3    H130886   6.175   6.739   4.886
10315TIP3    H230887   6.325   6.735   4.864
10316TIP3   OH230888   4.185   1.339   5.909
10316TIP3    H130889   4.245   1.370   5.841
10316TIP3    H230890   4.228   1.262   5.946
10317TIP3   OH230891   8.048   5.413   1.181
10317TIP3    H130892   7.972   5.456   1.220
10317TIP3    H230893   8.068   5.465   1.103
10318TIP3   OH230894   6.002   5.462   3.616
10318TIP3    H130895   5.951   5.431   3.690
10318TIP3    H230896   6.092   5.437   3.636
10319TIP3   OH230897   6.381   5.436   4.930
10319TIP3    H130898   6.471   5.411   4.906
10319TIP3    H230899   6.379   5.530   4.916
10320TIP3   OH230900   7.697   7.164   0.859
10320TIP3    H130901   7.776   7.183   0.911
10320TIP3    H230902   7.632   7.225   0.892
10321TIP3   OH230903   4.766   6.429   6.127
10321TIP3    H130904   4.740   6.427   6.219
10321TIP3    H230905   4.705   6.370   6.083
10322TIP3   OH230906   7.561   7.867   4.391
10322TIP3    H130907   7.468   7.888   4.403
10322TIP3    H230908   7.575   7.872   4.297
10323TIP3   OH230909   2.072   5.461   2.513
10323TIP3    H130910   2.111   5.483   2.429
10323TIP3    H230911   2.016   5.536   2.534
10324TIP3   OH230912   5.341   5.736   2.380
10324TIP3    H130913   5.279   5.666   2.397
10324TIP3    H230914   5.425   5.703   2.413
10325TIP3   OH230915   2.698   1.821   4.941
10325TIP3    H130916   2.667   1.848   5.028
10325TIP3    H230917   2.780   1.775   4.957
10326TIP3   OH230918   3.042   6.551   4.594
10326TIP3    H130919   3.122   6.603   4.587
10326TIP3    H230920   3.058   6.474   4.540
10327TIP3   OH230921   6.587   5.862   0.693
10327TIP3    H130922   6.663   5.805   0.679
10327TIP3    H230923   6.593   5.928   0.624
10328TIP3   OH230924   6.314   3.215   6.800
10328TIP3    H130925   6.359   3.265   6.868
10328TIP3    H230926   6.289   3.134   6.843
10329TIP3   OH230927   6.342   1.830   0.933
10329TIP3    H130928   6.388   1.794   0.857
10329TIP3    H230929   6.287   1.759   0.964
10330TIP3   OH230930   1.868   6.916   2.061
10330TIP3    H130931   1.906   7.001   2.039
10330TIP3    H230932   1.803   6.935   2.129
10331TIP3   OH230933   5.922   0.916   0.509
10331TIP3    H130934   5.917   0.995   0.563
10331TIP3    H230935   5.837   0.874   0.521
10332TIP3   OH230936   4.654   0.586   0.299
10332TIP3    H130937   4.724   0.549   0.353
10332TIP3    H230938   4.664   0.544   0.214
10333TIP3   OH230939   8.023   5.387   0.249
10333TIP3    H130940   7.946   5.380   0.306
10333TIP3    H230941   7.995   5.445   0.178
10334TIP3   OH230942   0.491   4.912   0.156
10334TIP3    H130943   0.410   4.866   0.178
10334TIP3    H230944   0.555   4.842   0.140
10335TIP3   OH230945   5.681   7.000   2.617
10335TIP3    H130946   5.684   7.058   2.541
10335TIP3    H230947   5.655   7.056   2.690
10336TIP3   OH230948   4.632   3.087   1.407
10336TIP3    H130949   4.621   3.182   1.417
10336TIP3    H230950   4.681   3.061   1.485
10337TIP3   OH230951   6.760   1.909   3.259
10337TIP3    H130952   6.807   1.992   3.247
10337TIP3    H230953   6.827   1.842   3.250
10338TIP3   OH230954   0.880   7.199   3.681
10338TIP3    H130955   0.919   7.114   3.663
10338TIP3    H230956   0.953   7.260   3.681
10339TIP3   OH230957   2.325   1.405   1.676
10339TIP3    H130958   2.350   1.458   1.600
10339TIP3    H230959   2.407   1.393   1.724
10340TIP3   OH230960   0.158   7.030   1.760
10340TIP3    H130961   0.223   7.091   1.797
10340TIP3    H230962   0.080   7.084   1.746
10341TIP3   OH230963   3.213   1.631   1.256
10341TIP3    H130964   3.262   1.638   1.339
10341TIP3    H230965   3.121   1.638   1.282
10342TIP3   OH230966   4.007   7.072   5.141
10342TIP3    H130967   3.951   7.002   5.175
10342TIP3    H230968   4.046   7.112   5.219
10343TIP3   OH230969   4.532   5.679   4.156
10343TIP3    H130970   4.496   5.673   4.068
10343TIP3    H230971   4.468   5.731   4.205
10344TIP3   OH230972   2.147   3.667   2.284
10344TIP3    H130973   2.123   3.749   2.328
10344TIP3    H230974   2.235   3.682   2.251
10345TIP3   OH230975   5.222   0.348   6.664
10345TIP3    H130976   5.317   0.343   6.674
10345TIP3    H230977   5.193   0.257   6.671
10346TIP3   OH230978   4.370   7.637   3.524
10346TIP3    H130979   4.354   7.666   3.434
10346TIP3    H230980   4.465   7.621   3.527
10347TIP3   OH230981   7.001   5.155   2.840
10347TIP3    H130982   6.985   5.073   2.792
10347TIP3    H230983   7.046   5.127   2.920
10348TIP3   OH230984   6.057   2.961   2.467
10348TIP3    H130985   6.132   3.020   2.457
10348TIP3    H230986   6.020   2.985   2.552
10349TIP3   OH230987   5.643   5.509   1.708
10349TIP3    H130988   5.638   5.445   1.637
10349TIP3    H230989   5.684   5.586   1.668
10350TIP3   OH230990   0.257   7.177   6.717
10350TIP3    H130991   0.259   7.267   6.748
10350TIP3    H230992   0.348   7.157   6.695
10351TIP3   OH230993   3.445   7.357   0.070
10351TIP3    H130994   3.401   7.435   0.033
10351TIP3    H230995   3.387   7.329   0.140
10352TIP3   OH230996   2.853   0.149   4.868
10352TIP3    H130997   2.835   0.136   4.775
10352TIP3    H230998   2.801   0.226   4.892
10353TIP3   OH230999   7.093   3.049   4.333
10353TIP3    H131000   7.177   3.055   4.379
10353TIP3    H231001   7.083   2.956   4.314
10354TIP3   OH231002   6.870   5.969   6.191
10354TIP3    H131003   6.959   5.963   6.226
10354TIP3    H231004   6.815   5.978   6.269
10355TIP3   OH231005   6.671   1.280   1.703
10355TIP3    H131006   6.765   1.291   1.692
10355TIP3    H231007   6.657   1.186   1.704
10356TIP3   OH231008   3.052   2.865   6.346
10356TIP3    H131009   3.092   2.877   6.433
10356TIP3    H231010   2.961   2.842   6.365
10357TIP3   OH231011   7.567   1.408   5.633
10357TIP3    H131012   7.622   1.439   5.561
10357TIP3    H231013   7.575   1.475   5.701
10358TIP3   OH231014   5.312   6.947   0.332
10358TIP3    H131015   5.226   6.935   0.372
10358TIP3    H231016   5.329   7.041   0.342
10359TIP3   OH231017   5.232   7.371   1.052
10359TIP3    H131018   5.202   7.459   1.029
10359TIP3    H231019   5.272   7.381   1.139
10360TIP3   OH231020   8.220   5.997   4.874
10360TIP3    H131021   8.301   5.982   4.824
10360TIP3    H231022   8.248   6.043   4.953
10361TIP3   OH231023   2.765   2.287   6.819
10361TIP3    H131024   2.679   2.318   6.792
10361TIP3    H231025   2.791   2.226   6.749
10362TIP3   OH231026   4.413   7.659   4.957
10362TIP3    H131027   4.322   7.634   4.973
10362TIP3    H231028   4.464   7.584   4.991
10363TIP3   OH231029   0.983   7.743   5.918
10363TIP3    H131030   1.007   7.828   5.955
10363TIP3    H231031   0.896   7.757   5.880
10364TIP3   OH231032   2.098   6.273   0.555
10364TIP3    H131033   2.141   6.205   0.606
10364TIP3    H231034   2.005   6.247   0.553
10365TIP3   OH231035   8.213   2.173   4.013
10365TIP3    H131036   8.167   2.093   3.990
10365TIP3    H231037   8.274   2.188   3.941
10366TIP3   OH231038   2.661   7.271   2.505
10366TIP3    H131039   2.655   7.182   2.471
10366TIP3    H231040   2.591   7.278   2.569
10367TIP3   OH231041   0.570   2.120   0.631
10367TIP3    H131042   0.608   2.144   0.547
10367TIP3    H231043   0.645   2.089   0.683
10368TIP3   OH231044   2.738   2.166   5.159
10368TIP3    H131045   2.744   2.125   5.072
10368TIP3    H231046   2.691   2.248   5.144
10369TIP3   OH231047   3.238   4.938   4.993
10369TIP3    H131048   3.319   4.929   4.943
10369TIP3    H231049   3.230   5.031   5.012
10370TIP3   OH231050   2.053   1.050   5.234
10370TIP3    H131051   1.965   1.050   5.271
10370TIP3    H231052   2.108   1.083   5.305
10371TIP3   OH231053   7.760   6.437   4.570
10371TIP3    H131054   7.808   6.394   4.499
10371TIP3    H231055   7.755   6.529   4.543
10372TIP3   OH231056   4.864   1.316   2.688
10372TIP3    H131057   4.816   1.233   2.693
10372TIP3    H231058   4.956   1.290   2.678
10373TIP3   OH231059   7.576   4.755   4.679
10373TIP3    H131060   7.585   4.690   4.610
10373TIP3    H231061   7.482   4.762   4.695
10374TIP3   OH231062   0.068   4.509   4.740
10374TIP3    H131063   0.157   4.545   4.730
10374TIP3    H231064   0.010   4.581   4.716
10375TIP3   OH231065   4.781   5.065   0.543
10375TIP3    H131066   4.686   5.079   0.546
10375TIP3    H231067   4.792   4.971   0.553
10376TIP3   OH231068   1.053   4.709   2.393
10376TIP3    H131069   1.086   4.721   2.482
10376TIP3    H231070   1.011   4.623   2.395
10377TIP3   OH231071   5.256   5.257   5.476
10377TIP3    H131072   5.331   5.316   5.478
10377TIP3    H231073   5.294   5.170   5.492
10378TIP3   OH231074   6.011   6.730   2.423
10378TIP3    H131075   5.997   6.795   2.492
10378TIP3    H231076   5.970   6.769   2.346
10379TIP3   OH231077   5.543   6.415   3.709
10379TIP3    H131078   5.597   6.438   3.785
10379TIP3    H231079   5.580   6.467   3.637
10380TIP3   OH231080   6.715   5.130   5.222
10380TIP3    H131081   6.707   5.139   5.127
10380TIP3    H231082   6.648   5.189   5.258
10381TIP3   OH231083   6.316   4.809   1.834
10381TIP3    H131084   6.269   4.868   1.893
10381TIP3    H231085   6.270   4.726   1.842
10382TIP3   OH231086   0.401   2.312   5.816
10382TIP3    H131087   0.427   2.258   5.741
10382TIP3    H231088   0.386   2.399   5.779
10383TIP3   OH231089   4.352   4.084   2.278
10383TIP3    H131090   4.387   4.069   2.190
10383TIP3    H231091   4.340   4.178   2.283
10384TIP3   OH231092   7.738   1.156   6.763
10384TIP3    H131093   7.682   1.194   6.695
10384TIP3    H231094   7.816   1.210   6.763
10385TIP3   OH231095   3.212   1.307   2.676
10385TIP3    H131096   3.178   1.386   2.634
10385TIP3    H231097   3.192   1.318   2.769
10386TIP3   OH231098   1.788   0.835   0.648
10386TIP3    H131099   1.704   0.828   0.694
10386TIP3    H231100   1.827   0.915   0.683
10387TIP3   OH231101   1.292   0.322   1.321
10387TIP3    H131102   1.279   0.407   1.279
10387TIP3    H231103   1.296   0.260   1.248
10388TIP3   OH231104   7.021   2.439   2.575
10388TIP3    H131105   7.068   2.374   2.524
10388TIP3    H231106   7.086   2.473   2.638
10389TIP3   OH231107   6.838   4.654   4.648
10389TIP3    H131108   6.844   4.641   4.742
10389TIP3    H231109   6.926   4.677   4.620
10390TIP3   OH231110   2.928   2.190   0.334
10390TIP3    H131111   2.852   2.226   0.380
10390TIP3    H231112   2.938   2.245   0.257
10391TIP3   OH231113   3.065   6.962   2.727
10391TIP3    H131114   3.105   6.875   2.716
10391TIP3    H231115   3.128   7.010   2.780
10392TIP3   OH231116   3.828   0.602   5.841
10392TIP3    H131117   3.898   0.546   5.875
10392TIP3    H231118   3.799   0.557   5.761
10393TIP3   OH231119   1.955   0.437   2.817
10393TIP3    H131120   1.930   0.511   2.761
10393TIP3    H231121   2.017   0.387   2.765
10394TIP3   OH231122   6.387   4.078   1.083
10394TIP3    H131123   6.463   4.044   1.130
10394TIP3    H231124   6.424   4.138   1.018
10395TIP3   OH231125   4.421   1.904   6.162
10395TIP3    H131126   4.383   1.895   6.250
10395TIP3    H231127   4.381   1.983   6.126
10396TIP3   OH231128   7.995   1.705   4.973
10396TIP3    H131129   7.982   1.735   4.883
10396TIP3    H231130   8.006   1.785   5.024
10397TIP3   OH231131   1.047   2.837   1.175
10397TIP3    H131132   1.090   2.878   1.249
10397TIP3    H231133   1.081   2.883   1.098
10398TIP3   OH231134   2.521   4.111   4.811
10398TIP3    H131135   2.575   4.038   4.840
10398TIP3    H231136   2.521   4.106   4.715
10399TIP3   OH231137   5.413   6.901   4.603
10399TIP3    H131138   5.408   6.995   4.620
10399TIP3    H231139   5.481   6.892   4.537
10400TIP3   OH231140   0.067   4.695   3.813
10400TIP3    H131141  -0.018   4.739   3.810
10400TIP3    H231142   0.080   4.661   3.724
10401TIP3   OH231143   4.732   3.941   2.292
10401TIP3    H131144   4.645   3.905   2.271
10401TIP3    H231145   4.788   3.910   2.221
10402TIP3   OH231146   3.507   5.820   6.246
10402TIP3    H131147   3.430   5.789   6.198
10402TIP3    H231148   3.576   5.826   6.180
10403TIP3   OH231149   0.803   0.259   4.942
10403TIP3    H131150   0.824   0.174   4.903
10403TIP3    H231151   0.824   0.250   5.035
10404TIP3   OH231152   0.054   4.933   6.112
10404TIP3    H131153  -0.009   4.952   6.043
10404TIP3    H231154   0.138   4.962   6.077
10405TIP3   OH231155   1.623   3.683   0.802
10405TIP3    H131156   1.605   3.623   0.729
10405TIP3    H231157   1.551   3.746   0.799
10406TIP3   OH231158   1.025   6.178   4.206
10406TIP3    H131159   0.939   6.146   4.234
10406TIP3    H231160   1.044   6.251   4.265
10407TIP3   OH231161   3.520   3.144   1.860
10407TIP3    H131162   3.438   3.182   1.828
10407TIP3    H231163   3.577   3.142   1.783
10408TIP3   OH231164   6.469   4.460   2.025
10408TIP3    H131165   6.380   4.456   1.991
10408TIP3    H231166   6.516   4.516   1.963
10409TIP3   OH231167   1.963   4.620   0.549
10409TIP3    H131168   2.013   4.553   0.597
10409TIP3    H231169   1.884   4.574   0.520
10410TIP3   OH231170   5.940   5.329   1.645
10410TIP3    H131171   6.004   5.295   1.708
10410TIP3    H231172   5.954   5.424   1.645
10411TIP3   OH231173   7.396   4.399   4.283
10411TIP3    H131174   7.391   4.345   4.204
10411TIP3    H231175   7.337   4.357   4.345
10412TIP3   OH231176   2.404   0.066   5.809
10412TIP3    H131177   2.493   0.087   5.838
10412TIP3    H231178   2.374   0.145   5.765
10413TIP3   OH231179   5.450   7.812   3.704
10413TIP3    H131180   5.501   7.733   3.693
10413TIP3    H231181   5.485   7.853   3.783
10414TIP3   OH231182   2.290   1.385   2.459
10414TIP3    H131183   2.278   1.422   2.371
10414TIP3    H231184   2.237   1.442   2.516
10415TIP3   OH231185   1.372   3.712   4.599
10415TIP3    H131186   1.383   3.630   4.648
10415TIP3    H231187   1.286   3.703   4.558
10416TIP3   OH231188   5.972   0.118   4.910
10416TIP3    H131189   5.996   0.181   4.842
10416TIP3    H231190   5.891   0.153   4.948
10417TIP3   OH231191   5.762   4.089   4.305
10417TIP3    H131192   5.685   4.053   4.349
10417TIP3    H231193   5.794   4.156   4.365
10418TIP3   OH231194   1.102   4.702   5.820
10418TIP3    H131195   1.090   4.789   5.858
10418TIP3    H231196   1.035   4.648   5.861
10419TIP3   OH231197   5.542   4.601   4.231
10419TIP3    H131198   5.550   4.690   4.267
10419TIP3    H231199   5.461   4.603   4.180
10420TIP3   OH231200   7.366   5.354   6.685
10420TIP3    H131201   7.427   5.378   6.755
10420TIP3    H231202   7.289   5.409   6.701
10421TIP3   OH231203   8.382   3.481   2.225
10421TIP3    H131204   8.312   3.431   2.268
10421TIP3    H231205   8.418   3.420   2.160
10422TIP3   OH231206   7.663   0.508   5.097
10422TIP3    H131207   7.650   0.461   5.179
10422TIP3    H231208   7.727   0.576   5.117
10423TIP3   OH231209   2.340   3.009   0.840
10423TIP3    H131210   2.435   3.009   0.834
10423TIP3    H231211   2.318   3.096   0.874
10424TIP3   OH231212   5.527   2.058   4.855
10424TIP3    H131213   5.525   2.073   4.949
10424TIP3    H231214   5.437   2.035   4.832
10425TIP3   OH231215   5.348   3.206   5.336
10425TIP3    H131216   5.296   3.126   5.335
10425TIP3    H231217   5.284   3.277   5.336
10426TIP3   OH231218   7.142   4.098   2.739
10426TIP3    H131219   7.218   4.090   2.682
10426TIP3    H231220   7.078   4.147   2.688
10427TIP3   OH231221   0.225   6.616   2.219
10427TIP3    H131222   0.265   6.529   2.226
10427TIP3    H231223   0.131   6.599   2.226
10428TIP3   OH231224   1.535   4.315   6.561
10428TIP3    H131225   1.600   4.292   6.494
10428TIP3    H231226   1.480   4.382   6.521
10429TIP3   OH231227   6.559   0.124   3.306
10429TIP3    H131228   6.626   0.160   3.247
10429TIP3    H231229   6.574   0.168   3.389
10430TIP3   OH231230   7.753   3.385   6.856
10430TIP3    H131231   7.673   3.430   6.825
10430TIP3    H231232   7.796   3.450   6.911
10431TIP3   OH231233   7.085   2.671   3.535
10431TIP3    H131234   7.179   2.675   3.518
10431TIP3    H231235   7.056   2.591   3.491
10432TIP3   OH231236   6.455   5.159   1.254
10432TIP3    H131237   6.363   5.163   1.280
10432TIP3    H231238   6.460   5.085   1.194
10433TIP3   OH231239   4.456   0.982   4.203
10433TIP3    H131240   4.433   1.030   4.282
10433TIP3    H231241   4.445   1.045   4.132
10434TIP3   OH231242   1.379   6.779   0.868
10434TIP3    H131243   1.421   6.700   0.834
10434TIP3    H231244   1.285   6.761   0.861
10435TIP3   OH231245   5.388   0.726   6.092
10435TIP3    H131246   5.315   0.675   6.056
10435TIP3    H231247   5.422   0.673   6.164
10436TIP3   OH231248   4.140   7.056   0.833
10436TIP3    H131249   4.184   6.979   0.869
10436TIP3    H231250   4.209   7.122   0.825
10437TIP3   OH231251   6.608   6.381   0.940
10437TIP3    H131252   6.656   6.368   1.022
10437TIP3    H231253   6.616   6.297   0.895
10438TIP3   OH231254   2.313   0.606   0.400
10438TIP3    H131255   2.323   0.692   0.360
10438TIP3    H231256   2.352   0.545   0.337
10439TIP3   OH231257   1.333   7.562   6.443
10439TIP3    H131258   1.378   7.550   6.526
10439TIP3    H231259   1.336   7.656   6.427
10440TIP3   OH231260   5.131   3.655   5.361
10440TIP3    H131261   5.171   3.661   5.448
10440TIP3    H231262   5.129   3.562   5.341
10441TIP3   OH231263   3.643   7.150   4.661
10441TIP3    H131264   3.672   7.227   4.710
10441TIP3    H231265   3.570   7.182   4.607
10442TIP3   OH231266   7.056   1.425   3.174
10442TIP3    H131267   7.049   1.521   3.180
10442TIP3    H231268   6.979   1.399   3.123
10443TIP3   OH231269   3.462   2.726   5.779
10443TIP3    H131270   3.455   2.700   5.687
10443TIP3    H231271   3.478   2.820   5.775
10444TIP3   OH231272   1.112   3.600   4.087
10444TIP3    H131273   1.190   3.550   4.063
10444TIP3    H231274   1.113   3.601   4.183
10445TIP3   OH231275   3.775   1.998   0.217
10445TIP3    H131276   3.698   1.951   0.250
10445TIP3    H231277   3.850   1.949   0.252
10446TIP3   OH231278   0.415   5.298   0.611
10446TIP3    H131279   0.436   5.260   0.526
10446TIP3    H231280   0.436   5.229   0.674
10447TIP3   OH231281   1.807   1.782   3.453
10447TIP3    H131282   1.811   1.809   3.544
10447TIP3    H231283   1.753   1.703   3.453
10448TIP3   OH231284   0.083   4.143   4.251
10448TIP3    H131285   0.051   4.118   4.337
10448TIP3    H231286   0.120   4.231   4.263
10449TIP3   OH231287   1.084   0.628   3.374
10449TIP3    H131288   1.112   0.548   3.330
10449TIP3    H231289   1.003   0.653   3.330
10450TIP3   OH231290   0.874   6.368   1.252
10450TIP3    H131291   0.850   6.443   1.197
10450TIP3    H231292   0.966   6.383   1.273
10451TIP3   OH231293   4.032   4.447   3.493
10451TIP3    H131294   4.004   4.503   3.420
10451TIP3    H231295   4.091   4.503   3.544
10452TIP3   OH231296   1.617   7.499   4.522
10452TIP3    H131297   1.666   7.421   4.546
10452TIP3    H231298   1.543   7.466   4.471
10453TIP3   OH231299   2.216   1.232   3.592
10453TIP3    H131300   2.286   1.234   3.657
10453TIP3    H231301   2.243   1.165   3.530
10454TIP3   OH231302   2.403   3.494   3.813
10454TIP3    H131303   2.428   3.586   3.826
10454TIP3    H231304   2.334   3.497   3.746
10455TIP3   OH231305   6.761   4.524   1.575
10455TIP3    H131306   6.842   4.478   1.551
10455TIP3    H231307   6.754   4.594   1.511
10456TIP3   OH231308   1.602   5.350   1.788
10456TIP3    H131309   1.655   5.390   1.720
10456TIP3    H231310   1.621   5.256   1.782
10457TIP3   OH231311   5.065   6.165   4.525
10457TIP3    H131312   5.088   6.250   4.563
10457TIP3    H231313   5.109   6.101   4.581
10458TIP3   OH231314   8.200   7.243   5.468
10458TIP3    H131315   8.160   7.322   5.430
10458TIP3    H231316   8.173   7.245   5.560
10459TIP3   OH231317   5.380   3.818   0.683
10459TIP3    H131318   5.427   3.895   0.715
10459TIP3    H231319   5.291   3.850   0.664
10460TIP3   OH231320   5.175   5.437   6.522
10460TIP3    H131321   5.139   5.451   6.435
10460TIP3    H231322   5.170   5.343   6.537
10461TIP3   OH231323   7.460   4.067   1.861
10461TIP3    H131324   7.387   4.098   1.915
10461TIP3    H231325   7.527   4.135   1.870
10462TIP3   OH231326   4.238   6.686   6.561
10462TIP3    H131327   4.144   6.690   6.540
10462TIP3    H231328   4.274   6.625   6.496
10463TIP3   OH231329   7.509   1.315   4.116
10463TIP3    H131330   7.524   1.248   4.049
10463TIP3    H231331   7.469   1.268   4.189
10464TIP3   OH231332   4.914   2.896   2.892
10464TIP3    H131333   4.833   2.914   2.844
10464TIP3    H231334   4.977   2.959   2.857
10465TIP3   OH231335   5.786   6.823   5.802
10465TIP3    H131336   5.757   6.837   5.892
10465TIP3    H231337   5.807   6.911   5.770
10466TIP3   OH231338   8.273   0.149   2.587
10466TIP3    H131339   8.255   0.242   2.601
10466TIP3    H231340   8.211   0.104   2.645
10467TIP3   OH231341   5.328   7.152   4.373
10467TIP3    H131342   5.400   7.177   4.430
10467TIP3    H231343   5.250   7.188   4.414
10468TIP3   OH231344   2.923   0.637   6.665
10468TIP3    H131345   2.978   0.709   6.696
10468TIP3    H231346   2.983   0.563   6.654
10469TIP3   OH231347   5.514   5.954   0.357
10469TIP3    H131348   5.581   6.011   0.320
10469TIP3    H231349   5.444   5.954   0.292
10470TIP3   OH231350   2.621   3.389   1.675
10470TIP3    H131351   2.565   3.318   1.707
10470TIP3    H231352   2.688   3.345   1.622
10471TIP3   OH231353   1.757   7.120   3.112
10471TIP3    H131354   1.849   7.139   3.131
10471TIP3    H231355   1.735   7.046   3.168
10472TIP3   OH231356   7.070   4.827   1.126
10472TIP3    H131357   7.100   4.837   1.216
10472TIP3    H231358   7.011   4.752   1.128
10473TIP3   OH231359   4.298   3.754   6.141
10473TIP3    H131360   4.243   3.721   6.070
10473TIP3    H231361   4.378   3.785   6.098
10474TIP3   OH231362   6.411   3.788   6.136
10474TIP3    H131363   6.368   3.865   6.097
10474TIP3    H231364   6.447   3.741   6.061
10475TIP3   OH231365   0.376   1.808   6.757
10475TIP3    H131366   0.353   1.723   6.719
10475TIP3    H231367   0.453   1.836   6.707
10476TIP3   OH231368   4.396   7.250   6.338
10476TIP3    H131369   4.460   7.277   6.272
10476TIP3    H231370   4.415   7.306   6.414
10477TIP3   OH231371   0.323   1.024   4.201
10477TIP3    H131372   0.229   1.012   4.216
10477TIP3    H231373   0.356   1.061   4.283
10478TIP3   OH231374   8.268   5.903   0.912
10478TIP3    H131375   8.323   5.941   0.981
10478TIP3    H231376   8.230   5.825   0.953
10479TIP3   OH231377   6.813   2.173   5.821
10479TIP3    H131378   6.737   2.231   5.819
10479TIP3    H231379   6.776   2.085   5.828
10480TIP3   OH231380   7.176   3.064   1.510
10480TIP3    H131381   7.142   3.151   1.491
10480TIP3    H231382   7.121   3.031   1.581
10481TIP3   OH231383   2.251   3.800   6.513
10481TIP3    H131384   2.335   3.845   6.510
10481TIP3    H231385   2.256   3.732   6.446
10482TIP3   OH231386   7.432   7.186   0.725
10482TIP3    H131387   7.452   7.278   0.743
10482TIP3    H231388   7.403   7.151   0.810
10483TIP3   OH231389   5.817   4.422   0.037
10483TIP3    H131390   5.911   4.413   0.050
10483TIP3    H231391   5.794   4.354  -0.026
10484TIP3   OH231392   5.997   3.314   3.579
10484TIP3    H131393   6.015   3.220   3.571
10484TIP3    H231394   6.031   3.337   3.666
10485TIP3   OH231395   1.581   4.047   0.082
10485TIP3    H131396   1.556   4.133   0.117
10485TIP3    H231397   1.662   4.025   0.128
10486TIP3   OH231398   6.379   0.250   1.114
10486TIP3    H131399   6.461   0.256   1.163
10486TIP3    H231400   6.404   0.213   1.029
10487TIP3   OH231401   3.179   0.449   5.661
10487TIP3    H131402   3.262   0.401   5.668
10487TIP3    H231403   3.153   0.439   5.570
10488TIP3   OH231404   8.224   4.055   4.899
10488TIP3    H131405   8.190   4.109   4.828
10488TIP3    H231406   8.258   4.118   4.962
10489TIP3   OH231407   2.484   4.582   3.286
10489TIP3    H131408   2.482   4.537   3.201
10489TIP3    H231409   2.560   4.640   3.281
10490TIP3   OH231410   3.322   1.911   5.112
10490TIP3    H131411   3.392   1.874   5.059
10490TIP3    H231412   3.359   1.913   5.201
10491TIP3   OH231413   6.463   1.208   1.472
10491TIP3    H131414   6.423   1.288   1.440
10491TIP3    H231415   6.501   1.232   1.557
10492TIP3   OH231416   1.688   3.061   0.342
10492TIP3    H131417   1.605   3.110   0.346
10492TIP3    H231418   1.742   3.101   0.410
10493TIP3   OH231419   2.285   1.439   0.254
10493TIP3    H131420   2.258   1.460   0.165
10493TIP3    H231421   2.348   1.508   0.277
10494TIP3   OH231422   2.283   2.523   6.795
10494TIP3    H131423   2.245   2.588   6.737
10494TIP3    H231424   2.210   2.468   6.821
10495TIP3   OH231425   1.450   1.954   2.867
10495TIP3    H131426   1.460   1.926   2.776
10495TIP3    H231427   1.529   2.006   2.884
10496TIP3   OH231428   6.908   5.999   6.786
10496TIP3    H131429   6.951   6.048   6.855
10496TIP3    H231430   6.814   6.012   6.803
10497TIP3   OH231431   2.792   6.416   0.507
10497TIP3    H131432   2.864   6.438   0.448
10497TIP3    H231433   2.768   6.326   0.485
10498TIP3   OH231434   7.095   7.860   0.020
10498TIP3    H131435   7.125   7.788  -0.036
10498TIP3    H231436   7.159   7.930   0.004
10499TIP3   OH231437   1.558   6.741   1.321
10499TIP3    H131438   1.619   6.722   1.250
10499TIP3    H231439   1.612   6.784   1.388
10500TIP3   OH231440   0.151   1.586   0.544
10500TIP3    H131441   0.170   1.554   0.632
10500TIP3    H231442   0.069   1.634   0.552
10501TIP3   OH231443   4.130   6.186   6.397
10501TIP3    H131444   4.103   6.162   6.309
10501TIP3    H231445   4.048   6.196   6.445
10502TIP3   OH231446   1.792   4.356   2.260
10502TIP3    H131447   1.775   4.277   2.208
10502TIP3    H231448   1.881   4.382   2.237
10503TIP3   OH231449   1.318   1.792   2.342
10503TIP3    H131450   1.238   1.740   2.330
10503TIP3    H231451   1.335   1.831   2.256
10504TIP3   OH231452   3.296   3.959   6.659
10504TIP3    H131453   3.290   4.043   6.613
10504TIP3    H231454   3.390   3.940   6.661
10505TIP3   OH231455   0.278   5.392   2.662
10505TIP3    H131456   0.211   5.331   2.631
10505TIP3    H231457   0.235   5.444   2.729
10506TIP3   OH231458   7.244   1.916   6.602
10506TIP3    H131459   7.210   1.925   6.513
10506TIP3    H231460   7.168   1.925   6.658
10507TIP3   OH231461   2.716   7.127   5.984
10507TIP3    H131462   2.651   7.066   6.019
10507TIP3    H231463   2.792   7.071   5.965
10508TIP3   OH231464   2.338   4.377   4.390
10508TIP3    H131465   2.287   4.337   4.460
10508TIP3    H231466   2.294   4.461   4.373
10509TIP3   OH231467   2.460   3.772   3.834
10509TIP3    H131468   2.456   3.806   3.744
10509TIP3    H231469   2.550   3.789   3.862
10510TIP3   OH231470   4.204   6.089   1.139
10510TIP3    H131471   4.287   6.096   1.187
10510TIP3    H231472   4.212   6.006   1.091
10511TIP3   OH231473   5.809   1.974   1.939
10511TIP3    H131474   5.892   2.015   1.962
10511TIP3    H231475   5.807   1.975   1.844
10512TIP3   OH231476   8.396   5.753   1.514
10512TIP3    H131477   8.393   5.840   1.553
10512TIP3    H231478   8.330   5.755   1.445
10513TIP3   OH231479   1.238   5.329   5.430
10513TIP3    H131480   1.151   5.362   5.406
10513TIP3    H231481   1.230   5.307   5.523
10514TIP3   OH231482   2.660   0.843   5.218
10514TIP3    H131483   2.691   0.803   5.299
10514TIP3    H231484   2.732   0.899   5.189
10515TIP3   OH231485   8.243   5.971   4.162
10515TIP3    H131486   8.165   6.023   4.143
10515TIP3    H231487   8.217   5.918   4.238
10516TIP3   OH231488   1.081   5.799   5.718
10516TIP3    H131489   1.171   5.780   5.693
10516TIP3    H231490   1.089   5.855   5.795
10517TIP3   OH231491   1.998   7.687   3.016
10517TIP3    H131492   1.959   7.700   3.103
10517TIP3    H231493   1.925   7.661   2.960
10518TIP3   OH231494   3.879   1.323   4.690
10518TIP3    H131495   3.872   1.228   4.677
10518TIP3    H231496   3.958   1.348   4.643
10519TIP3   OH231497   1.554   7.324   0.043
10519TIP3    H131498   1.584   7.345   0.131
10519TIP3    H231499   1.470   7.369   0.035
10520TIP3   OH231500   6.183   7.131   1.555
10520TIP3    H131501   6.186   7.207   1.612
10520TIP3    H231502   6.098   7.138   1.510
10521TIP3   OH231503   3.629   1.874   1.585
10521TIP3    H131504   3.712   1.852   1.543
10521TIP3    H231505   3.654   1.908   1.670
10522TIP3   OH231506   4.269   5.269   1.072
10522TIP3    H131507   4.328   5.226   1.134
10522TIP3    H231508   4.298   5.360   1.071
10523TIP3   OH231509   7.294   4.919   4.758
10523TIP3    H131510   7.286   5.000   4.707
10523TIP3    H231511   7.247   4.938   4.839
10524TIP3   OH231512   6.052   0.580   4.376
10524TIP3    H131513   6.061   0.623   4.461
10524TIP3    H231514   6.119   0.511   4.377
10525TIP3   OH231515   2.179   1.318   4.072
10525TIP3    H131516   2.242   1.390   4.075
10525TIP3    H231517   2.141   1.315   4.160
10526TIP3   OH231518   0.886   1.027   6.740
10526TIP3    H131519   0.939   1.105   6.755
10526TIP3    H231520   0.907   0.999   6.651
10527TIP3   OH231521   1.896   1.554   0.350
10527TIP3    H131522   1.915   1.512   0.433
10527TIP3    H231523   1.837   1.626   0.372
10528TIP3   OH231524   4.329   4.947   5.859
10528TIP3    H131525   4.348   4.939   5.766
10528TIP3    H231526   4.284   4.866   5.882
10529TIP3   OH231527   5.799   2.047   0.725
10529TIP3    H131528   5.752   1.980   0.774
10529TIP3    H231529   5.767   2.037   0.635
10530TIP3   OH231530   3.753   5.558   6.707
10530TIP3    H131531   3.729   5.610   6.783
10530TIP3    H231532   3.838   5.592   6.679
10531TIP3   OH231533   4.359   2.158   0.667
10531TIP3    H131534   4.276   2.202   0.686
10531TIP3    H231535   4.369   2.095   0.738
10532TIP3   OH231536   7.580   2.843   6.608
10532TIP3    H131537   7.535   2.759   6.615
10532TIP3    H231538   7.516   2.902   6.569
10533TIP3   OH231539   0.768   5.015   1.295
10533TIP3    H131540   0.760   5.067   1.375
10533TIP3    H231541   0.706   5.055   1.234
10534TIP3   OH231542   4.943   2.806   6.062
10534TIP3    H131543   4.858   2.849   6.052
10534TIP3    H231544   4.974   2.836   6.148
10535TIP3   OH231545   4.133   3.449   2.145
10535TIP3    H131546   4.170   3.525   2.100
10535TIP3    H231547   4.147   3.376   2.085
10536TIP3   OH231548   5.872   5.912   1.647
10536TIP3    H131549   5.927   5.961   1.586
10536TIP3    H231550   5.907   5.931   1.733
10537TIP3   OH231551   1.199   7.283   4.728
10537TIP3    H131552   1.250   7.362   4.746
10537TIP3    H231553   1.264   7.215   4.711
10538TIP3   OH231554   4.399   1.656   1.436
10538TIP3    H131555   4.358   1.724   1.382
10538TIP3    H231556   4.339   1.643   1.509
10539TIP3   OH231557   6.271   2.431   0.057
10539TIP3    H131558   6.222   2.455   0.135
10539TIP3    H231559   6.205   2.399  -0.004
10540TIP3   OH231560   7.695   7.368   2.690
10540TIP3    H131561   7.666   7.366   2.599
10540TIP3    H231562   7.790   7.359   2.685
10541TIP3   OH231563   3.105   3.214   2.895
10541TIP3    H131564   3.036   3.182   2.837
10541TIP3    H231565   3.175   3.150   2.886
10542TIP3   OH231566   3.822   7.694   2.051
10542TIP3    H131567   3.821   7.633   2.125
10542TIP3    H231568   3.865   7.773   2.085
10543TIP3   OH231569   2.341   7.520   4.605
10543TIP3    H131570   2.384   7.525   4.520
10543TIP3    H231571   2.386   7.586   4.659
10544TIP3   OH231572   2.412   6.507   0.202
10544TIP3    H131573   2.374   6.470   0.281
10544TIP3    H231574   2.492   6.456   0.187
10545TIP3   OH231575   1.619   1.456   0.770
10545TIP3    H131576   1.542   1.406   0.742
10545TIP3    H231577   1.586   1.545   0.785
10546TIP3   OH231578   2.491   5.297   4.993
10546TIP3    H131579   2.413   5.285   5.047
10546TIP3    H231580   2.561   5.316   5.056
10547TIP3   OH231581   2.412   4.262   3.901
10547TIP3    H131582   2.410   4.357   3.892
10547TIP3    H231583   2.326   4.233   3.871
10548TIP3   OH231584   7.674   1.098   5.354
10548TIP3    H131585   7.749   1.117   5.410
10548TIP3    H231586   7.660   1.178   5.304
10549TIP3   OH231587   4.152   4.590   1.770
10549TIP3    H131588   4.147   4.682   1.796
10549TIP3    H231589   4.172   4.543   1.851
10550TIP3   OH231590   4.383   7.749   3.272
10550TIP3    H131591   4.471   7.716   3.254
10550TIP3    H231592   4.379   7.832   3.225
10551TIP3   OH231593   3.743   7.097   2.883
10551TIP3    H131594   3.804   7.086   2.811
10551TIP3    H231595   3.680   7.026   2.873
10552TIP3   OH231596   2.964   6.587   2.108
10552TIP3    H131597   2.962   6.520   2.176
10552TIP3    H231598   3.037   6.644   2.132
10553TIP3   OH231599   7.684   2.705   2.358
10553TIP3    H131600   7.771   2.738   2.377
10553TIP3    H231601   7.677   2.708   2.263
10554TIP3   OH231602   7.264   0.587   3.244
10554TIP3    H131603   7.225   0.553   3.324
10554TIP3    H231604   7.205   0.656   3.215
10555TIP3   OH231605   8.118   2.651   6.559
10555TIP3    H131606   8.066   2.579   6.595
10555TIP3    H231607   8.065   2.729   6.575
10556TIP3   OH231608   0.792   7.258   5.768
10556TIP3    H131609   0.725   7.314   5.807
10556TIP3    H231610   0.809   7.296   5.682
10557TIP3   OH231611   0.086   1.638   2.130
10557TIP3    H131612   0.061   1.597   2.213
10557TIP3    H231613   0.165   1.590   2.103
10558TIP3   OH231614   3.545   0.098   6.753
10558TIP3    H131615   3.608   0.048   6.701
10558TIP3    H231616   3.543   0.054   6.838
10559TIP3   OH231617   7.088   2.756   2.907
10559TIP3    H131618   7.084   2.849   2.882
10559TIP3    H231619   7.122   2.712   2.829
10560TIP3   OH231620   0.291   4.950   4.644
10560TIP3    H131621   0.211   4.900   4.625
10560TIP3    H231622   0.303   5.007   4.569
10561TIP3   OH231623   0.530   2.067   3.563
10561TIP3    H131624   0.444   2.102   3.588
10561TIP3    H231625   0.536   1.984   3.611
10562TIP3   OH231626   8.088   7.628   6.563
10562TIP3    H131627   8.058   7.538   6.571
10562TIP3    H231628   8.183   7.622   6.562
10563TIP3   OH231629   4.882   1.136   5.021
10563TIP3    H131630   4.972   1.145   4.991
10563TIP3    H231631   4.885   1.072   5.091
10564TIP3   OH231632   5.682   5.078   2.477
10564TIP3    H131633   5.710   5.116   2.393
10564TIP3    H231634   5.763   5.048   2.519
10565TIP3   OH231635   2.555   7.602   4.358
10565TIP3    H131636   2.584   7.545   4.286
10565TIP3    H231637   2.634   7.645   4.389
10566TIP3   OH231638   3.772   0.381   1.528
10566TIP3    H131639   3.690   0.331   1.521
10566TIP3    H231640   3.809   0.377   1.440
10567TIP3   OH231641   4.225   4.634   6.665
10567TIP3    H131642   4.293   4.576   6.632
10567TIP3    H231643   4.196   4.594   6.747
10568TIP3   OH231644   7.552   7.019   2.293
10568TIP3    H131645   7.509   6.939   2.324
10568TIP3    H231646   7.509   7.039   2.210
10569TIP3   OH231647   2.696   7.590   6.322
10569TIP3    H131648   2.660   7.507   6.290
10569TIP3    H231649   2.709   7.576   6.416
10570TIP3   OH231650   1.224   4.091   3.619
10570TIP3    H131651   1.228   4.008   3.571
10570TIP3    H231652   1.247   4.157   3.554
10571TIP3   OH231653   0.969   6.686   6.696
10571TIP3    H131654   1.041   6.629   6.671
10571TIP3    H231655   1.011   6.766   6.728
10572TIP3   OH231656   0.451   4.084   1.868
10572TIP3    H131657   0.525   4.094   1.807
10572TIP3    H231658   0.455   4.163   1.922
10573TIP3   OH231659   3.042   0.886   3.091
10573TIP3    H131660   3.125   0.923   3.061
10573TIP3    H231661   3.042   0.797   3.058
10574TIP3   OH231662   5.360   0.727   3.284
10574TIP3    H131663   5.332   0.752   3.372
10574TIP3    H231664   5.363   0.809   3.235
10575TIP3   OH231665   7.351   7.901   3.554
10575TIP3    H131666   7.429   7.939   3.596
10575TIP3    H231667   7.298   7.869   3.626
10576TIP3   OH231668   5.637   2.769   5.905
10576TIP3    H131669   5.559   2.823   5.914
10576TIP3    H231670   5.695   2.798   5.976
10577TIP3   OH231671   6.751   4.107   0.699
10577TIP3    H131672   6.692   4.115   0.624
10577TIP3    H231673   6.770   4.198   0.723
10578TIP3   OH231674   3.636   7.227   5.104
10578TIP3    H131675   3.691   7.287   5.053
10578TIP3    H231676   3.695   7.191   5.171
10579TIP3   OH231677   5.541   1.560   1.780
10579TIP3    H131678   5.615   1.537   1.837
10579TIP3    H231679   5.481   1.609   1.837
10580TIP3   OH231680   6.625   4.906   5.985
10580TIP3    H131681   6.563   4.835   6.004
10580TIP3    H231682   6.570   4.982   5.966
10581TIP3   OH231683   4.800   5.384   3.689
10581TIP3    H131684   4.723   5.362   3.637
10581TIP3    H231685   4.778   5.469   3.728
10582TIP3   OH231686   6.758   5.578   0.349
10582TIP3    H131687   6.853   5.568   0.345
10582TIP3    H231688   6.725   5.489   0.363
10583TIP3   OH231689   4.859   7.105   4.429
10583TIP3    H131690   4.817   7.182   4.391
10583TIP3    H231691   4.878   7.130   4.519
10584TIP3   OH231692   0.855   6.007   2.900
10584TIP3    H131693   0.925   5.955   2.940
10584TIP3    H231694   0.797   6.029   2.973
10585TIP3   OH231695   4.187   6.356   3.419
10585TIP3    H131696   4.243   6.407   3.478
10585TIP3    H231697   4.216   6.380   3.331
10586TIP3   OH231698   6.373   1.699   5.799
10586TIP3    H131699   6.322   1.772   5.835
10586TIP3    H231700   6.426   1.668   5.873
10587TIP3   OH231701   3.514   2.780   6.532
10587TIP3    H131702   3.572   2.720   6.487
10587TIP3    H231703   3.517   2.861   6.480
10588TIP3   OH231704   2.915   6.369   2.267
10588TIP3    H131705   2.851   6.386   2.336
10588TIP3    H231706   2.977   6.308   2.307
10589TIP3   OH231707   5.943   3.315   2.167
10589TIP3    H131708   5.972   3.292   2.256
10589TIP3    H231709   5.974   3.242   2.113
10590TIP3   OH231710   2.160   6.230   1.062
10590TIP3    H131711   2.228   6.171   1.093
10590TIP3    H231712   2.078   6.190   1.092
10591TIP3   OH231713   2.724   4.250   5.802
10591TIP3    H131714   2.701   4.202   5.722
10591TIP3    H231715   2.662   4.323   5.804
10592TIP3   OH231716   4.679   2.273   4.801
10592TIP3    H131717   4.714   2.205   4.857
10592TIP3    H231718   4.720   2.258   4.716
10593TIP3   OH231719   5.630   5.676   0.702
10593TIP3    H131720   5.608   5.661   0.794
10593TIP3    H231721   5.686   5.603   0.679
10594TIP3   OH231722   3.856   0.164   1.831
10594TIP3    H131723   3.769   0.199   1.813
10594TIP3    H231724   3.839   0.074   1.862
10595TIP3   OH231725   3.006   0.132   2.708
10595TIP3    H131726   3.042   0.201   2.764
10595TIP3    H231727   2.998   0.173   2.622
10596TIP3   OH231728   2.032   4.631   0.842
10596TIP3    H131729   1.960   4.631   0.778
10596TIP3    H231730   1.992   4.665   0.922
10597TIP3   OH231731   2.980   3.555   0.558
10597TIP3    H131732   2.956   3.634   0.510
10597TIP3    H231733   3.075   3.562   0.569
10598TIP3   OH231734   5.541   1.043   2.090
10598TIP3    H131735   5.634   1.061   2.081
10598TIP3    H231736   5.503   1.071   2.006
10599TIP3   OH231737   8.264   4.118   0.640
10599TIP3    H131738   8.350   4.120   0.597
10599TIP3    H231739   8.201   4.119   0.568
10600TIP3   OH231740   7.794   6.027   2.114
10600TIP3    H131741   7.726   6.028   2.047
10600TIP3    H231742   7.763   5.964   2.179
10601TIP3   OH231743   6.033   2.199   4.112
10601TIP3    H131744   6.073   2.286   4.106
10601TIP3    H231745   6.027   2.183   4.206
10602TIP3   OH231746   3.548   1.359   4.549
10602TIP3    H131747   3.473   1.414   4.571
10602TIP3    H231748   3.611   1.374   4.620
10603TIP3   OH231749   1.124   0.882   3.445
10603TIP3    H131750   1.190   0.898   3.513
10603TIP3    H231751   1.143   0.794   3.413
10604TIP3   OH231752   3.874   2.845   2.021
10604TIP3    H131753   3.809   2.832   1.952
10604TIP3    H231754   3.878   2.760   2.066
10605TIP3   OH231755   3.205   6.670   6.237
10605TIP3    H131756   3.215   6.739   6.303
10605TIP3    H231757   3.156   6.712   6.167
10606TIP3   OH231758   6.554   7.831   1.081
10606TIP3    H131759   6.523   7.751   1.039
10606TIP3    H231760   6.490   7.849   1.150
10607TIP3   OH231761   0.945   3.371   5.828
10607TIP3    H131762   0.938   3.334   5.916
10607TIP3    H231763   0.937   3.465   5.840
10608TIP3   OH231764   7.781   0.877   6.458
10608TIP3    H131765   7.870   0.853   6.431
10608TIP3    H231766   7.725   0.821   6.404
10609TIP3   OH231767   0.571   6.019   3.064
10609TIP3    H131768   0.530   6.067   2.993
10609TIP3    H231769   0.591   5.933   3.027
10610TIP3   OH231770   5.908   2.643   4.321
10610TIP3    H131771   5.932   2.734   4.303
10610TIP3    H231772   5.961   2.620   4.398
10611TIP3   OH231773   7.191   2.704   6.293
10611TIP3    H131774   7.283   2.723   6.273
10611TIP3    H231775   7.166   2.771   6.356
10612TIP3   OH231776   1.187   6.297   4.014
10612TIP3    H131777   1.120   6.300   3.946
10612TIP3    H231778   1.147   6.247   4.085
10613TIP3   OH231779   2.623   0.212   5.144
10613TIP3    H131780   2.674   0.269   5.086
10613TIP3    H231781   2.570   0.159   5.084
10614TIP3   OH231782   2.748   6.201   5.640
10614TIP3    H131783   2.770   6.236   5.554
10614TIP3    H231784   2.775   6.109   5.637
10615TIP3   OH231785   0.990   2.523   1.473
10615TIP3    H131786   1.067   2.523   1.417
10615TIP3    H231787   0.972   2.615   1.491
10616TIP3   OH231788   7.221   2.902   5.113
10616TIP3    H131789   7.161   2.872   5.045
10616TIP3    H231790   7.308   2.891   5.075
10617TIP3   OH231791   3.320   5.343   0.568
10617TIP3    H131792   3.301   5.332   0.474
10617TIP3    H231793   3.302   5.435   0.586
10618TIP3   OH231794   3.131   3.061   2.533
10618TIP3    H131795   3.090   3.063   2.620
10618TIP3    H231796   3.224   3.055   2.551
10619TIP3   OH231797  -0.001   7.910   2.846
10619TIP3    H131798   0.065   7.948   2.788
10619TIP3    H231799   0.017   7.949   2.932
10620TIP3   OH231800   3.133   4.370   2.501
10620TIP3    H131801   3.099   4.388   2.413
10620TIP3    H231802   3.093   4.438   2.556
10621TIP3   OH231803   3.769   5.587   1.386
10621TIP3    H131804   3.818   5.576   1.468
10621TIP3    H231805   3.775   5.502   1.343
10622TIP3   OH231806   2.067   1.406   6.410
10622TIP3    H131807   2.126   1.412   6.335
10622TIP3    H231808   2.018   1.488   6.410
10623TIP3   OH231809   6.654   4.235   1.241
10623TIP3    H131810   6.680   4.318   1.202
10623TIP3    H231811   6.581   4.258   1.299
10624TIP3   OH231812   3.226   0.696   5.224
10624TIP3    H131813   3.145   0.647   5.212
10624TIP3    H231814   3.252   0.722   5.136
10625TIP3   OH231815   4.084   3.383   1.823
10625TIP3    H131816   4.084   3.340   1.737
10625TIP3    H231817   4.058   3.474   1.805
10626TIP3   OH231818   1.902   1.579   0.899
10626TIP3    H131819   1.934   1.657   0.944
10626TIP3    H231820   1.842   1.612   0.833
10627TIP3   OH231821   7.649   3.427   3.403
10627TIP3    H131822   7.677   3.507   3.358
10627TIP3    H231823   7.582   3.389   3.346
10628TIP3   OH231824   5.914   5.134   4.041
10628TIP3    H131825   6.007   5.141   4.063
10628TIP3    H231826   5.913   5.101   3.951
10629TIP3   OH231827   6.036   5.769   0.561
10629TIP3    H131828   6.108   5.831   0.573
10629TIP3    H231829   5.957   5.820   0.578
10630TIP3   OH231830   4.333   3.707   3.748
10630TIP3    H131831   4.345   3.800   3.726
10630TIP3    H231832   4.375   3.698   3.834
10631TIP3   OH231833   3.692   4.077   4.633
10631TIP3    H131834   3.613   4.092   4.685
10631TIP3    H231835   3.662   4.076   4.543
10632TIP3   OH231836   7.867   0.052   6.013
10632TIP3    H131837   7.792  -0.007   6.004
10632TIP3    H231838   7.930   0.004   6.066
10633TIP3   OH231839   2.223   3.146   2.677
10633TIP3    H131840   2.255   3.140   2.587
10633TIP3    H231841   2.196   3.057   2.699
10634TIP3   OH231842   7.888   0.670   0.449
10634TIP3    H131843   7.856   0.715   0.527
10634TIP3    H231844   7.817   0.611   0.424
10635TIP3   OH231845   1.502   1.442   6.594
10635TIP3    H131846   1.450   1.399   6.661
10635TIP3    H231847   1.591   1.442   6.628
10636TIP3   OH231848   2.375   7.370   3.309
10636TIP3    H131849   2.292   7.405   3.342
10636TIP3    H231850   2.434   7.374   3.384
10637TIP3   OH231851   1.611   6.915   4.519
10637TIP3    H131852   1.543   6.873   4.571
10637TIP3    H231853   1.693   6.875   4.551
10638TIP3   OH231854   2.935   5.257   4.443
10638TIP3    H131855   3.014   5.272   4.392
10638TIP3    H231856   2.967   5.240   4.532
10639TIP3   OH231857   1.521   0.768   6.157
10639TIP3    H131858   1.533   0.804   6.245
10639TIP3    H231859   1.567   0.684   6.160
10640TIP3   OH231860   2.318   3.763   1.230
10640TIP3    H131861   2.251   3.718   1.178
10640TIP3    H231862   2.307   3.856   1.207
10641TIP3   OH231863   2.531   0.759   0.587
10641TIP3    H131864   2.510   0.668   0.565
10641TIP3    H231865   2.453   0.808   0.562
10642TIP3   OH231866   0.885   6.949   0.872
10642TIP3    H131867   0.797   6.948   0.834
10642TIP3    H231868   0.882   7.019   0.937
10643TIP3   OH231869   4.315   1.582   2.844
10643TIP3    H131870   4.377   1.653   2.859
10643TIP3    H231871   4.312   1.571   2.749
10644TIP3   OH231872   2.211   3.245   0.228
10644TIP3    H131873   2.188   3.334   0.203
10644TIP3    H231874   2.290   3.225   0.178
10645TIP3   OH231875   1.473   2.449   2.006
10645TIP3    H131876   1.473   2.393   1.928
10645TIP3    H231877   1.547   2.508   1.992
10646TIP3   OH231878   3.125   5.372   3.863
10646TIP3    H131879   3.200   5.340   3.912
10646TIP3    H231880   3.151   5.459   3.834
10647TIP3   OH231881   3.312   0.448   2.314
10647TIP3    H131882   3.262   0.514   2.266
10647TIP3    H231883   3.342   0.387   2.247
10648TIP3   OH231884   2.812   0.111   4.570
10648TIP3    H131885   2.855   0.036   4.529
10648TIP3    H231886   2.820   0.181   4.505
10649TIP3   OH231887   6.343   0.822   0.467
10649TIP3    H131888   6.366   0.870   0.388
10649TIP3    H231889   6.413   0.844   0.530
10650TIP3   OH231890   7.382   0.006   1.444
10650TIP3    H131891   7.467  -0.005   1.487
10650TIP3    H231892   7.325  -0.059   1.484
10651TIP3   OH231893   0.906   0.311   3.731
10651TIP3    H131894   0.863   0.396   3.743
10651TIP3    H231895   0.896   0.293   3.637
10652TIP3   OH231896   5.284   2.090   1.178
10652TIP3    H131897   5.372   2.087   1.142
10652TIP3    H231898   5.274   2.180   1.209
10653TIP3   OH231899   5.813   0.609   2.386
10653TIP3    H131900   5.785   0.667   2.315
10653TIP3    H231901   5.792   0.521   2.354
10654TIP3   OH231902   0.750   7.891   4.487
10654TIP3    H131903   0.765   7.984   4.467
10654TIP3    H231904   0.749   7.848   4.401
10655TIP3   OH231905   4.779   4.539   2.158
10655TIP3    H131906   4.797   4.485   2.235
10655TIP3    H231907   4.828   4.498   2.087
10656TIP3   OH231908   4.499   0.369   4.446
10656TIP3    H131909   4.531   0.279   4.452
10656TIP3    H231910   4.577   0.422   4.434
10657TIP3   OH231911   4.584   1.217   2.982
10657TIP3    H131912   4.562   1.128   2.952
10657TIP3    H231913   4.665   1.206   3.032
10658TIP3   OH231914   4.374   3.229   6.198
10658TIP3    H131915   4.347   3.208   6.287
10658TIP3    H231916   4.439   3.162   6.176
10659TIP3   OH231917   6.642   3.050   0.753
10659TIP3    H131918   6.566   3.053   0.812
10659TIP3    H231919   6.604   3.048   0.665
10660TIP3   OH231920   0.773   6.736   2.617
10660TIP3    H131921   0.692   6.717   2.664
10660TIP3    H231922   0.805   6.818   2.656
10661TIP3   OH231923   0.912   1.011   6.474
10661TIP3    H131924   0.933   1.092   6.426
10661TIP3    H231925   0.819   0.996   6.456
10662TIP3   OH231926   5.599   6.655   4.774
10662TIP3    H131927   5.536   6.584   4.764
10662TIP3    H231928   5.557   6.731   4.734
10663TIP3   OH231929   0.590   3.162   3.948
10663TIP3    H131930   0.661   3.150   3.886
10663TIP3    H231931   0.584   3.257   3.959
10664TIP3   OH231932   1.746   3.935   5.103
10664TIP3    H131933   1.768   3.929   5.196
10664TIP3    H231934   1.652   3.921   5.099
10665TIP3   OH231935   8.302   1.109   1.241
10665TIP3    H131936   8.323   1.149   1.157
10665TIP3    H231937   8.354   1.028   1.243
10666TIP3   OH231938   6.814   4.235   3.486
10666TIP3    H131939   6.814   4.323   3.522
10666TIP3    H231940   6.723   4.219   3.460
10667TIP3   OH231941   8.174   4.683   5.575
10667TIP3    H131942   8.239   4.623   5.539
10667TIP3    H231943   8.120   4.709   5.500
10668TIP3   OH231944   4.351   2.679   2.262
10668TIP3    H131945   4.329   2.586   2.265
10668TIP3    H231946   4.266   2.723   2.253
10669TIP3   OH231947   7.584   2.853   0.826
10669TIP3    H131948   7.636   2.915   0.876
10669TIP3    H231949   7.493   2.880   0.842
10670TIP3   OH231950   5.872   0.415   0.442
10670TIP3    H131951   5.936   0.429   0.511
10670TIP3    H231952   5.893   0.480   0.375
10671TIP3   OH231953   1.187   3.951   1.585
10671TIP3    H131954   1.159   3.928   1.674
10671TIP3    H231955   1.282   3.958   1.591
10672TIP3   OH231956   8.156   0.148   5.575
10672TIP3    H131957   8.075   0.104   5.600
10672TIP3    H231958   8.221   0.077   5.567
10673TIP3   OH231959   4.928   6.936   1.084
10673TIP3    H131960   4.910   7.028   1.065
10673TIP3    H231961   4.866   6.914   1.154
10674TIP3   OH231962   3.987   3.297   0.422
10674TIP3    H131963   4.053   3.282   0.354
10674TIP3    H231964   3.953   3.385   0.404
10675TIP3   OH231965   8.067   7.529   5.722
10675TIP3    H131966   8.019   7.506   5.802
10675TIP3    H231967   8.081   7.623   5.729
10676TIP3   OH231968   6.049   2.073   1.939
10676TIP3    H131969   6.060   2.016   1.862
10676TIP3    H231970   6.099   2.030   2.008
10677TIP3   OH231971   7.845   3.133   4.170
10677TIP3    H131972   7.930   3.089   4.172
10677TIP3    H231973   7.782   3.065   4.192
10678TIP3   OH231974   3.260   1.884   3.976
10678TIP3    H131975   3.316   1.876   4.054
10678TIP3    H231976   3.280   1.971   3.942
10679TIP3   OH231977   1.217   6.513   3.126
10679TIP3    H131978   1.148   6.485   3.065
10679TIP3    H231979   1.269   6.434   3.141
10680TIP3   OH231980   8.137   6.268   5.753
10680TIP3    H131981   8.112   6.175   5.750
10680TIP3    H231982   8.196   6.279   5.679
10681TIP3   OH231983   2.920   4.573   1.648
10681TIP3    H131984   2.939   4.616   1.565
10681TIP3    H231985   3.002   4.531   1.673
10682TIP3   OH231986   1.889   3.047   2.771
10682TIP3    H131987   1.832   3.003   2.708
10682TIP3    H231988   1.956   3.089   2.717
10683TIP3   OH231989   6.792   7.598   5.110
10683TIP3    H131990   6.870   7.642   5.077
10683TIP3    H231991   6.802   7.600   5.205
10684TIP3   OH231992   8.143   3.894   3.555
10684TIP3    H131993   8.192   3.812   3.545
10684TIP3    H231994   8.148   3.936   3.469
10685TIP3   OH231995   6.145   0.685   4.907
10685TIP3    H131996   6.234   0.649   4.913
10685TIP3    H231997   6.091   0.621   4.954
10686TIP3   OH231998   7.228   4.605   3.373
10686TIP3    H131999   7.192   4.517   3.366
10686TIP3    H232000   7.270   4.621   3.288
10687TIP3   OH232001   2.036   5.209   1.328
10687TIP3    H132002   2.084   5.291   1.331
10687TIP3    H232003   1.945   5.235   1.311
10688TIP3   OH232004   2.899   2.143   6.592
10688TIP3    H132005   2.812   2.177   6.571
10688TIP3    H232006   2.921   2.086   6.517
10689TIP3   OH232007   7.898   6.193   0.112
10689TIP3    H132008   7.957   6.226   0.044
10689TIP3    H232009   7.916   6.099   0.115
10690TIP3   OH232010   2.296   5.729   0.364
10690TIP3    H132011   2.348   5.809   0.369
10690TIP3    H232012   2.360   5.658   0.362
10691TIP3   OH232013   6.140   7.807   2.290
10691TIP3    H132014   6.097   7.892   2.303
10691TIP3    H232015   6.076   7.743   2.320
10692TIP3   OH232016   7.951   7.822   2.237
10692TIP3    H132017   8.007   7.848   2.311
10692TIP3    H232018   7.863   7.851   2.262
10693TIP3   OH232019   7.693   2.749   0.609
10693TIP3    H132020   7.646   2.666   0.614
10693TIP3    H232021   7.670   2.794   0.691
10694TIP3   OH232022   4.016   0.259   6.797
10694TIP3    H132023   3.976   0.346   6.792
10694TIP3    H232024   4.049   0.252   6.886
10695TIP3   OH232025   6.561   1.322   0.256
10695TIP3    H132026   6.650   1.290   0.248
10695TIP3    H232027   6.519   1.263   0.319
10696TIP3   OH232028   0.719   6.019   6.635
10696TIP3    H132029   0.745   6.070   6.558
10696TIP3    H232030   0.637   5.977   6.609
10697TIP3   OH232031   0.660   1.417   4.908
10697TIP3    H132032   0.698   1.505   4.911
10697TIP3    H232033   0.596   1.415   4.979
10698TIP3   OH232034   7.909   1.460   0.446
10698TIP3    H132035   7.927   1.439   0.354
10698TIP3    H232036   7.827   1.415   0.464
10699TIP3   OH232037   6.160   1.794   5.144
10699TIP3    H132038   6.074   1.811   5.182
10699TIP3    H232039   6.150   1.813   5.051
10700TIP3   OH232040   8.320   5.095   2.493
10700TIP3    H132041   8.381   5.021   2.495
10700TIP3    H232042   8.333   5.134   2.407
10701TIP3   OH232043   2.049   4.394   4.028
10701TIP3    H132044   2.022   4.457   3.961
10701TIP3    H232045   2.119   4.343   3.986
10702TIP3   OH232046   3.535   0.356   2.945
10702TIP3    H132047   3.498   0.339   2.858
10702TIP3    H232048   3.570   0.272   2.973
10703TIP3   OH232049   6.755   6.566   4.345
10703TIP3    H132050   6.739   6.655   4.313
10703TIP3    H232051   6.689   6.553   4.413
10704TIP3   OH232052   1.056   4.488   3.364
10704TIP3    H132053   0.996   4.464   3.293
10704TIP3    H232054   1.009   4.555   3.413
10705TIP3   OH232055   0.575   4.346   1.420
10705TIP3    H132056   0.495   4.310   1.458
10705TIP3    H232057   0.641   4.331   1.488
10706TIP3   OH232058   5.236   0.146   4.490
10706TIP3    H132059   5.290   0.170   4.415
10706TIP3    H232060   5.147   0.172   4.465
10707TIP3   OH232061   7.289   1.012   6.144
10707TIP3    H132062   7.269   1.000   6.051
10707TIP3    H232063   7.251   1.097   6.166
10708TIP3   OH232064   3.235   2.172   6.298
10708TIP3    H132065   3.238   2.267   6.306
10708TIP3    H232066   3.320   2.143   6.330
10709TIP3   OH232067   5.256   1.042   1.424
10709TIP3    H132068   5.262   1.132   1.391
10709TIP3    H232069   5.347   1.018   1.444
10710TIP3   OH232070   2.533   5.883   0.515
10710TIP3    H132071   2.593   5.923   0.578
10710TIP3    H232072   2.451   5.871   0.564
10711TIP3   OH232073   7.476   1.381   6.351
10711TIP3    H132074   7.513   1.361   6.265
10711TIP3    H232075   7.402   1.321   6.359
10712TIP3   OH232076   4.227   3.066   5.882
10712TIP3    H132077   4.287   3.001   5.846
10712TIP3    H232078   4.235   3.141   5.824
10713TIP3   OH232079   0.055   7.019   4.907
10713TIP3    H132080   0.017   6.951   4.963
10713TIP3    H232081   0.126   7.056   4.959
10714TIP3   OH232082   2.928   2.482   4.275
10714TIP3    H132083   2.875   2.534   4.215
10714TIP3    H232084   2.887   2.494   4.360
10715TIP3   OH232085   7.651   6.891   2.936
10715TIP3    H132086   7.712   6.890   2.863
10715TIP3    H232087   7.653   6.981   2.968
10716TIP3   OH232088   6.638   5.527   3.660
10716TIP3    H132089   6.550   5.543   3.695
10716TIP3    H232090   6.641   5.432   3.649
10717TIP3   OH232091   0.398   0.406   4.789
10717TIP3    H132092   0.483   0.368   4.767
10717TIP3    H232093   0.354   0.415   4.704
10718TIP3   OH232094   4.821   5.403   4.896
10718TIP3    H132095   4.729   5.417   4.876
10718TIP3    H232096   4.822   5.324   4.950
10719TIP3   OH232097   8.272   1.843   3.830
10719TIP3    H132098   8.217   1.848   3.908
10719TIP3    H232099   8.258   1.927   3.785
10720TIP3   OH232100   1.820   1.240   3.058
10720TIP3    H132101   1.906   1.263   3.092
10720TIP3    H232102   1.838   1.183   2.984
10721TIP3   OH232103   0.747   0.123   2.146
10721TIP3    H132104   0.798   0.170   2.213
10721TIP3    H232105   0.751   0.031   2.173
10722TIP3   OH232106   3.691   7.568   6.413
10722TIP3    H132107   3.774   7.525   6.434
10722TIP3    H232108   3.680   7.635   6.481
10723TIP3   OH232109   3.698   5.935   4.705
10723TIP3    H132110   3.681   5.952   4.798
10723TIP3    H232111   3.634   5.988   4.659
10724TIP3   OH232112   6.898   7.456   4.391
10724TIP3    H132113   6.855   7.505   4.320
10724TIP3    H232114   6.863   7.495   4.471
10725TIP3   OH232115   4.850   5.170   4.146
10725TIP3    H132116   4.829   5.089   4.099
10725TIP3    H232117   4.917   5.212   4.091
10726TIP3   OH232118   4.779   7.209   2.816
10726TIP3    H132119   4.787   7.118   2.846
10726TIP3    H232120   4.688   7.216   2.786
10727TIP3   OH232121   2.390   1.813   1.254
10727TIP3    H132122   2.428   1.870   1.188
10727TIP3    H232123   2.362   1.736   1.206
10728TIP3   OH232124   3.196   2.913   0.075
10728TIP3    H132125   3.105   2.889   0.056
10728TIP3    H232126   3.230   2.838   0.125
10729TIP3   OH232127   7.247   5.490   5.696
10729TIP3    H132128   7.225   5.499   5.604
10729TIP3    H232129   7.288   5.404   5.703
10730TIP3   OH232130   5.327   0.465   2.901
10730TIP3    H132131   5.312   0.370   2.897
10730TIP3    H232132   5.347   0.489   2.811
10731TIP3   OH232133   4.493   2.931   4.150
10731TIP3    H132134   4.572   2.891   4.113
10731TIP3    H232135   4.421   2.884   4.110
10732TIP3   OH232136   6.029   1.213   4.150
10732TIP3    H132137   5.986   1.254   4.226
10732TIP3    H232138   6.122   1.217   4.171
10733TIP3   OH232139   4.106   4.362   1.616
10733TIP3    H132140   4.086   4.447   1.656
10733TIP3    H232141   4.143   4.384   1.530
10734TIP3   OH232142   2.357   3.620   3.036
10734TIP3    H132143   2.373   3.575   2.953
10734TIP3    H232144   2.349   3.549   3.100
10735TIP3   OH232145   4.342   3.261   1.914
10735TIP3    H132146   4.260   3.291   1.875
10735TIP3    H232147   4.400   3.245   1.840
10736TIP3   OH232148   4.778   4.776   0.888
10736TIP3    H132149   4.782   4.841   0.817
10736TIP3    H232150   4.795   4.692   0.845
10737TIP3   OH232151   1.350   0.435   6.713
10737TIP3    H132152   1.412   0.415   6.642
10737TIP3    H232153   1.374   0.375   6.783
10738TIP3   OH232154   4.958   0.069   4.803
10738TIP3    H132155   4.884   0.017   4.835
10738TIP3    H232156   4.918   0.151   4.774
10739TIP3   OH232157   4.118   2.412   1.208
10739TIP3    H132158   4.153   2.501   1.199
10739TIP3    H232159   4.102   2.402   1.301
10740TIP3   OH232160   5.608   6.295   4.043
10740TIP3    H132161   5.550   6.281   4.118
10740TIP3    H232162   5.641   6.207   4.023
10741TIP3   OH232163   7.641   3.798   5.266
10741TIP3    H132164   7.559   3.750   5.274
10741TIP3    H232165   7.615   3.886   5.240
10742TIP3   OH232166   4.030   7.309   3.101
10742TIP3    H132167   4.022   7.404   3.113
10742TIP3    H232168   3.947   7.274   3.133
10743TIP3   OH232169   3.688   1.560   3.373
10743TIP3    H132170   3.749   1.582   3.443
10743TIP3    H232171   3.603   1.591   3.405
10744TIP3   OH232172   5.237   0.403   3.789
10744TIP3    H132173   5.161   0.368   3.743
10744TIP3    H232174   5.227   0.371   3.879
10745TIP3   OH232175   7.274   2.216   0.270
10745TIP3    H132176   7.257   2.291   0.214
10745TIP3    H232177   7.187   2.188   0.299
10746TIP3   OH232178   1.750   4.503   2.494
10746TIP3    H132179   1.749   4.580   2.437
10746TIP3    H232180   1.769   4.430   2.435
10747TIP3   OH232181   7.676   3.151   2.299
10747TIP3    H132182   7.696   3.231   2.348
10747TIP3    H232183   7.677   3.178   2.208
10748TIP3   OH232184   2.393   7.625   1.545
10748TIP3    H132185   2.435   7.622   1.632
10748TIP3    H232186   2.466   7.638   1.484
10749TIP3   OH232187   2.935   5.139   3.014
10749TIP3    H132188   2.971   5.068   2.962
10749TIP3    H232189   2.904   5.203   2.951
10750TIP3   OH232190   7.511   7.038   1.687
10750TIP3    H132191   7.547   6.959   1.647
10750TIP3    H232192   7.473   7.007   1.770
10751TIP3   OH232193   8.066   0.572   4.155
10751TIP3    H132194   8.046   0.630   4.081
10751TIP3    H232195   8.106   0.495   4.114
10752TIP3   OH232196   2.581   2.192   6.213
10752TIP3    H132197   2.590   2.286   6.224
10752TIP3    H232198   2.539   2.162   6.294
10753TIP3   OH232199   5.293   3.616   2.947
10753TIP3    H132200   5.281   3.665   2.866
10753TIP3    H232201   5.284   3.525   2.922
10754TIP3   OH232202   2.803   4.317   4.227
10754TIP3    H132203   2.896   4.294   4.230
10754TIP3    H232204   2.779   4.307   4.135
10755TIP3   OH232205   7.621   3.264   5.776
10755TIP3    H132206   7.669   3.300   5.702
10755TIP3    H232207   7.682   3.271   5.850
10756TIP3   OH232208   7.405   2.424   6.488
10756TIP3    H132209   7.496   2.412   6.460
10756TIP3    H232210   7.409   2.498   6.549
10757TIP3   OH232211   6.625   2.699   3.111
10757TIP3    H132212   6.628   2.753   3.032
10757TIP3    H232213   6.591   2.615   3.082
10758TIP3   OH232214   6.277   6.476   1.301
10758TIP3    H132215   6.365   6.439   1.301
10758TIP3    H232216   6.291   6.571   1.303
10759TIP3   OH232217   7.346   2.700   3.475
10759TIP3    H132218   7.368   2.793   3.470
10759TIP3    H232219   7.415   2.663   3.530
10760TIP3   OH232220   1.318   4.650   5.997
10760TIP3    H132221   1.265   4.682   5.924
10760TIP3    H232222   1.300   4.712   6.068
10761TIP3   OH232223   4.882   4.491   5.963
10761TIP3    H132224   4.870   4.563   6.024
10761TIP3    H232225   4.844   4.415   6.007
10762TIP3   OH232226   5.882   2.705   3.562
10762TIP3    H132227   5.930   2.724   3.481
10762TIP3    H232228   5.813   2.771   3.566
10763TIP3   OH232229   1.990   1.840   5.802
10763TIP3    H132230   1.903   1.834   5.842
10763TIP3    H232231   2.023   1.926   5.828
10764TIP3   OH232232   0.525   1.837   0.646
10764TIP3    H132233   0.467   1.910   0.623
10764TIP3    H232234   0.583   1.873   0.713
10765TIP3   OH232235   4.467   1.734   3.728
10765TIP3    H132236   4.491   1.826   3.742
10765TIP3    H232237   4.516   1.709   3.650
10766TIP3   OH232238   3.615   3.161   2.890
10766TIP3    H132239   3.655   3.089   2.938
10766TIP3    H232240   3.680   3.184   2.823
10767TIP3   OH232241   1.797   3.257   2.009
10767TIP3    H132242   1.809   3.195   1.937
10767TIP3    H232243   1.797   3.343   1.967
10768TIP3   OH232244   0.065   5.903   5.780
10768TIP3    H132245   0.118   5.963   5.726
10768TIP3    H232246   0.013   5.854   5.717
10769TIP3   OH232247   3.234   5.159   5.800
10769TIP3    H132248   3.229   5.197   5.712
10769TIP3    H232249   3.194   5.072   5.791
10770TIP3   OH232250   1.299   5.541   0.341
10770TIP3    H132251   1.377   5.529   0.287
10770TIP3    H232252   1.325   5.607   0.406
10771TIP3   OH232253   2.617   1.921   3.202
10771TIP3    H132254   2.543   1.969   3.239
10771TIP3    H232255   2.622   1.951   3.111
10772TIP3   OH232256   7.620   6.034   1.904
10772TIP3    H132257   7.529   6.061   1.898
10772TIP3    H232258   7.626   5.958   1.846
10773TIP3   OH232259   5.060   2.439   3.113
10773TIP3    H132260   5.072   2.346   3.094
10773TIP3    H232261   5.149   2.474   3.116
10774TIP3   OH232262   5.755   4.632   3.374
10774TIP3    H132263   5.791   4.584   3.448
10774TIP3    H232264   5.695   4.696   3.414
10775TIP3   OH232265   6.504   4.510   3.792
10775TIP3    H132266   6.490   4.420   3.762
10775TIP3    H232267   6.430   4.528   3.850
10776TIP3   OH232268   0.264   4.346   4.365
10776TIP3    H132269   0.272   4.300   4.449
10776TIP3    H232270   0.271   4.277   4.299
10777TIP3   OH232271   3.106   1.719   6.424
10777TIP3    H132272   3.058   1.637   6.413
10777TIP3    H232273   3.109   1.732   6.518
10778TIP3   OH232274   7.200   0.658   5.227
10778TIP3    H132275   7.140   0.731   5.243
10778TIP3    H232276   7.241   0.678   5.143
10779TIP3   OH232277   2.998   0.771   2.824
10779TIP3    H132278   2.968   0.849   2.777
10779TIP3    H232279   3.058   0.727   2.763
10780TIP3   OH232280   3.636   4.050   1.539
10780TIP3    H132281   3.575   4.122   1.549
10780TIP3    H232282   3.618   4.015   1.451
10781TIP3   OH232283   6.930   6.354   4.436
10781TIP3    H132284   7.021   6.375   4.419
10781TIP3    H232285   6.882   6.434   4.414
10782TIP3   OH232286   3.279   4.641   2.876
10782TIP3    H132287   3.264   4.688   2.795
10782TIP3    H232288   3.300   4.552   2.849
10783TIP3   OH232289   6.785   0.442   2.047
10783TIP3    H132290   6.714   0.472   2.103
10783TIP3    H232291   6.803   0.352   2.077
10784TIP3   OH232292   2.312   7.201   3.113
10784TIP3    H132293   2.349   7.233   3.195
10784TIP3    H232294   2.299   7.280   3.060
10785TIP3   OH232295   1.864   4.525   6.408
10785TIP3    H132296   1.776   4.536   6.445
10785TIP3    H232297   1.880   4.431   6.413
10786TIP3   OH232298   8.001   4.140   2.917
10786TIP3    H132299   8.062   4.119   2.988
10786TIP3    H232300   7.922   4.089   2.936
10787TIP3   OH232301   2.225   0.030   5.192
10787TIP3    H132302   2.200   0.078   5.271
10787TIP3    H232303   2.231   0.097   5.124
10788TIP3   OH232304   0.463   6.975   1.930
10788TIP3    H132305   0.541   6.938   1.973
10788TIP3    H232306   0.450   7.060   1.972
10789TIP3   OH232307   0.515   6.206   5.874
10789TIP3    H132308   0.473   6.243   5.951
10789TIP3    H232309   0.609   6.214   5.891
10790TIP3   OH232310   5.860   7.712   1.307
10790TIP3    H132311   5.898   7.746   1.388
10790TIP3    H232312   5.796   7.778   1.281
10791TIP3   OH232313   2.443   6.670   3.161
10791TIP3    H132314   2.378   6.670   3.090
10791TIP3    H232315   2.436   6.757   3.200
10792TIP3   OH232316   3.310   5.193   0.072
10792TIP3    H132317   3.352   5.151  -0.004
10792TIP3    H232318   3.233   5.139   0.089
10793TIP3   OH232319   4.815   0.179   3.758
10793TIP3    H132320   4.846   0.204   3.845
10793TIP3    H232321   4.722   0.199   3.758
10794TIP3   OH232322   2.819   3.046   4.142
10794TIP3    H132323   2.749   3.112   4.135
10794TIP3    H232324   2.890   3.091   4.188
10795TIP3   OH232325   5.513   1.603   1.002
10795TIP3    H132326   5.444   1.668   0.986
10795TIP3    H232327   5.544   1.579   0.915
10796TIP3   OH232328   4.757   4.273   0.407
10796TIP3    H132329   4.700   4.350   0.399
10796TIP3    H232330   4.845   4.306   0.386
10797TIP3   OH232331   7.684   2.693   2.673
10797TIP3    H132332   7.744   2.631   2.632
10797TIP3    H232333   7.724   2.779   2.656
10798TIP3   OH232334   8.314   7.601   1.581
10798TIP3    H132335   8.343   7.518   1.544
10798TIP3    H232336   8.240   7.577   1.638
10799TIP3   OH232337   3.951   3.717   6.092
10799TIP3    H132338   4.001   3.772   6.032
10799TIP3    H232339   3.862   3.751   6.087
10800TIP3   OH232340   4.861   4.773   6.638
10800TIP3    H132341   4.851   4.812   6.552
10800TIP3    H232342   4.955   4.775   6.655
10801TIP3   OH232343   1.712   2.117   2.652
10801TIP3    H132344   1.748   2.205   2.645
10801TIP3    H232345   1.724   2.093   2.744
10802TIP3   OH232346   4.166   5.031   6.371
10802TIP3    H132347   4.205   4.959   6.321
10802TIP3    H232348   4.122   4.989   6.444
10803TIP3   OH232349   5.317   4.551   2.177
10803TIP3    H132350   5.293   4.462   2.202
10803TIP3    H232351   5.400   4.567   2.222
10804TIP3   OH232352   1.879   6.930   5.735
10804TIP3    H132353   1.817   6.954   5.666
10804TIP3    H232354   1.893   7.011   5.784
10805TIP3   OH232355   6.728   7.518   3.687
10805TIP3    H132356   6.691   7.604   3.707
10805TIP3    H232357   6.795   7.536   3.620
10806TIP3   OH232358   5.022   2.008   4.647
10806TIP3    H132359   5.000   2.036   4.558
10806TIP3    H232360   5.048   2.089   4.691
10807TIP3   OH232361   5.182   2.650   4.544
10807TIP3    H132362   5.160   2.692   4.461
10807TIP3    H232363   5.278   2.643   4.543
10808TIP3   OH232364   6.186   2.967   1.745
10808TIP3    H132365   6.096   2.965   1.776
10808TIP3    H232366   6.201   2.881   1.707
10809TIP3   OH232367   3.438   7.389   5.267
10809TIP3    H132368   3.374   7.423   5.206
10809TIP3    H232369   3.495   7.333   5.214
10810TIP3   OH232370   2.231   6.325   1.770
10810TIP3    H132371   2.226   6.400   1.712
10810TIP3    H232372   2.151   6.330   1.823
10811TIP3   OH232373   0.082   3.425   1.393
10811TIP3    H132374   0.140   3.440   1.318
10811TIP3    H232375  -0.005   3.445   1.360
10812TIP3   OH232376   8.364   6.459   3.275
10812TIP3    H132377   8.273   6.472   3.300
10812TIP3    H232378   8.360   6.417   3.189
10813TIP3   OH232379   4.405   1.363   0.823
10813TIP3    H132380   4.365   1.442   0.786
10813TIP3    H232381   4.449   1.393   0.902
10814TIP3   OH232382   2.208   6.977   5.546
10814TIP3    H132383   2.288   7.008   5.504
10814TIP3    H232384   2.157   6.938   5.474
10815TIP3   OH232385   0.256   1.960   2.415
10815TIP3    H132386   0.228   1.869   2.421
10815TIP3    H232387   0.333   1.957   2.358
10816TIP3   OH232388   1.627   1.579   5.878
10816TIP3    H132389   1.669   1.590   5.963
10816TIP3    H232390   1.661   1.496   5.845
10817TIP3   OH232391   3.062   5.305   3.198
10817TIP3    H132392   3.157   5.293   3.201
10817TIP3    H232393   3.032   5.237   3.137
10818TIP3   OH232394   6.652   6.372   0.657
10818TIP3    H132395   6.644   6.389   0.751
10818TIP3    H232396   6.695   6.287   0.651
10819TIP3   OH232397   7.963   6.060   0.434
10819TIP3    H132398   8.011   6.142   0.425
10819TIP3    H232399   7.977   6.014   0.351
10820TIP3   OH232400   3.154   2.339   1.272
10820TIP3    H132401   3.169   2.261   1.324
10820TIP3    H232402   3.158   2.309   1.181
10821TIP3   OH232403   3.168   7.194   5.941
10821TIP3    H132404   3.225   7.204   5.865
10821TIP3    H232405   3.214   7.132   5.998
10822TIP3   OH232406   1.955   5.233   1.798
10822TIP3    H132407   1.989   5.175   1.729
10822TIP3    H232408   1.910   5.302   1.750
10823TIP3   OH232409   6.378   6.022   0.906
10823TIP3    H132410   6.441   5.955   0.881
10823TIP3    H232411   6.295   5.975   0.917
10824TIP3   OH232412   2.060   2.236   5.206
10824TIP3    H132413   2.121   2.284   5.263
10824TIP3    H232414   2.054   2.290   5.127
10825TIP3   OH232415   6.691   0.338   0.972
10825TIP3    H132416   6.735   0.396   1.033
10825TIP3    H232417   6.635   0.396   0.920
10826TIP3   OH232418   5.534   4.192   2.464
10826TIP3    H132419   5.535   4.101   2.495
10826TIP3    H232420   5.511   4.243   2.542
10827TIP3   OH232421   6.099   7.241   5.674
10827TIP3    H132422   6.049   7.276   5.600
10827TIP3    H232423   6.190   7.258   5.651
10828TIP3   OH232424   3.543   7.831   4.869
10828TIP3    H132425   3.511   7.818   4.959
10828TIP3    H232426   3.635   7.805   4.873
10829TIP3   OH232427   2.737   0.060   4.200
10829TIP3    H132428   2.777  -0.018   4.163
10829TIP3    H232429   2.678   0.092   4.132
10830TIP3   OH232430   4.642   6.634   0.265
10830TIP3    H132431   4.576   6.643   0.334
10830TIP3    H232432   4.693   6.558   0.290
10831TIP3   OH232433   8.200   6.536   1.534
10831TIP3    H132434   8.181   6.627   1.556
10831TIP3    H232435   8.118   6.490   1.548
10832TIP3   OH232436   6.112   1.080   3.874
10832TIP3    H132437   6.152   0.993   3.878
10832TIP3    H232438   6.147   1.127   3.949
10833TIP3   OH232439   7.078   2.286   0.499
10833TIP3    H132440   7.082   2.332   0.582
10833TIP3    H232441   6.999   2.319   0.456
10834TIP3   OH232442   4.945   7.536   3.064
10834TIP3    H132443   4.924   7.622   3.028
10834TIP3    H232444   4.959   7.481   2.987
10835TIP3   OH232445   3.887   4.109   6.030
10835TIP3    H132446   3.814   4.051   6.054
10835TIP3    H232447   3.909   4.154   6.112
10836TIP3   OH232448   3.922   7.120   4.576
10836TIP3    H132449   3.827   7.112   4.570
10836TIP3    H232450   3.941   7.204   4.534
10837TIP3   OH232451   1.949   0.642   6.026
10837TIP3    H132452   1.908   0.709   5.973
10837TIP3    H232453   1.981   0.577   5.963
10838TIP3   OH232454   7.848   6.287   2.931
10838TIP3    H132455   7.833   6.382   2.928
10838TIP3    H232456   7.904   6.274   3.007
10839TIP3   OH232457   0.230   6.517   1.591
10839TIP3    H132458   0.182   6.599   1.578
10839TIP3    H232459   0.310   6.543   1.636
10840TIP3   OH232460   2.231   1.855   4.627
10840TIP3    H132461   2.259   1.787   4.566
10840TIP3    H232462   2.165   1.905   4.578
10841TIP3   OH232463   5.006   1.610   3.541
10841TIP3    H132464   4.952   1.641   3.614
10841TIP3    H232465   5.021   1.518   3.560
10842TIP3   OH232466   5.130   1.348   2.969
10842TIP3    H132467   5.048   1.398   2.973
10842TIP3    H232468   5.180   1.377   3.046
10843TIP3   OH232469   7.195   3.707   1.987
10843TIP3    H132470   7.229   3.730   2.073
10843TIP3    H232471   7.256   3.641   1.954
10844TIP3   OH232472   4.067   3.944   0.305
10844TIP3    H132473   4.059   4.021   0.249
10844TIP3    H232474   4.162   3.931   0.316
10845TIP3   OH232475   0.524   4.145   6.149
10845TIP3    H132476   0.522   4.203   6.225
10845TIP3    H232477   0.592   4.081   6.171
10846TIP3   OH232478   7.394   2.486   5.139
10846TIP3    H132479   7.385   2.503   5.233
10846TIP3    H232480   7.310   2.449   5.113
10847TIP3   OH232481   3.667   1.397   1.271
10847TIP3    H132482   3.755   1.361   1.286
10847TIP3    H232483   3.610   1.320   1.267
10848TIP3   OH232484   3.160   6.330   2.031
10848TIP3    H132485   3.096   6.401   2.032
10848TIP3    H232486   3.108   6.251   2.011
10849TIP3   OH232487   4.845   1.711   2.842
10849TIP3    H132488   4.853   1.618   2.862
10849TIP3    H232489   4.837   1.753   2.928
10850TIP3   OH232490   2.616   1.507   2.744
10850TIP3    H132491   2.586   1.572   2.807
10850TIP3    H232492   2.627   1.555   2.662
10851TIP3   OH232493   4.060   3.130   6.748
10851TIP3    H132494   4.110   3.173   6.818
10851TIP3    H232495   4.115   3.057   6.720
10852TIP3   OH232496   3.146   7.835   3.206
10852TIP3    H132497   3.086   7.892   3.253
10852TIP3    H232498   3.122   7.747   3.233
10853TIP3   OH232499   4.897   2.541   0.630
10853TIP3    H132500   4.855   2.583   0.555
10853TIP3    H232501   4.869   2.449   0.624
10854TIP3   OH232502   0.387   6.326   0.911
10854TIP3    H132503   0.480   6.322   0.891
10854TIP3    H232504   0.350   6.379   0.840
10855TIP3   OH232505   3.452   5.532   4.034
10855TIP3    H132506   3.521   5.572   4.087
10855TIP3    H232507   3.453   5.581   3.952
10856TIP3   OH232508   1.274   5.806   1.359
10856TIP3    H132509   1.239   5.886   1.397
10856TIP3    H232510   1.309   5.833   1.274
10857TIP3   OH232511   4.280   6.510   6.362
10857TIP3    H132512   4.208   6.446   6.365
10857TIP3    H232513   4.343   6.471   6.300
10858TIP3   OH232514   0.876   1.712   4.085
10858TIP3    H132515   0.911   1.730   4.172
10858TIP3    H232516   0.925   1.770   4.027
10859TIP3   OH232517   2.267   5.759   4.188
10859TIP3    H132518   2.233   5.709   4.114
10859TIP3    H232519   2.315   5.832   4.147
10860TIP3   OH232520   7.662   7.602   0.512
10860TIP3    H132521   7.621   7.657   0.445
10860TIP3    H232522   7.754   7.597   0.485
10861TIP3   OH232523   3.413   6.533   2.337
10861TIP3    H132524   3.375   6.574   2.259
10861TIP3    H232525   3.408   6.439   2.320
10862TIP3   OH232526   5.727   4.052   0.529
10862TIP3    H132527   5.643   4.014   0.501
10862TIP3    H232528   5.761   4.094   0.451
10863TIP3   OH232529   5.460   1.294   1.622
10863TIP3    H132530   5.518   1.369   1.635
10863TIP3    H232531   5.430   1.303   1.531
10864TIP3   OH232532   5.914   7.687   0.258
10864TIP3    H132533   5.971   7.734   0.197
10864TIP3    H232534   5.860   7.632   0.202
10865TIP3   OH232535   2.695   1.348   5.769
10865TIP3    H132536   2.711   1.333   5.676
10865TIP3    H232537   2.607   1.384   5.773
10866TIP3   OH232538   1.866   6.428   2.349
10866TIP3    H132539   1.868   6.520   2.375
10866TIP3    H232540   1.933   6.420   2.281
10867TIP3   OH232541   7.351   5.651   3.280
10867TIP3    H132542   7.270   5.679   3.323
10867TIP3    H232543   7.346   5.691   3.193
10868TIP3   OH232544   2.417   2.195   4.393
10868TIP3    H132545   2.425   2.288   4.372
10868TIP3    H232546   2.466   2.151   4.324
10869TIP3   OH232547   1.127   7.361   0.916
10869TIP3    H132548   1.165   7.326   0.997
10869TIP3    H232549   1.065   7.427   0.946
10870TIP3   OH232550   0.931   0.555   0.584
10870TIP3    H132551   0.862   0.506   0.630
10870TIP3    H232552   0.913   0.647   0.605
10871TIP3   OH232553   7.711   0.039   0.761
10871TIP3    H132554   7.668   0.084   0.834
10871TIP3    H232555   7.803   0.067   0.766
10872TIP3   OH232556   4.064   2.804   5.082
10872TIP3    H132557   4.021   2.879   5.124
10872TIP3    H232558   4.132   2.843   5.027
10873TIP3   OH232559   3.391   1.590   6.696
10873TIP3    H132560   3.459   1.571   6.761
10873TIP3    H232561   3.310   1.589   6.746
10874TIP3   OH232562   1.347   6.980   1.278
10874TIP3    H132563   1.403   6.997   1.202
10874TIP3    H232564   1.395   7.018   1.352
10875TIP3   OH232565   6.728   2.418   3.406
10875TIP3    H132566   6.775   2.496   3.380
10875TIP3    H232567   6.685   2.442   3.488
10876TIP3   OH232568   8.055   5.581   3.844
10876TIP3    H132569   7.970   5.545   3.820
10876TIP3    H232570   8.037   5.670   3.876
10877TIP3   OH232571   4.176   2.156   3.790
10877TIP3    H132572   4.210   2.111   3.868
10877TIP3    H232573   4.214   2.109   3.716
10878TIP3   OH232574   3.166   1.268   0.315
10878TIP3    H132575   3.075   1.245   0.333
10878TIP3    H232576   3.191   1.325   0.387
10879TIP3   OH232577   0.102   4.994   5.763
10879TIP3    H132578   0.130   4.905   5.784
10879TIP3    H232579   0.115   5.002   5.669
10880TIP3   OH232580   6.055   5.742   1.063
10880TIP3    H132581   5.985   5.702   1.114
10880TIP3    H232582   6.016   5.759   0.978
10881TIP3   OH232583   6.483   5.043   4.317
10881TIP3    H132584   6.519   5.008   4.236
10881TIP3    H232585   6.499   5.137   4.312
10882TIP3   OH232586   8.020   3.002   6.723
10882TIP3    H132587   8.024   3.083   6.672
10882TIP3    H232588   7.977   2.939   6.665
10883TIP3   OH232589   0.731   6.723   0.369
10883TIP3    H132590   0.753   6.639   0.409
10883TIP3    H232591   0.768   6.788   0.428
10884TIP3   OH232592   1.080   5.947   3.580
10884TIP3    H132593   1.024   6.020   3.607
10884TIP3    H232594   1.115   5.912   3.662
10885TIP3   OH232595   1.390   4.143   1.754
10885TIP3    H132596   1.437   4.108   1.678
10885TIP3    H232597   1.350   4.223   1.723
10886TIP3   OH232598   0.644   4.841   0.433
10886TIP3    H132599   0.591   4.762   0.421
10886TIP3    H232600   0.734   4.812   0.420
10887TIP3   OH232601   2.069   0.518   4.938
10887TIP3    H132602   2.138   0.584   4.944
10887TIP3    H232603   2.035   0.526   4.849
10888TIP3   OH232604   6.299   1.971   4.648
10888TIP3    H132605   6.272   2.061   4.629
10888TIP3    H232606   6.366   1.951   4.584
10889TIP3   OH232607   1.626   2.991   2.911
10889TIP3    H132608   1.637   3.075   2.867
10889TIP3    H232609   1.644   2.926   2.843
10890TIP3   OH232610   4.359   1.521   3.222
10890TIP3    H132611   4.285   1.460   3.226
10890TIP3    H232612   4.321   1.601   3.185
10891TIP3   OH232613   1.413   6.652   3.650
10891TIP3    H132614   1.501   6.620   3.672
10891TIP3    H232615   1.422   6.686   3.561
10892TIP3   OH232616   6.094   1.466   2.173
10892TIP3    H132617   6.039   1.544   2.178
10892TIP3    H232618   6.169   1.487   2.228
10893TIP3   OH232619   2.306   2.975   4.536
10893TIP3    H132620   2.310   2.993   4.442
10893TIP3    H232621   2.215   2.947   4.551
10894TIP3   OH232622   3.397   6.890   6.763
10894TIP3    H132623   3.492   6.891   6.776
10894TIP3    H232624   3.361   6.909   6.849
10895TIP3   OH232625   8.012   6.591   0.539
10895TIP3    H132626   8.038   6.664   0.595
10895TIP3    H232627   8.008   6.515   0.598
10896TIP3   OH232628   0.308   2.321   0.346
10896TIP3    H132629   0.373   2.388   0.324
10896TIP3    H232630   0.316   2.256   0.276
10897TIP3   OH232631   4.388   4.854   0.386
10897TIP3    H132632   4.419   4.839   0.475
10897TIP3    H232633   4.305   4.900   0.397
10898TIP3   OH232634   3.348   1.788   0.861
10898TIP3    H132635   3.339   1.713   0.803
10898TIP3    H232636   3.436   1.778   0.899
10899TIP3   OH232637   2.942   7.864   2.167
10899TIP3    H132638   2.900   7.930   2.111
10899TIP3    H232639   2.984   7.915   2.237
10900TIP3   OH232640   3.692   4.035   4.343
10900TIP3    H132641   3.665   4.089   4.268
10900TIP3    H232642   3.768   3.987   4.311
10901TIP3   OH232643   1.780   3.587   3.879
10901TIP3    H132644   1.814   3.504   3.847
10901TIP3    H232645   1.781   3.578   3.975
10902TIP3   OH232646   2.845   7.037   6.333
10902TIP3    H132647   2.862   7.120   6.377
10902TIP3    H232648   2.749   7.027   6.337
10903TIP3   OH232649   4.657   4.259   1.531
10903TIP3    H132650   4.619   4.346   1.543
10903TIP3    H232651   4.745   4.275   1.497
10904TIP3   OH232652   0.258   6.656   1.008
10904TIP3    H132653   0.245   6.682   1.099
10904TIP3    H232654   0.176   6.612   0.984
10905TIP3   OH232655   2.512   5.438   0.635
10905TIP3    H132656   2.520   5.477   0.548
10905TIP3    H232657   2.445   5.370   0.624
10906TIP3   OH232658   4.332   5.169   2.406
10906TIP3    H132659   4.292   5.157   2.319
10906TIP3    H232660   4.266   5.136   2.467
10907TIP3   OH232661   3.549   1.870   1.197
10907TIP3    H132662   3.644   1.883   1.196
10907TIP3    H232663   3.537   1.776   1.183
10908TIP3   OH232664   4.413   6.340   1.925
10908TIP3    H132665   4.397   6.248   1.907
10908TIP3    H232666   4.369   6.386   1.853
10909TIP3   OH232667   4.262   6.197   5.244
10909TIP3    H132668   4.266   6.142   5.321
10909TIP3    H232669   4.236   6.138   5.173
10910TIP3   OH232670   6.869   3.631   0.676
10910TIP3    H132671   6.800   3.564   0.677
10910TIP3    H232672   6.874   3.658   0.585
10911TIP3   OH232673   7.879   1.472   1.780
10911TIP3    H132674   7.901   1.402   1.841
10911TIP3    H232675   7.961   1.520   1.767
10912TIP3   OH232676   1.107   3.196   5.361
10912TIP3    H132677   1.079   3.258   5.428
10912TIP3    H232678   1.105   3.111   5.405
10913TIP3   OH232679   4.527   1.949   4.724
10913TIP3    H132680   4.563   1.904   4.801
10913TIP3    H232681   4.451   1.996   4.757
10914TIP3   OH232682   3.902   7.241   3.940
10914TIP3    H132683   3.909   7.174   3.872
10914TIP3    H232684   3.860   7.315   3.897
10915TIP3   OH232685   6.976   5.354   0.338
10915TIP3    H132686   6.979   5.296   0.414
10915TIP3    H232687   7.058   5.403   0.342
10916TIP3   OH232688   5.949   1.937   5.329
10916TIP3    H132689   5.929   1.855   5.375
10916TIP3    H232690   6.016   1.979   5.383
10917TIP3   OH232691   5.092   5.526   1.530
10917TIP3    H132692   5.029   5.478   1.583
10917TIP3    H232693   5.106   5.471   1.453
10918TIP3   OH232694   2.194   1.310   4.844
10918TIP3    H132695   2.172   1.397   4.878
10918TIP3    H232696   2.114   1.259   4.854
10919TIP3   OH232697   4.777   4.621   1.117
10919TIP3    H132698   4.824   4.547   1.080
10919TIP3    H232699   4.763   4.680   1.042
10920TIP3   OH232700   4.032   4.268   6.603
10920TIP3    H132701   3.997   4.352   6.574
10920TIP3    H232702   3.985   4.250   6.685
10921TIP3   OH232703   6.279   6.457   0.371
10921TIP3    H132704   6.248   6.375   0.410
10921TIP3    H232705   6.335   6.496   0.438
10922TIP3   OH232706   1.189   3.171   2.466
10922TIP3    H132707   1.229   3.130   2.389
10922TIP3    H232708   1.098   3.187   2.439
10923TIP3   OH232709   4.473   1.175   4.780
10923TIP3    H132710   4.479   1.174   4.875
10923TIP3    H232711   4.537   1.241   4.753
10924TIP3   OH232712   1.951   1.990   2.089
10924TIP3    H132713   1.872   2.033   2.055
10924TIP3    H232714   1.934   1.897   2.078
10925TIP3   OH232715   2.373   6.138   0.209
10925TIP3    H132716   2.285   6.164   0.180
10925TIP3    H232717   2.388   6.191   0.288
10926TIP3   OH232718   5.188   6.333   5.514
10926TIP3    H132719   5.241   6.253   5.519
10926TIP3    H232720   5.247   6.401   5.546
10927TIP3   OH232721   4.736   5.877   3.594
10927TIP3    H132722   4.641   5.871   3.607
10927TIP3    H232723   4.746   5.924   3.512
10928TIP3   OH232724   5.249   0.509   4.093
10928TIP3    H132725   5.173   0.567   4.091
10928TIP3    H232726   5.300   0.539   4.169
10929TIP3   OH232727   1.287   2.472   5.473
10929TIP3    H132728   1.229   2.495   5.546
10929TIP3    H232729   1.232   2.419   5.416
10930TIP3   OH232730   7.293   3.112   5.604
10930TIP3    H132731   7.376   3.070   5.625
10930TIP3    H232732   7.285   3.106   5.509
10931TIP3   OH232733   0.002   7.022   3.250
10931TIP3    H132734  -0.016   7.113   3.225
10931TIP3    H232735   0.070   7.028   3.317
10932TIP3   OH232736   1.038   5.099   1.166
10932TIP3    H132737   0.952   5.079   1.204
10932TIP3    H232738   1.094   5.027   1.194
10933TIP3   OH232739   3.965   3.111   5.852
10933TIP3    H132740   3.923   3.146   5.931
10933TIP3    H232741   4.058   3.108   5.874
10934TIP3   OH232742   2.086   2.786   4.748
10934TIP3    H132743   2.108   2.860   4.805
10934TIP3    H232744   2.000   2.808   4.712
10935TIP3   OH232745   3.581   5.088   4.409
10935TIP3    H132746   3.527   5.047   4.477
10935TIP3    H232747   3.614   5.014   4.357
10936TIP3   OH232748   3.923   4.217   4.460
10936TIP3    H132749   4.017   4.219   4.443
10936TIP3    H232750   3.899   4.124   4.454
10937TIP3   OH232751   7.157   5.113   2.376
10937TIP3    H132752   7.244   5.108   2.338
10937TIP3    H232753   7.157   5.049   2.446
10938TIP3   OH232754   4.276   4.460   1.416
10938TIP3    H132755   4.354   4.466   1.471
10938TIP3    H232756   4.298   4.512   1.338
10939TIP3   OH232757   6.625   0.256   3.030
10939TIP3    H132758   6.617   0.263   2.935
10939TIP3    H232759   6.547   0.302   3.064
10940TIP3   OH232760   2.183   1.962   6.513
10940TIP3    H132761   2.248   1.919   6.457
10940TIP3    H232762   2.142   1.891   6.563
10941TIP3   OH232763   8.397   1.460   0.940
10941TIP3    H132764   8.321   1.518   0.945
10941TIP3    H232765   8.360   1.372   0.933
10942TIP3   OH232766   1.142   0.400   0.286
10942TIP3    H132767   1.226   0.353   0.292
10942TIP3    H232768   1.167   0.492   0.279
10943TIP3   OH232769   6.926   3.900   4.981
10943TIP3    H132770   6.900   3.893   4.889
10943TIP3    H232771   6.851   3.868   5.030
10944TIP3   OH232772   4.127   2.655   3.292
10944TIP3    H132773   4.167   2.741   3.305
10944TIP3    H232774   4.201   2.596   3.275
10945TIP3   OH232775   5.271   1.467   4.514
10945TIP3    H132776   5.336   1.530   4.546
10945TIP3    H232777   5.322   1.388   4.495
10946TIP3   OH232778   4.275   1.933   3.916
10946TIP3    H132779   4.346   1.874   3.892
10946TIP3    H232780   4.304   1.974   3.997
10947TIP3   OH232781   1.705   0.025   4.838
10947TIP3    H132782   1.748  -0.057   4.813
10947TIP3    H232783   1.744   0.091   4.781
10948TIP3   OH232784   2.366   6.569   4.748
10948TIP3    H132785   2.346   6.481   4.715
10948TIP3    H232786   2.456   6.585   4.720
10949TIP3   OH232787   6.666   1.506   2.452
10949TIP3    H132788   6.584   1.458   2.463
10949TIP3    H232789   6.705   1.467   2.373
10950TIP3   OH232790   5.006   7.305   2.469
10950TIP3    H132791   4.937   7.371   2.473
10950TIP3    H232792   5.049   7.321   2.384
10951TIP3   OH232793   5.782   5.784   3.531
10951TIP3    H132794   5.715   5.787   3.599
10951TIP3    H232795   5.863   5.765   3.578
10952TIP3   OH232796   6.103   4.477   5.080
10952TIP3    H132797   6.169   4.427   5.127
10952TIP3    H232798   6.099   4.561   5.125
10953TIP3   OH232799   6.084   1.378   6.784
10953TIP3    H132800   6.016   1.324   6.745
10953TIP3    H232801   6.072   1.369   6.878
10954TIP3   OH232802   5.257   4.009   2.005
10954TIP3    H132803   5.318   3.940   1.982
10954TIP3    H232804   5.299   4.090   1.976
10955TIP3   OH232805   0.291   4.220   3.713
10955TIP3    H132806   0.338   4.176   3.642
10955TIP3    H232807   0.233   4.282   3.668
10956TIP3   OH232808   0.597   2.635   1.299
10956TIP3    H132809   0.561   2.654   1.385
10956TIP3    H232810   0.660   2.705   1.283
10957TIP3   OH232811   8.393   6.667   4.908
10957TIP3    H132812   8.449   6.592   4.925
10957TIP3    H232813   8.418   6.733   4.973
10958TIP3   OH232814   4.337   5.850   5.648
10958TIP3    H132815   4.399   5.778   5.657
10958TIP3    H232816   4.293   5.855   5.733
10959TIP3   OH232817   0.530   7.879   3.656
10959TIP3    H132818   0.625   7.869   3.661
10959TIP3    H232819   0.508   7.857   3.566
10960TIP3   OH232820   8.170   1.974   2.439
10960TIP3    H132821   8.084   1.947   2.473
10960TIP3    H232822   8.216   1.892   2.424
10961TIP3   OH232823   0.184   5.890   5.426
10961TIP3    H132824   0.094   5.922   5.429
10961TIP3    H232825   0.238   5.968   5.444
10962TIP3   OH232826   1.317   7.055   5.740
10962TIP3    H132827   1.327   7.039   5.646
10962TIP3    H232828   1.240   7.005   5.766
10963TIP3   OH232829   6.648   5.854   4.331
10963TIP3    H132830   6.643   5.892   4.243
10963TIP3    H232831   6.738   5.870   4.359
10964TIP3   OH232832   3.064   3.232   1.536
10964TIP3    H132833   3.145   3.226   1.485
10964TIP3    H232834   3.017   3.151   1.517
10965TIP3   OH232835   4.040   6.959   4.107
10965TIP3    H132836   4.090   6.991   4.182
10965TIP3    H232837   4.104   6.956   4.035
10966TIP3   OH232838   3.493   6.367   1.771
10966TIP3    H132839   3.446   6.415   1.840
10966TIP3    H232840   3.446   6.390   1.691
10967TIP3   OH232841   2.933   6.480   3.611
10967TIP3    H132842   2.876   6.430   3.553
10967TIP3    H232843   2.917   6.444   3.698
10968TIP3   OH232844   5.952   5.518   4.179
10968TIP3    H132845   5.907   5.502   4.261
10968TIP3    H232846   6.031   5.463   4.184
10969TIP3   OH232847   1.794   4.178   2.727
10969TIP3    H132848   1.868   4.198   2.669
10969TIP3    H232849   1.793   4.083   2.733
10970TIP3   OH232850   4.420   2.211   0.364
10970TIP3    H132851   4.468   2.147   0.312
10970TIP3    H232852   4.386   2.161   0.438
10971TIP3   OH232853   7.306   6.379   3.318
10971TIP3    H132854   7.218   6.412   3.298
10971TIP3    H232855   7.351   6.455   3.356
10972TIP3   OH232856   4.955   5.191   3.790
10972TIP3    H132857   4.915   5.121   3.841
10972TIP3    H232858   4.883   5.252   3.771
10973TIP3   OH232859   1.354   3.519   5.613
10973TIP3    H132860   1.307   3.510   5.530
10973TIP3    H232861   1.303   3.467   5.676
10974TIP3   OH232862   0.592   0.226   5.379
10974TIP3    H132863   0.585   0.219   5.474
10974TIP3    H232864   0.574   0.318   5.360
10975TIP3   OH232865   7.933   7.445   6.276
10975TIP3    H132866   7.974   7.517   6.324
10975TIP3    H232867   7.858   7.419   6.329
10976TIP3   OH232868   1.537   0.235   6.771
10976TIP3    H132869   1.552   0.256   6.863
10976TIP3    H232870   1.613   0.272   6.726
10977TIP3   OH232871   1.826   1.838   3.092
10977TIP3    H132872   1.748   1.883   3.123
10977TIP3    H232873   1.812   1.828   2.998
10978TIP3   OH232874   6.868   3.761   4.303
10978TIP3    H132875   6.960   3.770   4.325
10978TIP3    H232876   6.821   3.783   4.384
10979TIP3   OH232877   6.648   7.859   2.825
10979TIP3    H132878   6.605   7.944   2.815
10979TIP3    H232879   6.672   7.855   2.917
10980TIP3   OH232880   4.432   2.385   2.588
10980TIP3    H132881   4.447   2.369   2.495
10980TIP3    H232882   4.353   2.439   2.590
10981TIP3   OH232883   4.365   6.803   3.508
10981TIP3    H132884   4.437   6.769   3.561
10981TIP3    H232885   4.319   6.725   3.476
10982TIP3   OH232886   6.025   5.901   3.133
10982TIP3    H132887   6.073   5.826   3.097
10982TIP3    H232888   5.955   5.861   3.186
10983TIP3   OH232889   0.929   3.661   1.905
10983TIP3    H132890   0.988   3.654   1.980
10983TIP3    H232891   0.862   3.594   1.921
10984TIP3   OH232892   2.478   5.382   0.055
10984TIP3    H132893   2.482   5.295   0.093
10984TIP3    H232894   2.386   5.393   0.028
10985TIP3   OH232895   3.631   1.278   4.813
10985TIP3    H132896   3.721   1.308   4.805
10985TIP3    H232897   3.589   1.342   4.871
10986TIP3   OH232898  -0.001   6.704   3.895
10986TIP3    H132899   0.001   6.630   3.955
10986TIP3    H232900   0.085   6.745   3.905
10987TIP3   OH232901   3.811   2.633   2.229
10987TIP3    H132902   3.872   2.570   2.268
10987TIP3    H232903   3.784   2.689   2.302
10988TIP3   OH232904   2.711   3.341   4.777
10988TIP3    H132905   2.689   3.378   4.862
10988TIP3    H232906   2.794   3.382   4.753
10989TIP3   OH232907   4.749   6.938   2.387
10989TIP3    H132908   4.753   6.845   2.407
10989TIP3    H232909   4.793   6.980   2.460
10990TIP3   OH232910   4.444   7.574   2.677
10990TIP3    H132911   4.353   7.598   2.659
10990TIP3    H232912   4.470   7.632   2.749
10991TIP3   OH232913   3.421   2.683   0.882
10991TIP3    H132914   3.365   2.611   0.852
10991TIP3    H232915   3.508   2.662   0.848
10992TIP3   OH232916   0.728   5.155   0.020
10992TIP3    H132917   0.781   5.217   0.070
10992TIP3    H232918   0.638   5.169   0.051
10993TIP3   OH232919   6.154   0.353   3.031
10993TIP3    H132920   6.142   0.413   3.104
10993TIP3    H232921   6.130   0.404   2.954
10994TIP3   OH232922   5.081   1.234   6.855
10994TIP3    H132923   5.125   1.205   6.935
10994TIP3    H232924   5.067   1.153   6.805
10995TIP3   OH232925   7.642   6.503   3.162
10995TIP3    H132926   7.576   6.517   3.229
10995TIP3    H232927   7.717   6.467   3.209
10996TIP3   OH232928   2.002   3.520   5.050
10996TIP3    H132929   1.944   3.446   5.031
10996TIP3    H232930   1.961   3.563   5.125
10997TIP3   OH232931   7.073   1.412   6.350
10997TIP3    H132932   7.109   1.489   6.394
10997TIP3    H232933   6.980   1.413   6.373
10998TIP3   OH232934   6.027   6.931   1.208
10998TIP3    H132935   6.045   6.970   1.123
10998TIP3    H232936   6.027   6.836   1.192
10999TIP3   OH232937   7.975   0.959   2.860
10999TIP3    H132938   7.980   1.039   2.912
10999TIP3    H232939   8.038   0.900   2.902
11000TIP3   OH232940   3.710   2.593   3.430
11000TIP3    H132941   3.685   2.594   3.337
11000TIP3    H232942   3.792   2.544   3.431
11001TIP3   OH232943   0.607   3.546   1.284
11001TIP3    H132944   0.525   3.561   1.236
11001TIP3    H232945   0.612   3.619   1.346
11002TIP3   OH232946   0.869   5.416   6.138
11002TIP3    H132947   0.856   5.405   6.044
11002TIP3    H232948   0.964   5.417   6.150
11003TIP3   OH232949   4.000   5.276   0.565
11003TIP3    H132950   3.962   5.188   0.573
11003TIP3    H232951   3.956   5.328   0.632
11004TIP3   OH232952   3.442   2.229   0.017
11004TIP3    H132953   3.417   2.207   0.106
11004TIP3    H232954   3.418   2.321   0.007
11005TIP3   OH232955   2.189   3.810   5.195
11005TIP3    H132956   2.127   3.737   5.197
11005TIP3    H232957   2.179   3.852   5.280
11006TIP3   OH232958   2.358   3.119   5.545
11006TIP3    H132959   2.339   3.028   5.523
11006TIP3    H232960   2.428   3.145   5.485
11007TIP3   OH232961   3.381   5.273   1.442
11007TIP3    H132962   3.383   5.337   1.514
11007TIP3    H232963   3.472   5.267   1.413
11008TIP3   OH232964   1.007   5.336   4.188
11008TIP3    H132965   1.065   5.396   4.236
11008TIP3    H232966   1.039   5.249   4.210
11009TIP3   OH232967   4.428   4.365   5.596
11009TIP3    H132968   4.518   4.390   5.619
11009TIP3    H232969   4.409   4.290   5.652
11010TIP3   OH232970   7.637   3.921   5.738
11010TIP3    H132971   7.590   3.892   5.660
11010TIP3    H232972   7.621   3.853   5.803
11011TIP3   OH232973   0.263   0.499   0.797
11011TIP3    H132974   0.222   0.440   0.735
11011TIP3    H232975   0.251   0.586   0.759
11012TIP3   OH232976   2.978   3.388   6.152
11012TIP3    H132977   2.998   3.295   6.139
11012TIP3    H232978   3.043   3.417   6.216
11013TIP3   OH232979   4.531   5.581   6.209
11013TIP3    H132980   4.512   5.543   6.123
11013TIP3    H232981   4.589   5.518   6.251
11014TIP3   OH232982   1.784   4.912   3.072
11014TIP3    H132983   1.755   4.882   3.158
11014TIP3    H232984   1.870   4.873   3.061
11015TIP3   OH232985   5.500   1.014   6.454
11015TIP3    H132986   5.531   1.088   6.401
11015TIP3    H232987   5.579   0.967   6.479
11016TIP3   OH232988   5.397   0.392   0.683
11016TIP3    H132989   5.419   0.408   0.592
11016TIP3    H232990   5.358   0.304   0.684
11017TIP3   OH232991   5.016   3.388   5.926
11017TIP3    H132992   5.111   3.387   5.910
11017TIP3    H232993   5.008   3.383   6.021
11018TIP3   OH232994   6.173   5.431   6.353
11018TIP3    H132995   6.153   5.340   6.373
11018TIP3    H232996   6.249   5.453   6.406
11019TIP3   OH232997   7.185   5.509   5.445
11019TIP3    H132998   7.097   5.506   5.407
11019TIP3    H232999   7.242   5.472   5.377
11020TIP3   OH233000   7.274   5.306   6.244
11020TIP3    H133001   7.188   5.323   6.283
11020TIP3    H233002   7.336   5.341   6.307
11021TIP3   OH233003   1.381   4.957   1.202
11021TIP3    H133004   1.353   4.909   1.124
11021TIP3    H233005   1.362   5.049   1.182
11022TIP3   OH233006   3.350   7.637   3.386
11022TIP3    H133007   3.415   7.613   3.321
11022TIP3    H233008   3.266   7.628   3.341
11023TIP3   OH233009   1.712   2.604   5.201
11023TIP3    H133010   1.627   2.574   5.234
11023TIP3    H233011   1.707   2.699   5.206
11024TIP3   OH233012   7.179   2.159   4.268
11024TIP3    H133013   7.274   2.151   4.280
11024TIP3    H233014   7.146   2.178   4.356
11025TIP3   OH233015   5.993   4.556   4.206
11025TIP3    H133016   6.060   4.496   4.239
11025TIP3    H233017   5.910   4.510   4.221
11026TIP3   OH233018   2.734   3.625   5.224
11026TIP3    H133019   2.739   3.702   5.281
11026TIP3    H233020   2.753   3.659   5.136
11027TIP3   OH233021   2.565   5.955   1.422
11027TIP3    H133022   2.480   5.922   1.452
11027TIP3    H233023   2.581   5.909   1.340
11028TIP3   OH233024   4.068   5.020   6.839
11028TIP3    H133025   4.128   5.075   6.789
11028TIP3    H233026   3.999   5.080   6.867
11029TIP3   OH233027   5.076   6.216   1.810
11029TIP3    H133028   5.137   6.256   1.748
11029TIP3    H233029   5.069   6.280   1.881
11030TIP3   OH233030   3.390   3.111   1.408
11030TIP3    H133031   3.357   3.053   1.477
11030TIP3    H233032   3.437   3.053   1.348
11031TIP3   OH233033   5.336   1.818   0.941
11031TIP3    H133034   5.360   1.909   0.923
11031TIP3    H233035   5.283   1.793   0.865
11032TIP3   OH233036   4.679   6.684   6.845
11032TIP3    H133037   4.713   6.773   6.847
11032TIP3    H233038   4.584   6.694   6.836
11033TIP3   OH233039   6.105   2.021   6.395
11033TIP3    H133040   6.050   2.010   6.473
11033TIP3    H233041   6.191   1.990   6.423
11034TIP3   OH233042   3.440   0.098   0.543
11034TIP3    H133043   3.361   0.100   0.490
11034TIP3    H233044   3.494   0.030   0.503
11035TIP3   OH233045   2.813   1.645   4.298
11035TIP3    H133046   2.848   1.729   4.270
11035TIP3    H233047   2.825   1.643   4.393
11036TIP3   OH233048   0.836   0.878   2.217
11036TIP3    H133049   0.793   0.843   2.139
11036TIP3    H233050   0.857   0.801   2.270
11037TIP3   OH233051   4.388   2.551   3.801
11037TIP3    H133052   4.463   2.607   3.782
11037TIP3    H233053   4.343   2.543   3.718
11038TIP3   OH233054   3.792   7.709   4.860
11038TIP3    H133055   3.769   7.680   4.772
11038TIP3    H233056   3.773   7.634   4.916
11039TIP3   OH233057   3.276   6.761   2.741
11039TIP3    H133058   3.269   6.671   2.707
11039TIP3    H233059   3.276   6.750   2.836
11040TIP3   OH233060   1.136   2.839   2.953
11040TIP3    H133061   1.077   2.869   2.884
11040TIP3    H233062   1.102   2.879   3.033
11041TIP3   OH233063   1.128   2.568   5.666
11041TIP3    H133064   1.168   2.575   5.753
11041TIP3    H233065   1.071   2.644   5.660
11042TIP3   OH233066   1.728   2.319   2.345
11042TIP3    H133067   1.775   2.237   2.361
11042TIP3    H233068   1.635   2.294   2.346
11043TIP3   OH233069   7.168   4.314   1.282
11043TIP3    H133070   7.218   4.248   1.234
11043TIP3    H233071   7.110   4.264   1.339
11044TIP3   OH233072   1.096   3.922   0.934
11044TIP3    H133073   1.067   3.831   0.947
11044TIP3    H233074   1.040   3.954   0.862
11045TIP3   OH233075   8.116   1.042   1.934
11045TIP3    H133076   8.198   0.992   1.926
11045TIP3    H233077   8.075   1.034   1.848
11046TIP3   OH233078   5.579   3.790   0.966
11046TIP3    H133079   5.610   3.702   0.990
11046TIP3    H233080   5.484   3.786   0.977
11047TIP3   OH233081   6.574   4.969   4.058
11047TIP3    H133082   6.546   4.965   3.967
11047TIP3    H233083   6.655   5.021   4.057
11048TIP3   OH233084   3.225   0.115   1.963
11048TIP3    H133085   3.164   0.117   2.036
11048TIP3    H233086   3.268   0.030   1.970
11049TIP3   OH233087   3.994   6.181   1.976
11049TIP3    H133088   3.898   6.183   1.982
11049TIP3    H233089   4.020   6.271   1.995
11050TIP3   OH233090   0.100   7.790   2.026
11050TIP3    H133091   0.019   7.839   2.023
11050TIP3    H233092   0.108   7.750   1.940
11051TIP3   OH233093   4.811   2.607   0.007
11051TIP3    H133094   4.791   2.678   0.068
11051TIP3    H233095   4.731   2.597  -0.045
11052TIP3   OH233096   4.825   0.664   5.515
11052TIP3    H133097   4.818   0.745   5.464
11052TIP3    H233098   4.901   0.678   5.571
11053TIP3   OH233099   0.283   6.521   0.668
11053TIP3    H133100   0.222   6.473   0.613
11053TIP3    H233101   0.306   6.598   0.617
11054TIP3   OH233102   8.379   7.638   2.343
11054TIP3    H133103   8.365   7.705   2.276
11054TIP3    H233104   8.394   7.688   2.423
11055TIP3   OH233105   1.640   4.388   1.855
11055TIP3    H133106   1.644   4.471   1.808
11055TIP3    H233107   1.547   4.368   1.860
11056TIP3   OH233108   8.064   6.092   6.799
11056TIP3    H133109   8.117   6.039   6.858
11056TIP3    H233110   8.074   6.050   6.713
11057TIP3   OH233111   2.647   5.067   6.383
11057TIP3    H133112   2.646   5.067   6.288
11057TIP3    H233113   2.594   4.991   6.408
11058TIP3   OH233114   2.130   0.283   2.678
11058TIP3    H133115   2.148   0.317   2.590
11058TIP3    H233116   2.197   0.217   2.693
11059TIP3   OH233117   8.331   1.426   5.294
11059TIP3    H133118   8.271   1.487   5.252
11059TIP3    H233119   8.280   1.388   5.366
11060TIP3   OH233120   4.729   0.091   2.607
11060TIP3    H133121   4.751   0.177   2.572
11060TIP3    H233122   4.665   0.056   2.545
11061TIP3   OH233123   1.990   2.873   5.035
11061TIP3    H133124   1.907   2.908   5.067
11061TIP3    H233125   1.970   2.781   5.013
11062TIP3   OH233126   6.805   4.097   2.874
11062TIP3    H133127   6.831   4.174   2.824
11062TIP3    H233128   6.780   4.032   2.809
11063TIP3   OH233129   8.093   6.480   3.352
11063TIP3    H133130   8.029   6.549   3.373
11063TIP3    H233131   8.150   6.476   3.428
11064TIP3   OH233132   7.096   7.215   2.635
11064TIP3    H133133   7.083   7.120   2.625
11064TIP3    H233134   7.007   7.251   2.637
11065TIP3   OH233135   5.681   6.681   5.432
11065TIP3    H133136   5.714   6.770   5.445
11065TIP3    H233137   5.653   6.679   5.341
11066TIP3   OH233138   2.174   2.180   2.068
11066TIP3    H133139   2.086   2.151   2.043
11066TIP3    H233140   2.208   2.222   1.988
11067TIP3   OH233141   0.895   1.919   6.793
11067TIP3    H133142   0.824   1.930   6.856
11067TIP3    H233143   0.855   1.942   6.709
11068TIP3   OH233144   3.410   7.023   5.017
11068TIP3    H133145   3.441   6.961   5.083
11068TIP3    H233146   3.445   7.107   5.046
11069TIP3   OH233147   3.549   6.857   2.902
11069TIP3    H133148   3.639   6.823   2.904
11069TIP3    H233149   3.494   6.778   2.898
11070TIP3   OH233150   2.058   6.161   3.112
11070TIP3    H133151   2.091   6.220   3.044
11070TIP3    H233152   2.062   6.213   3.193
11071TIP3   OH233153   6.699   0.069   5.234
11071TIP3    H133154   6.660   0.046   5.149
11071TIP3    H233155   6.751  -0.007   5.258
11072TIP3   OH233156   8.110   0.109   6.525
11072TIP3    H133157   8.172   0.073   6.462
11072TIP3    H233158   8.047   0.158   6.472
11073TIP3   OH233159   4.129   6.288   4.228
11073TIP3    H133160   4.215   6.248   4.214
11073TIP3    H233161   4.073   6.216   4.258
11074TIP3   OH233162   5.597   0.738   6.834
11074TIP3    H133163   5.553   0.670   6.783
11074TIP3    H233164   5.688   0.733   6.806
11075TIP3   OH233165   8.104   2.061   5.929
11075TIP3    H133166   8.166   2.103   5.987
11075TIP3    H233167   8.038   2.128   5.910
11076TIP3   OH233168   3.066   0.021   0.551
11076TIP3    H133169   3.013  -0.019   0.620
11076TIP3    H233170   3.097  -0.053   0.499
11077TIP3   OH233171   3.277   1.796   2.190
11077TIP3    H133172   3.368   1.823   2.175
11077TIP3    H233173   3.279   1.700   2.188
11078TIP3   OH233174   1.080   3.729   4.542
11078TIP3    H133175   1.056   3.673   4.468
11078TIP3    H233176   1.097   3.667   4.614
11079TIP3   OH233177   3.555   6.788   6.491
11079TIP3    H133178   3.503   6.837   6.554
11079TIP3    H233179   3.547   6.697   6.519
11080TIP3   OH233180   0.117   5.451   5.674
11080TIP3    H133181   0.026   5.481   5.672
11080TIP3    H233182   0.131   5.420   5.763
11081TIP3   OH233183   5.650   4.912   1.874
11081TIP3    H133184   5.617   5.002   1.874
11081TIP3    H233185   5.576   4.860   1.842
11082TIP3   OH233186   3.161   5.043   4.168
11082TIP3    H133187   3.123   5.062   4.082
11082TIP3    H233188   3.250   5.013   4.148
11083TIP3   OH233189   3.815   1.514   1.565
11083TIP3    H133190   3.902   1.481   1.545
11083TIP3    H233191   3.816   1.605   1.536
11084TIP3   OH233192   4.545   2.008   3.765
11084TIP3    H133193   4.636   2.007   3.736
11084TIP3    H233194   4.522   2.101   3.770
11085TIP3   OH233195   4.288   6.135   3.084
11085TIP3    H133196   4.259   6.219   3.049
11085TIP3    H233197   4.250   6.132   3.172
11086TIP3   OH233198   3.843   2.078   6.761
11086TIP3    H133199   3.807   2.073   6.849
11086TIP3    H233200   3.793   2.013   6.711
11087TIP3   OH233201   5.846   7.840   5.872
11087TIP3    H133202   5.778   7.855   5.806
11087TIP3    H233203   5.903   7.917   5.865
11088TIP3   OH233204   6.395   7.096   5.346
11088TIP3    H133205   6.378   7.143   5.427
11088TIP3    H233206   6.474   7.136   5.311
11089TIP3   OH233207   2.917   4.960   4.329
11089TIP3    H133208   2.992   5.014   4.306
11089TIP3    H233209   2.936   4.929   4.418
11090TIP3   OH233210   1.196   0.527   0.590
11090TIP3    H133211   1.185   0.449   0.646
11090TIP3    H233212   1.108   0.562   0.581
11091TIP3   OH233213   6.468   5.735   2.981
11091TIP3    H133214   6.467   5.652   3.028
11091TIP3    H233215   6.516   5.795   3.038
11092TIP3   OH233216   3.794   0.684   5.010
11092TIP3    H133217   3.824   0.738   4.936
11092TIP3    H233218   3.737   0.742   5.060
11093TIP3   OH233219   0.793   7.792   4.203
11093TIP3    H133220   0.867   7.799   4.143
11093TIP3    H233221   0.755   7.706   4.184
11094TIP3   OH233222   6.097   0.990   4.708
11094TIP3    H133223   6.146   1.069   4.731
11094TIP3    H233224   6.103   0.986   4.613
11095TIP3   OH233225   6.562   2.453   3.637
11095TIP3    H133226   6.543   2.359   3.649
11095TIP3    H233227   6.602   2.479   3.720
11096TIP3   OH233228   7.222   1.422   4.664
11096TIP3    H133229   7.165   1.361   4.616
11096TIP3    H233230   7.305   1.375   4.673
11097TIP3   OH233231   0.261   0.415   4.046
11097TIP3    H133232   0.261   0.511   4.051
11097TIP3    H233233   0.263   0.386   4.138
11098TIP3   OH233234   2.524   3.750   4.186
11098TIP3    H133235   2.526   3.844   4.169
11098TIP3    H233236   2.551   3.710   4.103
11099TIP3   OH233237   5.197   0.820   1.926
11099TIP3    H133238   5.120   0.864   1.963
11099TIP3    H233239   5.165   0.735   1.898
11100TIP3   OH233240   2.472   2.306   0.092
11100TIP3    H133241   2.510   2.383   0.137
11100TIP3    H233242   2.494   2.319   0.000
11101TIP3   OH233243   2.618   2.614   3.145
11101TIP3    H133244   2.707   2.647   3.147
11101TIP3    H233245   2.564   2.693   3.137
11102TIP3   OH233246   0.397   1.602   1.461
11102TIP3    H133247   0.431   1.638   1.543
11102TIP3    H233248   0.466   1.618   1.397
11103TIP3   OH233249   2.814   4.544   2.304
11103TIP3    H133250   2.780   4.468   2.352
11103TIP3    H233251   2.901   4.516   2.274
11104TIP3   OH233252   3.264   3.072   3.148
11104TIP3    H133253   3.347   3.114   3.126
11104TIP3    H233254   3.247   3.014   3.074
11105TIP3   OH233255   1.811   1.671   4.056
11105TIP3    H133256   1.879   1.685   4.123
11105TIP3    H233257   1.859   1.649   3.977
11106TIP3   OH233258   0.473   2.949   3.688
11106TIP3    H133259   0.420   2.982   3.760
11106TIP3    H233260   0.412   2.897   3.635
11107TIP3   OH233261   5.084   4.426   1.498
11107TIP3    H133262   5.135   4.352   1.532
11107TIP3    H233263   5.128   4.503   1.535
11108TIP3   OH233264   5.510   6.390   0.990
11108TIP3    H133265   5.420   6.383   0.958
11108TIP3    H233266   5.511   6.471   1.041
11109TIP3   OH233267   4.900   2.275   0.541
11109TIP3    H133268   4.862   2.235   0.620
11109TIP3    H233269   4.861   2.226   0.469
11110TIP3   OH233270   7.949   2.453   1.339
11110TIP3    H133271   7.991   2.534   1.310
11110TIP3    H233272   7.914   2.414   1.259
11111TIP3   OH233273   6.782   4.375   4.958
11111TIP3    H133274   6.782   4.377   4.862
11111TIP3    H233275   6.734   4.296   4.980
11112TIP3   OH233276   6.825   5.405   1.203
11112TIP3    H133277   6.736   5.438   1.187
11112TIP3    H233278   6.815   5.310   1.202
11113TIP3   OH233279   4.718   0.668   4.943
11113TIP3    H133280   4.769   0.590   4.962
11113TIP3    H233281   4.632   0.650   4.979
11114TIP3   OH233282   2.166   5.204   3.166
11114TIP3    H133283   2.208   5.120   3.185
11114TIP3    H233284   2.182   5.219   3.073
11115TIP3   OH233285   1.788   3.775   0.437
11115TIP3    H133286   1.772   3.858   0.392
11115TIP3    H233287   1.757   3.790   0.527
11116TIP3   OH233288   1.638   0.618   2.713
11116TIP3    H133289   1.731   0.629   2.693
11116TIP3    H233290   1.593   0.668   2.645
11117TIP3   OH233291   5.378   5.457   4.305
11117TIP3    H133292   5.443   5.480   4.238
11117TIP3    H233293   5.309   5.523   4.294
11118TIP3   OH233294   2.571   6.207   2.302
11118TIP3    H133295   2.572   6.143   2.231
11118TIP3    H233296   2.480   6.235   2.307
11119TIP3   OH233297   5.968   5.404   4.662
11119TIP3    H133298   5.911   5.398   4.739
11119TIP3    H233299   5.973   5.314   4.630
11120TIP3   OH233300   1.674   3.345   3.055
11120TIP3    H133301   1.619   3.303   3.120
11120TIP3    H233302   1.632   3.326   2.971
11121TIP3   OH233303   4.311   6.537   1.750
11121TIP3    H133304   4.232   6.484   1.763
11121TIP3    H233305   4.287   6.625   1.778
11122TIP3   OH233306   5.240   2.899   2.096
11122TIP3    H133307   5.326   2.866   2.124
11122TIP3    H233308   5.177   2.837   2.132
11123TIP3   OH233309   6.712   0.653   3.623
11123TIP3    H133310   6.624   0.646   3.586
11123TIP3    H233311   6.702   0.713   3.697
11124TIP3   OH233312   5.096   6.170   0.123
11124TIP3    H133313   5.071   6.262   0.118
11124TIP3    H233314   5.161   6.167   0.193
11125TIP3   OH233315   4.865   3.051   1.234
11125TIP3    H133316   4.843   3.038   1.142
11125TIP3    H233317   4.782   3.073   1.276
11126TIP3   OH233318   0.042   3.840   6.021
11126TIP3    H133319  -0.029   3.803   6.074
11126TIP3    H233320   0.037   3.934   6.036
11127TIP3   OH233321   6.799   1.570   6.450
11127TIP3    H133322   6.833   1.654   6.482
11127TIP3    H233323   6.704   1.581   6.452
11128TIP3   OH233324   6.000   1.089   1.652
11128TIP3    H133325   6.036   1.046   1.730
11128TIP3    H233326   5.913   1.118   1.679
11129TIP3   OH233327   1.028   1.602   5.556
11129TIP3    H133328   1.030   1.647   5.641
11129TIP3    H233329   1.071   1.518   5.573
11130TIP3   OH233330   7.964   6.928   1.737
11130TIP3    H133331   7.888   6.940   1.794
11130TIP3    H233332   8.010   6.853   1.774
11131TIP3   OH233333   0.555   5.129   1.158
11131TIP3    H133334   0.595   5.197   1.104
11131TIP3    H233335   0.516   5.068   1.096
11132TIP3   OH233336   0.636   0.847   3.229
11132TIP3    H133337   0.614   0.925   3.281
11132TIP3    H233338   0.635   0.878   3.138
11133TIP3   OH233339   0.327   3.699   3.286
11133TIP3    H133340   0.277   3.651   3.221
11133TIP3    H233341   0.400   3.642   3.308
11134TIP3   OH233342   8.223   1.297   3.283
11134TIP3    H133343   8.251   1.219   3.330
11134TIP3    H233344   8.232   1.275   3.191
11135TIP3   OH233345   3.548   7.508   3.261
11135TIP3    H133346   3.631   7.505   3.310
11135TIP3    H233347   3.575   7.518   3.170
11136TIP3   OH233348   1.263   1.797   6.645
11136TIP3    H133349   1.216   1.818   6.726
11136TIP3    H233350   1.356   1.798   6.670
11137TIP3   OH233351   4.296   1.938   2.350
11137TIP3    H133352   4.362   1.908   2.412
11137TIP3    H233353   4.212   1.913   2.389
11138TIP3   OH233354   0.392   1.048   5.964
11138TIP3    H133355   0.471   1.039   6.018
11138TIP3    H233356   0.425   1.051   5.874
11139TIP3   OH233357   1.545   2.786   0.879
11139TIP3    H133358   1.468   2.746   0.838
11139TIP3    H233359   1.600   2.711   0.903
11140TIP3   OH233360   3.176   1.152   2.185
11140TIP3    H133361   3.191   1.126   2.276
11140TIP3    H233362   3.263   1.176   2.152
11141TIP3   OH233363   3.055   5.671   6.339
11141TIP3    H133364   3.132   5.618   6.320
11141TIP3    H233365   3.077   5.719   6.419
11142TIP3   OH233366   1.311   6.995   1.670
11142TIP3    H133367   1.404   7.009   1.656
11142TIP3    H233368   1.289   6.921   1.613
11143TIP3   OH233369   3.282   4.284   1.073
11143TIP3    H133370   3.277   4.376   1.049
11143TIP3    H233371   3.375   4.263   1.069
11144TIP3   OH233372   4.408   0.055   0.490
11144TIP3    H133373   4.420   0.062   0.395
11144TIP3    H233374   4.457  -0.024   0.514
11145TIP3   OH233375   6.958   3.919   3.514
11145TIP3    H133376   6.963   4.007   3.477
11145TIP3    H233377   6.996   3.863   3.446
11146TIP3   OH233378   7.833   4.088   1.617
11146TIP3    H133379   7.882   4.015   1.654
11146TIP3    H233380   7.741   4.060   1.622
11147TIP3   OH233381   2.343   5.491   1.038
11147TIP3    H133382   2.398   5.511   1.114
11147TIP3    H233383   2.353   5.566   0.980
11148TIP3   OH233384   0.755   4.277   5.743
11148TIP3    H133385   0.716   4.304   5.660
11148TIP3    H233386   0.703   4.201   5.770
11149TIP3   OH233387   6.159   1.119   0.922
11149TIP3    H133388   6.206   1.202   0.913
11149TIP3    H233389   6.194   1.080   1.002
11150TIP3   OH233390   5.729   2.586   1.131
11150TIP3    H133391   5.742   2.647   1.204
11150TIP3    H233392   5.812   2.589   1.083
11151TIP3   OH233393   7.367   0.001   0.644
11151TIP3    H133394   7.360   0.094   0.664
11151TIP3    H233395   7.413  -0.036   0.719
11152TIP3   OH233396   3.294   6.968   0.226
11152TIP3    H133397   3.234   7.008   0.163
11152TIP3    H233398   3.251   6.886   0.252
11153TIP3   OH233399   3.845   4.084   2.020
11153TIP3    H133400   3.926   4.090   2.071
11153TIP3    H233401   3.817   3.993   2.030
11154TIP3   OH233402   0.193   5.586   1.414
11154TIP3    H133403   0.209   5.515   1.476
11154TIP3    H233404   0.124   5.639   1.454
11155TIP3   OH233405   2.061   3.039   0.302
11155TIP3    H133406   2.046   3.048   0.396
11155TIP3    H233407   2.117   3.114   0.280
11156TIP3   OH233408   1.702   7.075   5.986
11156TIP3    H133409   1.761   7.134   5.939
11156TIP3    H233410   1.648   7.132   6.040
11157TIP3   OH233411   3.791   5.961   5.545
11157TIP3    H133412   3.771   5.939   5.454
11157TIP3    H233413   3.874   5.918   5.563
11158TIP3   OH233414   6.361   4.284   6.568
11158TIP3    H133415   6.450   4.319   6.560
11158TIP3    H233416   6.372   4.204   6.620
11159TIP3   OH233417   4.304   4.489   0.694
11159TIP3    H133418   4.237   4.531   0.749
11159TIP3    H233419   4.367   4.453   0.757
11160TIP3   OH233420   0.550   0.681   4.792
11160TIP3    H133421   0.593   0.758   4.756
11160TIP3    H233422   0.482   0.659   4.729
11161TIP3   OH233423   0.900   6.264   0.445
11161TIP3    H133424   0.876   6.302   0.361
11161TIP3    H233425   0.835   6.297   0.507
11162TIP3   OH233426   3.270   7.161   1.107
11162TIP3    H133427   3.277   7.121   1.020
11162TIP3    H233428   3.311   7.098   1.166
11163TIP3   OH233429   8.269   0.251   5.207
11163TIP3    H133430   8.248   0.243   5.114
11163TIP3    H233431   8.351   0.204   5.218
11164TIP3   OH233432   2.179   4.406   5.457
11164TIP3    H133433   2.232   4.485   5.442
11164TIP3    H233434   2.097   4.440   5.494
11165TIP3   OH233435   2.727   6.458   3.999
11165TIP3    H133436   2.731   6.476   4.093
11165TIP3    H233437   2.688   6.536   3.961
11166TIP3   OH233438   1.714   5.633   2.069
11166TIP3    H133439   1.668   5.587   2.139
11166TIP3    H233440   1.796   5.584   2.058
11167TIP3   OH233441   1.705   4.414   4.670
11167TIP3    H133442   1.741   4.423   4.759
11167TIP3    H233443   1.735   4.492   4.624
11168TIP3   OH233444   3.257   4.696   5.116
11168TIP3    H133445   3.239   4.778   5.069
11168TIP3    H233446   3.319   4.649   5.061
11169TIP3   OH233447   6.699   7.727   5.416
11169TIP3    H133448   6.653   7.684   5.488
11169TIP3    H233449   6.782   7.679   5.408
11170TIP3   OH233450   7.306   6.353   2.128
11170TIP3    H133451   7.399   6.377   2.129
11170TIP3    H233452   7.277   6.373   2.039
11171TIP3   OH233453   3.215   5.612   5.032
11171TIP3    H133454   3.263   5.673   5.088
11171TIP3    H233455   3.209   5.657   4.948
11172TIP3   OH233456   6.762   7.825   6.580
11172TIP3    H133457   6.839   7.879   6.603
11172TIP3    H233458   6.696   7.889   6.553
11173TIP3   OH233459   7.686   6.704   0.088
11173TIP3    H133460   7.694   6.760   0.165
11173TIP3    H233461   7.719   6.619   0.117
11174TIP3   OH233462   6.972   4.728   0.562
11174TIP3    H133463   6.929   4.813   0.551
11174TIP3    H233464   7.037   4.725   0.492
11175TIP3   OH233465   4.023   0.150   0.757
11175TIP3    H133466   4.024   0.113   0.669
11175TIP3    H233467   3.975   0.233   0.748
11176TIP3   OH233468   4.466   6.867   0.735
11176TIP3    H133469   4.484   6.773   0.728
11176TIP3    H233470   4.439   6.879   0.826
11177TIP3   OH233471   3.448   0.277   0.262
11177TIP3    H133472   3.370   0.258   0.210
11177TIP3    H233473   3.457   0.372   0.260
11178TIP3   OH233474   1.905   6.531   6.806
11178TIP3    H133475   1.877   6.485   6.728
11178TIP3    H233476   1.934   6.462   6.866
11179TIP3   OH233477   1.050   7.700   3.027
11179TIP3    H133478   0.970   7.675   3.071
11179TIP3    H233479   1.036   7.674   2.936
11180TIP3   OH233480   0.865   3.555   2.230
11180TIP3    H133481   0.952   3.515   2.228
11180TIP3    H233482   0.882   3.649   2.234
11181TIP3   OH233483   1.313   5.558   1.170
11181TIP3    H133484   1.227   5.581   1.207
11181TIP3    H233485   1.337   5.633   1.116
11182TIP3   OH233486   0.467   2.432   2.470
11182TIP3    H133487   0.512   2.515   2.460
11182TIP3    H233488   0.443   2.428   2.563
11183TIP3   OH233489   7.232   6.407   4.059
11183TIP3    H133490   7.234   6.492   4.016
11183TIP3    H233491   7.183   6.422   4.140
11184TIP3   OH233492   6.357   2.738   2.733
11184TIP3    H133493   6.335   2.653   2.771
11184TIP3    H233494   6.331   2.802   2.799
11185TIP3   OH233495   5.950   3.894   6.789
11185TIP3    H133496   5.976   3.972   6.740
11185TIP3    H233497   6.012   3.827   6.762
11186TIP3   OH233498   2.790   5.669   4.147
11186TIP3    H133499   2.806   5.697   4.057
11186TIP3    H233500   2.760   5.749   4.191
11187TIP3   OH233501   1.089   2.814   0.697
11187TIP3    H133502   1.141   2.752   0.748
11187TIP3    H233503   1.082   2.774   0.610
11188TIP3   OH233504   7.854   5.065   2.788
11188TIP3    H133505   7.832   5.076   2.880
11188TIP3    H233506   7.890   5.150   2.762
11189TIP3   OH233507   0.432   5.745   5.472
11189TIP3    H133508   0.454   5.749   5.379
11189TIP3    H233509   0.342   5.778   5.478
11190TIP3   OH233510   0.334   3.034   1.420
11190TIP3    H133511   0.365   2.979   1.492
11190TIP3    H233512   0.251   2.994   1.393
11191TIP3   OH233513   4.123   4.620   0.516
11191TIP3    H133514   4.142   4.714   0.518
11191TIP3    H233515   4.194   4.580   0.566
11192TIP3   OH233516   5.191   4.999   1.948
11192TIP3    H133517   5.241   4.921   1.973
11192TIP3    H233518   5.245   5.042   1.882
11193TIP3   OH233519   7.919   0.579   1.178
11193TIP3    H133520   7.844   0.639   1.173
11193TIP3    H233521   7.972   0.601   1.101
11194TIP3   OH233522   8.093   5.391   1.477
11194TIP3    H133523   8.005   5.394   1.439
11194TIP3    H233524   8.151   5.416   1.405
11195TIP3   OH233525   5.055   3.709   1.016
11195TIP3    H133526   4.989   3.738   0.953
11195TIP3    H233527   5.060   3.614   1.003
11196TIP3   OH233528   0.877   4.906   5.621
11196TIP3    H133529   0.813   4.970   5.591
11196TIP3    H233530   0.940   4.899   5.549
11197TIP3   OH233531   0.103   0.242   6.522
11197TIP3    H133532   0.074   0.174   6.461
11197TIP3    H233533   0.040   0.239   6.594
11198TIP3   OH233534   0.393   7.683   1.914
11198TIP3    H133535   0.349   7.661   1.996
11198TIP3    H233536   0.324   7.679   1.848
11199TIP3   OH233537   1.624   7.079   2.426
11199TIP3    H133538   1.710   7.061   2.463
11199TIP3    H233539   1.568   7.008   2.458
11200TIP3   OH233540   7.221   4.682   1.613
11200TIP3    H133541   7.179   4.716   1.693
11200TIP3    H233542   7.314   4.695   1.628
11201TIP3   OH233543   2.689   4.505   1.788
11201TIP3    H133544   2.737   4.467   1.861
11201TIP3    H233545   2.757   4.542   1.731
11202TIP3   OH233546   4.805   2.052   5.629
11202TIP3    H133547   4.830   2.123   5.690
11202TIP3    H233548   4.869   1.983   5.647
11203TIP3   OH233549   3.989   0.434   6.460
11203TIP3    H133550   3.938   0.467   6.534
11203TIP3    H233551   4.062   0.387   6.500
11204TIP3   OH233552   0.600   3.562   2.220
11204TIP3    H133553   0.696   3.558   2.218
11204TIP3    H233554   0.579   3.655   2.210
11205TIP3   OH233555   0.656   7.181   6.487
11205TIP3    H133556   0.746   7.163   6.514
11205TIP3    H233557   0.664   7.259   6.431
11206TIP3   OH233558   2.586   6.693   2.663
11206TIP3    H133559   2.576   6.788   2.655
11206TIP3    H233560   2.497   6.660   2.673
11207TIP3   OH233561   0.585   4.044   5.056
11207TIP3    H133562   0.667   4.013   5.017
11207TIP3    H233563   0.583   4.137   5.037
11208TIP3   OH233564   0.989   3.994   4.580
11208TIP3    H133565   0.947   4.018   4.498
11208TIP3    H233566   1.005   3.900   4.573
11209TIP3   OH233567   1.883   4.814   4.296
11209TIP3    H133568   1.847   4.900   4.277
11209TIP3    H233569   1.972   4.831   4.327
11210TIP3   OH233570   7.327   5.344   2.562
11210TIP3    H133571   7.269   5.359   2.636
11210TIP3    H233572   7.359   5.254   2.575
11211TIP3   OH233573   2.661   5.196   3.373
11211TIP3    H133574   2.599   5.142   3.423
11211TIP3    H233575   2.640   5.286   3.400
11212TIP3   OH233576   3.023   6.623   0.765
11212TIP3    H133577   3.080   6.611   0.841
11212TIP3    H233578   3.004   6.717   0.764
11213TIP3   OH233579   5.927   3.807   4.763
11213TIP3    H133580   5.875   3.750   4.707
11213TIP3    H233581   5.865   3.837   4.830
11214TIP3   OH233582   7.964   1.774   2.727
11214TIP3    H133583   8.055   1.746   2.736
11214TIP3    H233584   7.913   1.708   2.774
11215TIP3   OH233585   8.343   3.983   2.111
11215TIP3    H133586   8.309   3.913   2.166
11215TIP3    H233587   8.389   3.937   2.040
11216TIP3   OH233588   4.764   1.754   1.267
11216TIP3    H133589   4.708   1.722   1.197
11216TIP3    H233590   4.799   1.675   1.308
11217TIP3   OH233591   2.779   7.253   4.905
11217TIP3    H133592   2.770   7.162   4.931
11217TIP3    H233593   2.694   7.275   4.865
11218TIP3   OH233594   8.320   5.373   1.652
11218TIP3    H133595   8.360   5.289   1.630
11218TIP3    H233596   8.229   5.364   1.624
11219TIP3   OH233597   1.206   7.286   0.222
11219TIP3    H133598   1.277   7.223   0.230
11219TIP3    H233599   1.205   7.333   0.305
11220TIP3   OH233600   8.131   5.493   6.607
11220TIP3    H133601   8.151   5.446   6.526
11220TIP3    H233602   8.043   5.529   6.593
11221TIP3   OH233603   2.579   6.992   6.325
11221TIP3    H133604   2.522   7.068   6.311
11221TIP3    H233605   2.534   6.939   6.391
11222TIP3   OH233606   3.171   2.709   0.245
11222TIP3    H133607   3.090   2.667   0.216
11222TIP3    H233608   3.156   2.727   0.338
11223TIP3   OH233609   4.235   0.509   1.626
11223TIP3    H133610   4.306   0.473   1.571
11223TIP3    H233611   4.180   0.433   1.645
11224TIP3   OH233612   6.393   2.654   4.949
11224TIP3    H133613   6.361   2.620   4.865
11224TIP3    H233614   6.465   2.596   4.973
11225TIP3   OH233615   2.010   3.723   1.843
11225TIP3    H133616   2.044   3.789   1.904
11225TIP3    H233617   1.939   3.768   1.797
11226TIP3   OH233618   8.377   7.272   0.714
11226TIP3    H133619   8.437   7.198   0.702
11226TIP3    H233620   8.292   7.231   0.729
11227TIP3   OH233621   1.477   3.182   0.069
11227TIP3    H133622   1.474   3.092   0.100
11227TIP3    H233623   1.422   3.231   0.131
11228TIP3   OH233624   1.775   6.859   1.423
11228TIP3    H133625   1.759   6.935   1.368
11228TIP3    H233626   1.827   6.892   1.496
11229TIP3   OH233627   0.045   0.407   5.570
11229TIP3    H133628  -0.048   0.394   5.587
11229TIP3    H233629   0.089   0.368   5.645
11230TIP3   OH233630   6.570   1.104   6.496
11230TIP3    H133631   6.611   1.043   6.435
11230TIP3    H233632   6.477   1.101   6.473
11231TIP3   OH233633   2.633   6.337   3.675
11231TIP3    H133634   2.585   6.352   3.757
11231TIP3    H233635   2.617   6.245   3.655
11232TIP3   OH233636   6.127   1.345   4.582
11232TIP3    H133637   6.183   1.281   4.627
11232TIP3    H233638   6.188   1.413   4.552
11233TIP3   OH233639   3.834   1.556   6.637
11233TIP3    H133640   3.856   1.599   6.720
11233TIP3    H233641   3.844   1.463   6.655
11234TIP3   OH233642   4.343   2.397   6.125
11234TIP3    H133643   4.289   2.322   6.149
11234TIP3    H233644   4.288   2.473   6.145
11235TIP3   OH233645   5.723   7.222   0.207
11235TIP3    H133646   5.801   7.191   0.254
11235TIP3    H233647   5.742   7.202   0.115
11236TIP3   OH233648   2.315   4.550   5.077
11236TIP3    H133649   2.259   4.483   5.040
11236TIP3    H233650   2.403   4.525   5.051
11237TIP3   OH233651   7.758   6.928   2.611
11237TIP3    H133652   7.832   6.872   2.586
11237TIP3    H233653   7.799   7.010   2.640
11238TIP3   OH233654   4.107   2.174   2.596
11238TIP3    H133655   4.147   2.196   2.512
11238TIP3    H233656   4.094   2.079   2.593
11239TIP3   OH233657   5.170   4.834   4.510
11239TIP3    H133658   5.117   4.838   4.589
11239TIP3    H233659   5.110   4.861   4.440
11240TIP3   OH233660   1.435   3.248   2.623
11240TIP3    H133661   1.395   3.311   2.564
11240TIP3    H233662   1.361   3.205   2.666
11241TIP3   OH233663   1.821   6.681   3.997
11241TIP3    H133664   1.870   6.707   3.919
11241TIP3    H233665   1.744   6.737   3.997
11242TIP3   OH233666   2.422   2.545   0.986
11242TIP3    H133667   2.496   2.537   1.047
11242TIP3    H233668   2.445   2.618   0.930
11243TIP3   OH233669   3.233   1.516   3.728
11243TIP3    H133670   3.215   1.494   3.637
11243TIP3    H233671   3.149   1.507   3.773
11244TIP3   OH233672   4.712   1.524   5.592
11244TIP3    H133673   4.617   1.541   5.596
11244TIP3    H233674   4.742   1.577   5.517
11245TIP3   OH233675   2.326   6.854   1.367
11245TIP3    H133676   2.353   6.833   1.456
11245TIP3    H233677   2.406   6.880   1.322
11246TIP3   OH233678   1.611   2.105   4.813
11246TIP3    H133679   1.554   2.107   4.890
11246TIP3    H233680   1.555   2.139   4.742
11247TIP3   OH233681   4.739   0.099   0.571
11247TIP3    H133682   4.739   0.057   0.485
11247TIP3    H233683   4.735   0.026   0.633
11248TIP3   OH233684   4.677   5.717   0.548
11248TIP3    H133685   4.655   5.784   0.613
11248TIP3    H233686   4.772   5.723   0.537
11249TIP3   OH233687   5.311   2.190   2.607
11249TIP3    H133688   5.277   2.279   2.602
11249TIP3    H233689   5.235   2.135   2.626
11250TIP3   OH233690   2.055   1.659   5.417
11250TIP3    H133691   1.980   1.657   5.476
11250TIP3    H233692   2.107   1.583   5.442
11251TIP3   OH233693   0.544   7.489   0.941
11251TIP3    H133694   0.520   7.518   0.853
11251TIP3    H233695   0.490   7.542   0.999
11252TIP3   OH233696   0.991   2.501   2.857
11252TIP3    H133697   0.954   2.503   2.945
11252TIP3    H233698   1.084   2.515   2.870
11253TIP3   OH233699   7.036   5.827   0.437
11253TIP3    H133700   7.080   5.884   0.375
11253TIP3    H233701   7.082   5.841   0.520
11254TIP3   OH233702   5.474   7.504   0.909
11254TIP3    H133703   5.539   7.480   0.843
11254TIP3    H233704   5.526   7.540   0.982
11255TIP3   OH233705   4.597   0.514   6.463
11255TIP3    H133706   4.621   0.607   6.456
11255TIP3    H233707   4.681   0.468   6.464
11256TIP3   OH233708   1.851   5.067   4.186
11256TIP3    H133709   1.843   5.133   4.255
11256TIP3    H233710   1.778   5.085   4.126
11257TIP3   OH233711   0.776   6.227   1.842
11257TIP3    H133712   0.693   6.210   1.798
11257TIP3    H233713   0.767   6.184   1.927
11258TIP3   OH233714   3.226   2.471   0.788
11258TIP3    H133715   3.239   2.524   0.710
11258TIP3    H233716   3.180   2.392   0.757
11259TIP3   OH233717   2.578   1.834   0.717
11259TIP3    H133718   2.539   1.747   0.719
11259TIP3    H233719   2.546   1.873   0.636
11260TIP3   OH233720   6.273   7.811   6.624
11260TIP3    H133721   6.192   7.863   6.623
11260TIP3    H233722   6.305   7.817   6.534
11261TIP3   OH233723   7.554   4.358   6.212
11261TIP3    H133724   7.460   4.375   6.202
11261TIP3    H233725   7.596   4.422   6.156
11262TIP3   OH233726   0.006   1.732   5.023
11262TIP3    H133727   0.085   1.753   4.972
11262TIP3    H233728   0.021   1.774   5.107
11263TIP3   OH233729   5.101   7.500   4.210
11263TIP3    H133730   5.007   7.515   4.203
11263TIP3    H233731   5.130   7.558   4.280
11264TIP3   OH233732   6.214   0.297   2.232
11264TIP3    H133733   6.268   0.346   2.294
11264TIP3    H233734   6.268   0.290   2.153
11265TIP3   OH233735   0.693   6.764   1.776
11265TIP3    H133736   0.755   6.703   1.815
11265TIP3    H233737   0.696   6.841   1.832
11266TIP3   OH233738   2.762   6.540   1.262
11266TIP3    H133739   2.857   6.530   1.255
11266TIP3    H233740   2.739   6.496   1.343
11267TIP3   OH233741   4.898   4.835   0.626
11267TIP3    H133742   4.965   4.782   0.669
11267TIP3    H233743   4.936   4.856   0.540
11268TIP3   OH233744   0.960   7.830   4.630
11268TIP3    H133745   0.874   7.855   4.597
11268TIP3    H233746   0.991   7.763   4.568
11269TIP3   OH233747   6.293   6.418   4.974
11269TIP3    H133748   6.268   6.334   5.012
11269TIP3    H233749   6.216   6.473   4.987
11270TIP3   OH233750   8.076   6.182   6.402
11270TIP3    H133751   8.072   6.222   6.315
11270TIP3    H233752   8.102   6.254   6.460
11271TIP3   OH233753   3.059   5.335   6.739
11271TIP3    H133754   3.088   5.387   6.814
11271TIP3    H233755   2.978   5.294   6.768
11272TIP3   OH233756   3.551   4.901   4.887
11272TIP3    H133757   3.576   4.822   4.839
11272TIP3    H233758   3.602   4.897   4.968
11273TIP3   OH233759   1.318   1.281   0.935
11273TIP3    H133760   1.326   1.317   0.847
11273TIP3    H233761   1.224   1.266   0.947
11274TIP3   OH233762   3.071   0.940   4.720
11274TIP3    H133763   3.047   0.857   4.761
11274TIP3    H233764   3.133   0.915   4.651
11275TIP3   OH233765   2.620   1.421   3.561
11275TIP3    H133766   2.556   1.443   3.494
11275TIP3    H233767   2.705   1.434   3.518
11276TIP3   OH233768   1.736   3.459   1.184
11276TIP3    H133769   1.670   3.505   1.133
11276TIP3    H233770   1.742   3.507   1.267
11277TIP3   OH233771   1.295   1.246   1.635
11277TIP3    H133772   1.377   1.273   1.676
11277TIP3    H233773   1.243   1.210   1.707
11278TIP3   OH233774   4.345   1.068   5.304
11278TIP3    H133775   4.319   1.103   5.218
11278TIP3    H233776   4.310   0.979   5.305
11279TIP3   OH233777   3.463   7.273   6.119
11279TIP3    H133778   3.385   7.226   6.148
11279TIP3    H233779   3.533   7.207   6.122
11280TIP3   OH233780   0.205   6.919   5.427
11280TIP3    H133781   0.190   6.892   5.517
11280TIP3    H233782   0.129   6.971   5.404
11281TIP3   OH233783   0.900   1.584   2.426
11281TIP3    H133784   0.895   1.509   2.367
11281TIP3    H233785   0.834   1.566   2.493
11282TIP3   OH233786   5.973   3.693   2.347
11282TIP3    H133787   6.003   3.781   2.372
11282TIP3    H233788   5.888   3.708   2.306
11283TIP3   OH233789   3.684   1.063   4.400
11283TIP3    H133790   3.705   1.004   4.472
11283TIP3    H233791   3.625   1.013   4.344
11284TIP3   OH233792   3.892   6.365   5.909
11284TIP3    H133793   3.890   6.459   5.924
11284TIP3    H233794   3.850   6.327   5.986
11285TIP3   OH233795   1.141   2.852   2.510
11285TIP3    H133796   1.165   2.944   2.513
11285TIP3    H233797   1.048   2.851   2.487
11286TIP3   OH233798   2.384   4.615   2.342
11286TIP3    H133799   2.438   4.647   2.414
11286TIP3    H233800   2.314   4.566   2.385
11287TIP3   OH233801   7.897   2.085   1.045
11287TIP3    H133802   7.971   2.056   0.991
11287TIP3    H233803   7.891   2.020   1.115
11288TIP3   OH233804   6.051   2.911   5.215
11288TIP3    H133805   6.146   2.901   5.214
11288TIP3    H233806   6.019   2.844   5.155
11289TIP3   OH233807   7.863   4.927   3.291
11289TIP3    H133808   7.943   4.965   3.254
11289TIP3    H233809   7.889   4.839   3.318
11290TIP3   OH233810   6.881   2.477   2.813
11290TIP3    H133811   6.949   2.514   2.757
11290TIP3    H233812   6.928   2.436   2.886
11291TIP3   OH233813   0.282   4.672   5.586
11291TIP3    H133814   0.357   4.645   5.640
11291TIP3    H233815   0.316   4.744   5.533
11292TIP3   OH233816   1.523   1.081   2.957
11292TIP3    H133817   1.535   1.108   3.048
11292TIP3    H233818   1.491   1.160   2.913
11293TIP3   OH233819   0.489   7.318   6.670
11293TIP3    H133820   0.508   7.411   6.664
11293TIP3    H233821   0.536   7.279   6.596
11294TIP3   OH233822   1.013   5.777   3.128
11294TIP3    H133823   1.061   5.767   3.211
11294TIP3    H233824   0.929   5.815   3.154
11295TIP3   OH233825   3.539   2.988   4.773
11295TIP3    H133826   3.549   3.075   4.734
11295TIP3    H233827   3.444   2.975   4.779
11296TIP3   OH233828   8.371   1.647   6.420
11296TIP3    H133829   8.320   1.611   6.347
11296TIP3    H233830   8.311   1.647   6.494
11297TIP3   OH233831   6.936   4.156   4.299
11297TIP3    H133832   6.980   4.089   4.246
11297TIP3    H233833   6.993   4.232   4.293
11298TIP3   OH233834   4.126   4.808   0.185
11298TIP3    H133835   4.161   4.823   0.097
11298TIP3    H233836   4.120   4.896   0.223
11299TIP3   OH233837   2.237   2.089   3.596
11299TIP3    H133838   2.238   2.025   3.525
11299TIP3    H233839   2.163   2.063   3.651
11300TIP3   OH233840   3.613   6.111   0.800
11300TIP3    H133841   3.621   6.069   0.714
11300TIP3    H233842   3.522   6.097   0.825
11301TIP3   OH233843   2.196   3.207   4.712
11301TIP3    H133844   2.223   3.260   4.787
11301TIP3    H233845   2.242   3.124   4.723
11302TIP3   OH233846   2.460   3.169   5.042
11302TIP3    H133847   2.458   3.230   4.967
11302TIP3    H233848   2.425   3.087   5.007
11303TIP3   OH233849   4.778   6.901   0.284
11303TIP3    H133850   4.736   6.891   0.370
11303TIP3    H233851   4.760   6.819   0.239
11304TIP3   OH233852   0.090   2.613   0.497
11304TIP3    H133853   0.145   2.632   0.421
11304TIP3    H233854   0.031   2.544   0.466
11305TIP3   OH233855   7.752   0.872   2.651
11305TIP3    H133856   7.841   0.906   2.645
11305TIP3    H233857   7.732   0.874   2.745
11306TIP3   OH233858   1.608   0.749   5.748
11306TIP3    H133859   1.689   0.776   5.792
11306TIP3    H233860   1.538   0.779   5.806
11307TIP3   OH233861   2.211   1.535   4.517
11307TIP3    H133862   2.120   1.560   4.535
11307TIP3    H233863   2.247   1.606   4.465
11308TIP3   OH233864   3.821   3.801   0.284
11308TIP3    H133865   3.777   3.828   0.365
11308TIP3    H233866   3.891   3.864   0.273
11309TIP3   OH233867   1.408   0.904   2.688
11309TIP3    H133868   1.494   0.863   2.682
11309TIP3    H233869   1.346   0.831   2.688
11310TIP3   OH233870   4.530   4.376   2.542
11310TIP3    H133871   4.464   4.368   2.611
11310TIP3    H233872   4.570   4.289   2.537
11311TIP3   OH233873   3.721   4.944   1.791
11311TIP3    H133874   3.721   4.851   1.767
11311TIP3    H233875   3.812   4.971   1.782
11312TIP3   OH233876   8.394   1.450   2.593
11312TIP3    H133877   8.370   1.371   2.641
11312TIP3    H233878   8.476   1.478   2.633
11313TIP3   OH233879   2.436   3.596   1.683
11313TIP3    H133880   2.510   3.537   1.667
11313TIP3    H233881   2.457   3.637   1.767
11314TIP3   OH233882   3.594   0.299   6.492
11314TIP3    H133883   3.673   0.279   6.543
11314TIP3    H233884   3.626   0.320   6.405
11315TIP3   OH233885   3.329   3.505   1.590
11315TIP3    H133886   3.395   3.574   1.592
11315TIP3    H233887   3.339   3.465   1.503
11316TIP3   OH233888   6.442   3.872   4.618
11316TIP3    H133889   6.445   3.959   4.658
11316TIP3    H233890   6.351   3.843   4.630
11317TIP3   OH233891   5.785   7.023   1.322
11317TIP3    H133892   5.818   7.096   1.374
11317TIP3    H233893   5.854   6.957   1.325
11318TIP3   OH233894   1.829   6.327   6.623
11318TIP3    H133895   1.913   6.362   6.592
11318TIP3    H233896   1.844   6.232   6.628
11319TIP3   OH233897   4.826   1.131   3.180
11319TIP3    H133898   4.811   1.195   3.249
11319TIP3    H233899   4.786   1.050   3.213
11320TIP3   OH233900   7.674   3.150   6.565
11320TIP3    H133901   7.665   3.234   6.520
11320TIP3    H233902   7.585   3.128   6.593
11321TIP3   OH233903   7.978   3.235   1.382
11321TIP3    H133904   8.060   3.200   1.348
11321TIP3    H233905   7.930   3.158   1.414
11322TIP3   OH233906   0.012   7.912   3.246
11322TIP3    H133907   0.062   7.832   3.234
11322TIP3    H233908   0.069   7.969   3.297
11323TIP3   OH233909   7.575   0.628   0.320
11323TIP3    H133910   7.642   0.575   0.276
11323TIP3    H233911   7.496   0.615   0.267
11324TIP3   OH233912   1.202   0.925   6.140
11324TIP3    H133913   1.257   0.970   6.204
11324TIP3    H233914   1.188   0.838   6.177
11325TIP3   OH233915   4.120   0.061   0.503
11325TIP3    H133916   4.090   0.131   0.445
11325TIP3    H233917   4.215   0.066   0.501
11326TIP3   OH233918   5.562   0.080   5.743
11326TIP3    H133919   5.656   0.061   5.749
11326TIP3    H233920   5.548   0.098   5.650
11327TIP3   OH233921   6.279   4.397   0.412
11327TIP3    H133922   6.257   4.340   0.486
11327TIP3    H233923   6.263   4.342   0.335
11328TIP3   OH233924   2.833   4.774   0.914
11328TIP3    H133925   2.878   4.789   0.830
11328TIP3    H233926   2.745   4.746   0.889
11329TIP3   OH233927   7.437   6.642   0.245
11329TIP3    H133928   7.385   6.622   0.167
11329TIP3    H233929   7.528   6.644   0.213
11330TIP3   OH233930   2.197   2.726   1.687
11330TIP3    H133931   2.235   2.809   1.658
11330TIP3    H233932   2.146   2.749   1.765
11331TIP3   OH233933   0.191   2.112   5.987
11331TIP3    H133934   0.136   2.049   6.034
11331TIP3    H233935   0.208   2.181   6.050
11332TIP3   OH233936   3.661   7.508   1.022
11332TIP3    H133937   3.681   7.507   1.116
11332TIP3    H233938   3.670   7.417   0.995
11333TIP3   OH233939   7.774   3.006   2.059
11333TIP3    H133940   7.732   3.085   2.025
11333TIP3    H233941   7.857   3.000   2.012
11334TIP3   OH233942   2.816   6.061   3.302
11334TIP3    H133943   2.728   6.098   3.312
11334TIP3    H233944   2.864   6.093   3.379
11335TIP3   OH233945   4.926   2.887   1.458
11335TIP3    H133946   4.946   2.948   1.529
11335TIP3    H233947   4.957   2.931   1.379
11336TIP3   OH233948   0.360   6.022   1.793
11336TIP3    H133949   0.353   6.012   1.888
11336TIP3    H233950   0.325   5.940   1.758
11337TIP3   OH233951   6.361   3.776   3.584
11337TIP3    H133952   6.309   3.768   3.504
11337TIP3    H233953   6.419   3.700   3.583
11338TIP3   OH233954   5.245   0.986   6.316
11338TIP3    H133955   5.212   1.074   6.332
11338TIP3    H233956   5.327   0.981   6.365
11339TIP3   OH233957   1.609   1.672   6.479
11339TIP3    H133958   1.541   1.645   6.541
11339TIP3    H233959   1.561   1.690   6.398
11340TIP3   OH233960   1.242   6.824   3.182
11340TIP3    H133961   1.270   6.737   3.209
11340TIP3    H233962   1.206   6.812   3.094
11341TIP3   OH233963   6.890   1.890   4.861
11341TIP3    H133964   6.928   1.848   4.785
11341TIP3    H233965   6.889   1.983   4.840
11342TIP3   OH233966   0.792   5.944   1.676
11342TIP3    H133967   0.821   5.995   1.601
11342TIP3    H233968   0.721   5.890   1.642
11343TIP3   OH233969   8.081   5.847   5.192
11343TIP3    H133970   8.048   5.864   5.104
11343TIP3    H233971   8.130   5.765   5.184
11344TIP3   OH233972   2.471   0.473   0.193
11344TIP3    H133973   2.392   0.451   0.144
11344TIP3    H233974   2.491   0.394   0.243
11345TIP3   OH233975   6.629   0.227   1.576
11345TIP3    H133976   6.645   0.133   1.572
11345TIP3    H233977   6.697   0.265   1.520
11346TIP3   OH233978   6.045   6.762   0.290
11346TIP3    H133979   6.081   6.689   0.340
11346TIP3    H233980   5.960   6.779   0.332
11347TIP3   OH233981   2.921   0.781   0.964
11347TIP3    H133982   2.880   0.822   0.888
11347TIP3    H233983   3.014   0.779   0.943
11348TIP3   OH233984   1.326   6.663   6.649
11348TIP3    H133985   1.297   6.626   6.733
11348TIP3    H233986   1.341   6.756   6.668
11349TIP3   OH233987   7.660   6.731   1.311
11349TIP3    H133988   7.659   6.796   1.241
11349TIP3    H233989   7.581   6.679   1.297
11350TIP3   OH233990   7.312   3.790   0.871
11350TIP3    H133991   7.354   3.805   0.955
11350TIP3    H233992   7.219   3.802   0.888
11351TIP3   OH233993   3.635   5.461   3.118
11351TIP3    H133994   3.562   5.440   3.177
11351TIP3    H233995   3.674   5.376   3.096
11352TIP3   OH233996   7.139   5.389   2.308
11352TIP3    H133997   7.167   5.405   2.218
11352TIP3    H233998   7.141   5.293   2.317
11353TIP3   OH233999   8.157   1.355   0.499
11353TIP3    H134000   8.072   1.394   0.478
11353TIP3    H234001   8.197   1.339   0.413
11354TIP3   OH234002   8.273   3.527   1.262
11354TIP3    H134003   8.178   3.540   1.262
11354TIP3    H234004   8.296   3.521   1.169
11355TIP3   OH234005   2.759   7.261   2.869
11355TIP3    H134006   2.757   7.168   2.847
11355TIP3    H234007   2.830   7.270   2.932
11356TIP3   OH234008   8.144   0.599   5.481
11356TIP3    H134009   8.154   0.532   5.548
11356TIP3    H234010   8.231   0.640   5.475
11357TIP3   OH234011   7.190   7.495   5.343
11357TIP3    H134012   7.232   7.540   5.271
11357TIP3    H234013   7.213   7.546   5.421
11358TIP3   OH234014   6.820   4.666   2.384
11358TIP3    H134015   6.754   4.735   2.382
11358TIP3    H234016   6.794   4.606   2.314
11359TIP3   OH234017   3.463   7.236   4.447
11359TIP3    H134018   3.385   7.269   4.490
11359TIP3    H234019   3.431   7.186   4.372
11360TIP3   OH234020   0.315   1.782   1.669
11360TIP3    H134021   0.252   1.719   1.633
11360TIP3    H234022   0.291   1.789   1.762
11361TIP3   OH234023   6.876   5.642   0.004
11361TIP3    H134024   6.916   5.661   0.089
11361TIP3    H234025   6.814   5.571   0.021
11362TIP3   OH234026   7.369   7.327   5.478
11362TIP3    H134027   7.324   7.384   5.416
11362TIP3    H234028   7.299   7.296   5.537
11363TIP3   OH234029   1.373   5.215   0.962
11363TIP3    H134030   1.415   5.245   1.042
11363TIP3    H234031   1.309   5.283   0.942
11364TIP3   OH234032   6.564   1.441   5.629
11364TIP3    H134033   6.492   1.496   5.659
11364TIP3    H234034   6.532   1.351   5.641
11365TIP3   OH234035   4.407   1.166   0.616
11365TIP3    H134036   4.466   1.093   0.633
11365TIP3    H234037   4.439   1.237   0.673
11366TIP3   OH234038   3.749   5.809   3.990
11366TIP3    H134039   3.680   5.773   3.934
11366TIP3    H234040   3.723   5.786   4.079
11367TIP3   OH234041   2.141   5.609   2.195
11367TIP3    H134042   2.175   5.698   2.193
11367TIP3    H234043   2.209   5.559   2.242
11368TIP3   OH234044   5.647   1.397   3.481
11368TIP3    H134045   5.617   1.483   3.455
11368TIP3    H234046   5.703   1.412   3.557
11369TIP3   OH234047   7.793   3.430   3.016
11369TIP3    H134048   7.820   3.377   2.941
11369TIP3    H234049   7.698   3.422   3.019
11370TIP3   OH234050   5.549   2.419   6.349
11370TIP3    H134051   5.561   2.461   6.264
11370TIP3    H234052   5.530   2.327   6.327
11371TIP3   OH234053   3.365   7.248   2.724
11371TIP3    H134054   3.320   7.311   2.668
11371TIP3    H234055   3.455   7.246   2.691
11372TIP3   OH234056   3.302   7.047   6.184
11372TIP3    H134057   3.368   6.981   6.203
11372TIP3    H234058   3.220   7.010   6.216
11373TIP3   OH234059   2.342   6.064   6.001
11373TIP3    H134060   2.413   6.060   5.936
11373TIP3    H234061   2.356   5.987   6.056
11374TIP3   OH234062   4.888   7.635   3.501
11374TIP3    H134063   4.944   7.646   3.425
11374TIP3    H234064   4.923   7.695   3.567
11375TIP3   OH234065   8.120   2.762   2.168
11375TIP3    H134066   8.120   2.835   2.107
11375TIP3    H234067   8.050   2.782   2.230
11376TIP3   OH234068   3.008   1.833   3.894
11376TIP3    H134069   3.095   1.831   3.934
11376TIP3    H234070   3.025   1.832   3.800
11377TIP3   OH234071   4.891   6.484   4.439
11377TIP3    H134072   4.820   6.480   4.502
11377TIP3    H234073   4.962   6.435   4.479
11378TIP3   OH234074   2.943   6.174   3.518
11378TIP3    H134075   2.933   6.159   3.612
11378TIP3    H234076   3.035   6.198   3.508
11379TIP3   OH234077   7.409   3.118   6.632
11379TIP3    H134078   7.407   3.105   6.727
11379TIP3    H234079   7.357   3.196   6.617
11380TIP3   OH234080   2.494   1.245   4.835
11380TIP3    H134081   2.405   1.226   4.806
11380TIP3    H234082   2.490   1.334   4.868
11381TIP3   OH234083   0.906   0.232   3.431
11381TIP3    H134084   0.973   0.223   3.363
11381TIP3    H234085   0.836   0.172   3.403
11382TIP3   OH234086   7.477   6.402   3.647
11382TIP3    H134087   7.390   6.398   3.685
11382TIP3    H234088   7.524   6.465   3.702
11383TIP3   OH234089   6.052   2.808   3.993
11383TIP3    H134090   6.085   2.884   3.947
11383TIP3    H234091   6.112   2.737   3.969
11384TIP3   OH234092   1.081   3.560   2.747
11384TIP3    H134093   1.009   3.547   2.685
11384TIP3    H234094   1.079   3.654   2.766
11385TIP3   OH234095   4.528   4.515   1.514
11385TIP3    H134096   4.560   4.496   1.426
11385TIP3    H234097   4.575   4.593   1.541
11386TIP3   OH234098   0.394   0.153   3.119
11386TIP3    H134099   0.404   0.231   3.173
11386TIP3    H234100   0.308   0.118   3.143
11387TIP3   OH234101   2.340   5.790   1.463
11387TIP3    H134102   2.362   5.740   1.385
11387TIP3    H234103   2.248   5.813   1.453
11388TIP3   OH234104   6.667   5.940   4.920
11388TIP3    H134105   6.593   5.993   4.951
11388TIP3    H234106   6.744   5.992   4.940
11389TIP3   OH234107   0.970   6.440   4.708
11389TIP3    H134108   0.943   6.476   4.623
11389TIP3    H234109   1.065   6.434   4.702
11390TIP3   OH234110   4.273   2.459   2.121
11390TIP3    H134111   4.229   2.476   2.038
11390TIP3    H234112   4.322   2.378   2.106
11391TIP3   OH234113   3.191   0.062   4.011
11391TIP3    H134114   3.138   0.141   4.012
11391TIP3    H234115   3.273   0.089   3.971
11392TIP3   OH234116   1.576   4.277   4.078
11392TIP3    H134117   1.604   4.195   4.037
11392TIP3    H234118   1.498   4.303   4.028
11393TIP3   OH234119   6.080   2.724   5.434
11393TIP3    H134120   6.155   2.748   5.379
11393TIP3    H234121   6.111   2.737   5.524
11394TIP3   OH234122   8.263   4.661   5.085
11394TIP3    H134123   8.276   4.572   5.053
11394TIP3    H234124   8.188   4.654   5.145
11395TIP3   OH234125   8.239   6.998   1.306
11395TIP3    H134126   8.164   7.022   1.360
11395TIP3    H234127   8.279   6.925   1.352
11396TIP3   OH234128   7.164   3.351   0.416
11396TIP3    H134129   7.158   3.368   0.322
11396TIP3    H234130   7.170   3.255   0.422
11397TIP3   OH234131   6.042   7.907   5.250
11397TIP3    H134132   5.989   7.852   5.308
11397TIP3    H234133   6.072   7.978   5.306
11398TIP3   OH234134   2.127   0.055   2.312
11398TIP3    H134135   2.160   0.022   2.395
11398TIP3    H234136   2.034   0.031   2.312
11399TIP3   OH234137   5.572   4.319   3.380
11399TIP3    H134138   5.527   4.404   3.389
11399TIP3    H234139   5.511   4.266   3.328
11400TIP3   OH234140   7.539   0.008   2.494
11400TIP3    H134141   7.539   0.042   2.404
11400TIP3    H234142   7.539   0.086   2.549
11401TIP3   OH234143   1.832   1.790   4.579
11401TIP3    H134144   1.757   1.837   4.614
11401TIP3    H234145   1.878   1.855   4.524
11402TIP3   OH234146   6.132   2.819   6.674
11402TIP3    H134147   6.091   2.766   6.742
11402TIP3    H234148   6.189   2.880   6.721
11403TIP3   OH234149   0.022   7.905   6.843
11403TIP3    H134150   0.035   7.926   6.935
11403TIP3    H234151  -0.068   7.931   6.824
11404TIP3   OH234152   2.091   7.324   2.902
11404TIP3    H134153   2.051   7.390   2.846
11404TIP3    H234154   2.039   7.245   2.887
11405TIP3   OH234155   0.506   4.590   0.369
11405TIP3    H134156   0.593   4.553   0.353
11405TIP3    H234157   0.446   4.518   0.350
11406TIP3   OH234158   5.746   7.507   3.989
11406TIP3    H134159   5.665   7.457   3.979
11406TIP3    H234160   5.796   7.457   4.054
11407TIP3   OH234161   5.604   3.995   5.817
11407TIP3    H134162   5.577   4.087   5.818
11407TIP3    H234163   5.601   3.969   5.909
11408TIP3   OH234164   3.620   7.740   3.972
11408TIP3    H134165   3.527   7.752   3.986
11408TIP3    H234166   3.645   7.811   3.912
11409TIP3   OH234167   6.561   3.966   3.376
11409TIP3    H134168   6.549   3.973   3.471
11409TIP3    H234169   6.557   4.057   3.345
11410TIP3   OH234170   3.418   2.818   5.478
11410TIP3    H134171   3.326   2.833   5.457
11410TIP3    H234172   3.464   2.836   5.396
11411TIP3   OH234173   6.112   1.032   0.083
11411TIP3    H134174   6.073   1.078   0.158
11411TIP3    H234175   6.201   1.012   0.112
11412TIP3   OH234176   8.157   2.459   5.412
11412TIP3    H134177   8.207   2.520   5.465
11412TIP3    H234178   8.104   2.515   5.355
11413TIP3   OH234179   2.160   3.109   5.191
11413TIP3    H134180   2.236   3.051   5.197
11413TIP3    H234181   2.099   3.075   5.257
11414TIP3   OH234182   8.157   4.533   2.912
11414TIP3    H134183   8.244   4.512   2.878
11414TIP3    H234184   8.163   4.516   3.006
11415TIP3   OH234185   1.854   6.163   5.591
11415TIP3    H134186   1.950   6.156   5.594
11415TIP3    H234187   1.837   6.208   5.508
11416TIP3   OH234188   0.458   6.700   2.123
11416TIP3    H134189   0.450   6.794   2.142
11416TIP3    H234190   0.374   6.663   2.151
11417TIP3   OH234191   2.519   4.446   5.956
11417TIP3    H134192   2.430   4.459   5.990
11417TIP3    H234193   2.571   4.424   6.033
11418TIP3   OH234194   7.367   0.437   0.467
11418TIP3    H134195   7.417   0.518   0.479
11418TIP3    H234196   7.407   0.396   0.391
11419TIP3   OH234197   4.460   2.541   3.254
11419TIP3    H134198   4.449   2.497   3.170
11419TIP3    H234199   4.444   2.634   3.234
11420TIP3   OH234200   2.096   1.856   4.094
11420TIP3    H134201   2.140   1.835   4.012
11420TIP3    H234202   2.112   1.950   4.106
11421TIP3   OH234203   7.523   6.237   6.358
11421TIP3    H134204   7.427   6.231   6.357
11421TIP3    H234205   7.541   6.317   6.408
11422TIP3   OH234206   7.363   1.508   1.861
11422TIP3    H134207   7.415   1.587   1.846
11422TIP3    H234208   7.318   1.526   1.944
11423TIP3   OH234209   1.133   3.916   5.784
11423TIP3    H134210   1.193   3.842   5.778
11423TIP3    H234211   1.127   3.950   5.694
11424TIP3   OH234212   0.702   4.538   0.009
11424TIP3    H134213   0.711   4.626   0.043
11424TIP3    H234214   0.786   4.496   0.029
11425TIP3   OH234215   0.159   7.659   1.754
11425TIP3    H134216   0.155   7.564   1.761
11425TIP3    H234217   0.089   7.683   1.694
11426TIP3   OH234218   6.661   0.114   2.603
11426TIP3    H134219   6.712   0.153   2.674
11426TIP3    H234220   6.572   0.147   2.616
11427TIP3   OH234221   3.523   1.166   2.766
11427TIP3    H134222   3.482   1.194   2.684
11427TIP3    H234223   3.567   1.245   2.798
11428TIP3   OH234224   7.601   5.309   4.529
11428TIP3    H134225   7.685   5.276   4.560
11428TIP3    H234226   7.571   5.367   4.599
11429TIP3   OH234227   1.973   3.278   0.023
11429TIP3    H134228   1.921   3.357   0.038
11429TIP3    H234229   1.941   3.215   0.088
11430TIP3   OH234230   7.740   4.045   2.584
11430TIP3    H134231   7.752   3.981   2.514
11430TIP3    H234232   7.664   4.013   2.633
11431TIP3   OH234233   6.856   4.879   4.309
11431TIP3    H134234   6.951   4.882   4.301
11431TIP3    H234235   6.826   4.961   4.269
11432TIP3   OH234236   5.738   5.795   1.116
11432TIP3    H134237   5.725   5.880   1.157
11432TIP3    H234238   5.788   5.813   1.036
11433TIP3   OH234239   4.977   4.806   2.737
11433TIP3    H134240   5.072   4.795   2.745
11433TIP3    H234241   4.946   4.720   2.707
11434TIP3   OH234242   5.270   2.014   4.938
11434TIP3    H134243   5.243   2.090   4.887
11434TIP3    H234244   5.190   1.984   4.981
11435TIP3   OH234245   2.434   5.587   1.278
11435TIP3    H134246   2.466   5.500   1.303
11435TIP3    H234247   2.514   5.637   1.260
11436TIP3   OH234248   0.473   5.318   0.206
11436TIP3    H134249   0.522   5.269   0.272
11436TIP3    H234250   0.419   5.380   0.256
11437TIP3   OH234251   5.809   5.774   3.252
11437TIP3    H134252   5.792   5.765   3.346
11437TIP3    H234253   5.828   5.685   3.223
11438TIP3   OH234254   6.329   5.203   3.283
11438TIP3    H134255   6.259   5.138   3.276
11438TIP3    H234256   6.390   5.181   3.214
11439TIP3   OH234257   6.991   4.027   3.966
11439TIP3    H134258   7.045   3.975   4.025
11439TIP3    H234259   7.025   4.116   3.973
11440TIP3   OH234260   6.455   4.469   1.109
11440TIP3    H134261   6.382   4.487   1.168
11440TIP3    H234262   6.433   4.386   1.067
11441TIP3   OH234263   1.786   2.172   5.313
11441TIP3    H134264   1.867   2.216   5.289
11441TIP3    H234265   1.803   2.079   5.296
11442TIP3   OH234266   6.119   0.826   0.838
11442TIP3    H134267   6.108   0.778   0.920
11442TIP3    H234268   6.108   0.918   0.862
11443TIP3   OH234269   6.371   7.216   6.129
11443TIP3    H134270   6.292   7.177   6.166
11443TIP3    H234271   6.368   7.192   6.036
11444TIP3   OH234272   0.305   6.425   0.140
11444TIP3    H134273   0.342   6.416   0.228
11444TIP3    H234274   0.294   6.336   0.109
11445TIP3   OH234275   8.259   1.472   5.961
11445TIP3    H134276   8.334   1.468   5.902
11445TIP3    H234277   8.183   1.453   5.905
11446TIP3   OH234278   6.513   1.622   6.500
11446TIP3    H134279   6.458   1.548   6.528
11446TIP3    H234280   6.462   1.699   6.523
11447TIP3   OH234281   1.825   7.702   4.886
11447TIP3    H134282   1.811   7.735   4.974
11447TIP3    H234283   1.848   7.610   4.898
11448TIP3   OH234284   2.789   2.146   2.988
11448TIP3    H134285   2.781   2.202   3.065
11448TIP3    H234286   2.884   2.143   2.971
11449TIP3   OH234287   5.843   7.025   6.252
11449TIP3    H134288   5.789   6.972   6.193
11449TIP3    H234289   5.780   7.077   6.303
11450TIP3   OH234290   2.722   6.629   0.664
11450TIP3    H134291   2.726   6.546   0.616
11450TIP3    H234292   2.797   6.626   0.724
11451TIP3   OH234293   7.383   3.704   1.351
11451TIP3    H134294   7.399   3.618   1.311
11451TIP3    H234295   7.382   3.686   1.445
11452TIP3   OH234296   2.569   0.743   2.573
11452TIP3    H134297   2.645   0.685   2.580
11452TIP3    H234298   2.602   0.821   2.529
11453TIP3   OH234299   7.965   5.899   4.908
11453TIP3    H134300   7.926   5.985   4.895
11453TIP3    H234301   8.058   5.911   4.888
11454TIP3   OH234302   7.710   4.129   0.769
11454TIP3    H134303   7.669   4.196   0.714
11454TIP3    H234304   7.649   4.056   0.767
11455TIP3   OH234305   1.749   1.269   0.887
11455TIP3    H134306   1.674   1.226   0.926
11455TIP3    H234307   1.711   1.332   0.826
11456TIP3   OH234308   6.450   3.371   3.517
11456TIP3    H134309   6.519   3.374   3.451
11456TIP3    H234310   6.474   3.439   3.580
11457TIP3   OH234311   0.946   6.867   1.652
11457TIP3    H134312   0.894   6.793   1.684
11457TIP3    H234313   0.961   6.847   1.560
11458TIP3   OH234314   1.725   2.494   4.952
11458TIP3    H134315   1.656   2.557   4.930
11458TIP3    H234316   1.727   2.492   5.047
11459TIP3   OH234317   4.262   5.707   0.554
11459TIP3    H134318   4.302   5.787   0.589
11459TIP3    H234319   4.307   5.691   0.472
11460TIP3   OH234320   7.577   0.844   4.239
11460TIP3    H134321   7.593   0.905   4.311
11460TIP3    H234322   7.660   0.843   4.190
11461TIP3   OH234323   4.687   2.872   6.044
11461TIP3    H134324   4.652   2.830   5.965
11461TIP3    H234325   4.619   2.860   6.109
11462TIP3   OH234326   1.803   1.489   0.098
11462TIP3    H134327   1.848   1.418   0.052
11462TIP3    H234328   1.855   1.503   0.177
11463TIP3   OH234329   8.203   2.650   1.221
11463TIP3    H134330   8.267   2.702   1.171
11463TIP3    H234331   8.167   2.588   1.157
11464TIP3   OH234332   2.699   2.681   4.662
11464TIP3    H134333   2.756   2.754   4.639
11464TIP3    H234334   2.740   2.605   4.621
11465TIP3   OH234335   4.453   3.367   3.511
11465TIP3    H134336   4.455   3.285   3.561
11465TIP3    H234337   4.373   3.411   3.539
11466TIP3   OH234338   8.067   3.033   1.114
11466TIP3    H134339   8.127   3.104   1.091
11466TIP3    H234340   8.070   2.974   1.039
11467TIP3   OH234341   6.671   3.621   6.805
11467TIP3    H134342   6.656   3.530   6.831
11467TIP3    H234343   6.743   3.650   6.860
11468TIP3   OH234344   6.279   2.946   0.069
11468TIP3    H134345   6.254   2.889  -0.004
11468TIP3    H234346   6.259   3.034   0.039
11469TIP3   OH234347   7.635   3.414   1.699
11469TIP3    H134348   7.682   3.498   1.700
11469TIP3    H234349   7.543   3.438   1.689
11470TIP3   OH234350   5.880   2.910   0.151
11470TIP3    H134351   5.962   2.861   0.152
11470TIP3    H234352   5.814   2.847   0.182
11471TIP3   OH234353   5.395   6.975   3.948
11471TIP3    H134354   5.423   6.978   4.040
11471TIP3    H234355   5.466   7.018   3.900
11472TIP3   OH234356   7.340   0.035   6.332
11472TIP3    H134357   7.303   0.124   6.326
11472TIP3    H234358   7.344   0.005   6.241
11473TIP3   OH234359   5.149   0.509   5.034
11473TIP3    H134360   5.096   0.583   5.065
11473TIP3    H234361   5.196   0.544   4.958
11474TIP3   OH234362   4.440   3.381   0.929
11474TIP3    H134363   4.447   3.476   0.942
11474TIP3    H234364   4.376   3.353   0.993
11475TIP3   OH234365   6.496   6.972   0.831
11475TIP3    H134366   6.454   6.994   0.914
11475TIP3    H234367   6.580   7.018   0.834
11476TIP3   OH234368   5.556   4.670   5.344
11476TIP3    H134369   5.486   4.620   5.385
11476TIP3    H234370   5.594   4.609   5.280
11477TIP3   OH234371   0.378   6.377   2.256
11477TIP3    H134372   0.390   6.283   2.242
11477TIP3    H234373   0.454   6.404   2.307
11478TIP3   OH234374   8.094   3.986   0.433
11478TIP3    H134375   8.106   4.004   0.339
11478TIP3    H234376   8.004   4.015   0.451
11479TIP3   OH234377   4.626   6.197   5.254
11479TIP3    H134378   4.562   6.255   5.212
11479TIP3    H234379   4.584   6.111   5.255
11480TIP3   OH234380   3.098   1.269   6.031
11480TIP3    H134381   3.123   1.278   5.939
11480TIP3    H234382   3.179   1.289   6.080
11481TIP3   OH234383   8.160   5.807   6.056
11481TIP3    H134384   8.148   5.901   6.049
11481TIP3    H234385   8.072   5.771   6.059
11482TIP3   OH234386   0.715   7.014   1.948
11482TIP3    H134387   0.808   7.028   1.930
11482TIP3    H234388   0.682   7.101   1.969
11483TIP3   OH234389   6.301   5.920   5.736
11483TIP3    H134390   6.395   5.903   5.740
11483TIP3    H234391   6.262   5.850   5.789
11484TIP3   OH234392   4.529   0.432   2.039
11484TIP3    H134393   4.468   0.393   1.977
11484TIP3    H234394   4.474   0.466   2.110
11485TIP3   OH234395   7.106   1.224   4.189
11485TIP3    H134396   7.111   1.316   4.162
11485TIP3    H234397   7.195   1.204   4.220
11486TIP3   OH234398   1.496   6.021   2.980
11486TIP3    H134399   1.417   6.055   2.939
11486TIP3    H234400   1.550   5.991   2.907
11487TIP3   OH234401   1.458   0.269   3.222
11487TIP3    H134402   1.534   0.263   3.280
11487TIP3    H234403   1.477   0.345   3.166
11488TIP3   OH234404   2.544   6.150   6.723
11488TIP3    H134405   2.563   6.172   6.814
11488TIP3    H234406   2.448   6.156   6.716
11489TIP3   OH234407   0.195   4.532   0.812
11489TIP3    H134408   0.133   4.460   0.802
11489TIP3    H234409   0.274   4.502   0.768
11490TIP3   OH234410   0.641   0.572   1.623
11490TIP3    H134411   0.644   0.585   1.528
11490TIP3    H234412   0.729   0.592   1.653
11491TIP3   OH234413   3.221   0.936   1.076
11491TIP3    H134414   3.220   0.844   1.049
11491TIP3    H234415   3.236   0.932   1.171
11492TIP3   OH234416   4.542   2.325   3.426
11492TIP3    H134417   4.454   2.288   3.435
11492TIP3    H234418   4.529   2.402   3.371
11493TIP3   OH234419   6.125   5.158   5.212
11493TIP3    H134420   6.131   5.156   5.308
11493TIP3    H234421   6.049   5.213   5.194
11494TIP3   OH234422   3.466   3.965   3.613
11494TIP3    H134423   3.513   3.946   3.532
11494TIP3    H234424   3.523   4.025   3.661
11495TIP3   OH234425   7.192   4.029   2.462
11495TIP3    H134426   7.134   4.001   2.390
11495TIP3    H234427   7.212   4.120   2.442
11496TIP3   OH234428   7.003   0.103   3.994
11496TIP3    H134429   6.977   0.115   4.086
11496TIP3    H234430   6.964   0.019   3.969
11497TIP3   OH234431   1.575   1.236   3.195
11497TIP3    H134432   1.653   1.237   3.140
11497TIP3    H234433   1.538   1.324   3.188
11498TIP3   OH234434   8.076   1.609   2.331
11498TIP3    H134435   8.105   1.654   2.251
11498TIP3    H234436   8.125   1.527   2.331
11499TIP3   OH234437   5.015   6.760   2.711
11499TIP3    H134438   4.980   6.705   2.641
11499TIP3    H234439   5.056   6.834   2.666
11500TIP3   OH234440   7.189   2.465   5.952
11500TIP3    H134441   7.203   2.559   5.946
11500TIP3    H234442   7.223   2.441   6.038
11501TIP3   OH234443   5.173   5.871   2.943
11501TIP3    H134444   5.179   5.798   3.004
11501TIP3    H234445   5.245   5.929   2.967
11502TIP3   OH234446   0.769   5.540   4.140
11502TIP3    H134447   0.747   5.472   4.204
11502TIP3    H234448   0.808   5.492   4.067
11503TIP3   OH234449   0.204   3.777   4.453
11503TIP3    H134450   0.254   3.714   4.401
11503TIP3    H234451   0.120   3.785   4.407
11504TIP3   OH234452   3.526   0.254   4.376
11504TIP3    H134453   3.469   0.228   4.449
11504TIP3    H234454   3.480   0.325   4.333
11505TIP3   OH234455   2.499   5.923   4.112
11505TIP3    H134456   2.568   5.906   4.048
11505TIP3    H234457   2.545   5.927   4.196
11506TIP3   OH234458   4.120   5.642   5.448
11506TIP3    H134459   4.183   5.699   5.493
11506TIP3    H234460   4.174   5.575   5.407
11507TIP3   OH234461   7.264   0.971   1.087
11507TIP3    H134462   7.225   1.022   1.016
11507TIP3    H234463   7.295   1.036   1.150
11508TIP3   OH234464   1.903   3.619   0.799
11508TIP3    H134465   1.953   3.685   0.752
11508TIP3    H234466   1.815   3.656   0.806
11509TIP3   OH234467   2.029   7.920   6.674
11509TIP3    H134468   2.041   7.858   6.747
11509TIP3    H234469   2.018   7.864   6.597
11510TIP3   OH234470   2.666   3.776   4.744
11510TIP3    H134471   2.714   3.827   4.679
11510TIP3    H234472   2.596   3.733   4.695
11511TIP3   OH234473   3.059   2.454   3.103
11511TIP3    H134474   3.048   2.368   3.063
11511TIP3    H234475   2.970   2.489   3.111
11512TIP3   OH234476   0.159   0.373   4.634
11512TIP3    H134477   0.078   0.378   4.684
11512TIP3    H234478   0.150   0.439   4.566
11513TIP3   OH234479   0.425   4.504   6.272
11513TIP3    H134480   0.375   4.570   6.321
11513TIP3    H234481   0.448   4.439   6.338
11514TIP3   OH234482   3.196   5.307   4.355
11514TIP3    H134483   3.184   5.233   4.296
11514TIP3    H234484   3.217   5.380   4.298
11515TIP3   OH234485   7.781   3.729   5.483
11515TIP3    H134486   7.740   3.714   5.398
11515TIP3    H234487   7.783   3.825   5.492
11516TIP3   OH234488   2.067   7.761   4.152
11516TIP3    H134489   2.154   7.767   4.193
11516TIP3    H234490   2.084   7.768   4.058
11517TIP3   OH234491   1.968   7.177   5.536
11517TIP3    H134492   2.063   7.172   5.534
11517TIP3    H234493   1.947   7.190   5.629
11518TIP3   OH234494   4.977   3.779   4.926
11518TIP3    H134495   5.024   3.837   4.866
11518TIP3    H234496   4.971   3.829   5.007
11519TIP3   OH234497   6.220   2.815   4.507
11519TIP3    H134498   6.252   2.903   4.527
11519TIP3    H234499   6.168   2.826   4.427
11520TIP3   OH234500   6.910   3.456   5.309
11520TIP3    H134501   6.866   3.406   5.378
11520TIP3    H234502   6.863   3.434   5.229
11521TIP3   OH234503   3.077   5.910   3.219
11521TIP3    H134504   3.102   5.895   3.311
11521TIP3    H234505   3.159   5.908   3.171
11522TIP3   OH234506   6.073   3.570   2.819
11522TIP3    H134507   6.066   3.474   2.818
11522TIP3    H234508   6.016   3.599   2.748
11523TIP3   OH234509   7.238   7.835   1.145
11523TIP3    H134510   7.304   7.887   1.100
11523TIP3    H234511   7.263   7.744   1.128
11524TIP3   OH234512   5.236   2.950   4.070
11524TIP3    H134513   5.248   2.909   3.985
11524TIP3    H234514   5.319   2.995   4.086
11525TIP3   OH234515   8.189   4.710   3.776
11525TIP3    H134516   8.111   4.759   3.750
11525TIP3    H234517   8.182   4.627   3.728
11526TIP3   OH234518   5.716   4.385   3.605
11526TIP3    H134519   5.803   4.363   3.572
11526TIP3    H234520   5.656   4.350   3.539
11527TIP3   OH234521   7.634   7.682   4.897
11527TIP3    H134522   7.677   7.631   4.966
11527TIP3    H234523   7.543   7.650   4.896
11528TIP3   OH234524   4.121   4.132   5.064
11528TIP3    H134525   4.116   4.048   5.019
11528TIP3    H234526   4.151   4.111   5.152
11529TIP3   OH234527   3.033   5.581   4.713
11529TIP3    H134528   3.106   5.523   4.694
11529TIP3    H234529   3.073   5.666   4.732
11530TIP3   OH234530   0.712   7.699   2.582
11530TIP3    H134531   0.644   7.635   2.566
11530TIP3    H234532   0.737   7.686   2.674
11531TIP3   OH234533   4.927   4.481   2.954
11531TIP3    H134534   4.987   4.447   3.021
11531TIP3    H234535   4.868   4.408   2.936
11532TIP3   OH234536   1.889   7.631   5.411
11532TIP3    H134537   1.887   7.677   5.327
11532TIP3    H234538   1.845   7.690   5.472
11533TIP3   OH234539   7.002   5.605   6.513
11533TIP3    H134540   7.096   5.603   6.531
11533TIP3    H234541   6.961   5.601   6.599
11534TIP3   OH234542   3.973   0.871   5.274
11534TIP3    H134543   3.986   0.945   5.333
11534TIP3    H234544   3.878   0.864   5.265
11535TIP3   OH234545   3.110   7.597   4.114
11535TIP3    H134546   3.151   7.525   4.163
11535TIP3    H234547   3.184   7.653   4.089
11536TIP3   OH234548   0.189   4.261   4.836
11536TIP3    H134549   0.284   4.261   4.823
11536TIP3    H234550   0.165   4.353   4.830
11537TIP3   OH234551   3.953   4.856   4.727
11537TIP3    H134552   4.042   4.891   4.736
11537TIP3    H234553   3.902   4.930   4.694
11538TIP3   OH234554   0.571   3.671   5.393
11538TIP3    H134555   0.504   3.615   5.356
11538TIP3    H234556   0.538   3.760   5.380
11539TIP3   OH234557   2.766   6.234   1.930
11539TIP3    H134558   2.856   6.223   1.899
11539TIP3    H234559   2.712   6.198   1.860
11540TIP3   OH234560   5.008   4.234   4.505
11540TIP3    H134561   4.992   4.143   4.532
11540TIP3    H234562   5.033   4.228   4.413
11541TIP3   OH234563   7.653   4.212   2.146
11541TIP3    H134564   7.707   4.180   2.073
11541TIP3    H234565   7.681   4.303   2.158
11542TIP3   OH234566   4.095   7.288   5.932
11542TIP3    H134567   4.038   7.220   5.896
11542TIP3    H234568   4.035   7.354   5.966
11543TIP3   OH234569   2.022   6.819   3.448
11543TIP3    H134570   2.105   6.771   3.452
11543TIP3    H234571   1.997   6.832   3.539
11544TIP3   OH234572   0.759   6.775   6.426
11544TIP3    H134573   0.844   6.767   6.382
11544TIP3    H234574   0.763   6.712   6.498
11545TIP3   OH234575   0.080   6.586   5.783
11545TIP3    H134576   0.160   6.630   5.811
11545TIP3    H234577   0.012   6.651   5.794
11546TIP3   OH234578   1.302   7.139   2.607
11546TIP3    H134579   1.393   7.164   2.623
11546TIP3    H234580   1.279   7.183   2.525
11547TIP3   OH234581   8.296   1.427   2.002
11547TIP3    H134582   8.377   1.397   1.959
11547TIP3    H234583   8.326   1.472   2.080
11548TIP3   OH234584   4.502   3.141   3.672
11548TIP3    H134585   4.572   3.082   3.643
11548TIP3    H234586   4.425   3.085   3.681
11549TIP3   OH234587   5.084   4.351   5.133
11549TIP3    H134588   5.027   4.377   5.061
11549TIP3    H234589   5.172   4.352   5.096
11550TIP3   OH234590   2.403   0.574   5.645
11550TIP3    H134591   2.422   0.614   5.730
11550TIP3    H234592   2.347   0.637   5.601
11551TIP3   OH234593   1.163   1.811   6.091
11551TIP3    H134594   1.080   1.763   6.096
11551TIP3    H234595   1.141   1.901   6.115
11552TIP3   OH234596   7.365   6.594   6.720
11552TIP3    H134597   7.305   6.616   6.791
11552TIP3    H234598   7.324   6.522   6.674
11553TIP3   OH234599   5.457   4.732   6.650
11553TIP3    H134600   5.431   4.788   6.724
11553TIP3    H234601   5.376   4.691   6.621
11554TIP3   OH234602   2.786   5.495   6.630
11554TIP3    H134603   2.857   5.436   6.655
11554TIP3    H234604   2.706   5.443   6.642
11555TIP3   OH234605   2.174   1.085   5.477
11555TIP3    H134606   2.174   1.076   5.572
11555TIP3    H234607   2.264   1.066   5.451
11556TIP3   OH234608   7.046   7.269   2.967
11556TIP3    H134609   7.121   7.319   2.934
11556TIP3    H234610   6.975   7.292   2.907
11557TIP3   OH234611   4.843   0.764   1.042
11557TIP3    H134612   4.911   0.831   1.032
11557TIP3    H234613   4.831   0.729   0.954
11558TIP3   OH234614   4.467   6.115   6.159
11558TIP3    H134615   4.541   6.065   6.196
11558TIP3    H234616   4.505   6.162   6.084
11559TIP3   OH234617   2.943   6.728   5.377
11559TIP3    H134618   2.891   6.656   5.414
11559TIP3    H234619   2.889   6.806   5.392
11560TIP3   OH234620   5.908   7.462   2.134
11560TIP3    H134621   5.877   7.540   2.088
11560TIP3    H234622   5.994   7.487   2.169
11561TIP3   OH234623   5.964   0.874   4.926
11561TIP3    H134624   6.030   0.805   4.934
11561TIP3    H234625   5.987   0.920   4.845
11562TIP3   OH234626   7.721   2.850   4.779
11562TIP3    H134627   7.639   2.823   4.822
11562TIP3    H234628   7.701   2.934   4.738
11563TIP3   OH234629   3.383   2.239   5.732
11563TIP3    H134630   3.314   2.173   5.742
11563TIP3    H234631   3.454   2.192   5.688
11564TIP3   OH234632   3.798   3.291   2.731
11564TIP3    H134633   3.888   3.324   2.741
11564TIP3    H234634   3.756   3.354   2.673
11565TIP3   OH234635   0.798   2.663   4.995
11565TIP3    H134636   0.775   2.752   5.019
11565TIP3    H234637   0.727   2.609   5.032
11566TIP3   OH234638   5.738   6.870   3.155
11566TIP3    H134639   5.783   6.932   3.097
11566TIP3    H234640   5.804   6.804   3.176
11567TIP3   OH234641   4.699   2.691   2.975
11567TIP3    H134642   4.656   2.761   2.925
11567TIP3    H234643   4.744   2.738   3.045
11568TIP3   OH234644   8.126   2.325   1.896
11568TIP3    H134645   8.085   2.409   1.918
11568TIP3    H234646   8.071   2.289   1.826
11569TIP3   OH234647   7.153   3.193   3.034
11569TIP3    H134648   7.154   3.177   2.940
11569TIP3    H234649   7.182   3.284   3.043
11570TIP3   OH234650   5.383   0.861   4.881
11570TIP3    H134651   5.404   0.794   4.946
11570TIP3    H234652   5.338   0.929   4.931
11571TIP3   OH234653   5.179   1.187   1.098
11571TIP3    H134654   5.228   1.217   1.021
11571TIP3    H234655   5.235   1.212   1.172
11572TIP3   OH234656   7.913   5.651   4.358
11572TIP3    H134657   7.893   5.626   4.448
11572TIP3    H234658   7.961   5.733   4.366
11573TIP3   OH234659   7.161   2.011   5.137
11573TIP3    H134660   7.138   2.048   5.052
11573TIP3    H234661   7.200   2.084   5.185
11574TIP3   OH234662   8.313   3.423   0.550
11574TIP3    H134663   8.279   3.470   0.625
11574TIP3    H234664   8.242   3.424   0.486
11575TIP3   OH234665   4.769   0.495   2.233
11575TIP3    H134666   4.755   0.555   2.160
11575TIP3    H234667   4.817   0.547   2.298
11576TIP3   OH234668   1.339   3.817   0.726
11576TIP3    H134669   1.300   3.731   0.744
11576TIP3    H234670   1.273   3.863   0.675
11577TIP3   OH234671   7.941   6.493   4.791
11577TIP3    H134672   7.865   6.468   4.738
11577TIP3    H234673   7.905   6.511   4.878
11578TIP3   OH234674   7.441   1.746   3.256
11578TIP3    H134675   7.421   1.652   3.260
11578TIP3    H234676   7.356   1.789   3.256
11579TIP3   OH234677   1.238   7.237   3.077
11579TIP3    H134678   1.197   7.210   2.995
11579TIP3    H234679   1.330   7.213   3.067
11580TIP3   OH234680   0.320   6.175   0.032
11580TIP3    H134681   0.322   6.145   0.123
11580TIP3    H234682   0.245   6.130  -0.006
11581TIP3   OH234683   4.889   3.423   1.121
11581TIP3    H134684   4.935   3.391   1.198
11581TIP3    H234685   4.796   3.415   1.143
11582TIP3   OH234686   7.040   4.149   0.566
11582TIP3    H134687   7.103   4.087   0.530
11582TIP3    H234688   6.989   4.178   0.490
11583TIP3   OH234689   2.455   7.276   1.226
11583TIP3    H134690   2.465   7.182   1.239
11583TIP3    H234691   2.385   7.301   1.286
11584TIP3   OH234692   2.760   5.077   1.027
11584TIP3    H134693   2.792   4.987   1.019
11584TIP3    H234694   2.750   5.107   0.937
11585TIP3   OH234695   1.913   2.474   2.574
11585TIP3    H134696   1.947   2.406   2.517
11585TIP3    H234697   1.844   2.516   2.523
11586TIP3   OH234698   6.775   0.044   0.193
11586TIP3    H134699   6.783   0.086   0.279
11586TIP3    H234700   6.847  -0.019   0.190
11587TIP3   OH234701   7.915   7.836   1.974
11587TIP3    H134702   7.947   7.831   2.064
11587TIP3    H234703   7.910   7.744   1.946
11588TIP3   OH234704   1.415   7.297   5.658
11588TIP3    H134705   1.341   7.312   5.600
11588TIP3    H234706   1.390   7.220   5.710
11589TIP3   OH234707   1.229   1.290   0.452
11589TIP3    H134708   1.158   1.252   0.503
11589TIP3    H234709   1.201   1.380   0.436
11590TIP3   OH234710   3.981   3.138   4.063
11590TIP3    H134711   3.924   3.092   4.125
11590TIP3    H234712   3.935   3.132   3.980
11591TIP3   OH234713   0.310   4.400   3.072
11591TIP3    H134714   0.331   4.369   2.984
11591TIP3    H234715   0.370   4.473   3.087
11592TIP3   OH234716   2.916   1.283   4.363
11592TIP3    H134717   2.977   1.356   4.367
11592TIP3    H234718   2.830   1.323   4.365
11593TIP3   OH234719   1.057   3.664   5.388
11593TIP3    H134720   0.978   3.628   5.349
11593TIP3    H234721   1.040   3.666   5.482
11594TIP3   OH234722   2.857   6.164   4.704
11594TIP3    H134723   2.831   6.114   4.781
11594TIP3    H234724   2.921   6.227   4.736
11595TIP3   OH234725   7.821   4.056   3.927
11595TIP3    H134726   7.808   4.144   3.892
11595TIP3    H234727   7.889   4.018   3.871
11596TIP3   OH234728   2.481   0.947   6.322
11596TIP3    H134729   2.454   0.979   6.236
11596TIP3    H234730   2.489   0.852   6.312
11597TIP3   OH234731   3.885   5.039   0.496
11597TIP3    H134732   3.839   5.024   0.414
11597TIP3    H234733   3.837   4.986   0.560
11598TIP3   OH234734   7.808   6.093   6.366
11598TIP3    H134735   7.896   6.123   6.390
11598TIP3    H234736   7.807   6.000   6.387
11599TIP3   OH234737   6.208   4.223   4.819
11599TIP3    H134738   6.250   4.308   4.836
11599TIP3    H234739   6.189   4.225   4.725
11600TIP3   OH234740   6.684   1.604   5.416
11600TIP3    H134741   6.733   1.539   5.365
11600TIP3    H234742   6.647   1.554   5.488
11601TIP3   OH234743   2.841   5.252   1.757
11601TIP3    H134744   2.758   5.212   1.731
11601TIP3    H234745   2.832   5.268   1.851
11602TIP3   OH234746   7.190   6.402   5.792
11602TIP3    H134747   7.115   6.420   5.850
11602TIP3    H234748   7.152   6.359   5.716
11603TIP3   OH234749   2.022   3.937   1.080
11603TIP3    H134750   2.104   3.985   1.072
11603TIP3    H234751   2.048   3.845   1.083
11604TIP3   OH234752   5.189   5.698   0.630
11604TIP3    H134753   5.248   5.682   0.703
11604TIP3    H234754   5.214   5.785   0.598
11605TIP3   OH234755   1.471   6.268   6.210
11605TIP3    H134756   1.408   6.297   6.275
11605TIP3    H234757   1.541   6.226   6.260
11606TIP3   OH234758   8.171   0.395   5.651
11606TIP3    H134759   8.082   0.411   5.683
11606TIP3    H234760   8.173   0.302   5.632
11607TIP3   OH234761   6.502   2.904   3.936
11607TIP3    H134762   6.589   2.944   3.929
11607TIP3    H234763   6.468   2.904   3.847
11608TIP3   OH234764   8.152   4.552   0.916
11608TIP3    H134765   8.191   4.469   0.888
11608TIP3    H234766   8.081   4.567   0.854
11609TIP3   OH234767   3.863   1.444   0.064
11609TIP3    H134768   3.951   1.408   0.070
11609TIP3    H234769   3.816   1.404   0.137
11610TIP3   OH234770   2.517   7.168   6.703
11610TIP3    H134771   2.426   7.139   6.697
11610TIP3    H234772   2.567   7.086   6.709
11611TIP3   OH234773   7.343   4.859   6.552
11611TIP3    H134774   7.379   4.945   6.531
11611TIP3    H234775   7.420   4.805   6.573
11612TIP3   OH234776   4.736   4.775   1.788
11612TIP3    H134777   4.700   4.855   1.750
11612TIP3    H234778   4.818   4.803   1.830
11613TIP3   OH234779   0.103   6.337   1.178
11613TIP3    H134780   0.059   6.410   1.222
11613TIP3    H234781   0.196   6.351   1.197
11614TIP3   OH234782   6.509   0.378   4.329
11614TIP3    H134783   6.573   0.397   4.260
11614TIP3    H234784   6.518   0.451   4.390
11615TIP3   OH234785   2.406   4.258   4.987
11615TIP3    H134786   2.456   4.253   5.069
11615TIP3    H234787   2.455   4.202   4.926
11616TIP3   OH234788   3.955   0.699   0.648
11616TIP3    H134789   3.909   0.758   0.588
11616TIP3    H234790   3.890   0.676   0.714
11617TIP3   OH234791   4.479   1.326   6.457
11617TIP3    H134792   4.480   1.381   6.535
11617TIP3    H234793   4.554   1.356   6.406
11618TIP3   OH234794   4.298   2.462   0.978
11618TIP3    H134795   4.374   2.407   0.962
11618TIP3    H234796   4.272   2.441   1.068
11619TIP3   OH234797   1.625   5.630   6.599
11619TIP3    H134798   1.593   5.575   6.528
11619TIP3    H234799   1.549   5.643   6.657
11620TIP3   OH234800   0.704   7.293   1.500
11620TIP3    H134801   0.676   7.380   1.525
11620TIP3    H234802   0.749   7.259   1.578
11621TIP3   OH234803   1.281   4.579   4.178
11621TIP3    H134804   1.349   4.515   4.157
11621TIP3    H234805   1.327   4.663   4.173
11622TIP3   OH234806   2.783   4.735   5.794
11622TIP3    H134807   2.694   4.704   5.779
11622TIP3    H234808   2.779   4.778   5.879
11623TIP3   OH234809   4.034   5.113   4.101
11623TIP3    H134810   3.966   5.097   4.167
11623TIP3    H234811   4.054   5.206   4.109
11624TIP3   OH234812   1.350   2.457   0.715
11624TIP3    H134813   1.388   2.482   0.631
11624TIP3    H234814   1.399   2.380   0.742
11625TIP3   OH234815   3.197   1.848   0.392
11625TIP3    H134816   3.145   1.887   0.322
11625TIP3    H234817   3.224   1.763   0.357
11626TIP3   OH234818   2.894   7.132   1.281
11626TIP3    H134819   2.891   7.074   1.205
11626TIP3    H234820   2.901   7.073   1.356
11627TIP3   OH234821   1.095   6.518   1.094
11627TIP3    H134822   1.116   6.426   1.079
11627TIP3    H234823   1.173   6.554   1.136
11628TIP3   OH234824   4.395   7.776   4.551
11628TIP3    H134825   4.311   7.741   4.523
11628TIP3    H234826   4.436   7.809   4.471
11629TIP3   OH234827   4.593   1.705   5.076
11629TIP3    H134828   4.619   1.789   5.039
11629TIP3    H234829   4.547   1.660   5.005
11630TIP3   OH234830   5.634   1.870   4.344
11630TIP3    H134831   5.670   1.937   4.285
11630TIP3    H234832   5.710   1.817   4.369
11631TIP3   OH234833   1.628   5.632   5.472
11631TIP3    H134834   1.723   5.642   5.469
11631TIP3    H234835   1.595   5.696   5.409
11632TIP3   OH234836   2.974   2.063   4.560
11632TIP3    H134837   2.934   1.979   4.583
11632TIP3    H234838   2.899   2.120   4.543
11633TIP3   OH234839   6.212   1.604   0.527
11633TIP3    H134840   6.198   1.543   0.453
11633TIP3    H234841   6.136   1.589   0.584
11634TIP3   OH234842   2.262   1.889   2.050
11634TIP3    H134843   2.178   1.921   2.017
11634TIP3    H234844   2.323   1.962   2.033
11635TIP3   OH234845   2.210   5.765   3.502
11635TIP3    H134846   2.126   5.719   3.489
11635TIP3    H234847   2.198   5.849   3.460
11636TIP3   OH234848   7.539   6.220   4.733
11636TIP3    H134849   7.504   6.307   4.756
11636TIP3    H234850   7.608   6.238   4.670
11637TIP3   OH234851   2.652   7.441   0.833
11637TIP3    H134852   2.598   7.463   0.909
11637TIP3    H234853   2.701   7.364   0.861
11638TIP3   OH234854   5.689   3.856   3.223
11638TIP3    H134855   5.752   3.919   3.187
11638TIP3    H234856   5.658   3.807   3.147
11639TIP3   OH234857   1.398   1.305   0.673
11639TIP3    H134858   1.333   1.308   0.602
11639TIP3    H234859   1.469   1.252   0.637
11640TIP3   OH234860   7.469   2.550   0.984
11640TIP3    H134861   7.472   2.479   0.919
11640TIP3    H234862   7.381   2.585   0.977
11641TIP3   OH234863   1.584   6.891   6.801
11641TIP3    H134864   1.611   6.810   6.757
11641TIP3    H234865   1.636   6.892   6.882
11642TIP3   OH234866   5.756   3.130   0.429
11642TIP3    H134867   5.787   3.164   0.346
11642TIP3    H234868   5.700   3.200   0.465
11643TIP3   OH234869   3.768   1.920   6.143
11643TIP3    H134870   3.722   1.989   6.095
11643TIP3    H234871   3.699   1.873   6.189
11644TIP3   OH234872   6.343   3.058   4.208
11644TIP3    H134873   6.410   3.117   4.244
11644TIP3    H234874   6.377   2.970   4.224
11645TIP3   OH234875   8.057   3.542   2.226
11645TIP3    H134876   8.070   3.484   2.302
11645TIP3    H234877   8.142   3.541   2.181
11646TIP3   OH234878   3.588   4.428   6.216
11646TIP3    H134879   3.612   4.446   6.307
11646TIP3    H234880   3.498   4.396   6.221
11647TIP3   OH234881   0.779   5.893   3.189
11647TIP3    H134882   0.712   5.958   3.167
11647TIP3    H234883   0.748   5.853   3.270
11648TIP3   OH234884   3.111   2.901   1.944
11648TIP3    H134885   3.200   2.867   1.952
11648TIP3    H234886   3.104   2.968   2.012
11649TIP3   OH234887   5.305   6.814   3.261
11649TIP3    H134888   5.299   6.754   3.335
11649TIP3    H234889   5.298   6.901   3.300
11650TIP3   OH234890   5.995   1.031   2.311
11650TIP3    H134891   6.025   0.948   2.349
11650TIP3    H234892   5.941   1.070   2.379
11651TIP3   OH234893   2.062   7.378   0.685
11651TIP3    H134894   2.102   7.380   0.598
11651TIP3    H234895   2.136   7.361   0.744
11652TIP3   OH234896   4.581   7.270   6.144
11652TIP3    H134897   4.612   7.285   6.055
11652TIP3    H234898   4.519   7.197   6.136
11653TIP3   OH234899   3.567   7.291   3.650
11653TIP3    H134900   3.534   7.372   3.613
11653TIP3    H234901   3.620   7.319   3.725
11654TIP3   OH234902   5.902   0.783   1.139
11654TIP3    H134903   5.926   0.752   1.226
11654TIP3    H234904   5.986   0.805   1.098
11655TIP3   OH234905   6.992   5.626   3.397
11655TIP3    H134906   7.010   5.570   3.473
11655TIP3    H234907   6.897   5.639   3.399
11656TIP3   OH234908   8.345   1.114   1.533
11656TIP3    H134909   8.329   1.115   1.439
11656TIP3    H234910   8.376   1.025   1.551
11657TIP3   OH234911   6.027   4.367   6.127
11657TIP3    H134912   5.955   4.423   6.155
11657TIP3    H234913   5.993   4.278   6.134
11658TIP3   OH234914   8.235   2.967   5.938
11658TIP3    H134915   8.196   3.048   5.907
11658TIP3    H234916   8.314   2.994   5.985
11659TIP3   OH234917   2.818   1.695   4.584
11659TIP3    H134918   2.866   1.708   4.665
11659TIP3    H234919   2.754   1.627   4.605
11660TIP3   OH234920   6.585   0.613   3.314
11660TIP3    H134921   6.557   0.696   3.352
11660TIP3    H234922   6.545   0.547   3.371
11661TIP3   OH234923   8.080   6.646   1.174
11661TIP3    H134924   8.020   6.631   1.100
11661TIP3    H234925   8.023   6.648   1.251
11662TIP3   OH234926   6.260   0.677   1.798
11662TIP3    H134927   6.311   0.600   1.774
11662TIP3    H234928   6.255   0.729   1.718
11663TIP3   OH234929   5.388   3.988   4.763
11663TIP3    H134930   5.341   4.050   4.707
11663TIP3    H234931   5.319   3.946   4.815
11664TIP3   OH234932   8.015   6.804   3.651
11664TIP3    H134933   8.104   6.823   3.619
11664TIP3    H234934   8.027   6.784   3.744
11665TIP3   OH234935   8.096   4.928   2.567
11665TIP3    H134936   8.158   4.999   2.588
11665TIP3    H234937   8.029   4.971   2.515
11666TIP3   OH234938   5.921   5.111   4.591
11666TIP3    H134939   5.976   5.098   4.514
11666TIP3    H234940   5.832   5.108   4.559
11667TIP3   OH234941   3.202   0.413   0.930
11667TIP3    H134942   3.295   0.390   0.923
11667TIP3    H234943   3.156   0.331   0.915
11668TIP3   OH234944   7.294   0.960   4.048
11668TIP3    H134945   7.236   0.888   4.072
11668TIP3    H234946   7.240   1.018   3.993
11669TIP3   OH234947   5.826   0.173   3.020
11669TIP3    H134948   5.814   0.168   3.115
11669TIP3    H234949   5.741   0.152   2.983
11670TIP3   OH234950   1.535   5.211   1.328
11670TIP3    H134951   1.516   5.304   1.313
11670TIP3    H234952   1.630   5.205   1.321
11671TIP3   OH234953   4.752   1.632   6.827
11671TIP3    H134954   4.715   1.545   6.838
11671TIP3    H234955   4.695   1.674   6.762
11672TIP3   OH234956   6.960   3.704   5.394
11672TIP3    H134957   6.904   3.628   5.386
11672TIP3    H234958   7.006   3.691   5.477
11673TIP3   OH234959   5.495   4.267   4.628
11673TIP3    H134960   5.559   4.215   4.676
11673TIP3    H234961   5.545   4.309   4.558
11674TIP3   OH234962   7.297   2.929   0.833
11674TIP3    H134963   7.272   2.953   0.922
11674TIP3    H234964   7.221   2.951   0.780
11675TIP3   OH234965   3.788   4.942   0.734
11675TIP3    H134966   3.855   4.958   0.801
11675TIP3    H234967   3.706   4.968   0.776
11676TIP3   OH234968   4.813   2.633   6.720
11676TIP3    H134969   4.826   2.681   6.801
11676TIP3    H234970   4.763   2.555   6.745
11677TIP3   OH234971   3.634   3.576   5.247
11677TIP3    H134972   3.649   3.529   5.329
11677TIP3    H234973   3.539   3.579   5.238
11678TIP3   OH234974   8.008   2.785   5.426
11678TIP3    H134975   8.014   2.805   5.333
11678TIP3    H234976   7.931   2.729   5.434
11679TIP3   OH234977   7.694   5.302   3.980
11679TIP3    H134978   7.752   5.301   4.056
11679TIP3    H234979   7.609   5.277   4.015
11680TIP3   OH234980   0.044   0.284   4.265
11680TIP3    H134981   0.104   0.351   4.296
11680TIP3    H234982   0.096   0.203   4.265
11681TIP3   OH234983   6.883   1.530   4.891
11681TIP3    H134984   6.875   1.493   4.803
11681TIP3    H234985   6.972   1.567   4.893
11682TIP3   OH234986   8.334   6.787   1.411
11682TIP3    H134987   8.364   6.697   1.397
11682TIP3    H234988   8.259   6.778   1.471
11683TIP3   OH234989   7.593   7.715   3.260
11683TIP3    H134990   7.501   7.740   3.275
11683TIP3    H234991   7.608   7.735   3.168
11684TIP3   OH234992   4.143   0.890   6.424
11684TIP3    H134993   4.174   0.948   6.355
11684TIP3    H234994   4.061   0.929   6.454
11685TIP3   OH234995   5.920   1.507   6.171
11685TIP3    H134996   5.954   1.572   6.232
11685TIP3    H234997   5.883   1.438   6.226
11686TIP3   OH234998   5.664   1.766   0.689
11686TIP3    H134999   5.589   1.819   0.660
11686TIP3    H235000   5.734   1.787   0.627
11687TIP3   OH235001   4.819   0.421   0.506
11687TIP3    H135002   4.873   0.363   0.560
11687TIP3    H235003   4.877   0.495   0.486
11688TIP3   OH235004   6.175   1.897   2.519
11688TIP3    H135005   6.211   1.834   2.583
11688TIP3    H235006   6.132   1.963   2.573
11689TIP3   OH235007   6.885   2.853   3.449
11689TIP3    H135008   6.806   2.817   3.490
11689TIP3    H235009   6.949   2.782   3.457
11690TIP3   OH235010   5.906   6.858   5.457
11690TIP3    H135011   5.913   6.918   5.383
11690TIP3    H235012   5.986   6.806   5.453
11691TIP3   OH235013   0.615   7.605   4.130
11691TIP3    H135014   0.548   7.560   4.181
11691TIP3    H235015   0.568   7.648   4.059
11692TIP3   OH235016   3.826   3.748   1.123
11692TIP3    H135017   3.804   3.822   1.180
11692TIP3    H235018   3.861   3.789   1.044
11693TIP3   OH235019   8.084   3.389   4.691
11693TIP3    H135020   8.025   3.331   4.643
11693TIP3    H235021   8.028   3.459   4.725
11694TIP3   OH235022   2.943   3.593   5.565
11694TIP3    H135023   2.959   3.527   5.498
11694TIP3    H235024   2.921   3.672   5.516
11695TIP3   OH235025   8.258   0.713   4.310
11695TIP3    H135026   8.213   0.633   4.283
11695TIP3    H235027   8.191   0.763   4.358
11696TIP3   OH235028   7.919   7.303   0.183
11696TIP3    H135029   7.824   7.290   0.189
11696TIP3    H235030   7.933   7.392   0.216
11697TIP3   OH235031   4.357   3.338   2.984
11697TIP3    H135032   4.369   3.315   3.076
11697TIP3    H235033   4.280   3.288   2.956
11698TIP3   OH235034   5.821   2.416   3.611
11698TIP3    H135035   5.728   2.396   3.603
11698TIP3    H235036   5.837   2.484   3.546
11699TIP3   OH235037   2.718   5.605   5.819
11699TIP3    H135038   2.642   5.605   5.761
11699TIP3    H235039   2.751   5.695   5.816
11700TIP3   OH235040   7.641   0.155   0.503
11700TIP3    H135041   7.644   0.105   0.584
11700TIP3    H235042   7.600   0.238   0.527
11701TIP3   OH235043   7.155   4.360   2.563
11701TIP3    H135044   7.166   4.370   2.657
11701TIP3    H235045   7.105   4.437   2.536
11702TIP3   OH235046   2.636   5.080   2.367
11702TIP3    H135047   2.563   5.104   2.423
11702TIP3    H235048   2.599   5.021   2.302
11703TIP3   OH235049   5.789   7.295   6.028
11703TIP3    H135050   5.714   7.242   6.056
11703TIP3    H235051   5.858   7.275   6.091
11704TIP3   OH235052   4.877   7.392   6.176
11704TIP3    H135053   4.830   7.456   6.123
11704TIP3    H235054   4.907   7.326   6.114
11705TIP3   OH235055   5.708   1.155   1.750
11705TIP3    H135056   5.658   1.193   1.678
11705TIP3    H235057   5.702   1.219   1.820
11706TIP3   OH235058   4.082   0.206   2.757
11706TIP3    H135059   4.012   0.242   2.703
11706TIP3    H235060   4.155   0.266   2.745
11707TIP3   OH235061   1.415   7.040   4.967
11707TIP3    H135062   1.394   7.035   4.874
11707TIP3    H235063   1.332   7.024   5.011
11708TIP3   OH235064   3.480   6.628   6.741
11708TIP3    H135065   3.410   6.681   6.702
11708TIP3    H235066   3.518   6.685   6.808
11709TIP3   OH235067   4.529   4.165   3.220
11709TIP3    H135068   4.486   4.159   3.135
11709TIP3    H235069   4.596   4.232   3.209
11710TIP3   OH235070   4.469   0.743   1.247
11710TIP3    H135071   4.403   0.785   1.302
11710TIP3    H235072   4.421   0.720   1.167
11711TIP3   OH235073   1.278   1.973   4.133
11711TIP3    H135074   1.288   2.011   4.220
11711TIP3    H235075   1.191   2.001   4.104
11712TIP3   OH235076   1.144   0.564   5.418
11712TIP3    H135077   1.169   0.472   5.415
11712TIP3    H235078   1.072   0.568   5.481
11713TIP3   OH235079   3.968   6.146   3.154
11713TIP3    H135080   3.892   6.134   3.097
11713TIP3    H235081   3.989   6.058   3.185
11714TIP3   OH235082   7.767   0.861   0.256
11714TIP3    H135083   7.695   0.799   0.264
11714TIP3    H235084   7.805   0.843   0.170
11715TIP3   OH235085   0.742   6.188   6.364
11715TIP3    H135086   0.792   6.269   6.366
11715TIP3    H235087   0.652   6.214   6.382
11716TIP3   OH235088   1.088   1.222   0.720
11716TIP3    H135089   1.071   1.249   0.810
11716TIP3    H235090   1.019   1.263   0.668
11717TIP3   OH235091   0.699   3.672   2.808
11717TIP3    H135092   0.768   3.620   2.849
11717TIP3    H235093   0.675   3.623   2.729
11718TIP3   OH235094   5.640   3.611   6.790
11718TIP3    H135095   5.731   3.621   6.818
11718TIP3    H235096   5.616   3.697   6.757
11719TIP3   OH235097   3.430   2.399   1.393
11719TIP3    H135098   3.383   2.341   1.452
11719TIP3    H235099   3.361   2.441   1.342
11720TIP3   OH235100   1.288   5.908   1.099
11720TIP3    H135101   1.342   5.882   1.024
11720TIP3    H235102   1.306   6.001   1.110
11721TIP3   OH235103   0.141   3.788   4.972
11721TIP3    H135104   0.108   3.704   5.003
11721TIP3    H235105   0.098   3.800   4.887
11722TIP3   OH235106   3.231   1.719   1.859
11722TIP3    H135107   3.248   1.781   1.788
11722TIP3    H235108   3.194   1.642   1.816
11723TIP3   OH235109   3.215   5.738   6.785
11723TIP3    H135110   3.178   5.661   6.828
11723TIP3    H235111   3.157   5.755   6.711
11724TIP3   OH235112   4.294   2.862   5.366
11724TIP3    H135113   4.373   2.808   5.376
11724TIP3    H235114   4.223   2.799   5.355
11725TIP3   OH235115   5.019   6.700   4.371
11725TIP3    H135116   4.965   6.623   4.389
11725TIP3    H235117   5.096   6.689   4.426
11726TIP3   OH235118   1.401   5.092   0.443
11726TIP3    H135119   1.487   5.127   0.418
11726TIP3    H235120   1.414   5.058   0.532
11727TIP3   OH235121   3.824   0.867   5.801
11727TIP3    H135122   3.838   0.904   5.888
11727TIP3    H235123   3.841   0.773   5.813
11728TIP3   OH235124   6.290   7.214   0.154
11728TIP3    H135125   6.293   7.208   0.059
11728TIP3    H235126   6.228   7.284   0.172
11729TIP3   OH235127   1.873   2.237   5.777
11729TIP3    H135128   1.944   2.182   5.744
11729TIP3    H235129   1.830   2.271   5.699
11730TIP3   OH235130   6.970   4.942   1.592
11730TIP3    H135131   6.981   4.911   1.502
11730TIP3    H235132   6.878   4.967   1.597
11731TIP3   OH235133   6.052   5.902   4.435
11731TIP3    H135134   5.964   5.887   4.399
11731TIP3    H235135   6.090   5.969   4.377
11732TIP3   OH235136   0.967   3.773   2.551
11732TIP3    H135137   1.035   3.723   2.507
11732TIP3    H235138   0.903   3.708   2.581
11733TIP3   OH235139   4.624   4.319   6.855
11733TIP3    H135140   4.715   4.302   6.832
11733TIP3    H235141   4.575   4.247   6.814
11734TIP3   OH235142   3.923   1.995   0.939
11734TIP3    H135143   3.969   2.074   0.968
11734TIP3    H235144   3.853   2.028   0.882
11735TIP3   OH235145   0.197   4.689   6.246
11735TIP3    H135146   0.140   4.726   6.178
11735TIP3    H235147   0.149   4.702   6.327
11736TIP3   OH235148   4.465   2.752   0.128
11736TIP3    H135149   4.400   2.821   0.123
11736TIP3    H235150   4.549   2.798   0.127
11737TIP3   OH235151   0.728   0.981   1.614
11737TIP3    H135152   0.750   0.945   1.700
11737TIP3    H235153   0.660   0.923   1.581
11738TIP3   OH235154   6.862   0.442   5.526
11738TIP3    H135155   6.880   0.370   5.466
11738TIP3    H235156   6.944   0.491   5.530
11739TIP3   OH235157   3.443   5.298   6.608
11739TIP3    H135158   3.354   5.294   6.572
11739TIP3    H235159   3.497   5.257   6.541
11740TIP3   OH235160   2.387   3.778   2.176
11740TIP3    H135161   2.455   3.808   2.236
11740TIP3    H235162   2.427   3.787   2.089
11741TIP3   OH235163   5.128   4.578   2.448
11741TIP3    H135164   5.094   4.507   2.395
11741TIP3    H235165   5.217   4.550   2.472
11742TIP3   OH235166   5.987   1.955   4.566
11742TIP3    H135167   5.967   1.995   4.650
11742TIP3    H235168   5.918   1.987   4.507
11743TIP3   OH235169   1.397   3.444   4.462
11743TIP3    H135170   1.438   3.463   4.546
11743TIP3    H235171   1.415   3.351   4.447
11744TIP3   OH235172   1.643   5.163   3.990
11744TIP3    H135173   1.610   5.166   3.901
11744TIP3    H235174   1.649   5.255   4.017
11745TIP3   OH235175   4.725   2.005   4.098
11745TIP3    H135176   4.806   1.977   4.056
11745TIP3    H235177   4.682   1.923   4.122
11746TIP3   OH235178   3.022   7.314   1.119
11746TIP3    H135179   2.989   7.259   1.191
11746TIP3    H235180   3.104   7.273   1.094
11747TIP3   OH235181   5.096   4.334   0.709
11747TIP3    H135182   5.078   4.411   0.655
11747TIP3    H235183   5.122   4.266   0.647
11748TIP3   OH235184   0.426   3.060   3.092
11748TIP3    H135185   0.506   3.098   3.127
11748TIP3    H235186   0.425   3.086   3.000
11749TIP3   OH235187   1.329   5.133   4.445
11749TIP3    H135188   1.375   5.119   4.363
11749TIP3    H235189   1.396   5.161   4.506
11750TIP3   OH235190   0.218   3.014   3.601
11750TIP3    H135191   0.150   3.059   3.550
11750TIP3    H235192   0.257   3.083   3.655
11751TIP3   OH235193   6.322   1.419   6.580
11751TIP3    H135194   6.234   1.451   6.600
11751TIP3    H235195   6.350   1.375   6.661
11752TIP3   OH235196   7.697   5.057   4.169
11752TIP3    H135197   7.785   5.085   4.143
11752TIP3    H235198   7.702   5.047   4.264
11753TIP3   OH235199   7.787   3.215   0.384
11753TIP3    H135200   7.820   3.277   0.319
11753TIP3    H235201   7.839   3.232   0.462
11754TIP3   OH235202   5.013   7.820   3.664
11754TIP3    H135203   5.059   7.904   3.657
11754TIP3    H235204   4.998   7.808   3.758
11755TIP3   OH235205   0.936   7.275   4.297
11755TIP3    H135206   1.014   7.277   4.352
11755TIP3    H235207   0.923   7.366   4.271
11756TIP3   OH235208   3.813   5.868   1.874
11756TIP3    H135209   3.871   5.882   1.799
11756TIP3    H235210   3.733   5.831   1.836
11757TIP3   OH235211   6.697   4.178   1.884
11757TIP3    H135212   6.700   4.265   1.924
11757TIP3    H235213   6.685   4.195   1.790
11758TIP3   OH235214   5.288   0.588   0.560
11758TIP3    H135215   5.311   0.534   0.636
11758TIP3    H235216   5.270   0.675   0.597
11759TIP3   OH235217   7.973   4.206   3.356
11759TIP3    H135218   7.980   4.259   3.276
11759TIP3    H235219   8.029   4.131   3.339
11760TIP3   OH235220   4.709   2.660   3.322
11760TIP3    H135221   4.767   2.705   3.261
11760TIP3    H235222   4.628   2.646   3.272
11761TIP3   OH235223   2.582   0.544   4.128
11761TIP3    H135224   2.642   0.595   4.183
11761TIP3    H235225   2.623   0.458   4.119
11762TIP3   OH235226   4.346   3.304   3.256
11762TIP3    H135227   4.385   3.358   3.325
11762TIP3    H235228   4.261   3.277   3.292
11763TIP3   OH235229   8.015   2.530   2.037
11763TIP3    H135230   8.050   2.612   2.071
11763TIP3    H235231   7.924   2.550   2.014
11764TIP3   OH235232   4.823   6.633   5.908
11764TIP3    H135233   4.790   6.557   5.955
11764TIP3    H235234   4.764   6.704   5.933
11765TIP3   OH235235   2.038   0.876   0.241
11765TIP3    H135236   1.986   0.806   0.281
11765TIP3    H235237   2.015   0.954   0.291
11766TIP3   OH235238   0.890   4.637   0.763
11766TIP3    H135239   0.943   4.714   0.784
11766TIP3    H235240   0.825   4.668   0.701
11767TIP3   OH235241   7.774   0.629   5.630
11767TIP3    H135242   7.812   0.623   5.542
11767TIP3    H235243   7.722   0.709   5.629
11768TIP3   OH235244   6.859   2.913   5.221
11768TIP3    H135245   6.950   2.886   5.208
11768TIP3    H235246   6.839   2.967   5.144
11769TIP3   OH235247   1.269   6.467   5.154
11769TIP3    H135248   1.358   6.503   5.163
11769TIP3    H235249   1.276   6.380   5.193
11770TIP3   OH235250   7.380   7.137   2.870
11770TIP3    H135251   7.334   7.072   2.818
11770TIP3    H235252   7.330   7.218   2.857
11771TIP3   OH235253   7.686   2.518   3.414
11771TIP3    H135254   7.731   2.600   3.436
11771TIP3    H235255   7.696   2.510   3.319
11772TIP3   OH235256   1.787   7.202   1.897
11772TIP3    H135257   1.751   7.285   1.865
11772TIP3    H235258   1.764   7.201   1.990
11773TIP3   OH235259   2.980   2.770   2.191
11773TIP3    H135260   2.939   2.851   2.222
11773TIP3    H235261   2.935   2.700   2.238
11774TIP3   OH235262   3.869   2.798   6.072
11774TIP3    H135263   3.803   2.814   6.139
11774TIP3    H235264   3.828   2.827   5.990
11775TIP3   OH235265   1.002   2.110   4.700
11775TIP3    H135266   0.917   2.095   4.659
11775TIP3    H235267   1.047   2.025   4.694
11776TIP3   OH235268   3.971   1.623   3.187
11776TIP3    H135269   3.912   1.665   3.249
11776TIP3    H235270   4.043   1.589   3.241
11777TIP3   OH235271   6.691   3.388   6.535
11777TIP3    H135272   6.637   3.388   6.615
11777TIP3    H235273   6.635   3.427   6.468
11778TIP3   OH235274   7.586   3.087   5.348
11778TIP3    H135275   7.556   3.063   5.436
11778TIP3    H235276   7.598   3.181   5.351
11779TIP3   OH235277   2.181   0.846   5.916
11779TIP3    H135278   2.124   0.819   5.844
11779TIP3    H235279   2.254   0.784   5.913
11780TIP3   OH235280   0.941   7.075   3.043
11780TIP3    H135281   0.962   7.127   3.120
11780TIP3    H235282   0.925   6.987   3.077
11781TIP3   OH235283   8.067   0.772   2.650
11781TIP3    H135284   8.109   0.858   2.638
11781TIP3    H235285   8.067   0.733   2.563
11782TIP3   OH235286   4.917   5.963   0.898
11782TIP3    H135287   4.928   6.019   0.975
11782TIP3    H235288   4.961   5.881   0.920
11783TIP3   OH235289   4.849   2.182   3.327
11783TIP3    H135290   4.790   2.236   3.381
11783TIP3    H235291   4.923   2.240   3.307
11784TIP3   OH235292   2.154   0.840   1.536
11784TIP3    H135293   2.207   0.796   1.470
11784TIP3    H235294   2.175   0.933   1.525
11785TIP3   OH235295   6.585   0.472   6.404
11785TIP3    H135296   6.654   0.483   6.469
11785TIP3    H235297   6.623   0.505   6.322
11786TIP3   OH235298   0.367   4.982   5.197
11786TIP3    H135299   0.316   4.903   5.182
11786TIP3    H235300   0.367   4.994   5.292
11787TIP3   OH235301   7.327   4.715   6.816
11787TIP3    H135302   7.289   4.631   6.842
11787TIP3    H235303   7.384   4.694   6.743
11788TIP3   OH235304   1.567   4.966   5.469
11788TIP3    H135305   1.651   4.967   5.423
11788TIP3    H235306   1.502   4.963   5.399
11789TIP3   OH235307   3.411   7.108   0.831
11789TIP3    H135308   3.405   7.087   0.738
11789TIP3    H235309   3.481   7.052   0.864
11790TIP3   OH235310   1.909   4.880   4.974
11790TIP3    H135311   1.972   4.888   5.045
11790TIP3    H235312   1.830   4.843   5.015
11791TIP3   OH235313   6.133   4.081   5.688
11791TIP3    H135314   6.189   4.004   5.681
11791TIP3    H235315   6.044   4.046   5.693
11792TIP3   OH235316   4.423   5.937   1.576
11792TIP3    H135317   4.400   5.883   1.651
11792TIP3    H235318   4.400   6.026   1.602
11793TIP3   OH235319   6.508   6.555   2.901
11793TIP3    H135320   6.556   6.607   2.836
11793TIP3    H235321   6.436   6.612   2.928
11794TIP3   OH235322   7.183   4.671   4.575
11794TIP3    H135323   7.220   4.741   4.628
11794TIP3    H235324   7.207   4.590   4.619
11795TIP3   OH235325   2.375   6.627   6.153
11795TIP3    H135326   2.460   6.655   6.118
11795TIP3    H235327   2.353   6.548   6.102
11796TIP3   OH235328   5.032   5.071   5.435
11796TIP3    H135329   5.093   5.138   5.466
11796TIP3    H235330   5.058   4.991   5.481
11797TIP3   OH235331   4.845   1.625   6.496
11797TIP3    H135332   4.889   1.560   6.552
11797TIP3    H235333   4.916   1.665   6.446
11798TIP3   OH235334   6.874   7.581   3.487
11798TIP3    H135335   6.954   7.544   3.523
11798TIP3    H235336   6.863   7.537   3.403
11799TIP3   OH235337   0.626   4.819   1.539
11799TIP3    H135338   0.562   4.839   1.471
11799TIP3    H235339   0.702   4.784   1.492
11800TIP3   OH235340   8.257   7.370   1.912
11800TIP3    H135341   8.231   7.279   1.928
11800TIP3    H235342   8.324   7.388   1.978
11801TIP3   OH235343   3.738   3.727   1.452
11801TIP3    H135344   3.782   3.794   1.399
11801TIP3    H235345   3.761   3.645   1.409
11802TIP3   OH235346   4.807   6.521   6.662
11802TIP3    H135347   4.760   6.446   6.697
11802TIP3    H235348   4.779   6.596   6.715
11803TIP3   OH235349   6.351   2.262   2.102
11803TIP3    H135350   6.324   2.307   2.182
11803TIP3    H235351   6.447   2.270   2.101
11804TIP3   OH235352   6.926   2.839   4.005
11804TIP3    H135353   6.936   2.773   3.936
11804TIP3    H235354   6.875   2.909   3.964
11805TIP3   OH235355   6.810   3.275   4.773
11805TIP3    H135356   6.841   3.363   4.754
11805TIP3    H235357   6.846   3.221   4.703
11806TIP3   OH235358   2.500   1.614   0.239
11806TIP3    H135359   2.558   1.539   0.227
11806TIP3    H235360   2.559   1.689   0.245
11807TIP3   OH235361   7.033   1.804   1.928
11807TIP3    H135362   7.098   1.793   1.859
11807TIP3    H235363   6.949   1.801   1.882
11808TIP3   OH235364   7.598   1.398   2.885
11808TIP3    H135365   7.630   1.341   2.955
11808TIP3    H235366   7.593   1.340   2.808
11809TIP3   OH235367   3.838   1.614   1.250
11809TIP3    H135368   3.748   1.583   1.238
11809TIP3    H235369   3.842   1.695   1.199
11810TIP3   OH235370   4.049   4.361   1.085
11810TIP3    H135371   3.977   4.420   1.110
11810TIP3    H235372   4.128   4.405   1.118
11811TIP3   OH235373   3.315   4.153   1.787
11811TIP3    H135374   3.314   4.162   1.692
11811TIP3    H235375   3.287   4.063   1.803
11812TIP3   OH235376   2.581   4.464   4.768
11812TIP3    H135377   2.545   4.472   4.856
11812TIP3    H235378   2.538   4.387   4.731
11813TIP3   OH235379   7.857   7.560   1.586
11813TIP3    H135380   7.948   7.580   1.610
11813TIP3    H235381   7.852   7.580   1.493
11814TIP3   OH235382   3.904   7.379   2.655
11814TIP3    H135383   3.831   7.417   2.606
11814TIP3    H235384   3.936   7.452   2.709
11815TIP3   OH235385   1.586   5.359   5.486
11815TIP3    H135386   1.494   5.332   5.479
11815TIP3    H235387   1.583   5.454   5.487
11816TIP3   OH235388   5.774   3.184   4.724
11816TIP3    H135389   5.798   3.196   4.632
11816TIP3    H235390   5.704   3.248   4.739
11817TIP3   OH235391   7.145   2.378   2.085
11817TIP3    H135392   7.207   2.315   2.121
11817TIP3    H235393   7.069   2.373   2.143
11818TIP3   OH235394   2.437   1.130   1.166
11818TIP3    H135395   2.532   1.124   1.176
11818TIP3    H235396   2.412   1.208   1.216
11819TIP3   OH235397   0.905   3.605   6.746
11819TIP3    H135398   0.837   3.643   6.690
11819TIP3    H235399   0.930   3.524   6.701
11820TIP3   OH235400   2.625   7.788   2.489
11820TIP3    H135401   2.640   7.779   2.583
11820TIP3    H235402   2.530   7.786   2.480
11821TIP3   OH235403   0.119   5.540   1.745
11821TIP3    H135404   0.190   5.498   1.695
11821TIP3    H235405   0.040   5.495   1.715
11822TIP3   OH235406   2.538   5.053   0.455
11822TIP3    H135407   2.506   4.965   0.439
11822TIP3    H235408   2.602   5.042   0.526
11823TIP3   OH235409   7.763   7.090   6.484
11823TIP3    H135410   7.800   7.027   6.546
11823TIP3    H235411   7.670   7.093   6.506
11824TIP3   OH235412   1.553   0.896   4.856
11824TIP3    H135413   1.632   0.842   4.870
11824TIP3    H235414   1.494   0.869   4.926
11825TIP3   OH235415   0.250   7.594   3.871
11825TIP3    H135416   0.333   7.641   3.881
11825TIP3    H235417   0.242   7.542   3.951
11826TIP3   OH235418   5.589   0.427   5.804
11826TIP3    H135419   5.548   0.439   5.719
11826TIP3    H235420   5.643   0.349   5.794
11827TIP3   OH235421   2.628   6.912   1.939
11827TIP3    H135422   2.698   6.976   1.929
11827TIP3    H235423   2.654   6.859   2.014
11828TIP3   OH235424   0.331   2.292   1.161
11828TIP3    H135425   0.392   2.303   1.088
11828TIP3    H235426   0.252   2.256   1.121
11829TIP3   OH235427   4.609   7.684   4.089
11829TIP3    H135428   4.542   7.725   4.144
11829TIP3    H235429   4.569   7.682   4.002
11830TIP3   OH235430   6.043   0.474   2.793
11830TIP3    H135431   6.046   0.560   2.835
11830TIP3    H235432   6.062   0.492   2.701
11831TIP3   OH235433   3.304   1.006   6.154
11831TIP3    H135434   3.354   0.981   6.231
11831TIP3    H235435   3.314   1.101   6.148
11832TIP3   OH235436   0.827   3.750   6.507
11832TIP3    H135437   0.770   3.821   6.537
11832TIP3    H235438   0.884   3.792   6.442
11833TIP3   OH235439   3.406   4.802   5.592
11833TIP3    H135440   3.346   4.794   5.518
11833TIP3    H235441   3.381   4.731   5.651
11834TIP3   OH235442   7.612   2.333   3.977
11834TIP3    H135443   7.582   2.254   4.022
11834TIP3    H235444   7.531   2.376   3.949
11835TIP3   OH235445   7.313   4.028   6.756
11835TIP3    H135446   7.374   4.001   6.688
11835TIP3    H235447   7.228   4.029   6.712
11836TIP3   OH235448   5.103   2.678   5.839
11836TIP3    H135449   5.060   2.732   5.905
11836TIP3    H235450   5.115   2.737   5.765
11837TIP3   OH235451   6.704   2.079   1.728
11837TIP3    H135452   6.608   2.076   1.733
11837TIP3    H235453   6.733   2.026   1.803
11838TIP3   OH235454   3.306   7.644   0.170
11838TIP3    H135455   3.271   7.728   0.200
11838TIP3    H235456   3.372   7.668   0.104
11839TIP3   OH235457   1.898   4.084   3.952
11839TIP3    H135458   1.942   3.999   3.951
11839TIP3    H235459   1.898   4.112   3.861
11840TIP3   OH235460   6.422   1.751   0.676
11840TIP3    H135461   6.353   1.687   0.659
11840TIP3    H235462   6.396   1.829   0.629
11841TIP3   OH235463   1.467   4.141   2.299
11841TIP3    H135464   1.543   4.103   2.343
11841TIP3    H235465   1.463   4.097   2.214
11842TIP3   OH235466   2.791   3.961   0.748
11842TIP3    H135467   2.728   4.004   0.691
11842TIP3    H235468   2.874   4.003   0.728
11843TIP3   OH235469   6.586   1.481   1.553
11843TIP3    H135470   6.644   1.557   1.549
11843TIP3    H235471   6.614   1.434   1.632
11844TIP3   OH235472   1.242   4.944   6.819
11844TIP3    H135473   1.330   4.910   6.802
11844TIP3    H235474   1.226   4.924   6.911
11845TIP3   OH235475   6.037   0.959   4.457
11845TIP3    H135476   6.046   0.908   4.377
11845TIP3    H235477   5.945   0.984   4.460
11846TIP3   OH235478   0.540   2.961   0.187
11846TIP3    H135479   0.486   3.030   0.226
11846TIP3    H235480   0.570   2.909   0.262
11847TIP3   OH235481   4.196   1.956   4.384
11847TIP3    H135482   4.173   1.866   4.406
11847TIP3    H235483   4.275   1.948   4.330
11848TIP3   OH235484   1.272   3.837   6.034
11848TIP3    H135485   1.328   3.791   5.972
11848TIP3    H235486   1.231   3.907   5.982
11849TIP3   OH235487   6.045   4.891   2.445
11849TIP3    H135488   6.013   4.857   2.361
11849TIP3    H235489   6.020   4.823   2.509
11850TIP3   OH235490   4.181   2.316   6.336
11850TIP3    H135491   4.127   2.247   6.298
11850TIP3    H235492   4.229   2.273   6.407
11851TIP3   OH235493   6.097   7.725   1.166
11851TIP3    H135494   6.038   7.693   1.234
11851TIP3    H235495   6.093   7.821   1.174
11852TIP3   OH235496   2.778   4.873   5.541
11852TIP3    H135497   2.787   4.837   5.630
11852TIP3    H235498   2.867   4.897   5.517
11853TIP3   OH235499   1.896   3.168   5.131
11853TIP3    H135500   1.863   3.215   5.054
11853TIP3    H235501   1.986   3.144   5.108
11854TIP3   OH235502   7.158   1.583   6.751
11854TIP3    H135503   7.180   1.671   6.782
11854TIP3    H235504   7.067   1.571   6.775
11855TIP3   OH235505   4.135   1.588   1.892
11855TIP3    H135506   4.065   1.643   1.859
11855TIP3    H235507   4.144   1.612   1.984
11856TIP3   OH235508   7.532   2.212   5.854
11856TIP3    H135509   7.526   2.134   5.798
11856TIP3    H235510   7.525   2.177   5.943
11857TIP3   OH235511   1.507   4.081   1.502
11857TIP3    H135512   1.502   4.060   1.409
11857TIP3    H235513   1.593   4.122   1.513
11858TIP3   OH235514   5.922   2.095   1.163
11858TIP3    H135515   5.957   2.014   1.126
11858TIP3    H235516   5.978   2.164   1.125
11859TIP3   OH235517   1.316   0.652   4.315
11859TIP3    H135518   1.267   0.695   4.385
11859TIP3    H235519   1.407   0.671   4.335
11860TIP3   OH235520   1.324   2.087   0.307
11860TIP3    H135521   1.253   2.074   0.244
11860TIP3    H235522   1.402   2.101   0.253
11861TIP3   OH235523   7.513   7.290   4.549
11861TIP3    H135524   7.587   7.281   4.490
11861TIP3    H235525   7.500   7.384   4.558
11862TIP3   OH235526   3.559   0.856   3.720
11862TIP3    H135527   3.595   0.868   3.632
11862TIP3    H235528   3.624   0.803   3.765
11863TIP3   OH235529   6.512   6.197   1.455
11863TIP3    H135530   6.417   6.184   1.446
11863TIP3    H235531   6.550   6.113   1.428
11864TIP3   OH235532   3.958   4.191   1.447
11864TIP3    H135533   4.042   4.215   1.487
11864TIP3    H235534   3.918   4.274   1.423
11865TIP3   OH235535   4.307   7.398   5.400
11865TIP3    H135536   4.361   7.342   5.455
11865TIP3    H235537   4.349   7.484   5.404
11866TIP3   OH235538   0.683   3.420   6.087
11866TIP3    H135539   0.619   3.351   6.106
11866TIP3    H235540   0.635   3.502   6.102
11867TIP3   OH235541   5.616   1.744   0.144
11867TIP3    H135542   5.680   1.674   0.130
11867TIP3    H235543   5.594   1.738   0.236
11868TIP3   OH235544   0.478   6.199   6.407
11868TIP3    H135545   0.428   6.155   6.476
11868TIP3    H235546   0.418   6.203   6.332
11869TIP3   OH235547   3.922   2.425   3.105
11869TIP3    H135548   3.884   2.378   3.031
11869TIP3    H235549   3.931   2.358   3.173
11870TIP3   OH235550   4.302   7.737   4.127
11870TIP3    H135551   4.311   7.642   4.125
11870TIP3    H235552   4.208   7.753   4.115
11871TIP3   OH235553   0.946   2.793   1.523
11871TIP3    H135554   0.875   2.849   1.553
11871TIP3    H235555   0.941   2.796   1.428
11872TIP3   OH235556   2.798   4.437   6.844
11872TIP3    H135557   2.802   4.523   6.884
11872TIP3    H235558   2.887   4.422   6.810
11873TIP3   OH235559   6.864   3.552   1.223
11873TIP3    H135560   6.851   3.569   1.129
11873TIP3    H235561   6.883   3.458   1.228
11874TIP3   OH235562   7.026   2.057   0.297
11874TIP3    H135563   7.001   2.120   0.364
11874TIP3    H235564   7.004   1.972   0.333
11875TIP3   OH235565   3.703   4.804   2.567
11875TIP3    H135566   3.780   4.785   2.620
11875TIP3    H235567   3.628   4.781   2.622
11876TIP3   OH235568   6.900   0.554   5.911
11876TIP3    H135569   6.988   0.593   5.907
11876TIP3    H235570   6.852   0.598   5.841
11877TIP3   OH235571   2.852   4.162   3.310
11877TIP3    H135572   2.809   4.097   3.255
11877TIP3    H235573   2.941   4.168   3.276
11878TIP3   OH235574   6.909   1.523   6.817
11878TIP3    H135575   6.831   1.571   6.789
11878TIP3    H235576   6.927   1.462   6.746
11879TIP3   OH235577   2.980   6.406   5.991
11879TIP3    H135578   2.900   6.407   5.938
11879TIP3    H235579   2.951   6.430   6.079
11880TIP3   OH235580   3.110   4.342   0.460
11880TIP3    H135581   3.202   4.355   0.483
11880TIP3    H235582   3.073   4.430   0.454
11881TIP3   OH235583   4.708   0.918   4.280
11881TIP3    H135584   4.726   0.859   4.207
11881TIP3    H235585   4.616   0.945   4.267
11882TIP3   OH235586   7.240   4.010   6.390
11882TIP3    H135587   7.262   4.063   6.314
11882TIP3    H235588   7.287   4.051   6.463
11883TIP3   OH235589   5.489   4.667   6.174
11883TIP3    H135590   5.503   4.759   6.150
11883TIP3    H235591   5.552   4.618   6.122
11884TIP3   OH235592   1.772   6.810   2.975
11884TIP3    H135593   1.807   6.746   3.036
11884TIP3    H235594   1.758   6.761   2.894
11885TIP3   OH235595   2.552   1.534   4.955
11885TIP3    H135596   2.564   1.627   4.938
11885TIP3    H235597   2.590   1.520   5.042
11886TIP3   OH235598   1.087   4.863   0.560
11886TIP3    H135599   1.054   4.817   0.482
11886TIP3    H235600   1.182   4.850   0.557
11887TIP3   OH235601   6.387   3.493   4.798
11887TIP3    H135602   6.304   3.541   4.809
11887TIP3    H235603   6.377   3.416   4.854
11888TIP3   OH235604   2.151   1.277   4.334
11888TIP3    H135605   2.143   1.195   4.384
11888TIP3    H235606   2.147   1.346   4.401
11889TIP3   OH235607   4.268   0.450   2.789
11889TIP3    H135608   4.223   0.535   2.789
11889TIP3    H235609   4.262   0.419   2.698
11890TIP3   OH235610   3.794   5.435   0.663
11890TIP3    H135611   3.808   5.529   0.659
11890TIP3    H235612   3.752   5.413   0.579
11891TIP3   OH235613   5.110   2.027   5.408
11891TIP3    H135614   5.034   1.980   5.376
11891TIP3    H235615   5.082   2.119   5.410
11892TIP3   OH235616   8.048   4.451   4.207
11892TIP3    H135617   8.107   4.491   4.142
11892TIP3    H235618   8.016   4.524   4.259
11893TIP3   OH235619   7.596   0.542   6.512
11893TIP3    H135620   7.518   0.491   6.489
11893TIP3    H235621   7.668   0.498   6.466
11894TIP3   OH235622   2.526   6.091   3.571
11894TIP3    H135623   2.585   6.018   3.586
11894TIP3    H235624   2.543   6.118   3.480
11895TIP3   OH235625   1.288   2.092   6.033
11895TIP3    H135626   1.299   2.185   6.016
11895TIP3    H235627   1.221   2.065   5.970
11896TIP3   OH235628   8.193   4.426   3.695
11896TIP3    H135629   8.262   4.381   3.745
11896TIP3    H235630   8.120   4.365   3.697
11897TIP3   OH235631   2.501   6.362   2.656
11897TIP3    H135632   2.541   6.407   2.730
11897TIP3    H235633   2.482   6.274   2.689
11898TIP3   OH235634   4.110   3.925   4.869
11898TIP3    H135635   4.045   3.922   4.798
11898TIP3    H235636   4.142   3.836   4.876
11899TIP3   OH235637   2.723   7.008   0.564
11899TIP3    H135638   2.702   6.973   0.477
11899TIP3    H235639   2.692   6.941   0.625
11900TIP3   OH235640   2.117   6.260   0.185
11900TIP3    H135641   2.085   6.345   0.154
11900TIP3    H235642   2.052   6.233   0.250
11901TIP3   OH235643   5.597   5.466   4.597
11901TIP3    H135644   5.508   5.434   4.603
11901TIP3    H235645   5.622   5.485   4.688
11902TIP3   OH235646   1.309   2.215   6.653
11902TIP3    H135647   1.235   2.156   6.643
11902TIP3    H235648   1.331   2.210   6.746
11903TIP3   OH235649   6.882   0.085   0.445
11903TIP3    H135650   6.888   0.034   0.526
11903TIP3    H235651   6.835   0.164   0.469
11904TIP3   OH235652   5.235   3.869   5.555
11904TIP3    H135653   5.243   3.961   5.579
11904TIP3    H235654   5.296   3.858   5.482
11905TIP3   OH235655   7.528   4.684   6.651
11905TIP3    H135656   7.565   4.706   6.736
11905TIP3    H235657   7.584   4.615   6.617
11906TIP3   OH235658   1.252   7.681   4.069
11906TIP3    H135659   1.342   7.668   4.100
11906TIP3    H235660   1.232   7.772   4.090
11907TIP3   OH235661   1.776   4.591   1.522
11907TIP3    H135662   1.846   4.532   1.549
11907TIP3    H235663   1.699   4.561   1.571
11908TIP3   OH235664   7.535   1.889   0.143
11908TIP3    H135665   7.463   1.828   0.153
11908TIP3    H235666   7.500   1.960   0.089
11909TIP3   OH235667   3.056   2.845   0.461
11909TIP3    H135668   2.977   2.898   0.450
11909TIP3    H235669   3.066   2.837   0.556
11910TIP3   OH235670   6.523   0.124   4.483
11910TIP3    H135671   6.434   0.122   4.519
11910TIP3    H235672   6.529   0.207   4.436
11911TIP3   OH235673   0.408   2.761   4.543
11911TIP3    H135674   0.480   2.705   4.569
11911TIP3    H235675   0.352   2.766   4.620
11912TIP3   OH235676   7.318   0.045   4.020
11912TIP3    H135677   7.244  -0.013   4.001
11912TIP3    H235678   7.357   0.063   3.935
11913TIP3   OH235679   7.292   6.190   3.876
11913TIP3    H135680   7.322   6.243   3.950
11913TIP3    H235681   7.201   6.216   3.863
11914TIP3   OH235682   1.002   5.161   2.991
11914TIP3    H135683   0.956   5.174   3.074
11914TIP3    H235684   1.044   5.075   3.000
11915TIP3   OH235685   7.961   4.251   6.467
11915TIP3    H135686   8.001   4.276   6.550
11915TIP3    H235687   7.939   4.335   6.426
11916TIP3   OH235688   7.046   5.545   1.302
11916TIP3    H135689   6.986   5.553   1.377
11916TIP3    H235690   6.997   5.493   1.238
11917TIP3   OH235691   5.046   3.122   2.846
11917TIP3    H135692   4.981   3.101   2.779
11917TIP3    H235693   4.995   3.152   2.921
11918TIP3   OH235694   5.018   6.888   6.719
11918TIP3    H135695   4.966   6.968   6.711
11918TIP3    H235696   4.986   6.832   6.649
11919TIP3   OH235697   7.490   0.891   0.813
11919TIP3    H135698   7.497   0.986   0.820
11919TIP3    H235699   7.408   0.876   0.766
11920TIP3   OH235700   0.030   0.696   1.273
11920TIP3    H135701   0.027   0.788   1.299
11920TIP3    H235702   0.043   0.648   1.354
11921TIP3   OH235703   0.765   6.300   5.998
11921TIP3    H135704   0.795   6.272   6.084
11921TIP3    H235705   0.828   6.365   5.970
11922TIP3   OH235706   6.470   4.787   6.344
11922TIP3    H135707   6.391   4.809   6.295
11922TIP3    H235708   6.485   4.694   6.326
11923TIP3   OH235709   6.877   0.040   3.287
11923TIP3    H135710   6.839   0.024   3.200
11923TIP3    H235711   6.844  -0.032   3.341
11924TIP3   OH235712   6.876   2.043   2.824
11924TIP3    H135713   6.810   1.980   2.793
11924TIP3    H235714   6.824   2.109   2.870
11925TIP3   OH235715   0.371   2.472   1.712
11925TIP3    H135716   0.315   2.438   1.643
11925TIP3    H235717   0.313   2.485   1.787
11926TIP3   OH235718   3.713   4.879   5.141
11926TIP3    H135719   3.688   4.794   5.177
11926TIP3    H235720   3.695   4.941   5.211
11927TIP3   OH235721   8.141   5.614   1.903
11927TIP3    H135722   8.070   5.659   1.949
11927TIP3    H235723   8.126   5.635   1.810
11928TIP3   OH235724   0.713   4.244   4.656
11928TIP3    H135725   0.716   4.169   4.716
11928TIP3    H235726   0.718   4.204   4.569
11929TIP3   OH235727   6.794   6.427   1.132
11929TIP3    H135728   6.888   6.439   1.117
11929TIP3    H235729   6.784   6.428   1.227
11930TIP3   OH235730   6.372   7.125   5.864
11930TIP3    H135731   6.392   7.174   5.785
11930TIP3    H235732   6.316   7.053   5.834
11931TIP3   OH235733   6.998   7.658   6.306
11931TIP3    H135734   7.078   7.612   6.282
11931TIP3    H235735   6.939   7.588   6.336
11932TIP3   OH235736   4.758   7.118   1.940
11932TIP3    H135737   4.695   7.172   1.891
11932TIP3    H235738   4.727   7.121   2.030
11933TIP3   OH235739   2.557   0.834   6.091
11933TIP3    H135740   2.612   0.757   6.101
11933TIP3    H235741   2.611   0.896   6.042
11934TIP3   OH235742   3.043   1.617   2.690
11934TIP3    H135743   2.984   1.663   2.749
11934TIP3    H235744   2.989   1.549   2.651
11935TIP3   OH235745   4.702   3.551   0.868
11935TIP3    H135746   4.694   3.475   0.926
11935TIP3    H235747   4.613   3.585   0.860
11936TIP3   OH235748   0.138   5.895   5.104
11936TIP3    H135749   0.074   5.958   5.136
11936TIP3    H235750   0.221   5.943   5.105
11937TIP3   OH235751   5.916   0.445   6.559
11937TIP3    H135752   5.964   0.363   6.547
11937TIP3    H235753   5.883   0.440   6.649
11938TIP3   OH235754   5.309   1.760   1.429
11938TIP3    H135755   5.242   1.798   1.486
11938TIP3    H235756   5.261   1.726   1.354
11939TIP3   OH235757   0.521   2.514   4.600
11939TIP3    H135758   0.460   2.481   4.667
11939TIP3    H235759   0.599   2.539   4.649
11940TIP3   OH235760   3.160   3.546   0.007
11940TIP3    H135761   3.123   3.518   0.090
11940TIP3    H235762   3.199   3.632   0.025
11941TIP3   OH235763   3.288   0.700   6.223
11941TIP3    H135764   3.381   0.707   6.244
11941TIP3    H235765   3.284   0.716   6.128
11942TIP3   OH235766   5.570   4.777   2.382
11942TIP3    H135767   5.561   4.689   2.345
11942TIP3    H235768   5.553   4.836   2.309
11943TIP3   OH235769   6.061   1.374   3.542
11943TIP3    H135770   6.020   1.345   3.461
11943TIP3    H235771   5.996   1.356   3.610
11944TIP3   OH235772   1.233   0.689   2.428
11944TIP3    H135773   1.192   0.712   2.345
11944TIP3    H235774   1.190   0.608   2.455
11945TIP3   OH235775   7.390   7.184   0.027
11945TIP3    H135776   7.457   7.148  -0.031
11945TIP3    H235777   7.356   7.260  -0.020
11946TIP3   OH235778   2.725   5.899   3.721
11946TIP3    H135779   2.748   5.826   3.779
11946TIP3    H235780   2.676   5.858   3.650
11947TIP3   OH235781   4.640   7.041   3.699
11947TIP3    H135782   4.688   6.979   3.753
11947TIP3    H235783   4.548   7.016   3.709
11948TIP3   OH235784   5.572   7.025   2.884
11948TIP3    H135785   5.562   6.939   2.925
11948TIP3    H235786   5.605   7.082   2.954
11949TIP3   OH235787   1.866   4.131   0.417
11949TIP3    H135788   1.852   4.108   0.325
11949TIP3    H235789   1.961   4.140   0.425
11950TIP3   OH235790   2.486   6.296   5.700
11950TIP3    H135791   2.489   6.343   5.784
11950TIP3    H235792   2.578   6.276   5.681
11951TIP3   OH235793   4.872   5.894   2.247
11951TIP3    H135794   4.854   5.893   2.341
11951TIP3    H235795   4.917   5.978   2.233
11952TIP3   OH235796   6.919   2.431   5.868
11952TIP3    H135797   6.888   2.342   5.852
11952TIP3    H235798   7.010   2.420   5.897
11953TIP3   OH235799   5.004   2.213   1.111
11953TIP3    H135800   5.074   2.167   1.065
11953TIP3    H235801   4.963   2.146   1.166
11954TIP3   OH235802   7.966   2.854   3.709
11954TIP3    H135803   8.060   2.836   3.716
11954TIP3    H235804   7.931   2.830   3.794
11955TIP3   OH235805   7.788   0.858   5.993
11955TIP3    H135806   7.808   0.895   5.906
11955TIP3    H235807   7.831   0.773   5.993
11956TIP3   OH235808   7.037   3.186   4.622
11956TIP3    H135809   7.118   3.149   4.657
11956TIP3    H235810   6.978   3.110   4.612
11957TIP3   OH235811   1.309   4.187   4.329
11957TIP3    H135812   1.335   4.175   4.238
11957TIP3    H235813   1.299   4.098   4.364
11958TIP3   OH235814   6.991   2.418   1.256
11958TIP3    H135815   7.017   2.443   1.168
11958TIP3    H235816   7.032   2.484   1.313
11959TIP3   OH235817   1.741   3.920   2.659
11959TIP3    H135818   1.670   3.901   2.720
11959TIP3    H235819   1.803   3.849   2.671
11960TIP3   OH235820   4.082   4.760   5.663
11960TIP3    H135821   4.127   4.681   5.634
11960TIP3    H235822   4.012   4.773   5.599
11961TIP3   OH235823   4.696   5.934   0.072
11961TIP3    H135824   4.787   5.927   0.041
11961TIP3    H235825   4.705   5.954   0.165
11962TIP3   OH235826   5.434   6.711   6.013
11962TIP3    H135827   5.462   6.624   5.985
11962TIP3    H235828   5.344   6.718   5.982
11963TIP3   OH235829   4.172   7.292   3.944
11963TIP3    H135830   4.078   7.276   3.932
11963TIP3    H235831   4.208   7.208   3.970
11964TIP3   OH235832   5.011   7.815   1.127
11964TIP3    H135833   4.978   7.904   1.112
11964TIP3    H235834   4.944   7.773   1.181
11965TIP3   OH235835   4.719   0.036   0.298
11965TIP3    H135836   4.699   0.022   0.206
11965TIP3    H235837   4.686   0.124   0.317
11966TIP3   OH235838   3.125   5.293   0.839
11966TIP3    H135839   3.197   5.356   0.848
11966TIP3    H235840   3.169   5.209   0.827
11967TIP3   OH235841   1.085   4.668   1.334
11967TIP3    H135842   1.095   4.630   1.247
11967TIP3    H235843   1.006   4.722   1.328
11968TIP3   OH235844   3.132   2.158   1.016
11968TIP3    H135845   3.110   2.065   1.027
11968TIP3    H235846   3.217   2.157   0.972
11969TIP3   OH235847   7.788   5.465   2.454
11969TIP3    H135848   7.768   5.558   2.459
11969TIP3    H235849   7.773   5.432   2.542
11970TIP3   OH235850   0.339   4.635   3.361
11970TIP3    H135851   0.355   4.729   3.359
11970TIP3    H235852   0.282   4.620   3.285
11971TIP3   OH235853   7.437   4.451   2.738
11971TIP3    H135854   7.411   4.455   2.831
11971TIP3    H235855   7.441   4.358   2.718
11972TIP3   OH235856   5.121   6.685   2.962
11972TIP3    H135857   5.124   6.684   2.866
11972TIP3    H235858   5.175   6.760   2.987
11973TIP3   OH235859   8.125   5.774   0.584
11973TIP3    H135860   8.080   5.690   0.591
11973TIP3    H235861   8.115   5.800   0.493
11974TIP3   OH235862   1.846   1.514   5.193
11974TIP3    H135863   1.764   1.509   5.242
11974TIP3    H235864   1.879   1.424   5.193
11975TIP3   OH235865   6.676   7.029   3.316
11975TIP3    H135866   6.590   7.003   3.347
11975TIP3    H235867   6.733   7.020   3.393
11976TIP3   OH235868   2.271   6.195   6.349
11976TIP3    H135869   2.320   6.114   6.341
11976TIP3    H235870   2.181   6.172   6.325
11977TIP3   OH235871   5.376   1.054   3.916
11977TIP3    H135872   5.372   1.010   3.831
11977TIP3    H235873   5.450   1.114   3.908
11978TIP3   OH235874   3.099   4.934   2.407
11978TIP3    H135875   3.081   5.027   2.393
11978TIP3    H235876   3.020   4.889   2.378
11979TIP3   OH235877   5.089   5.623   3.423
11979TIP3    H135878   4.996   5.644   3.430
11979TIP3    H235879   5.095   5.530   3.446
11980TIP3   OH235880   3.383   4.274   6.036
11980TIP3    H135881   3.397   4.242   5.947
11980TIP3    H235882   3.340   4.359   6.024
11981TIP3   OH235883   4.569   6.714   2.964
11981TIP3    H135884   4.524   6.797   2.948
11981TIP3    H235885   4.653   6.740   3.001
11982TIP3   OH235886   6.873   2.628   0.525
11982TIP3    H135887   6.885   2.552   0.583
11982TIP3    H235888   6.858   2.589   0.438
11983TIP3   OH235889   4.937   7.081   2.222
11983TIP3    H135890   4.899   7.049   2.304
11983TIP3    H235891   4.889   7.162   2.203
11984TIP3   OH235892   2.793   5.681   3.870
11984TIP3    H135893   2.734   5.628   3.816
11984TIP3    H235894   2.880   5.644   3.853
11985TIP3   OH235895   2.144   1.152   2.136
11985TIP3    H135896   2.052   1.170   2.152
11985TIP3    H235897   2.160   1.179   2.046
11986TIP3   OH235898   4.615   1.353   4.542
11986TIP3    H135899   4.600   1.319   4.453
11986TIP3    H235900   4.587   1.445   4.536
11987TIP3   OH235901   5.129   6.373   5.189
11987TIP3    H135902   5.173   6.347   5.270
11987TIP3    H235903   5.039   6.390   5.216
11988TIP3   OH235904   0.813   7.269   0.198
11988TIP3    H135905   0.903   7.296   0.217
11988TIP3    H235906   0.759   7.336   0.240
11989TIP3   OH235907   3.883   3.936   6.691
11989TIP3    H135908   3.965   3.947   6.642
11989TIP3    H235909   3.879   3.843   6.710
11990TIP3   OH235910   4.735   0.134   1.117
11990TIP3    H135911   4.827   0.114   1.101
11990TIP3    H235912   4.688   0.078   1.056
11991TIP3   OH235913   0.702   0.728   6.619
11991TIP3    H135914   0.782   0.683   6.647
11991TIP3    H235915   0.714   0.742   6.526
11992TIP3   OH235916   4.045   6.138   0.423
11992TIP3    H135917   3.957   6.109   0.446
11992TIP3    H235918   4.068   6.201   0.492
11993TIP3   OH235919   6.880   5.086   2.409
11993TIP3    H135920   6.823   5.049   2.343
11993TIP3    H235921   6.967   5.085   2.369
11994TIP3   OH235922   6.131   7.730   3.240
11994TIP3    H135923   6.058   7.748   3.300
11994TIP3    H235924   6.097   7.750   3.153
11995TIP3   OH235925   5.642   6.862   1.898
11995TIP3    H135926   5.580   6.935   1.894
11995TIP3    H235927   5.593   6.791   1.939
11996TIP3   OH235928   2.431   5.064   6.741
11996TIP3    H135929   2.451   5.156   6.758
11996TIP3    H235930   2.516   5.025   6.718
11997TIP3   OH235931   0.035   5.232   0.435
11997TIP3    H135932   0.094   5.302   0.409
11997TIP3    H235933   0.059   5.212   0.526
11998TIP3   OH235934   3.952   6.439   6.265
11998TIP3    H135935   3.888   6.507   6.243
11998TIP3    H235936   3.910   6.357   6.239
11999TIP3   OH235937   4.421   5.145   5.372
11999TIP3    H135938   4.337   5.139   5.326
11999TIP3    H235939   4.480   5.091   5.320
12000TIP3   OH235940   1.708   5.962   2.150
12000TIP3    H135941   1.686   6.005   2.232
12000TIP3    H235942   1.624   5.944   2.108
12001TIP3   OH235943   5.813   2.982   4.487
12001TIP3    H135944   5.774   2.931   4.416
12001TIP3    H235945   5.791   3.073   4.465
12002TIP3   OH235946   0.828   1.800   0.601
12002TIP3    H135947   0.743   1.801   0.558
12002TIP3    H235948   0.846   1.893   0.621
12003TIP3   OH235949   0.007   4.903   3.631
12003TIP3    H135950  -0.046   4.954   3.570
12003TIP3    H235951   0.013   4.816   3.591
12004TIP3   OH235952   0.528   7.396   4.494
12004TIP3    H135953   0.613   7.440   4.497
12004TIP3    H235954   0.486   7.430   4.415
12005TIP3   OH235955   8.115   6.527   5.039
12005TIP3    H135956   8.174   6.547   4.967
12005TIP3    H235957   8.033   6.571   5.015
12006TIP3   OH235958   2.400   4.207   6.350
12006TIP3    H135959   2.322   4.162   6.381
12006TIP3    H235960   2.449   4.228   6.429
12007TIP3   OH235961   2.033   3.782   3.952
12007TIP3    H135962   1.999   3.773   4.041
12007TIP3    H235963   1.961   3.752   3.896
12008TIP3   OH235964   7.037   0.026   6.044
12008TIP3    H135965   7.072  -0.063   6.033
12008TIP3    H235966   6.991   0.024   6.128
12009TIP3   OH235967   6.760   6.646   0.621
12009TIP3    H135968   6.750   6.554   0.597
12009TIP3    H235969   6.775   6.691   0.538
12010TIP3   OH235970   0.024   3.560   4.339
12010TIP3    H135971   0.007   3.585   4.430
12010TIP3    H235972  -0.007   3.634   4.287
12011TIP3   OH235973   6.659   2.641   3.820
12011TIP3    H135974   6.617   2.725   3.842
12011TIP3    H235975   6.751   2.664   3.804
12012TIP3   OH235976   8.143   3.449   3.580
12012TIP3    H135977   8.051   3.433   3.601
12012TIP3    H235978   8.188   3.369   3.609
12013TIP3   OH235979   0.950   4.899   3.845
12013TIP3    H135980   0.917   4.826   3.898
12013TIP3    H235981   1.044   4.901   3.864
12014TIP3   OH235982   2.649   3.725   2.883
12014TIP3    H135983   2.741   3.730   2.858
12014TIP3    H235984   2.630   3.632   2.888
12015TIP3   OH235985   7.663   5.700   3.685
12015TIP3    H135986   7.609   5.742   3.619
12015TIP3    H235987   7.651   5.753   3.763
12016TIP3   OH235988   0.796   7.887   3.686
12016TIP3    H135989   0.821   7.958   3.745
12016TIP3    H235990   0.855   7.896   3.611
12017TIP3   OH235991   5.791   3.251   1.760
12017TIP3    H135992   5.875   3.245   1.807
12017TIP3    H235993   5.725   3.225   1.824
12018TIP3   OH235994   2.715   6.367   2.475
12018TIP3    H135995   2.670   6.329   2.399
12018TIP3    H235996   2.645   6.384   2.538
12019TIP3   OH235997   6.518   3.367   3.086
12019TIP3    H135998   6.498   3.316   3.007
12019TIP3    H235999   6.581   3.433   3.057
12020TIP3   OH236000   7.092   2.491   1.012
12020TIP3    H136001   7.137   2.553   0.956
12020TIP3    H236002   6.999   2.510   0.998
12021TIP3   OH236003   1.720   1.503   2.696
12021TIP3    H136004   1.694   1.450   2.771
12021TIP3    H236005   1.638   1.539   2.663
12022TIP3   OH236006   5.336   0.037   1.321
12022TIP3    H136007   5.301   0.123   1.300
12022TIP3    H236008   5.429   0.051   1.338
12023TIP3   OH236009   7.064   2.588   1.891
12023TIP3    H136010   7.114   2.517   1.930
12023TIP3    H236011   7.102   2.600   1.804
12024TIP3   OH236012   3.323   1.333   5.236
12024TIP3    H136013   3.313   1.350   5.330
12024TIP3    H236014   3.244   1.370   5.197
12025TIP3   OH236015   0.182   0.676   5.693
12025TIP3    H136016   0.157   0.709   5.779
12025TIP3    H236017   0.103   0.634   5.659
12026TIP3   OH236018   0.430   4.329   2.807
12026TIP3    H136019   0.438   4.423   2.787
12026TIP3    H236020   0.502   4.289   2.759
12027TIP3   OH236021   3.241   7.684   6.622
12027TIP3    H136022   3.328   7.673   6.661
12027TIP3    H236023   3.245   7.769   6.579
12028TIP3   OH236024   5.349   1.718   1.945
12028TIP3    H136025   5.330   1.811   1.932
12028TIP3    H236026   5.330   1.703   2.038
12029TIP3   OH236027   6.857   1.098   5.771
12029TIP3    H136028   6.930   1.147   5.733
12029TIP3    H236029   6.829   1.150   5.846
12030TIP3   OH236030   6.296   5.871   0.613
12030TIP3    H136031   6.348   5.950   0.629
12030TIP3    H236032   6.305   5.819   0.692
12031TIP3   OH236033   1.493   5.194   6.289
12031TIP3    H136034   1.586   5.193   6.312
12031TIP3    H236035   1.487   5.143   6.208
12032TIP3   OH236036   7.583   5.195   0.760
12032TIP3    H136037   7.523   5.212   0.688
12032TIP3    H236038   7.563   5.263   0.825
12033TIP3   OH236039   5.726   6.070   3.964
12033TIP3    H136040   5.782   6.001   4.002
12033TIP3    H236041   5.788   6.132   3.927
12034TIP3   OH236042   7.093   0.785   4.115
12034TIP3    H136043   7.008   0.760   4.077
12034TIP3    H236044   7.108   0.721   4.184
12035TIP3   OH236045   6.768   0.500   1.765
12035TIP3    H136046   6.793   0.418   1.721
12035TIP3    H236047   6.784   0.482   1.858
12036TIP3   OH236048   3.074   4.287   4.166
12036TIP3    H136049   3.087   4.382   4.166
12036TIP3    H236050   3.121   4.257   4.089
12037TIP3   OH236051   4.402   1.181   5.940
12037TIP3    H136052   4.436   1.150   6.024
12037TIP3    H236053   4.394   1.102   5.887
12038TIP3   OH236054   3.470   7.387   6.374
12038TIP3    H136055   3.536   7.456   6.360
12038TIP3    H236056   3.464   7.341   6.291
12039TIP3   OH236057   4.246   7.168   2.691
12039TIP3    H136058   4.239   7.257   2.726
12039TIP3    H236059   4.202   7.113   2.756
12040TIP3   OH236060   2.186   6.672   6.482
12040TIP3    H136061   2.238   6.595   6.456
12040TIP3    H236062   2.113   6.674   6.420
12041TIP3   OH236063   7.569   6.914   0.895
12041TIP3    H136064   7.635   6.981   0.879
12041TIP3    H236065   7.551   6.876   0.809
12042TIP3   OH236066   7.057   1.251   5.665
12042TIP3    H136067   7.054   1.344   5.690
12042TIP3    H236068   7.138   1.243   5.615
12043TIP3   OH236069   5.146   6.858   1.991
12043TIP3    H136070   5.193   6.836   1.911
12043TIP3    H236071   5.141   6.953   1.991
12044TIP3   OH236072   1.830   6.597   1.345
12044TIP3    H136073   1.911   6.615   1.298
12044TIP3    H236074   1.786   6.682   1.353
12045TIP3   OH236075   8.359   6.363   3.854
12045TIP3    H136076   8.427   6.296   3.840
12045TIP3    H236077   8.308   6.364   3.773
12046TIP3   OH236078   6.247   4.202   0.695
12046TIP3    H136079   6.154   4.179   0.693
12046TIP3    H236080   6.288   4.136   0.639
12047TIP3   OH236081   5.436   3.682   5.934
12047TIP3    H136082   5.506   3.633   5.890
12047TIP3    H236083   5.483   3.744   5.990
12048TIP3   OH236084   0.114   2.359   2.500
12048TIP3    H136085   0.116   2.397   2.412
12048TIP3    H236086   0.166   2.419   2.553
12049TIP3   OH236087   3.816   6.604   3.684
12049TIP3    H136088   3.804   6.521   3.730
12049TIP3    H236089   3.799   6.671   3.751
12050TIP3   OH236090   4.606   0.286   5.287
12050TIP3    H136091   4.642   0.353   5.345
12050TIP3    H236092   4.679   0.225   5.274
12051TIP3   OH236093   3.690   3.258   3.928
12051TIP3    H136094   3.635   3.307   3.867
12051TIP3    H236095   3.748   3.206   3.872
12052TIP3   OH236096   5.873   1.636   2.311
12052TIP3    H136097   5.934   1.704   2.284
12052TIP3    H236098   5.852   1.656   2.402
12053TIP3   OH236099   6.501   6.863   3.457
12053TIP3    H136100   6.435   6.800   3.484
12053TIP3    H236101   6.508   6.924   3.531
12054TIP3   OH236102   4.248   5.952   2.680
12054TIP3    H136103   4.292   5.993   2.605
12054TIP3    H236104   4.212   6.026   2.729
12055TIP3   OH236105   7.556   7.814   1.409
12055TIP3    H136106   7.479   7.765   1.437
12055TIP3    H236107   7.520   7.888   1.359
12056TIP3   OH236108   6.110   6.002   5.212
12056TIP3    H136109   6.044   5.934   5.207
12056TIP3    H236110   6.143   5.998   5.302
12057TIP3   OH236111   1.312   3.220   1.355
12057TIP3    H136112   1.328   3.311   1.329
12057TIP3    H236113   1.379   3.170   1.308
12058TIP3   OH236114   6.831   6.082   5.936
12058TIP3    H136115   6.864   6.171   5.953
12058TIP3    H236116   6.876   6.027   6.000
12059TIP3   OH236117   7.707   2.755   1.367
12059TIP3    H136118   7.652   2.781   1.441
12059TIP3    H236119   7.660   2.681   1.327
12060TIP3   OH236120   4.715   3.223   5.192
12060TIP3    H136121   4.678   3.163   5.127
12060TIP3    H236122   4.664   3.304   5.181
12061TIP3   OH236123   7.620   4.933   2.689
12061TIP3    H136124   7.700   4.979   2.714
12061TIP3    H236125   7.649   4.844   2.669
12062TIP3   OH236126   2.517   4.023   4.166
12062TIP3    H136127   2.461   4.046   4.092
12062TIP3    H236128   2.518   4.101   4.221
12063TIP3   OH236129   1.967   3.520   5.572
12063TIP3    H136130   1.933   3.467   5.644
12063TIP3    H236131   2.062   3.506   5.575
12064TIP3   OH236132   5.546   7.759   5.294
12064TIP3    H136133   5.497   7.772   5.213
12064TIP3    H236134   5.638   7.769   5.268
12065TIP3   OH236135   5.154   7.141   2.801
12065TIP3    H136136   5.236   7.144   2.751
12065TIP3    H236137   5.180   7.157   2.891
12066TIP3   OH236138   4.125   6.846   2.085
12066TIP3    H136139   4.149   6.753   2.089
12066TIP3    H236140   4.204   6.893   2.112
12067TIP3   OH236141   0.592   3.780   0.576
12067TIP3    H136142   0.569   3.713   0.640
12067TIP3    H236143   0.680   3.756   0.546
12068TIP3   OH236144   4.482   0.879   1.894
12068TIP3    H136145   4.515   0.913   1.811
12068TIP3    H236146   4.400   0.834   1.871
12069TIP3   OH236147   5.993   6.038   1.285
12069TIP3    H136148   5.949   6.089   1.353
12069TIP3    H236149   5.944   6.058   1.205
12070TIP3   OH236150   5.367   2.144   1.992
12070TIP3    H136151   5.446   2.094   2.011
12070TIP3    H236152   5.314   2.086   1.937
12071TIP3   OH236153   4.758   1.008   1.373
12071TIP3    H136154   4.849   1.016   1.342
12071TIP3    H236155   4.728   0.924   1.338
12072TIP3   OH236156   5.579   2.981   0.986
12072TIP3    H136157   5.604   3.042   0.917
12072TIP3    H236158   5.537   3.036   1.053
12073TIP3   OH236159   6.694   2.873   2.911
12073TIP3    H136160   6.728   2.945   2.858
12073TIP3    H236161   6.676   2.803   2.848
12074TIP3   OH236162   6.227   5.101   2.285
12074TIP3    H136163   6.171   5.110   2.362
12074TIP3    H236164   6.210   5.179   2.233
12075TIP3   OH236165   3.421   7.347   5.673
12075TIP3    H136166   3.375   7.400   5.608
12075TIP3    H236167   3.431   7.261   5.632
12076TIP3   OH236168   4.229   1.597   0.782
12076TIP3    H136169   4.187   1.675   0.819
12076TIP3    H236170   4.315   1.627   0.753
12077TIP3   OH236171   7.308   0.859   4.338
12077TIP3    H136172   7.382   0.829   4.285
12077TIP3    H236173   7.256   0.913   4.278
12078TIP3   OH236174   0.170   3.671   6.476
12078TIP3    H136175   0.192   3.661   6.568
12078TIP3    H236176   0.197   3.760   6.454
12079TIP3   OH236177   0.336   7.300   0.739
12079TIP3    H136178   0.325   7.395   0.746
12079TIP3    H236179   0.302   7.278   0.652
12080TIP3   OH236180   3.754   3.515   2.558
12080TIP3    H136181   3.726   3.606   2.553
12080TIP3    H236182   3.801   3.499   2.476
12081TIP3   OH236183   6.060   0.512   2.487
12081TIP3    H136184   6.103   0.547   2.410
12081TIP3    H236185   5.968   0.535   2.476
12082TIP3   OH236186   0.418   2.832   0.562
12082TIP3    H136187   0.412   2.836   0.657
12082TIP3    H236188   0.415   2.924   0.534
12083TIP3   OH236189   7.843   2.282   4.173
12083TIP3    H136190   7.866   2.374   4.161
12083TIP3    H236191   7.782   2.263   4.102
12084TIP3   OH236192   6.417   7.715   5.293
12084TIP3    H136193   6.508   7.729   5.320
12084TIP3    H236194   6.395   7.628   5.326
12085TIP3   OH236195   7.534   2.216   1.545
12085TIP3    H136196   7.594   2.164   1.600
12085TIP3    H236197   7.447   2.194   1.577
12086TIP3   OH236198   2.804   7.490   4.649
12086TIP3    H136199   2.830   7.486   4.741
12086TIP3    H236200   2.716   7.452   4.647
12087TIP3   OH236201   6.353   3.480   2.115
12087TIP3    H136202   6.262   3.505   2.098
12087TIP3    H236203   6.390   3.554   2.164
12088TIP3   OH236204   0.341   0.731   5.312
12088TIP3    H136205   0.337   0.751   5.219
12088TIP3    H236206   0.278   0.660   5.324
12089TIP3   OH236207   4.901   5.666   5.747
12089TIP3    H136208   4.823   5.721   5.747
12089TIP3    H236209   4.929   5.663   5.656
12090TIP3   OH236210   5.769   1.022   6.604
12090TIP3    H136211   5.783   0.927   6.610
12090TIP3    H236212   5.824   1.050   6.531
12091TIP3   OH236213   3.218   0.528   3.050
12091TIP3    H136214   3.292   0.542   3.109
12091TIP3    H236215   3.248   0.559   2.965
12092TIP3   OH236216   7.052   7.168   5.890
12092TIP3    H136217   7.142   7.195   5.869
12092TIP3    H236218   7.009   7.249   5.918
12093TIP3   OH236219   2.025   7.496   2.713
12093TIP3    H136220   2.118   7.520   2.711
12093TIP3    H236221   1.979   7.580   2.716
12094TIP3   OH236222   6.762   1.287   6.308
12094TIP3    H136223   6.682   1.320   6.349
12094TIP3    H236224   6.746   1.194   6.294
12095TIP3   OH236225   3.253   3.657   1.111
12095TIP3    H136226   3.274   3.726   1.048
12095TIP3    H236227   3.243   3.578   1.058
12096TIP3   OH236228   3.624   6.800   4.406
12096TIP3    H136229   3.694   6.820   4.345
12096TIP3    H236230   3.667   6.753   4.478
12097TIP3   OH236231   5.656   6.605   2.596
12097TIP3    H136232   5.720   6.616   2.666
12097TIP3    H236233   5.665   6.685   2.543
12098TIP3   OH236234   1.416   5.358   6.033
12098TIP3    H136235   1.491   5.411   6.061
12098TIP3    H236236   1.455   5.276   6.002
12099TIP3   OH236237   5.654   0.003   0.797
12099TIP3    H136238   5.648   0.049   0.880
12099TIP3    H236239   5.568   0.015   0.756
12100TIP3   OH236240   1.551   6.691   6.111
12100TIP3    H136241   1.548   6.654   6.023
12100TIP3    H236242   1.642   6.717   6.124
12101TIP3   OH236243   0.408   4.046   3.909
12101TIP3    H136244   0.376   4.122   3.860
12101TIP3    H236245   0.338   3.982   3.901
12102TIP3   OH236246   3.617   2.943   6.154
12102TIP3    H136247   3.546   2.948   6.091
12102TIP3    H236248   3.609   2.856   6.193
12103TIP3   OH236249   4.429   1.084   6.336
12103TIP3    H136250   4.437   1.158   6.396
12103TIP3    H236251   4.340   1.092   6.300
12104TIP3   OH236252   5.435   0.319   4.352
12104TIP3    H136253   5.434   0.383   4.423
12104TIP3    H236254   5.389   0.362   4.280
12105TIP3   OH236255   4.576   7.386   0.668
12105TIP3    H136256   4.481   7.401   0.671
12105TIP3    H236257   4.585   7.300   0.626
12106TIP3   OH236258   4.215   2.670   4.304
12106TIP3    H136259   4.297   2.703   4.342
12106TIP3    H236260   4.174   2.622   4.376
12107TIP3   OH236261   4.359   3.913   2.803
12107TIP3    H136262   4.348   3.818   2.801
12107TIP3    H236263   4.333   3.942   2.716
12108TIP3   OH236264   1.122   4.399   5.713
12108TIP3    H136265   1.092   4.330   5.654
12108TIP3    H236266   1.044   4.453   5.728
12109TIP3   OH236267   5.232   1.454   5.784
12109TIP3    H136268   5.140   1.436   5.766
12109TIP3    H236269   5.270   1.473   5.698
12110TIP3   OH236270   4.149   4.431   3.847
12110TIP3    H136271   4.213   4.406   3.780
12110TIP3    H236272   4.196   4.423   3.930
12111TIP3   OH236273   2.176   4.767   6.625
12111TIP3    H136274   2.166   4.853   6.667
12111TIP3    H236275   2.249   4.727   6.673
12112TIP3   OH236276   4.469   1.883   1.250
12112TIP3    H136277   4.545   1.889   1.308
12112TIP3    H236278   4.458   1.789   1.235
12113TIP3   OH236279   6.071   1.147   5.341
12113TIP3    H136280   6.088   1.176   5.251
12113TIP3    H236281   6.091   1.053   5.340
12114TIP3   OH236282   5.213   2.664   5.422
12114TIP3    H136283   5.203   2.650   5.328
12114TIP3    H236284   5.306   2.685   5.433
12115TIP3   OH236285   0.084   5.303   1.383
12115TIP3    H136286   0.173   5.310   1.350
12115TIP3    H236287   0.069   5.208   1.392
12116TIP3   OH236288   3.560   2.528   4.263
12116TIP3    H136289   3.499   2.464   4.227
12116TIP3    H236290   3.576   2.498   4.353
12117TIP3   OH236291   0.366   5.013   2.596
12117TIP3    H136292   0.405   5.022   2.682
12117TIP3    H236293   0.417   4.944   2.553
12118TIP3   OH236294   0.155   0.027   4.287
12118TIP3    H136295   0.113   0.019   4.373
12118TIP3    H236296   0.137  -0.057   4.244
12119TIP3   OH236297   0.348   0.481   1.537
12119TIP3    H136298   0.443   0.491   1.541
12119TIP3    H236299   0.318   0.501   1.625
12120TIP3   OH236300   5.096   0.466   2.035
12120TIP3    H136301   5.180   0.423   2.019
12120TIP3    H236302   5.030   0.402   2.007
12121TIP3   OH236303   6.766   6.458   3.966
12121TIP3    H136304   6.739   6.541   3.925
12121TIP3    H236305   6.840   6.482   4.021
12122TIP3   OH236306   0.058   1.221   0.058
12122TIP3    H136307  -0.003   1.181  -0.005
12122TIP3    H236308   0.087   1.148   0.113
12123TIP3   OH236309   0.583   4.832   2.454
12123TIP3    H136310   0.580   4.878   2.371
12123TIP3    H236311   0.648   4.880   2.506
12124TIP3   OH236312   1.105   2.739   4.809
12124TIP3    H136313   1.102   2.784   4.893
12124TIP3    H236314   1.186   2.769   4.768
12125TIP3   OH236315   3.161   3.892   1.827
12125TIP3    H136316   3.191   3.869   1.739
12125TIP3    H236317   3.177   3.813   1.879
12126TIP3   OH236318   2.135   3.929   2.454
12126TIP3    H136319   2.217   3.967   2.486
12126TIP3    H236320   2.095   3.889   2.531
12127TIP3   OH236321   1.786   5.257   4.394
12127TIP3    H136322   1.826   5.258   4.481
12127TIP3    H236323   1.844   5.311   4.340
12128TIP3   OH236324   1.530   4.574   5.295
12128TIP3    H136325   1.441   4.609   5.289
12128TIP3    H236326   1.562   4.574   5.205
12129TIP3   OH236327   0.358   0.602   1.045
12129TIP3    H136328   0.343   0.541   1.118
12129TIP3    H236329   0.324   0.556   0.968
12130TIP3   OH236330   3.165   0.752   6.507
12130TIP3    H136331   3.165   0.843   6.535
12130TIP3    H236332   3.225   0.749   6.433
12131TIP3   OH236333   0.945   0.758   4.911
12131TIP3    H136334   0.948   0.663   4.925
12131TIP3    H236335   0.964   0.796   4.997
12132TIP3   OH236336   1.806   2.585   1.220
12132TIP3    H136337   1.860   2.600   1.143
12132TIP3    H236338   1.795   2.490   1.225
12133TIP3   OH236339   3.696   4.116   5.391
12133TIP3    H136340   3.659   4.171   5.460
12133TIP3    H236341   3.620   4.085   5.341
12134TIP3   OH236342   7.158   1.688   2.358
12134TIP3    H136343   7.212   1.766   2.348
12134TIP3    H236344   7.144   1.681   2.452
12135TIP3   OH236345   1.241   6.937   2.883
12135TIP3    H136346   1.215   7.021   2.846
12135TIP3    H236347   1.322   6.957   2.932
12136TIP3   OH236348   6.253   3.361   5.150
12136TIP3    H136349   6.232   3.453   5.134
12136TIP3    H236350   6.212   3.340   5.234
12137TIP3   OH236351   4.137   0.738   1.276
12137TIP3    H136352   4.206   0.752   1.341
12137TIP3    H236353   4.172   0.672   1.217
12138TIP3   OH236354   6.640   7.768   3.745
12138TIP3    H136355   6.654   7.791   3.653
12138TIP3    H236356   6.675   7.843   3.794
12139TIP3   OH236357   1.603   6.658   1.927
12139TIP3    H136358   1.518   6.635   1.888
12139TIP3    H236359   1.624   6.744   1.891
12140TIP3   OH236360   5.258   6.349   6.251
12140TIP3    H136361   5.168   6.382   6.251
12140TIP3    H236362   5.249   6.254   6.265
12141TIP3   OH236363   2.903   1.481   6.719
12141TIP3    H136364   2.903   1.477   6.814
12141TIP3    H236365   2.851   1.558   6.698
12142TIP3   OH236366   7.762   2.150   0.113
12142TIP3    H136367   7.675   2.112   0.106
12142TIP3    H236368   7.821   2.074   0.114
12143TIP3   OH236369   0.901   6.445   2.410
12143TIP3    H136370   0.812   6.474   2.391
12143TIP3    H236371   0.931   6.502   2.481
12144TIP3   OH236372   3.802   0.433   3.665
12144TIP3    H136373   3.802   0.414   3.759
12144TIP3    H236374   3.719   0.398   3.633
12145TIP3   OH236375   6.194   3.139   2.952
12145TIP3    H136376   6.135   3.153   3.026
12145TIP3    H236377   6.207   3.044   2.950
12146TIP3   OH236378   1.326   5.832   5.584
12146TIP3    H136379   1.286   5.879   5.510
12146TIP3    H236380   1.388   5.895   5.621
12147TIP3   OH236381   5.910   6.650   3.914
12147TIP3    H136382   5.879   6.738   3.894
12147TIP3    H236383   5.959   6.659   3.995
12148TIP3   OH236384   6.437   6.372   2.709
12148TIP3    H136385   6.478   6.390   2.624
12148TIP3    H236386   6.499   6.407   2.773
12149TIP3   OH236387   5.041   5.074   3.509
12149TIP3    H136388   4.999   5.075   3.595
12149TIP3    H236389   5.112   5.010   3.518
12150TIP3   OH236390   6.539   2.346   6.255
12150TIP3    H136391   6.535   2.414   6.322
12150TIP3    H236392   6.594   2.383   6.186
12151TIP3   OH236393   6.889   6.929   0.176
12151TIP3    H136394   6.963   6.871   0.195
12151TIP3    H236395   6.929   7.015   0.163
12152TIP3   OH236396   8.323   7.609   6.828
12152TIP3    H136397   8.376   7.637   6.754
12152TIP3    H236398   8.281   7.689   6.859
12153TIP3   OH236399   6.224   3.533   1.661
12153TIP3    H136400   6.302   3.516   1.714
12153TIP3    H236401   6.223   3.463   1.596
12154TIP3   OH236402   8.392   3.000   2.755
12154TIP3    H136403   8.374   3.049   2.675
12154TIP3    H236404   8.306   2.972   2.786
12155TIP3   OH236405   8.115   5.077   3.859
12155TIP3    H136406   8.206   5.046   3.859
12155TIP3    H236407   8.068   5.015   3.803
12156TIP3   OH236408   7.907   7.490   4.510
12156TIP3    H136409   7.981   7.550   4.501
12156TIP3    H236410   7.948   7.406   4.532
12157TIP3   OH236411   8.138   6.770   6.211
12157TIP3    H136412   8.227   6.796   6.188
12157TIP3    H236413   8.106   6.840   6.267
12158TIP3   OH236414   6.608   3.585   2.407
12158TIP3    H136415   6.646   3.583   2.319
12158TIP3    H236416   6.563   3.501   2.416
12159TIP3   OH236417   4.757   0.733   6.746
12159TIP3    H136418   4.671   0.773   6.733
12159TIP3    H236419   4.792   0.719   6.658
12160TIP3   OH236420   3.095   5.727   4.347
12160TIP3    H136421   3.073   5.766   4.262
12160TIP3    H236422   3.057   5.639   4.344
12161TIP3   OH236423   0.122   3.522   5.307
12161TIP3    H136424   0.079   3.459   5.365
12161TIP3    H236425   0.095   3.495   5.219
12162TIP3   OH236426   0.942   2.567   1.947
12162TIP3    H136427   1.023   2.607   1.979
12162TIP3    H236428   0.972   2.491   1.896
12163TIP3   OH236429   3.033   7.557   5.691
12163TIP3    H136430   2.947   7.594   5.672
12163TIP3    H236431   3.015   7.482   5.747
12164TIP3   OH236432   2.150   7.874   5.584
12164TIP3    H136433   2.076   7.839   5.634
12164TIP3    H236434   2.199   7.796   5.557
12165TIP3   OH236435   6.699   7.160   5.618
12165TIP3    H136436   6.614   7.200   5.603
12165TIP3    H236437   6.696   7.129   5.708
12166TIP3   OH236438   1.258   3.745   2.186
12166TIP3    H136439   1.276   3.838   2.174
12166TIP3    H236440   1.326   3.715   2.247
12167TIP3   OH236441   0.985   2.564   1.116
12167TIP3    H136442   1.061   2.506   1.108
12167TIP3    H236443   1.024   2.650   1.133
12168TIP3   OH236444   0.808   2.562   4.130
12168TIP3    H136445   0.755   2.629   4.087
12168TIP3    H236446   0.757   2.534   4.206
12169TIP3   OH236447   1.438   2.447   4.378
12169TIP3    H136448   1.440   2.406   4.291
12169TIP3    H236449   1.393   2.530   4.365
12170TIP3   OH236450   5.697   2.262   4.210
12170TIP3    H136451   5.665   2.219   4.290
12170TIP3    H236452   5.730   2.346   4.240
12171TIP3   OH236453   7.008   5.626   0.247
12171TIP3    H136454   7.038   5.667   0.328
12171TIP3    H236455   7.089   5.604   0.200
12172TIP3   OH236456   4.946   6.226   0.445
12172TIP3    H136457   4.988   6.169   0.381
12172TIP3    H236458   4.969   6.189   0.530
12173TIP3   OH236459   2.918   3.014   2.368
12173TIP3    H136460   2.999   3.024   2.418
12173TIP3    H236461   2.902   3.101   2.330
12174TIP3   OH236462   5.782   4.352   1.416
12174TIP3    H136463   5.697   4.395   1.426
12174TIP3    H236464   5.842   4.402   1.471
12175TIP3   OH236465   2.812   1.664   3.935
12175TIP3    H136466   2.882   1.730   3.929
12175TIP3    H236467   2.859   1.581   3.939
12176TIP3   OH236468   4.520   6.841   5.772
12176TIP3    H136469   4.437   6.797   5.750
12176TIP3    H236470   4.522   6.843   5.868
12177TIP3   OH236471   5.441   4.207   1.234
12177TIP3    H136472   5.353   4.170   1.243
12177TIP3    H236473   5.482   4.154   1.166
12178TIP3   OH236474   4.510   4.548   2.123
12178TIP3    H136475   4.604   4.563   2.134
12178TIP3    H236476   4.472   4.574   2.207
12179TIP3   OH236477   5.533   2.856   3.360
12179TIP3    H136478   5.561   2.789   3.297
12179TIP3    H236479   5.500   2.927   3.305
12180TIP3   OH236480   8.305   6.524   1.283
12180TIP3    H136481   8.229   6.568   1.245
12180TIP3    H236482   8.275   6.494   1.369
12181TIP3   OH236483   0.089   3.430   5.613
12181TIP3    H136484   0.093   3.405   5.706
12181TIP3    H236485   0.129   3.516   5.610
12182TIP3   OH236486   1.567   6.336   2.029
12182TIP3    H136487   1.543   6.346   2.121
12182TIP3    H236488   1.637   6.401   2.015
12183TIP3   OH236489   4.495   2.267   3.711
12183TIP3    H136490   4.451   2.348   3.736
12183TIP3    H236491   4.495   2.269   3.615
12184TIP3   OH236492   6.752   5.451   1.869
12184TIP3    H136493   6.752   5.535   1.914
12184TIP3    H236494   6.660   5.437   1.845
12185TIP3   OH236495   2.906   6.081   3.823
12185TIP3    H136496   2.847   6.010   3.798
12185TIP3    H236497   2.992   6.040   3.832
12186TIP3   OH236498   4.293   7.861   3.668
12186TIP3    H136499   4.356   7.925   3.636
12186TIP3    H236500   4.308   7.783   3.615
12187TIP3   OH236501   0.790   7.362   0.903
12187TIP3    H136502   0.841   7.431   0.945
12187TIP3    H236503   0.700   7.394   0.905
12188TIP3   OH236504   1.897   0.985   0.968
12188TIP3    H136505   1.977   0.971   0.917
12188TIP3    H236506   1.850   1.052   0.918
12189TIP3   OH236507   4.290   7.592   2.425
12189TIP3    H136508   4.227   7.662   2.444
12189TIP3    H236509   4.239   7.512   2.434
12190TIP3   OH236510   0.082   0.623   2.681
12190TIP3    H136511   0.067   0.598   2.590
12190TIP3    H236512   0.004   0.593   2.727
12191TIP3   OH236513   4.841   4.190   0.664
12191TIP3    H136514   4.794   4.205   0.581
12191TIP3    H236515   4.900   4.264   0.672
12192TIP3   OH236516   2.609   2.602   5.783
12192TIP3    H136517   2.680   2.666   5.770
12192TIP3    H236518   2.644   2.542   5.848
12193TIP3   OH236519   5.490   0.026   0.284
12193TIP3    H136520   5.463  -0.054   0.328
12193TIP3    H236521   5.546  -0.004   0.212
12194TIP3   OH236522   4.280   6.344   1.525
12194TIP3    H136523   4.220   6.419   1.531
12194TIP3    H236524   4.226   6.269   1.549
12195TIP3   OH236525   5.063   2.057   3.901
12195TIP3    H136526   5.015   2.124   3.852
12195TIP3    H236527   5.042   2.074   3.993
12196TIP3   OH236528   2.287   2.536   6.028
12196TIP3    H136529   2.280   2.509   5.936
12196TIP3    H236530   2.269   2.457   6.078
12197TIP3   OH236531   4.862   6.257   3.647
12197TIP3    H136532   4.889   6.275   3.557
12197TIP3    H236533   4.941   6.224   3.690
12198TIP3   OH236534   3.910   7.633   5.773
12198TIP3    H136535   3.922   7.633   5.678
12198TIP3    H236536   3.998   7.643   5.808
12199TIP3   OH236537   3.274   5.758   6.097
12199TIP3    H136538   3.337   5.763   6.025
12199TIP3    H236539   3.231   5.674   6.085
12200TIP3   OH236540   1.529   3.214   4.487
12200TIP3    H136541   1.599   3.169   4.441
12200TIP3    H236542   1.467   3.145   4.509
12201TIP3   OH236543   7.615   6.026   6.098
12201TIP3    H136544   7.601   5.962   6.029
12201TIP3    H236545   7.599   5.979   6.179
12202TIP3   OH236546   3.760   4.851   3.282
12202TIP3    H136547   3.732   4.761   3.293
12202TIP3    H236548   3.794   4.855   3.192
12203TIP3   OH236549   0.465   4.258   5.716
12203TIP3    H136550   0.404   4.189   5.741
12203TIP3    H236551   0.427   4.339   5.751
12204TIP3   OH236552   5.377   3.566   2.423
12204TIP3    H136553   5.460   3.520   2.413
12204TIP3    H236554   5.394   3.653   2.388
12205TIP3   OH236555   5.388   3.915   5.307
12205TIP3    H136556   5.471   3.873   5.328
12205TIP3    H236557   5.384   3.915   5.211
12206TIP3   OH236558   3.805   3.746   3.371
12206TIP3    H136559   3.746   3.778   3.303
12206TIP3    H236560   3.872   3.813   3.379
12207TIP3   OH236561   0.172   0.541   5.358
12207TIP3    H136562   0.194   0.465   5.305
12207TIP3    H236563   0.131   0.506   5.437
12208TIP3   OH236564   5.950   4.688   2.610
12208TIP3    H136565   5.855   4.681   2.620
12208TIP3    H236566   5.978   4.601   2.584
12209TIP3   OH236567   2.844   4.457   6.517
12209TIP3    H136568   2.915   4.446   6.580
12209TIP3    H236569   2.834   4.371   6.476
12210TIP3   OH236570   5.300   7.783   5.867
12210TIP3    H136571   5.254   7.851   5.818
12210TIP3    H236572   5.235   7.714   5.879
12211TIP3   OH236573   1.379   2.912   1.081
12211TIP3    H136574   1.390   3.007   1.077
12211TIP3    H236575   1.431   2.878   1.009
12212TIP3   OH236576   3.126   2.079   1.392
12212TIP3    H136577   3.039   2.067   1.353
12212TIP3    H236578   3.180   2.012   1.352
12213TIP3   OH236579   0.915   6.084   6.156
12213TIP3    H136580   0.989   6.142   6.174
12213TIP3    H236581   0.853   6.102   6.228
12214TIP3   OH236582   5.492   1.368   5.807
12214TIP3    H136583   5.537   1.398   5.886
12214TIP3    H236584   5.399   1.379   5.826
12215TIP3   OH236585   4.309   3.658   6.394
12215TIP3    H136586   4.405   3.666   6.396
12215TIP3    H236587   4.285   3.688   6.306
12216TIP3   OH236588   0.435   1.452   2.444
12216TIP3    H136589   0.514   1.460   2.391
12216TIP3    H236590   0.452   1.509   2.520
12217TIP3   OH236591   3.891   2.006   5.498
12217TIP3    H136592   3.944   1.926   5.489
12217TIP3    H236593   3.934   2.055   5.569
12218TIP3   OH236594   0.954   4.126   4.816
12218TIP3    H136595   0.986   4.093   4.731
12218TIP3    H236596   0.903   4.054   4.852
12219TIP3   OH236597   7.575   4.174   5.673
12219TIP3    H136598   7.591   4.090   5.715
12219TIP3    H236599   7.499   4.210   5.720
12220TIP3   OH236600   0.989   6.498   0.773
12220TIP3    H136601   0.999   6.404   0.785
12220TIP3    H236602   0.894   6.513   0.775
12221TIP3   OH236603   2.191   7.748   3.893
12221TIP3    H136604   2.257   7.816   3.877
12221TIP3    H236605   2.229   7.668   3.856
12222TIP3   OH236606   2.474   6.351   1.560
12222TIP3    H136607   2.448   6.425   1.506
12222TIP3    H236608   2.405   6.286   1.547
12223TIP3   OH236609   1.594   7.149   6.696
12223TIP3    H136610   1.672   7.202   6.713
12223TIP3    H236611   1.611   7.066   6.739
12224TIP3   OH236612   7.485   4.668   1.443
12224TIP3    H136613   7.402   4.635   1.408
12224TIP3    H236614   7.509   4.740   1.386
12225TIP3   OH236615   1.413   2.537   3.533
12225TIP3    H136616   1.465   2.521   3.612
12225TIP3    H236617   1.440   2.468   3.472
12226TIP3   OH236618   3.650   2.161   2.041
12226TIP3    H136619   3.694   2.238   2.004
12226TIP3    H236620   3.569   2.196   2.079
12227TIP3   OH236621   4.488   5.116   0.384
12227TIP3    H136622   4.567   5.118   0.330
12227TIP3    H236623   4.474   5.024   0.404
12228TIP3   OH236624   7.169   7.278   4.760
12228TIP3    H136625   7.082   7.240   4.762
12228TIP3    H236626   7.169   7.334   4.681
12229TIP3   OH236627   6.079   3.682   3.579
12229TIP3    H136628   6.165   3.685   3.536
12229TIP3    H236629   6.017   3.701   3.510
12230TIP3   OH236630   0.040   4.414   3.143
12230TIP3    H136631   0.117   4.423   3.087
12230TIP3    H236632   0.074   4.384   3.227
12231TIP3   OH236633   7.390   2.458   1.435
12231TIP3    H136634   7.431   2.376   1.464
12231TIP3    H236635   7.451   2.494   1.370
12232TIP3   OH236636   6.019   3.904   2.025
12232TIP3    H136637   6.089   3.843   2.003
12232TIP3    H236638   5.950   3.849   2.061
12233TIP3   OH236639   7.161   4.620   4.297
12233TIP3    H136640   7.151   4.634   4.391
12233TIP3    H236641   7.236   4.674   4.272
12234TIP3   OH236642   5.232   7.697   4.077
12234TIP3    H136643   5.162   7.632   4.088
12234TIP3    H236644   5.286   7.660   4.007
12235TIP3   OH236645   8.085   7.091   6.087
12235TIP3    H136646   8.164   7.043   6.061
12235TIP3    H236647   8.014   7.046   6.041
12236TIP3   OH236648   5.205   7.670   4.404
12236TIP3    H136649   5.238   7.749   4.362
12236TIP3    H236650   5.211   7.688   4.497
12237TIP3   OH236651   4.874   7.104   6.668
12237TIP3    H136652   4.784   7.115   6.640
12237TIP3    H236653   4.882   7.155   6.748
12238TIP3   OH236654   1.169   1.478   6.021
12238TIP3    H136655   1.217   1.402   5.987
12238TIP3    H236656   1.235   1.548   6.023
12239TIP3   OH236657   2.234   0.427   2.473
12239TIP3    H136658   2.151   0.467   2.449
12239TIP3    H236659   2.247   0.358   2.407
12240TIP3   OH236660   5.225   5.005   3.734
12240TIP3    H136661   5.208   4.977   3.824
12240TIP3    H236662   5.236   5.099   3.740
12241TIP3   OH236663   5.252   6.699   4.512
12241TIP3    H136664   5.319   6.632   4.499
12241TIP3    H236665   5.299   6.773   4.551
12242TIP3   OH236666   1.584   6.594   6.675
12242TIP3    H136667   1.589   6.513   6.725
12242TIP3    H236668   1.497   6.592   6.634
12243TIP3   OH236669   2.251   6.671   3.549
12243TIP3    H136670   2.227   6.599   3.608
12243TIP3    H236671   2.332   6.706   3.586
12244TIP3   OH236672   0.415   1.130   0.627
12244TIP3    H136673   0.477   1.117   0.699
12244TIP3    H236674   0.459   1.191   0.568
12245TIP3   OH236675   5.786   3.041   5.806
12245TIP3    H136676   5.744   2.995   5.733
12245TIP3    H236677   5.724   3.031   5.879
12246TIP3   OH236678   5.678   4.189   3.842
12246TIP3    H136679   5.721   4.267   3.809
12246TIP3    H236680   5.592   4.220   3.873
12247TIP3   OH236681   0.756   1.871   5.526
12247TIP3    H136682   0.782   1.800   5.467
12247TIP3    H236683   0.748   1.829   5.612
12248TIP3   OH236684   6.677   4.750   1.380
12248TIP3    H136685   6.732   4.828   1.372
12248TIP3    H236686   6.588   4.784   1.389
12249TIP3   OH236687   4.466   2.661   2.774
12249TIP3    H136688   4.433   2.701   2.694
12249TIP3    H236689   4.391   2.658   2.833
12250TIP3   OH236690   6.881   3.405   3.987
12250TIP3    H136691   6.899   3.320   4.026
12250TIP3    H236692   6.788   3.420   4.003
12251TIP3   OH236693   2.599   6.845   6.727
12251TIP3    H136694   2.568   6.833   6.638
12251TIP3    H236695   2.522   6.827   6.782
12252TIP3   OH236696   0.567   1.563   5.307
12252TIP3    H136697   0.580   1.656   5.290
12252TIP3    H236698   0.536   1.527   5.224
12253TIP3   OH236699   0.520   6.652   2.779
12253TIP3    H136700   0.437   6.604   2.787
12253TIP3    H236701   0.494   6.744   2.788
12254TIP3   OH236702   7.427   0.754   5.858
12254TIP3    H136703   7.472   0.838   5.843
12254TIP3    H236704   7.498   0.694   5.883
12255TIP3   OH236705   5.175   7.881   3.357
12255TIP3    H136706   5.197   7.919   3.442
12255TIP3    H236707   5.166   7.787   3.374
12256TIP3   OH236708   2.732   6.978   4.982
12256TIP3    H136709   2.641   6.950   4.970
12256TIP3    H236710   2.776   6.900   5.015
12257TIP3   OH236711   6.001   2.014   5.069
12257TIP3    H136712   6.086   2.056   5.081
12257TIP3    H236713   5.970   1.996   5.158
12258TIP3   OH236714   3.641   5.257   4.838
12258TIP3    H136715   3.635   5.325   4.905
12258TIP3    H236716   3.707   5.196   4.871
12259TIP3   OH236717   5.262   3.456   2.182
12259TIP3    H136718   5.194   3.389   2.187
12259TIP3    H236719   5.251   3.508   2.262
12260TIP3   OH236720   3.078   6.640   5.131
12260TIP3    H136721   3.001   6.674   5.085
12260TIP3    H236722   3.068   6.670   5.221
12261TIP3   OH236723   4.383   3.428   4.089
12261TIP3    H136724   4.423   3.358   4.038
12261TIP3    H236725   4.450   3.450   4.155
12262TIP3   OH236726   7.210   6.317   1.095
12262TIP3    H136727   7.175   6.245   1.147
12262TIP3    H236728   7.147   6.388   1.107
12263TIP3   OH236729   1.060   0.198   6.774
12263TIP3    H136730   0.989   0.228   6.830
12263TIP3    H236731   1.121   0.155   6.835
12264TIP3   OH236732   2.142   2.121   3.998
12264TIP3    H136733   2.216   2.071   3.961
12264TIP3    H236734   2.075   2.117   3.930
12265TIP3   OH236735   4.576   3.958   5.833
12265TIP3    H136736   4.572   3.932   5.925
12265TIP3    H236737   4.555   3.878   5.785
12266TIP3   OH236738   1.753   4.249   6.850
12266TIP3    H136739   1.729   4.176   6.792
12266TIP3    H236740   1.829   4.288   6.809
12267TIP3   OH236741   7.595   5.770   6.732
12267TIP3    H136742   7.658   5.700   6.750
12267TIP3    H236743   7.576   5.808   6.817
12268TIP3   OH236744   1.232   2.982   0.043
12268TIP3    H136745   1.314   2.942   0.074
12268TIP3    H236746   1.172   2.976   0.117
12269TIP3   OH236747   8.379   0.728   5.452
12269TIP3    H136748   8.447   0.688   5.397
12269TIP3    H236749   8.412   0.816   5.470
12270TIP3   OH236750   4.267   4.345   2.288
12270TIP3    H136751   4.177   4.378   2.292
12270TIP3    H236752   4.322   4.424   2.298
12271TIP3   OH236753   5.005   5.375   6.827
12271TIP3    H136754   5.057   5.437   6.776
12271TIP3    H236755   4.915   5.389   6.798
12272TIP3   OH236756   4.289   2.241   1.869
12272TIP3    H136757   4.250   2.189   1.939
12272TIP3    H236758   4.245   2.326   1.875
12273TIP3   OH236759   7.619   3.936   0.160
12273TIP3    H136760   7.626   4.020   0.206
12273TIP3    H236761   7.706   3.897   0.168
12274TIP3   OH236762   5.118   6.423   4.611
12274TIP3    H136763   5.173   6.500   4.595
12274TIP3    H236764   5.081   6.438   4.698
12275TIP3   OH236765   6.461   5.703   5.060
12275TIP3    H136766   6.485   5.779   5.113
12275TIP3    H236767   6.463   5.735   4.970
12276TIP3   OH236768   2.277   3.152   1.852
12276TIP3    H136769   2.368   3.122   1.846
12276TIP3    H236770   2.247   3.154   1.761
12277TIP3   OH236771   7.008   6.857   3.825
12277TIP3    H136772   7.031   6.776   3.780
12277TIP3    H236773   7.016   6.925   3.758
12278TIP3   OH236774   5.526   7.549   4.262
12278TIP3    H136775   5.587   7.556   4.189
12278TIP3    H236776   5.456   7.493   4.230
12279TIP3   OH236777   4.580   4.672   3.571
12279TIP3    H136778   4.618   4.584   3.576
12279TIP3    H236779   4.527   4.680   3.650
12280TIP3   OH236780   1.389   5.084   4.129
12280TIP3    H136781   1.363   5.177   4.131
12280TIP3    H236782   1.484   5.085   4.136
12281TIP3   OH236783   5.423   6.807   5.464
12281TIP3    H136784   5.515   6.782   5.466
12281TIP3    H236785   5.386   6.756   5.392
12282TIP3   OH236786   7.466   2.663   4.119
12282TIP3    H136787   7.394   2.621   4.165
12282TIP3    H236788   7.424   2.721   4.056
12283TIP3   OH236789   1.438   2.196   1.281
12283TIP3    H136790   1.348   2.185   1.311
12283TIP3    H236791   1.471   2.270   1.332
12284TIP3   OH236792   7.556   4.562   4.474
12284TIP3    H136793   7.618   4.568   4.402
12284TIP3    H236794   7.491   4.497   4.444
12285TIP3   OH236795   4.863   6.899   4.915
12285TIP3    H136796   4.956   6.912   4.932
12285TIP3    H236797   4.823   6.892   5.001
12286TIP3   OH236798   0.886   3.755   0.177
12286TIP3    H136799   0.800   3.795   0.190
12286TIP3    H236800   0.942   3.801   0.240
12287TIP3   OH236801   5.832   7.454   1.381
12287TIP3    H136802   5.914   7.465   1.430
12287TIP3    H236803   5.823   7.536   1.332
12288TIP3   OH236804   3.142   7.650   5.160
12288TIP3    H136805   3.084   7.642   5.236
12288TIP3    H236806   3.229   7.664   5.197
12289TIP3   OH236807   4.910   5.051   5.960
12289TIP3    H136808   4.821   5.037   5.929
12289TIP3    H236809   4.955   4.969   5.944
12290TIP3   OH236810   4.032   4.433   2.989
12290TIP3    H136811   4.023   4.466   3.079
12290TIP3    H236812   4.113   4.382   2.990
12291TIP3   OH236813   7.512   5.274   2.868
12291TIP3    H136814   7.445   5.216   2.835
12291TIP3    H236815   7.559   5.222   2.934
12292TIP3   OH236816   4.295   4.615   5.928
12292TIP3    H136817   4.336   4.681   5.983
12292TIP3    H236818   4.347   4.614   5.848
12293TIP3   OH236819   3.702   5.077   4.065
12293TIP3    H136820   3.774   5.015   4.075
12293TIP3    H236821   3.693   5.089   3.971
12294TIP3   OH236822   4.946   7.213   0.469
12294TIP3    H136823   4.937   7.240   0.378
12294TIP3    H236824   4.859   7.227   0.507
12295TIP3   OH236825   3.372   3.576   5.172
12295TIP3    H136826   3.295   3.525   5.148
12295TIP3    H236827   3.402   3.616   5.091
12296TIP3   OH236828   4.761   0.904   3.344
12296TIP3    H136829   4.708   0.825   3.354
12296TIP3    H236830   4.724   0.966   3.408
12297TIP3   OH236831   3.506   4.152   4.052
12297TIP3    H136832   3.425   4.106   4.074
12297TIP3    H236833   3.557   4.087   4.004
12298TIP3   OH236834   0.502   7.004   1.655
12298TIP3    H136835   0.586   7.035   1.690
12298TIP3    H236836   0.446   6.994   1.732
12299TIP3   OH236837   4.570   3.360   5.497
12299TIP3    H136838   4.516   3.438   5.483
12299TIP3    H236839   4.624   3.382   5.574
12300TIP3   OH236840   5.331   4.788   2.047
12300TIP3    H136841   5.379   4.850   2.103
12300TIP3    H236842   5.325   4.708   2.099
12301TIP3   OH236843   5.108   3.239   6.770
12301TIP3    H136844   5.098   3.145   6.788
12301TIP3    H236845   5.097   3.281   6.855
12302TIP3   OH236846   1.255   4.022   4.635
12302TIP3    H136847   1.273   3.934   4.601
12302TIP3    H236848   1.160   4.028   4.636
12303TIP3   OH236849   7.698   1.052   3.234
12303TIP3    H136850   7.666   1.058   3.324
12303TIP3    H236851   7.793   1.049   3.242
12304TIP3   OH236852   0.488   6.825   5.267
12304TIP3    H136853   0.533   6.855   5.187
12304TIP3    H236854   0.559   6.799   5.326
12305TIP3   OH236855   7.716   5.034   6.667
12305TIP3    H136856   7.627   5.027   6.632
12305TIP3    H236857   7.711   4.992   6.753
12306TIP3   OH236858   1.673   1.565   3.709
12306TIP3    H136859   1.722   1.577   3.628
12306TIP3    H236860   1.644   1.653   3.733
12307TIP3   OH236861   1.390   7.095   4.695
12307TIP3    H136862   1.350   7.066   4.613
12307TIP3    H236863   1.479   7.120   4.670
12308TIP3   OH236864   4.153   2.764   5.767
12308TIP3    H136865   4.089   2.697   5.745
12308TIP3    H236866   4.121   2.843   5.723
12309TIP3   OH236867   1.288   4.722   5.214
12309TIP3    H136868   1.232   4.659   5.260
12309TIP3    H236869   1.274   4.703   5.121
12310TIP3   OH236870   4.510   1.969   3.188
12310TIP3    H136871   4.427   2.016   3.193
12310TIP3    H236872   4.577   2.038   3.196
12311TIP3   OH236873   2.633   2.991   5.948
12311TIP3    H136874   2.678   2.985   6.032
12311TIP3    H236875   2.560   2.930   5.955
12312TIP3   OH236876   0.522   5.712   5.751
12312TIP3    H136877   0.513   5.699   5.657
12312TIP3    H236878   0.439   5.682   5.788
12313TIP3   OH236879   0.790   4.500   4.644
12313TIP3    H136880   0.855   4.500   4.714
12313TIP3    H236881   0.754   4.411   4.644
12314TIP3   OH236882   2.318   1.209   0.442
12314TIP3    H136883   2.238   1.216   0.389
12314TIP3    H236884   2.371   1.283   0.414
12315TIP3   OH236885   3.499   1.926   3.302
12315TIP3    H136886   3.416   1.962   3.334
12315TIP3    H236887   3.474   1.847   3.254
12316TIP3   OH236888   0.364   6.082   5.098
12316TIP3    H136889   0.458   6.068   5.111
12316TIP3    H236890   0.335   6.127   5.177
12317TIP3   OH236891   5.300   4.538   0.354
12317TIP3    H136892   5.383   4.546   0.400
12317TIP3    H236893   5.311   4.592   0.276
12318TIP3   OH236894   5.856   4.292   2.372
12318TIP3    H136895   5.799   4.227   2.331
12318TIP3    H236896   5.914   4.321   2.301
12319TIP3   OH236897   0.267   5.641   2.398
12319TIP3    H136898   0.205   5.626   2.469
12319TIP3    H236899   0.280   5.555   2.358
12320TIP3   OH236900   8.296   1.610   2.941
12320TIP3    H136901   8.263   1.653   2.862
12320TIP3    H236902   8.220   1.608   3.000
12321TIP3   OH236903   1.522   4.789   4.164
12321TIP3    H136904   1.518   4.786   4.068
12321TIP3    H236905   1.498   4.879   4.186
12322TIP3   OH236906   2.883   2.884   6.787
12322TIP3    H136907   2.824   2.819   6.749
12322TIP3    H236908   2.959   2.885   6.729
12323TIP3   OH236909   1.280   2.700   5.873
12323TIP3    H136910   1.231   2.764   5.925
12323TIP3    H236911   1.333   2.753   5.814
12324TIP3   OH236912   3.083   3.307   5.831
12324TIP3    H136913   3.006   3.350   5.795
12324TIP3    H236914   3.049   3.226   5.871
12325TIP3   OH236915   6.090   6.396   3.881
12325TIP3    H136916   6.076   6.489   3.899
12325TIP3    H236917   6.186   6.387   3.878
12326TIP3   OH236918   1.398   4.179   0.455
12326TIP3    H136919   1.446   4.215   0.380
12326TIP3    H236920   1.425   4.234   0.529
12327TIP3   OH236921   8.379   2.236   1.800
12327TIP3    H136922   8.289   2.253   1.827
12327TIP3    H236923   8.372   2.161   1.740
12328TIP3   OH236924   4.515   3.416   5.846
12328TIP3    H136925   4.583   3.462   5.798
12328TIP3    H236926   4.471   3.484   5.897
12329TIP3   OH236927   0.852   3.062   2.089
12329TIP3    H136928   0.880   3.001   2.021
12329TIP3    H236929   0.929   3.116   2.107
12330TIP3   OH236930   3.230   4.204   0.820
12330TIP3    H136931   3.322   4.215   0.797
12330TIP3    H236932   3.231   4.188   0.915
12331TIP3   OH236933   0.781   1.823   4.935
12331TIP3    H136934   0.795   1.886   5.005
12331TIP3    H236935   0.854   1.838   4.874
12332TIP3   OH236936   8.017   1.272   2.041
12332TIP3    H136937   8.074   1.202   2.009
12332TIP3    H236938   8.068   1.352   2.027
12333TIP3   OH236939   0.927   7.852   6.640
12333TIP3    H136940   0.937   7.821   6.550
12333TIP3    H236941   0.886   7.779   6.686
12334TIP3   OH236942   0.761   1.983   2.560
12334TIP3    H136943   0.839   2.026   2.596
12334TIP3    H236944   0.791   1.942   2.479
12335TIP3   OH236945   0.212   7.793   4.501
12335TIP3    H136946   0.279   7.791   4.569
12335TIP3    H236947   0.167   7.708   4.509
12336TIP3   OH236948   0.371   6.316   2.581
12336TIP3    H136949   0.388   6.265   2.502
12336TIP3    H236950   0.456   6.320   2.625
12337TIP3   OH236951   7.311   2.337   4.075
12337TIP3    H136952   7.289   2.398   4.145
12337TIP3    H236953   7.295   2.250   4.112
12338TIP3   OH236954   6.019   5.738   3.660
12338TIP3    H136955   6.012   5.647   3.634
12338TIP3    H236956   6.068   5.780   3.588
12339TIP3   OH236957   2.180   2.461   2.045
12339TIP3    H136958   2.137   2.408   2.113
12339TIP3    H236959   2.264   2.419   2.031
12340TIP3   OH236960   8.169   0.196   1.976
12340TIP3    H136961   8.141   0.106   1.957
12340TIP3    H236962   8.259   0.186   2.009
12341TIP3   OH236963   4.136   7.568   3.779
12341TIP3    H136964   4.225   7.567   3.743
12341TIP3    H236965   4.138   7.499   3.846
12342TIP3   OH236966   4.541   5.567   2.123
12342TIP3    H136967   4.543   5.522   2.038
12342TIP3    H236968   4.468   5.629   2.115
12343TIP3   OH236969   5.200   4.223   4.710
12343TIP3    H136970   5.280   4.216   4.658
12343TIP3    H236971   5.132   4.247   4.647
12344TIP3   OH236972   3.874   7.225   1.220
12344TIP3    H136973   3.801   7.217   1.159
12344TIP3    H236974   3.919   7.140   1.214
12345TIP3   OH236975   8.376   6.871   5.178
12345TIP3    H136976   8.345   6.790   5.219
12345TIP3    H236977   8.325   6.940   5.221
12346TIP3   OH236978   3.218   6.498   5.903
12346TIP3    H136979   3.265   6.419   5.875
12346TIP3    H236980   3.128   6.469   5.915
12347TIP3   OH236981   7.578   3.445   5.093
12347TIP3    H136982   7.627   3.404   5.022
12347TIP3    H236983   7.519   3.507   5.049
12348TIP3   OH236984   4.815   4.218   2.834
12348TIP3    H136985   4.728   4.179   2.840
12348TIP3    H236986   4.863   4.180   2.908
12349TIP3   OH236987   5.649   6.255   0.570
12349TIP3    H136988   5.727   6.237   0.518
12349TIP3    H236989   5.594   6.309   0.512
12350TIP3   OH236990   6.027   3.652   1.020
12350TIP3    H136991   6.094   3.715   1.046
12350TIP3    H236992   5.950   3.705   1.000
12351TIP3   OH236993   1.173   7.370   6.342
12351TIP3    H136994   1.227   7.449   6.356
12351TIP3    H236995   1.216   7.303   6.394
12352TIP3   OH236996   4.920   7.193   1.009
12352TIP3    H136997   4.933   7.166   0.918
12352TIP3    H236998   4.850   7.258   1.006
12353TIP3   OH236999   3.645   7.810   3.345
12353TIP3    H137000   3.556   7.804   3.311
12353TIP3    H237001   3.663   7.903   3.347
12354TIP3   OH237002   8.161   2.538   3.248
12354TIP3    H137003   8.217   2.500   3.181
12354TIP3    H237004   8.118   2.462   3.288
12355TIP3   OH237005   2.860   0.480   0.802
12355TIP3    H137006   2.795   0.531   0.851
12355TIP3    H237007   2.818   0.395   0.788
12356TIP3   OH237008   2.089   4.721   5.509
12356TIP3    H137009   2.046   4.654   5.457
12356TIP3    H237010   2.050   4.714   5.596
12357TIP3   OH237011   8.077   1.810   1.808
12357TIP3    H137012   8.095   1.720   1.833
12357TIP3    H237013   8.008   1.838   1.868
12358TIP3   OH237014   6.732   0.755   6.800
12358TIP3    H137015   6.812   0.773   6.751
12358TIP3    H237016   6.677   0.832   6.787
12359TIP3   OH237017   3.438   3.797   4.276
12359TIP3    H137018   3.393   3.855   4.214
12359TIP3    H237019   3.516   3.846   4.302
12360TIP3   OH237020   4.418   4.943   2.113
12360TIP3    H137021   4.510   4.968   2.097
12360TIP3    H237022   4.377   4.947   2.027
12361TIP3   OH237023   1.093   2.019   0.116
12361TIP3    H137024   1.029   2.004   0.047
12361TIP3    H237025   1.049   1.990   0.196
12362TIP3   OH237026   1.457   3.163   3.716
12362TIP3    H137027   1.502   3.120   3.643
12362TIP3    H237028   1.478   3.256   3.705
12363TIP3   OH237029   3.992   1.143   5.346
12363TIP3    H137030   3.948   1.145   5.431
12363TIP3    H237031   4.076   1.186   5.362
12364TIP3   OH237032   4.143   7.505   4.835
12364TIP3    H137033   4.050   7.491   4.852
12364TIP3    H237034   4.162   7.450   4.759
12365TIP3   OH237035   1.987   0.142   3.498
12365TIP3    H137036   1.914   0.125   3.439
12365TIP3    H237037   2.040   0.063   3.494
12366TIP3   OH237038   1.399   5.410   2.059
12366TIP3    H137039   1.481   5.377   2.098
12366TIP3    H237040   1.332   5.392   2.125
12367TIP3   OH237041   5.407   1.747   3.247
12367TIP3    H137042   5.327   1.723   3.294
12367TIP3    H237043   5.392   1.837   3.219
12368TIP3   OH237044   2.583   6.185   3.338
12368TIP3    H137045   2.499   6.172   3.295
12368TIP3    H237046   2.598   6.280   3.333
12369TIP3   OH237047   0.525   4.299   2.343
12369TIP3    H137048   0.591   4.363   2.369
12369TIP3    H237049   0.500   4.326   2.255
12370TIP3   OH237050   1.606   4.341   5.476
12370TIP3    H137051   1.560   4.328   5.559
12370TIP3    H237052   1.554   4.406   5.429
12371TIP3   OH237053   2.115   4.286   1.026
12371TIP3    H137054   2.151   4.202   0.998
12371TIP3    H237055   2.023   4.283   1.001
12372TIP3   OH237056   4.202   2.852   0.672
12372TIP3    H137057   4.191   2.796   0.749
12372TIP3    H237058   4.153   2.931   0.692
12373TIP3   OH237059   4.935   1.031   6.479
12373TIP3    H137060   4.949   0.972   6.405
12373TIP3    H237061   4.962   1.117   6.447
12374TIP3   OH237062   3.362   6.755   5.887
12374TIP3    H137063   3.317   6.673   5.907
12374TIP3    H237064   3.301   6.802   5.830
12375TIP3   OH237065   3.892   1.801   1.486
12375TIP3    H137066   3.968   1.855   1.510
12375TIP3    H237067   3.915   1.764   1.401
12376TIP3   OH237068   6.462   5.099   5.896
12376TIP3    H137069   6.419   5.131   5.817
12376TIP3    H237070   6.441   5.164   5.963
12377TIP3   OH237071   7.688   2.039   1.765
12377TIP3    H137072   7.605   2.063   1.806
12377TIP3    H237073   7.724   1.970   1.822
12378TIP3   OH237074   4.261   1.721   4.164
12378TIP3    H137075   4.299   1.674   4.089
12378TIP3    H237076   4.333   1.772   4.199
12379TIP3   OH237077   5.847   6.769   0.504
12379TIP3    H137078   5.777   6.792   0.443
12379TIP3    H237079   5.848   6.674   0.505
12380TIP3   OH237080   2.110   0.998   6.741
12380TIP3    H137081   2.200   0.994   6.774
12380TIP3    H237082   2.119   1.031   6.652
12381TIP3   OH237083   1.989   6.639   0.652
12381TIP3    H137084   2.023   6.719   0.692
12381TIP3    H237085   1.978   6.578   0.724
12382TIP3   OH237086   2.987   0.674   5.639
12382TIP3    H137087   3.071   0.635   5.615
12382TIP3    H237088   2.970   0.641   5.727
12383TIP3   OH237089   3.820   7.739   2.664
12383TIP3    H137090   3.812   7.831   2.640
12383TIP3    H237091   3.739   7.699   2.634
12384TIP3   OH237092   5.826   3.779   4.001
12384TIP3    H137093   5.747   3.803   3.952
12384TIP3    H237094   5.895   3.775   3.936
12385TIP3   OH237095   7.380   6.988   1.926
12385TIP3    H137096   7.321   6.925   1.885
12385TIP3    H237097   7.349   6.993   2.017
12386TIP3   OH237098   5.653   1.898   0.935
12386TIP3    H137099   5.601   1.842   0.877
12386TIP3    H237100   5.665   1.846   1.014
12387TIP3   OH237101   7.159   7.289   3.437
12387TIP3    H137102   7.109   7.358   3.480
12387TIP3    H237103   7.219   7.334   3.378
12388TIP3   OH237104   1.187   3.188   3.771
12388TIP3    H137105   1.159   3.216   3.684
12388TIP3    H237106   1.278   3.161   3.759
12389TIP3   OH237107   5.830   3.419   0.838
12389TIP3    H137108   5.807   3.366   0.761
12389TIP3    H237109   5.841   3.507   0.803
12390TIP3   OH237110   8.343   1.172   0.968
12390TIP3    H137111   8.299   1.087   0.970
12390TIP3    H237112   8.427   1.155   0.927
12391TIP3   OH237113   0.612   5.804   4.219
12391TIP3    H137114   0.630   5.711   4.208
12391TIP3    H237115   0.696   5.848   4.208
12392TIP3   OH237116   1.175   1.160   4.227
12392TIP3    H137117   1.196   1.105   4.303
12392TIP3    H237118   1.091   1.127   4.196
12393TIP3   OH237119   3.470   4.779   6.790
12393TIP3    H137120   3.491   4.747   6.703
12393TIP3    H237121   3.516   4.720   6.849
12394TIP3   OH237122   1.313   5.911   2.627
12394TIP3    H137123   1.317   5.817   2.609
12394TIP3    H237124   1.294   5.916   2.721
12395TIP3   OH237125   7.995   6.717   6.583
12395TIP3    H137126   7.969   6.806   6.606
12395TIP3    H237127   7.914   6.667   6.589
12396TIP3   OH237128   5.504   1.631   4.253
12396TIP3    H137129   5.562   1.640   4.178
12396TIP3    H237130   5.488   1.720   4.282
12397TIP3   OH237131   0.688   1.611   0.947
12397TIP3    H137132   0.701   1.673   1.020
12397TIP3    H237133   0.766   1.621   0.893
12398TIP3   OH237134   4.957   1.411   5.372
12398TIP3    H137135   4.900   1.336   5.385
12398TIP3    H237136   5.026   1.379   5.314
12399TIP3   OH237137   7.447   5.881   4.227
12399TIP3    H137138   7.436   5.827   4.305
12399TIP3    H237139   7.388   5.843   4.163
12400TIP3   OH237140   5.361   7.050   0.665
12400TIP3    H137141   5.450   7.033   0.697
12400TIP3    H237142   5.372   7.127   0.608
12401TIP3   OH237143   7.529   2.722   5.642
12401TIP3    H137144   7.482   2.707   5.560
12401TIP3    H237145   7.550   2.634   5.674
12402TIP3   OH237146   8.276   4.717   1.834
12402TIP3    H137147   8.346   4.779   1.853
12402TIP3    H237148   8.199   4.772   1.821
12403TIP3   OH237149   0.556   6.985   4.006
12403TIP3    H137150   0.592   7.066   3.970
12403TIP3    H237151   0.536   7.007   4.097
12404TIP3   OH237152   1.346   2.767   4.707
12404TIP3    H137153   1.413   2.703   4.727
12404TIP3    H237154   1.324   2.751   4.615
12405TIP3   OH237155   0.157   6.300   6.597
12405TIP3    H137156   0.215   6.354   6.543
12405TIP3    H237157   0.072   6.304   6.552
12406TIP3   OH237158   7.275   7.093   6.380
12406TIP3    H137159   7.352   7.110   6.434
12406TIP3    H237160   7.226   7.026   6.427
12407TIP3   OH237161   7.892   5.214   4.486
12407TIP3    H137162   7.879   5.244   4.397
12407TIP3    H237163   7.974   5.254   4.514
12408TIP3   OH237164   0.992   2.198   1.326
12408TIP3    H137165   1.024   2.269   1.271
12408TIP3    H237166   0.901   2.186   1.297
12409TIP3   OH237167   4.663   3.284   3.174
12409TIP3    H137168   4.685   3.312   3.085
12409TIP3    H237169   4.661   3.365   3.225
12410TIP3   OH237170   1.964   1.050   1.767
12410TIP3    H137171   2.018   1.119   1.806
12410TIP3    H237172   1.964   1.070   1.674
12411TIP3   OH237173   3.766   0.701   3.839
12411TIP3    H137174   3.798   0.684   3.927
12411TIP3    H237175   3.806   0.785   3.814
12412TIP3   OH237176   6.788   4.395   4.076
12412TIP3    H137177   6.759   4.369   4.164
12412TIP3    H237178   6.755   4.325   4.019
12413TIP3   OH237179   7.410   4.753   4.302
12413TIP3    H137180   7.450   4.681   4.351
12413TIP3    H237181   7.475   4.823   4.304
12414TIP3   OH237182   1.979   7.561   4.372
12414TIP3    H137183   1.994   7.472   4.402
12414TIP3    H237184   2.064   7.590   4.339
12415TIP3   OH237185   8.364   2.516   1.687
12415TIP3    H137186   8.350   2.441   1.629
12415TIP3    H237187   8.445   2.497   1.733
12416TIP3   OH237188   4.853   0.891   0.274
12416TIP3    H137189   4.884   0.822   0.334
12416TIP3    H237190   4.824   0.961   0.331
12417TIP3   OH237191   5.720   2.225   0.507
12417TIP3    H137192   5.770   2.182   0.438
12417TIP3    H237193   5.636   2.248   0.466
12418TIP3   OH237194   8.064   0.202   3.864
12418TIP3    H137195   8.114   0.147   3.925
12418TIP3    H237196   8.057   0.287   3.908
12419TIP3   OH237197   5.015   7.484   6.400
12419TIP3    H137198   5.097   7.513   6.361
12419TIP3    H237199   4.957   7.467   6.326
12420TIP3   OH237200   5.922   4.467   2.860
12420TIP3    H137201   6.018   4.466   2.858
12420TIP3    H237202   5.896   4.458   2.768
12421TIP3   OH237203   7.241   0.824   0.710
12421TIP3    H137204   7.166   0.840   0.767
12421TIP3    H237205   7.238   0.729   0.693
12422TIP3   OH237206   3.645   3.306   2.071
12422TIP3    H137207   3.596   3.284   1.992
12422TIP3    H237208   3.736   3.293   2.047
12423TIP3   OH237209   3.640   5.138   1.330
12423TIP3    H137210   3.634   5.075   1.257
12423TIP3    H237211   3.650   5.083   1.408
12424TIP3   OH237212   6.420   6.896   4.522
12424TIP3    H137213   6.393   6.965   4.462
12424TIP3    H237214   6.516   6.894   4.515
12425TIP3   OH237215   1.822   7.661   1.739
12425TIP3    H137216   1.828   7.706   1.655
12425TIP3    H237217   1.782   7.725   1.798
12426TIP3   OH237218   5.939   1.997   1.438
12426TIP3    H137219   5.874   1.927   1.437
12426TIP3    H237220   5.929   2.040   1.353
12427TIP3   OH237221   4.022   5.119   3.476
12427TIP3    H137222   4.004   5.034   3.516
12427TIP3    H237223   4.112   5.139   3.502
12428TIP3   OH237224   0.890   5.340   3.620
12428TIP3    H137225   0.974   5.319   3.578
12428TIP3    H237226   0.865   5.258   3.664
12429TIP3   OH237227   4.632   0.439   6.093
12429TIP3    H137228   4.628   0.347   6.118
12429TIP3    H237229   4.541   0.466   6.085
12430TIP3   OH237230   6.845   7.896   2.600
12430TIP3    H137231   6.827   7.804   2.617
12430TIP3    H237232   6.936   7.899   2.573
12431TIP3   OH237233   4.783   1.936   3.660
12431TIP3    H137234   4.823   1.869   3.715
12431TIP3    H237235   4.796   1.905   3.570
12432TIP3   OH237236   0.872   6.193   3.141
12432TIP3    H137237   0.950   6.229   3.183
12432TIP3    H237238   0.805   6.197   3.209
12433TIP3   OH237239   3.690   2.922   6.788
12433TIP3    H137240   3.778   2.912   6.826
12433TIP3    H237241   3.640   2.848   6.824
12434TIP3   OH237242   1.901   7.865   0.046
12434TIP3    H137243   1.846   7.915  -0.015
12434TIP3    H237244   1.981   7.847  -0.002
12435TIP3   OH237245   4.656   6.529   4.165
12435TIP3    H137246   4.616   6.522   4.251
12435TIP3    H237247   4.713   6.452   4.159
12436TIP3   OH237248   0.568   0.669   5.071
12436TIP3    H137249   0.576   0.764   5.063
12436TIP3    H237250   0.571   0.637   4.981
12437TIP3   OH237251   6.073   5.340   0.130
12437TIP3    H137252   6.039   5.322   0.218
12437TIP3    H237253   6.126   5.264   0.108
12438TIP3   OH237254   0.830   5.872   6.837
12438TIP3    H137255   0.831   5.925   6.916
12438TIP3    H237256   0.789   5.928   6.771
12439TIP3   OH237257   7.363   6.401   0.873
12439TIP3    H137258   7.321   6.372   0.954
12439TIP3    H237259   7.336   6.337   0.808
12440TIP3   OH237260   2.642   0.009   0.290
12440TIP3    H137261   2.680   0.076   0.233
12440TIP3    H237262   2.551   0.002   0.263
12441TIP3   OH237263   4.903   4.028   3.281
12441TIP3    H137264   4.914   4.086   3.206
12441TIP3    H237265   4.928   3.942   3.249
12442TIP3   OH237266   7.021   5.422   6.035
12442TIP3    H137267   6.975   5.502   6.008
12442TIP3    H237268   7.098   5.454   6.081
12443TIP3   OH237269   5.606   4.820   5.576
12443TIP3    H137270   5.681   4.869   5.542
12443TIP3    H237271   5.597   4.745   5.518
12444TIP3   OH237272   2.509   1.582   0.623
12444TIP3    H137273   2.431   1.548   0.579
12444TIP3    H237274   2.579   1.571   0.559
12445TIP3   OH237275   7.671   1.317   0.473
12445TIP3    H137276   7.649   1.224   0.477
12445TIP3    H237277   7.636   1.346   0.389
12446TIP3   OH237278   2.797   4.101   3.042
12446TIP3    H137279   2.789   4.095   2.947
12446TIP3    H237280   2.890   4.116   3.058
12447TIP3   OH237281   7.343   6.787   5.329
12447TIP3    H137282   7.411   6.722   5.345
12447TIP3    H237283   7.328   6.828   5.414
12448TIP3   OH237284   7.113   2.965   6.314
12448TIP3    H137285   7.046   2.948   6.248
12448TIP3    H237286   7.064   2.986   6.393
12449TIP3   OH237287   3.250   2.145   3.807
12449TIP3    H137288   3.186   2.106   3.748
12449TIP3    H237289   3.217   2.233   3.823
12450TIP3   OH237290   1.545   3.143   1.210
12450TIP3    H137291   1.571   3.068   1.264
12450TIP3    H237292   1.622   3.199   1.207
12451TIP3   OH237293   8.210   4.880   6.251
12451TIP3    H137294   8.294   4.871   6.205
12451TIP3    H237295   8.196   4.974   6.255
12452TIP3   OH237296   5.295   3.572   0.357
12452TIP3    H137297   5.308   3.494   0.410
12452TIP3    H237298   5.255   3.635   0.417
12453TIP3   OH237299   7.139   0.198   4.705
12453TIP3    H137300   7.101   0.243   4.781
12453TIP3    H237301   7.090   0.116   4.699
12454TIP3   OH237302   7.941   6.861   0.721
12454TIP3    H137303   7.888   6.916   0.663
12454TIP3    H237304   7.889   6.855   0.802
12455TIP3   OH237305   6.697   6.153   2.204
12455TIP3    H137306   6.607   6.186   2.207
12455TIP3    H237307   6.715   6.122   2.293
12456TIP3   OH237308   6.595   0.150   5.706
12456TIP3    H137309   6.630   0.192   5.784
12456TIP3    H237310   6.671   0.139   5.649
12457TIP3   OH237311   6.630   2.701   1.365
12457TIP3    H137312   6.617   2.684   1.271
12457TIP3    H237313   6.641   2.614   1.403
12458TIP3   OH237314   0.424   7.026   5.696
12458TIP3    H137315   0.340   6.981   5.706
12458TIP3    H237316   0.413   7.108   5.745
12459TIP3   OH237317   1.054   5.988   1.818
12459TIP3    H137318   0.976   5.962   1.770
12459TIP3    H237319   1.054   6.084   1.814
12460TIP3   OH237320   0.427   6.363   6.767
12460TIP3    H137321   0.368   6.438   6.774
12460TIP3    H237322   0.427   6.340   6.674
12461TIP3   OH237323   7.968   2.810   4.896
12461TIP3    H137324   8.013   2.888   4.863
12461TIP3    H237325   7.876   2.826   4.874
12462TIP3   OH237326   6.288   0.997   6.683
12462TIP3    H137327   6.316   1.001   6.592
12462TIP3    H237328   6.331   1.071   6.725
12463TIP3   OH237329   7.189   6.961   4.905
12463TIP3    H137330   7.211   6.894   4.970
12463TIP3    H237331   7.129   6.917   4.845
12464TIP3   OH237332   3.773   3.537   0.443
12464TIP3    H137333   3.748   3.629   0.454
12464TIP3    H237334   3.725   3.491   0.512
12465TIP3   OH237335   8.059   0.776   4.864
12465TIP3    H137336   8.057   0.730   4.780
12465TIP3    H237337   8.141   0.826   4.861
12466TIP3   OH237338   7.939   0.931   1.408
12466TIP3    H137339   7.857   0.880   1.409
12466TIP3    H237340   7.912   1.018   1.378
12467TIP3   OH237341   0.942   2.479   6.065
12467TIP3    H137342   0.847   2.470   6.068
12467TIP3    H237343   0.959   2.566   6.100
12468TIP3   OH237344   1.745   0.365   4.124
12468TIP3    H137345   1.658   0.361   4.163
12468TIP3    H237346   1.799   0.309   4.180
12469TIP3   OH237347   8.275   3.830   2.380
12469TIP3    H137348   8.343   3.801   2.319
12469TIP3    H237349   8.323   3.855   2.459
12470TIP3   OH237350   7.301   7.536   1.193
12470TIP3    H137351   7.371   7.527   1.258
12470TIP3    H237352   7.317   7.466   1.130
12471TIP3   OH237353   3.221   5.390   4.642
12471TIP3    H137354   3.197   5.360   4.554
12471TIP3    H237355   3.311   5.422   4.633
12472TIP3   OH237356   0.142   6.053   0.584
12472TIP3    H137357   0.050   6.026   0.583
12472TIP3    H237358   0.191   5.971   0.588
12473TIP3   OH237359   0.991   1.984   4.007
12473TIP3    H137360   0.906   2.015   4.039
12473TIP3    H237361   1.022   2.053   3.948
12474TIP3   OH237362   3.742   7.562   5.094
12474TIP3    H137363   3.789   7.489   5.136
12474TIP3    H237364   3.701   7.609   5.167
12475TIP3   OH237365   1.294   4.482   4.693
12475TIP3    H137366   1.336   4.488   4.607
12475TIP3    H237367   1.309   4.391   4.719
12476TIP3   OH237368   6.238   3.014   3.922
12476TIP3    H137369   6.290   3.029   4.000
12476TIP3    H237370   6.301   2.993   3.854
12477TIP3   OH237371   5.454   4.166   1.860
12477TIP3    H137372   5.543   4.199   1.850
12477TIP3    H237373   5.439   4.113   1.781
12478TIP3   OH237374   5.047   3.431   6.241
12478TIP3    H137375   4.989   3.490   6.191
12478TIP3    H237376   5.051   3.470   6.328
12479TIP3   OH237377   0.339   6.278   1.549
12479TIP3    H137378   0.294   6.360   1.567
12479TIP3    H237379   0.347   6.275   1.454
12480TIP3   OH237380   3.908   6.319   4.989
12480TIP3    H137381   4.002   6.324   4.973
12480TIP3    H237382   3.897   6.348   5.080
12481TIP3   OH237383   4.474   2.562   6.536
12481TIP3    H137384   4.483   2.468   6.526
12481TIP3    H237385   4.393   2.584   6.490
12482TIP3   OH237386   4.911   3.439   3.818
12482TIP3    H137387   4.834   3.487   3.786
12482TIP3    H237388   4.956   3.502   3.874
12483TIP3   OH237389   0.998   3.005   2.776
12483TIP3    H137390   0.952   3.078   2.818
12483TIP3    H237391   0.938   2.977   2.707
12484TIP3   OH237392   5.929   2.700   0.708
12484TIP3    H137393   5.880   2.782   0.696
12484TIP3    H237394   5.882   2.635   0.656
12485TIP3   OH237395   2.083   1.690   2.308
12485TIP3    H137396   2.018   1.661   2.372
12485TIP3    H237397   2.069   1.784   2.301
12486TIP3   OH237398   0.790   0.069   5.302
12486TIP3    H137399   0.702   0.107   5.302
12486TIP3    H237400   0.778  -0.021   5.271
12487TIP3   OH237401   2.722   1.305   5.503
12487TIP3    H137402   2.699   1.389   5.463
12487TIP3    H237403   2.731   1.245   5.428
12488TIP3   OH237404   3.115   1.800   6.688
12488TIP3    H137405   3.095   1.883   6.732
12488TIP3    H237406   3.121   1.736   6.759
12489TIP3   OH237407   1.379   1.223   1.940
12489TIP3    H137408   1.449   1.249   1.999
12489TIP3    H237409   1.387   1.128   1.935
12490TIP3   OH237410   1.287   5.177   4.973
12490TIP3    H137411   1.287   5.085   4.997
12490TIP3    H237412   1.294   5.178   4.877
12491TIP3   OH237413   5.079   5.826   4.441
12491TIP3    H137414   5.043   5.845   4.354
12491TIP3    H237415   5.121   5.908   4.468
12492TIP3   OH237416   1.213   2.384   6.101
12492TIP3    H137417   1.278   2.415   6.163
12492TIP3    H237418   1.129   2.415   6.137
12493TIP3   OH237419   7.742   2.423   1.537
12493TIP3    H137420   7.801   2.415   1.462
12493TIP3    H237421   7.675   2.356   1.522
12494TIP3   OH237422   4.795   4.591   0.455
12494TIP3    H137423   4.804   4.682   0.429
12494TIP3    H237424   4.708   4.565   0.424
12495TIP3   OH237425   4.417   3.777   4.144
12495TIP3    H137426   4.454   3.863   4.159
12495TIP3    H237427   4.383   3.750   4.229
12496TIP3   OH237428   7.060   5.797   1.913
12496TIP3    H137429   7.151   5.773   1.899
12496TIP3    H237430   7.062   5.862   1.983
12497TIP3   OH237431   6.292   6.650   6.273
12497TIP3    H137432   6.283   6.603   6.191
12497TIP3    H237433   6.225   6.612   6.330
12498TIP3   OH237434   6.033   3.785   5.116
12498TIP3    H137435   6.082   3.850   5.066
12498TIP3    H237436   5.948   3.781   5.072
12499TIP3   OH237437   7.779   6.099   5.668
12499TIP3    H137438   7.707   6.135   5.719
12499TIP3    H237439   7.737   6.041   5.604
12500TIP3   OH237440   5.142   3.461   0.977
12500TIP3    H137441   5.067   3.404   0.997
12500TIP3    H237442   5.199   3.453   1.053
12501TIP3   OH237443   7.913   6.957   6.676
12501TIP3    H137444   7.889   6.941   6.767
12501TIP3    H237445   7.973   7.031   6.679
12502TIP3   OH237446   0.398   4.062   3.493
12502TIP3    H137447   0.485   4.032   3.466
12502TIP3    H237448   0.340   4.030   3.424
12503TIP3   OH237449   0.668   7.866   4.809
12503TIP3    H137450   0.659   7.786   4.862
12503TIP3    H237451   0.622   7.846   4.728
12504TIP3   OH237452   5.930   5.405   0.991
12504TIP3    H137453   5.889   5.428   1.075
12504TIP3    H237454   5.888   5.323   0.966
12505TIP3   OH237455   3.711   4.458   1.592
12505TIP3    H137456   3.783   4.521   1.582
12505TIP3    H237457   3.667   4.459   1.507
12506TIP3   OH237458   1.798   1.837   6.264
12506TIP3    H137459   1.715   1.868   6.227
12506TIP3    H237460   1.813   1.753   6.220
12507TIP3   OH237461   3.047   5.457   2.648
12507TIP3    H137462   3.066   5.365   2.669
12507TIP3    H237463   3.069   5.505   2.727
12508TIP3   OH237464   3.809   3.879   5.181
12508TIP3    H137465   3.884   3.819   5.176
12508TIP3    H237466   3.733   3.824   5.162
12509TIP3   OH237467   4.319   4.712   3.284
12509TIP3    H137468   4.289   4.634   3.237
12509TIP3    H237469   4.405   4.687   3.318
12510TIP3   OH237470   4.164   1.690   2.144
12510TIP3    H137471   4.096   1.757   2.143
12510TIP3    H237472   4.243   1.736   2.171
12511TIP3   OH237473   2.310   5.752   0.940
12511TIP3    H137474   2.268   5.807   1.007
12511TIP3    H237475   2.399   5.786   0.934
12512TIP3   OH237476   6.163   6.876   0.890
12512TIP3    H137477   6.231   6.856   0.826
12512TIP3    H237478   6.174   6.969   0.909
12513TIP3   OH237479   6.788   0.052   0.941
12513TIP3    H137480   6.733   0.131   0.941
12513TIP3    H237481   6.844   0.062   0.864
12514TIP3   OH237482   6.876   2.211   4.845
12514TIP3    H137483   6.811   2.242   4.909
12514TIP3    H237484   6.827   2.205   4.763
12515TIP3   OH237485   1.233   5.838   6.561
12515TIP3    H137486   1.315   5.888   6.551
12515TIP3    H237487   1.262   5.747   6.563
12516TIP3   OH237488   7.645   6.410   0.391
12516TIP3    H137489   7.567   6.385   0.341
12516TIP3    H237490   7.627   6.379   0.480
12517TIP3   OH237491   3.066   5.059   6.373
12517TIP3    H137492   3.132   5.018   6.318
12517TIP3    H237493   3.029   4.987   6.425
12518TIP3   OH237494   0.825   6.014   2.615
12518TIP3    H137495   0.844   5.979   2.702
12518TIP3    H237496   0.730   6.024   2.613
12519TIP3   OH237497   2.496   2.319   5.714
12519TIP3    H137498   2.437   2.385   5.676
12519TIP3    H237499   2.531   2.362   5.792
12520TIP3   OH237500   6.926   6.866   1.723
12520TIP3    H137501   6.833   6.851   1.743
12520TIP3    H237502   6.939   6.822   1.639
12521TIP3   OH237503   1.857   6.585   5.934
12521TIP3    H137504   1.784   6.626   5.887
12521TIP3    H237505   1.935   6.631   5.903
12522TIP3   OH237506   6.302   4.465   2.604
12522TIP3    H137507   6.229   4.430   2.553
12522TIP3    H237508   6.365   4.495   2.538
12523TIP3   OH237509   4.142   1.005   0.562
12523TIP3    H137510   4.221   1.047   0.594
12523TIP3    H237511   4.171   0.921   0.527
12524TIP3   OH237512   4.065   2.254   6.639
12524TIP3    H137513   3.972   2.238   6.620
12524TIP3    H237514   4.065   2.335   6.689
12525TIP3   OH237515   7.641   4.163   3.334
12525TIP3    H137516   7.717   4.196   3.286
12525TIP3    H237517   7.670   4.158   3.425
12526TIP3   OH237518   2.041   3.433   6.551
12526TIP3    H137519   1.996   3.387   6.621
12526TIP3    H237520   2.007   3.523   6.555
12527TIP3   OH237521   1.061   5.641   1.364
12527TIP3    H137522   1.085   5.550   1.381
12527TIP3    H237523   1.141   5.690   1.384
12528TIP3   OH237524   2.404   5.275   5.693
12528TIP3    H137525   2.350   5.351   5.714
12528TIP3    H237526   2.412   5.276   5.598
12529TIP3   OH237527   4.766   1.277   1.260
12529TIP3    H137528   4.794   1.276   1.168
12529TIP3    H237529   4.716   1.196   1.271
12530TIP3   OH237530   4.763   7.352   2.223
12530TIP3    H137531   4.820   7.390   2.156
12530TIP3    H237532   4.745   7.423   2.284
12531TIP3   OH237533   2.194   1.884   5.533
12531TIP3    H137534   2.209   1.849   5.621
12531TIP3    H237535   2.137   1.820   5.491
12532TIP3   OH237536   7.656   2.047   2.725
12532TIP3    H137537   7.625   2.137   2.712
12532TIP3    H237538   7.616   1.997   2.654
12533TIP3   OH237539   2.443   2.711   4.116
12533TIP3    H137540   2.401   2.762   4.185
12533TIP3    H237541   2.393   2.732   4.037
12534TIP3   OH237542   4.353   3.609   2.919
12534TIP3    H137543   4.441   3.629   2.949
12534TIP3    H237544   4.348   3.513   2.918
12535TIP3   OH237545   1.322   1.282   2.578
12535TIP3    H137546   1.318   1.206   2.520
12535TIP3    H237547   1.305   1.246   2.665
12536TIP3   OH237548   4.691   6.245   4.082
12536TIP3    H137549   4.637   6.174   4.117
12536TIP3    H237550   4.751   6.202   4.021
12537TIP3   OH237551   5.359   2.529   0.762
12537TIP3    H137552   5.404   2.490   0.687
12537TIP3    H237553   5.406   2.611   0.778
12538TIP3   OH237554   0.343   0.392   3.752
12538TIP3    H137555   0.313   0.416   3.840
12538TIP3    H237556   0.375   0.474   3.715
12539TIP3   OH237557   4.978   1.168   1.526
12539TIP3    H137558   4.935   1.218   1.457
12539TIP3    H237559   5.026   1.233   1.577
12540TIP3   OH237560   4.714   2.547   2.551
12540TIP3    H137561   4.630   2.548   2.597
12540TIP3    H237562   4.690   2.557   2.458
12541TIP3   OH237563   1.120   2.639   2.336
12541TIP3    H137564   1.162   2.685   2.408
12541TIP3    H237565   1.187   2.634   2.268
12542TIP3   OH237566   4.792   0.698   6.461
12542TIP3    H137567   4.793   0.678   6.368
12542TIP3    H237568   4.877   0.667   6.492
12543TIP3   OH237569   2.080   0.603   0.127
12543TIP3    H137570   2.066   0.696   0.110
12543TIP3    H237571   2.014   0.580   0.193
12544TIP3   OH237572   8.204   2.247   2.501
12544TIP3    H137573   8.290   2.269   2.465
12544TIP3    H237574   8.201   2.151   2.497
12545TIP3   OH237575   6.068   6.475   1.481
12545TIP3    H137576   6.132   6.477   1.410
12545TIP3    H237577   5.992   6.522   1.446
12546TIP3   OH237578   0.602   2.245   5.109
12546TIP3    H137579   0.558   2.193   5.042
12546TIP3    H237580   0.542   2.244   5.184
12547TIP3   OH237581   2.255   0.313   3.261
12547TIP3    H137582   2.319   0.367   3.216
12547TIP3    H237583   2.232   0.244   3.198
12548TIP3   OH237584   3.118   4.123   4.406
12548TIP3    H137585   3.109   4.180   4.330
12548TIP3    H237586   3.032   4.083   4.417
12549TIP3   OH237587   3.721   6.708   1.424
12549TIP3    H137588   3.803   6.755   1.438
12549TIP3    H237589   3.740   6.617   1.449
12550TIP3   OH237590   7.590   1.250   2.404
12550TIP3    H137591   7.640   1.275   2.326
12550TIP3    H237592   7.640   1.285   2.477
12551TIP3   OH237593   1.209   7.345   5.171
12551TIP3    H137594   1.203   7.431   5.131
12551TIP3    H237595   1.299   7.317   5.155
12552TIP3   OH237596   0.983   4.148   2.511
12552TIP3    H137597   0.973   4.231   2.465
12552TIP3    H237598   1.078   4.132   2.513
12553TIP3   OH237599   0.868   7.444   5.576
12553TIP3    H137600   0.951   7.416   5.538
12553TIP3    H237601   0.863   7.537   5.557
12554TIP3   OH237602   1.307   3.538   5.009
12554TIP3    H137603   1.402   3.540   5.027
12554TIP3    H237604   1.273   3.615   5.055
12555TIP3   OH237605   6.692   3.650   0.191
12555TIP3    H137606   6.742   3.647   0.110
12555TIP3    H237607   6.640   3.570   0.190
12556TIP3   OH237608   6.069   5.885   2.161
12556TIP3    H137609   6.083   5.913   2.252
12556TIP3    H237610   6.072   5.789   2.165
12557TIP3   OH237611   1.198   1.226   3.942
12557TIP3    H137612   1.283   1.257   3.911
12557TIP3    H237613   1.216   1.194   4.031
12558TIP3   OH237614   7.949   5.710   5.785
12558TIP3    H137615   7.861   5.717   5.823
12558TIP3    H237616   7.934   5.681   5.695
12559TIP3   OH237617   1.984   2.620   0.996
12559TIP3    H137618   2.051   2.682   0.966
12559TIP3    H237619   1.992   2.545   0.938
12560TIP3   OH237620   6.419   3.457   1.824
12560TIP3    H137621   6.406   3.497   1.910
12560TIP3    H237622   6.472   3.379   1.842
12561TIP3   OH237623   8.227   2.041   0.318
12561TIP3    H137624   8.135   2.061   0.331
12561TIP3    H237625   8.228   1.962   0.264
12562TIP3   OH237626   1.862   7.806   5.174
12562TIP3    H137627   1.930   7.859   5.217
12562TIP3    H237628   1.780   7.841   5.209
12563TIP3   OH237629   0.253   5.590   5.008
12563TIP3    H137630   0.344   5.615   4.994
12563TIP3    H237631   0.252   5.495   4.994
12564TIP3   OH237632   2.317   1.828   0.087
12564TIP3    H137633   2.408   1.804   0.100
12564TIP3    H237634   2.282   1.760   0.029
12565TIP3   OH237635   5.315   0.477   5.932
12565TIP3    H137636   5.262   0.399   5.916
12565TIP3    H237637   5.400   0.458   5.893
12566TIP3   OH237638   5.073   4.217   2.240
12566TIP3    H137639   5.159   4.223   2.282
12566TIP3    H237640   5.073   4.287   2.175
12567TIP3   OH237641   6.614   0.479   0.005
12567TIP3    H137642   6.615   0.546   0.073
12567TIP3    H237643   6.522   0.466  -0.016
12568TIP3   OH237644   0.806   0.865   5.288
12568TIP3    H137645   0.738   0.804   5.316
12568TIP3    H237646   0.874   0.809   5.249
12569TIP3   OH237647   4.837   2.747   6.468
12569TIP3    H137648   4.780   2.824   6.474
12569TIP3    H237649   4.837   2.711   6.557
12570TIP3   OH237650   6.669   2.370   4.298
12570TIP3    H137651   6.694   2.279   4.285
12570TIP3    H237652   6.670   2.408   4.210
12571TIP3   OH237653   2.066   1.044   4.629
12571TIP3    H137654   2.022   1.112   4.680
12571TIP3    H237655   2.002   1.019   4.562
12572TIP3   OH237656   7.450   0.825   1.961
12572TIP3    H137657   7.525   0.798   1.909
12572TIP3    H237658   7.487   0.844   2.048
12573TIP3   OH237659   1.370   5.861   0.309
12573TIP3    H137660   1.426   5.921   0.258
12573TIP3    H237661   1.319   5.814   0.243
12574TIP3   OH237662   2.764   5.721   0.337
12574TIP3    H137663   2.802   5.760   0.416
12574TIP3    H237664   2.676   5.756   0.333
12575TIP3   OH237665   7.530   5.783   4.853
12575TIP3    H137666   7.609   5.740   4.887
12575TIP3    H237667   7.461   5.756   4.914
12576TIP3   OH237668   7.648   7.372   5.456
12576TIP3    H137669   7.664   7.443   5.518
12576TIP3    H237670   7.556   7.348   5.469
12577TIP3   OH237671   4.667   3.970   3.723
12577TIP3    H137672   4.717   3.923   3.791
12577TIP3    H237673   4.733   3.994   3.658
12578TIP3   OH237674   0.092   3.762   4.708
12578TIP3    H137675   0.071   3.669   4.704
12578TIP3    H237676   0.149   3.777   4.633
12579TIP3   OH237677   7.834   2.769   5.789
12579TIP3    H137678   7.855   2.807   5.704
12579TIP3    H237679   7.915   2.775   5.839
12580TIP3   OH237680   4.252   3.308   1.158
12580TIP3    H137681   4.284   3.339   1.243
12580TIP3    H237682   4.164   3.343   1.151
12581TIP3   OH237683   3.931   5.333   4.758
12581TIP3    H137684   3.885   5.249   4.748
12581TIP3    H237685   3.958   5.355   4.669
12582TIP3   OH237686   4.540   3.195   2.861
12582TIP3    H137687   4.617   3.250   2.875
12582TIP3    H237688   4.466   3.256   2.864
12583TIP3   OH237689   8.380   2.638   2.047
12583TIP3    H137690   8.397   2.724   2.086
12583TIP3    H237691   8.324   2.658   1.971
12584TIP3   OH237692   4.781   7.531   0.507
12584TIP3    H137693   4.853   7.532   0.445
12584TIP3    H237694   4.705   7.558   0.456
12585TIP3   OH237695   3.073   7.011   3.054
12585TIP3    H137696   3.138   7.001   3.124
12585TIP3    H237697   3.121   6.986   2.975
12586TIP3   OH237698   2.163   3.461   4.156
12586TIP3    H137699   2.165   3.442   4.250
12586TIP3    H237700   2.107   3.539   4.148
12587TIP3   OH237701   5.330   6.315   3.349
12587TIP3    H137702   5.261   6.319   3.415
12587TIP3    H237703   5.306   6.382   3.285
12588TIP3   OH237704   2.881   4.220   6.181
12588TIP3    H137705   2.917   4.226   6.270
12588TIP3    H237706   2.897   4.306   6.143
12589TIP3   OH237707   1.171   6.207   6.155
12589TIP3    H137708   1.224   6.131   6.131
12589TIP3    H237709   1.224   6.283   6.130
12590TIP3   OH237710   2.084   2.761   5.639
12590TIP3    H137711   2.002   2.714   5.625
12590TIP3    H237712   2.108   2.741   5.729
12591TIP3   OH237713   5.842   2.112   3.684
12591TIP3    H137714   5.832   2.206   3.672
12591TIP3    H237715   5.803   2.073   3.606
12592TIP3   OH237716   0.176   7.064   5.952
12592TIP3    H137717   0.146   7.154   5.962
12592TIP3    H237718   0.209   7.039   6.038
12593TIP3   OH237719   5.878   4.830   0.900
12593TIP3    H137720   5.846   4.741   0.913
12593TIP3    H237721   5.971   4.820   0.880
12594TIP3   OH237722   6.171   3.997   4.985
12594TIP3    H137723   6.180   4.087   4.953
12594TIP3    H237724   6.179   3.944   4.906
12595TIP3   OH237725   7.968   4.796   4.755
12595TIP3    H137726   7.918   4.741   4.814
12595TIP3    H237727   7.905   4.861   4.724
12596TIP3   OH237728   7.110   4.356   4.216
12596TIP3    H137729   7.177   4.421   4.238
12596TIP3    H237730   7.132   4.328   4.127
12597TIP3   OH237731   7.818   3.832   6.352
12597TIP3    H137732   7.834   3.746   6.312
12597TIP3    H237733   7.866   3.830   6.434
12598TIP3   OH237734   6.450   3.163   6.475
12598TIP3    H137735   6.436   3.070   6.495
12598TIP3    H237736   6.371   3.207   6.505
12599TIP3   OH237737   6.373   3.588   1.247
12599TIP3    H137738   6.421   3.526   1.193
12599TIP3    H237739   6.293   3.543   1.271
12600TIP3   OH237740   0.292   6.096   5.683
12600TIP3    H137741   0.354   6.140   5.740
12600TIP3    H237742   0.278   6.157   5.611
12601TIP3   OH237743   6.692   6.317   6.269
12601TIP3    H137744   6.699   6.397   6.217
12601TIP3    H237745   6.747   6.333   6.345
12602TIP3   OH237746   1.695   4.174   2.056
12602TIP3    H137747   1.624   4.117   2.025
12602TIP3    H237748   1.693   4.249   1.996
12603TIP3   OH237749   3.865   2.983   2.268
12603TIP3    H137750   3.901   2.934   2.342
12603TIP3    H237751   3.901   2.939   2.191
12604TIP3   OH237752   1.900   2.869   2.985
12604TIP3    H137753   1.815   2.826   2.971
12604TIP3    H237754   1.900   2.942   2.923
12605TIP3   OH237755   6.886   5.594   6.809
12605TIP3    H137756   6.860   5.613   6.899
12605TIP3    H237757   6.865   5.502   6.797
12606TIP3   OH237758   0.125   4.703   5.822
12606TIP3    H137759   0.146   4.671   5.734
12606TIP3    H237760   0.203   4.682   5.874
12607TIP3   OH237761   4.214   3.059   3.955
12607TIP3    H137762   4.131   3.081   3.997
12607TIP3    H237763   4.249   2.986   4.007
12608TIP3   OH237764   5.139   4.915   5.652
12608TIP3    H137765   5.178   4.870   5.727
12608TIP3    H237766   5.046   4.894   5.657
12609TIP3   OH237767   4.202   0.008   6.531
12609TIP3    H137768   4.279  -0.042   6.557
12609TIP3    H237769   4.145   0.006   6.608
12610TIP3   OH237770   1.967   7.415   6.058
12610TIP3    H137771   1.933   7.388   6.144
12610TIP3    H237772   1.933   7.503   6.046
12611TIP3   OH237773   2.467   7.713   4.739
12611TIP3    H137774   2.435   7.795   4.775
12611TIP3    H237775   2.545   7.738   4.689
12612TIP3   OH237776   7.372   4.627   4.915
12612TIP3    H137777   7.284   4.602   4.887
12612TIP3    H237778   7.357   4.675   4.997
12613TIP3   OH237779   3.116   0.135   4.824
12613TIP3    H137780   3.135   0.041   4.816
12613TIP3    H237781   3.026   0.139   4.855
12614TIP3   OH237782   7.026   7.537   6.718
12614TIP3    H137783   7.073   7.535   6.634
12614TIP3    H237784   7.054   7.457   6.762
12615TIP3   OH237785   4.191   7.682   4.401
12615TIP3    H137786   4.198   7.745   4.329
12615TIP3    H237787   4.122   7.622   4.374
12616TIP3   OH237788   3.065   0.321   5.919
12616TIP3    H137789   3.017   0.404   5.923
12616TIP3    H237790   3.112   0.325   5.836
12617TIP3   OH237791   7.005   1.839   3.442
12617TIP3    H137792   7.069   1.908   3.465
12617TIP3    H237793   6.922   1.871   3.478
12618TIP3   OH237794   6.662   4.828   5.716
12618TIP3    H137795   6.595   4.886   5.681
12618TIP3    H237796   6.650   4.831   5.811
12619TIP3   OH237797   7.743   7.291   5.961
12619TIP3    H137798   7.767   7.260   6.048
12619TIP3    H237799   7.801   7.366   5.945
12620TIP3   OH237800   3.732   7.223   0.380
12620TIP3    H137801   3.784   7.297   0.349
12620TIP3    H237802   3.705   7.248   0.468
12621TIP3   OH237803   8.009   1.547   5.601
12621TIP3    H137804   8.045   1.466   5.565
12621TIP3    H237805   8.065   1.616   5.565
12622TIP3   OH237806   1.008   3.028   4.459
12622TIP3    H137807   0.915   3.016   4.479
12622TIP3    H237808   1.027   2.963   4.392
12623TIP3   OH237809   2.028   6.956   5.338
12623TIP3    H137810   1.964   6.934   5.270
12623TIP3    H237811   1.991   7.033   5.382
12624TIP3   OH237812   4.887   0.805   1.775
12624TIP3    H137813   4.972   0.818   1.732
12624TIP3    H237814   4.883   0.711   1.791
12625TIP3   OH237815   7.928   5.333   6.845
12625TIP3    H137816   7.911   5.294   6.759
12625TIP3    H237817   7.920   5.261   6.907
12626TIP3   OH237818   5.268   7.554   0.747
12626TIP3    H137819   5.240   7.463   0.740
12626TIP3    H237820   5.333   7.554   0.817
12627TIP3   OH237821  -0.004   7.210   6.646
12627TIP3    H137822  -0.009   7.284   6.707
12627TIP3    H237823   0.090   7.189   6.642
12628TIP3   OH237824   0.865   6.431   3.975
12628TIP3    H137825   0.814   6.473   4.044
12628TIP3    H237826   0.953   6.469   3.983
12629TIP3   OH237827   2.614   6.130   1.709
12629TIP3    H137828   2.547   6.063   1.696
12629TIP3    H237829   2.573   6.211   1.677
12630TIP3   OH237830   0.613   3.108   5.804
12630TIP3    H137831   0.668   3.091   5.728
12630TIP3    H237832   0.675   3.112   5.878
12631TIP3   OH237833   7.367   1.048   1.477
12631TIP3    H137834   7.308   1.107   1.523
12631TIP3    H237835   7.371   0.970   1.532
12632TIP3   OH237836   3.146   3.940   2.161
12632TIP3    H137837   3.198   3.988   2.096
12632TIP3    H237838   3.060   3.931   2.121
12633TIP3   OH237839   5.482   5.886   1.496
12633TIP3    H137840   5.403   5.841   1.525
12633TIP3    H237841   5.544   5.815   1.479
12634TIP3   OH237842   3.929   0.456   5.275
12634TIP3    H137843   3.836   0.445   5.251
12634TIP3    H237844   3.976   0.450   5.192
12635TIP3   OH237845   1.876   0.485   0.253
12635TIP3    H137846   1.802   0.545   0.243
12635TIP3    H237847   1.869   0.427   0.177
12636TIP3   OH237848   0.787   5.841   0.689
12636TIP3    H137849   0.823   5.904   0.626
12636TIP3    H237850   0.829   5.758   0.667
12637TIP3   OH237851   1.057   6.660   1.428
12637TIP3    H137852   1.131   6.719   1.418
12637TIP3    H237853   0.996   6.686   1.359
12638TIP3   OH237854   5.052   4.086   3.930
12638TIP3    H137855   4.978   4.147   3.936
12638TIP3    H237856   5.076   4.087   3.837
12639TIP3   OH237857   5.057   3.608   4.465
12639TIP3    H137858   5.016   3.650   4.389
12639TIP3    H237859   4.984   3.566   4.512
12640TIP3   OH237860   2.375   3.776   4.946
12640TIP3    H137861   2.286   3.793   4.974
12640TIP3    H237862   2.368   3.760   4.852
12641TIP3   OH237863   2.642   2.863   0.004
12641TIP3    H137864   2.733   2.872   0.032
12641TIP3    H237865   2.592   2.859   0.085
12642TIP3   OH237866   2.422   0.220   0.339
12642TIP3    H137867   2.448   0.193   0.427
12642TIP3    H237868   2.326   0.221   0.343
12643TIP3   OH237869   2.295   6.482   1.144
12643TIP3    H137870   2.278   6.391   1.119
12643TIP3    H237871   2.299   6.530   1.062
12644TIP3   OH237872   4.647   4.807   6.433
12644TIP3    H137873   4.662   4.714   6.446
12644TIP3    H237874   4.559   4.823   6.468
12645TIP3   OH237875   0.014   6.423   6.369
12645TIP3    H137876   0.105   6.452   6.367
12645TIP3    H237877  -0.017   6.434   6.280
12646TIP3   OH237878   3.536   5.520   4.343
12646TIP3    H137879   3.555   5.449   4.281
12646TIP3    H237880   3.615   5.525   4.398
12647TIP3   OH237881   1.284   6.215   0.817
12647TIP3    H137882   1.378   6.225   0.829
12647TIP3    H237883   1.255   6.301   0.786
12648TIP3   OH237884   5.576   2.722   1.415
12648TIP3    H137885   5.504   2.770   1.374
12648TIP3    H237886   5.551   2.630   1.405
12649TIP3   OH237887   7.058   2.753   3.183
12649TIP3    H137888   7.121   2.694   3.225
12649TIP3    H237889   7.068   2.734   3.089
12650TIP3   OH237890   8.154   5.950   2.857
12650TIP3    H137891   8.249   5.953   2.869
12650TIP3    H237892   8.140   5.889   2.784
12651TIP3   OH237893   4.626   3.279   6.445
12651TIP3    H137894   4.704   3.335   6.456
12651TIP3    H237895   4.647   3.222   6.371
12652TIP3   OH237896   0.865   7.150   1.681
12652TIP3    H137897   0.884   7.059   1.657
12652TIP3    H237898   0.918   7.165   1.759
12653TIP3   OH237899   1.611   6.588   4.567
12653TIP3    H137900   1.584   6.503   4.600
12653TIP3    H237901   1.529   6.637   4.555
12654TIP3   OH237902   6.633   7.405   0.981
12654TIP3    H137903   6.587   7.409   1.064
12654TIP3    H237904   6.635   7.312   0.959
12655TIP3   OH237905   3.014   6.488   0.279
12655TIP3    H137906   3.071   6.418   0.310
12655TIP3    H237907   3.022   6.484   0.183
12656TIP3   OH237908   5.658   5.777   3.030
12656TIP3    H137909   5.663   5.683   3.013
12656TIP3    H237910   5.730   5.794   3.091
12657TIP3   OH237911   4.419   1.583   1.849
12657TIP3    H137912   4.378   1.616   1.769
12657TIP3    H237913   4.346   1.547   1.899
12658TIP3   OH237914   0.419   5.227   2.130
12658TIP3    H137915   0.511   5.201   2.134
12658TIP3    H237916   0.414   5.305   2.186
12659TIP3   OH237917   8.336   5.395   4.425
12659TIP3    H137918   8.341   5.455   4.351
12659TIP3    H237919   8.345   5.451   4.503
12660TIP3   OH237920   2.320   1.808   2.823
12660TIP3    H137921   2.378   1.732   2.830
12660TIP3    H237922   2.363   1.876   2.874
12661TIP3   OH237923   4.254   6.734   2.749
12661TIP3    H137924   4.164   6.724   2.718
12661TIP3    H237925   4.291   6.647   2.743
12662TIP3   OH237926   0.968   7.630   4.436
12662TIP3    H137927   0.924   7.607   4.355
12662TIP3    H237928   1.061   7.621   4.416
12663TIP3   OH237929   3.461   6.389   4.275
12663TIP3    H137930   3.427   6.345   4.198
12663TIP3    H237931   3.465   6.481   4.251
12664TIP3   OH237932   5.885   6.101   2.121
12664TIP3    H137933   5.936   6.020   2.122
12664TIP3    H237934   5.807   6.082   2.171
12665TIP3   OH237935   4.712   3.792   6.683
12665TIP3    H137936   4.727   3.885   6.671
12665TIP3    H237937   4.618   3.780   6.672
12666TIP3   OH237938   3.486   4.187   4.788
12666TIP3    H137939   3.498   4.271   4.744
12666TIP3    H237940   3.495   4.209   4.881
12667TIP3   OH237941   2.605   5.500   3.833
12667TIP3    H137942   2.514   5.509   3.803
12667TIP3    H237943   2.597   5.471   3.924
12668TIP3   OH237944   2.856   5.684   0.064
12668TIP3    H137945   2.859   5.677   0.160
12668TIP3    H237946   2.766   5.708   0.044
12669TIP3   OH237947   0.579   2.604   4.309
12669TIP3    H137948   0.559   2.588   4.401
12669TIP3    H237949   0.493   2.618   4.269
12670TIP3   OH237950   7.274   1.950   4.673
12670TIP3    H137951   7.222   1.906   4.740
12670TIP3    H237952   7.215   1.956   4.597
12671TIP3   OH237953   4.768   6.881   3.918
12671TIP3    H137954   4.803   6.880   4.007
12671TIP3    H237955   4.674   6.866   3.929
12672TIP3   OH237956   7.034   3.877   2.900
12672TIP3    H137957   7.021   3.960   2.854
12672TIP3    H237958   7.006   3.810   2.837
12673TIP3   OH237959   2.090   1.174   3.873
12673TIP3    H137960   2.172   1.138   3.838
12673TIP3    H237961   2.118   1.236   3.940
12674TIP3   OH237962   1.141   3.281   2.742
12674TIP3    H137963   1.156   3.253   2.651
12674TIP3    H237964   1.144   3.376   2.739
12675TIP3   OH237965   6.131   6.849   1.839
12675TIP3    H137966   6.164   6.800   1.914
12675TIP3    H237967   6.044   6.879   1.866
12676TIP3   OH237968   5.582   3.383   0.133
12676TIP3    H137969   5.612   3.452   0.073
12676TIP3    H237970   5.655   3.322   0.138
12677TIP3   OH237971   5.759   2.589   3.842
12677TIP3    H137972   5.694   2.520   3.856
12677TIP3    H237973   5.822   2.550   3.781
12678TIP3   OH237974   4.637   4.966   5.817
12678TIP3    H137975   4.605   5.040   5.766
12678TIP3    H237976   4.559   4.912   5.831
12679TIP3   OH237977   1.901   2.461   6.448
12679TIP3    H137978   1.820   2.432   6.491
12679TIP3    H237979   1.902   2.556   6.463
12680TIP3   OH237980   0.426   6.927   2.264
12680TIP3    H137981   0.434   7.019   2.289
12680TIP3    H237982   0.332   6.912   2.256
12681TIP3   OH237983   7.806   1.755   3.128
12681TIP3    H137984   7.757   1.675   3.148
12681TIP3    H237985   7.764   1.789   3.049
12682TIP3   OH237986   0.889   7.651   3.494
12682TIP3    H137987   0.857   7.628   3.582
12682TIP3    H237988   0.820   7.620   3.435
12683TIP3   OH237989   3.507   3.703   1.600
12683TIP3    H137990   3.584   3.706   1.544
12683TIP3    H237991   3.458   3.782   1.578
12684TIP3   OH237992   4.037   5.896   6.471
12684TIP3    H137993   4.020   5.946   6.551
12684TIP3    H237994   3.979   5.935   6.406
12685TIP3   OH237995   6.787   1.823   0.055
12685TIP3    H137996   6.759   1.865  -0.026
12685TIP3    H237997   6.708   1.819   0.109
12686TIP3   OH237998   3.640   7.535   4.607
12686TIP3    H137999   3.695   7.602   4.566
12686TIP3    H238000   3.562   7.531   4.553
12687TIP3   OH238001   2.926   0.829   6.260
12687TIP3    H138002   2.945   0.917   6.294
12687TIP3    H238003   2.939   0.837   6.166
12688TIP3   OH238004   5.014   7.070   0.787
12688TIP3    H138005   5.069   6.991   0.786
12688TIP3    H238006   5.067   7.137   0.743
12689TIP3   OH238007   6.300   7.401   2.937
12689TIP3    H138008   6.300   7.387   2.842
12689TIP3    H238009   6.362   7.473   2.950
12690TIP3   OH238010   0.357   0.686   4.199
12690TIP3    H138011   0.276   0.713   4.155
12690TIP3    H238012   0.375   0.756   4.261
12691TIP3   OH238013   7.823   2.354   1.098
12691TIP3    H138014   7.835   2.259   1.105
12691TIP3    H238015   7.805   2.368   1.005
12692TIP3   OH238016   7.537   5.204   3.615
12692TIP3    H138017   7.606   5.254   3.571
12692TIP3    H238018   7.490   5.269   3.667
12693TIP3   OH238019   1.055   2.025   3.634
12693TIP3    H138020   0.969   2.060   3.659
12693TIP3    H238021   1.045   2.002   3.541
12694TIP3   OH238022   7.734   4.317   3.900
12694TIP3    H138023   7.643   4.347   3.894
12694TIP3    H238024   7.786   4.397   3.893
12695TIP3   OH238025   7.803   4.345   4.302
12695TIP3    H138026   7.801   4.415   4.236
12695TIP3    H238027   7.895   4.322   4.311
12696TIP3   OH238028   5.874   4.372   5.448
12696TIP3    H138029   5.830   4.292   5.420
12696TIP3    H238030   5.898   4.417   5.367
12697TIP3   OH238031   4.661   4.955   1.072
12697TIP3    H138032   4.653   4.887   1.006
12697TIP3    H238033   4.676   5.036   1.022
12698TIP3   OH238034   3.044   2.578   0.968
12698TIP3    H138035   3.107   2.537   0.907
12698TIP3    H238036   3.045   2.671   0.944
12699TIP3   OH238037   5.545   7.192   6.118
12699TIP3    H138038   5.534   7.121   6.181
12699TIP3    H238039   5.521   7.154   6.034
12700TIP3   OH238040   0.124   5.542   2.810
12700TIP3    H138041   0.037   5.580   2.804
12700TIP3    H238042   0.143   5.539   2.904
12701TIP3   OH238043   3.797   0.593   1.702
12701TIP3    H138044   3.856   0.569   1.773
12701TIP3    H238045   3.805   0.522   1.638
12702TIP3   OH238046   2.062   5.191   2.518
12702TIP3    H138047   2.054   5.285   2.529
12702TIP3    H238048   1.980   5.155   2.553
12703TIP3   OH238049   5.004   0.576   6.582
12703TIP3    H138050   4.967   0.490   6.561
12703TIP3    H238051   5.067   0.558   6.652
12704TIP3   OH238052   2.716   0.474   3.813
12704TIP3    H138053   2.647   0.418   3.776
12704TIP3    H238054   2.782   0.478   3.744
12705TIP3   OH238055   6.227   4.664   3.901
12705TIP3    H138056   6.185   4.579   3.891
12705TIP3    H238057   6.177   4.708   3.970
12706TIP3   OH238058   0.571   2.678   1.576
12706TIP3    H138059   0.515   2.734   1.630
12706TIP3    H238060   0.560   2.590   1.614
12707TIP3   OH238061   7.436   0.665   4.082
12707TIP3    H138062   7.513   0.703   4.125
12707TIP3    H238063   7.467   0.643   3.994
12708TIP3   OH238064   0.249   0.494   6.332
12708TIP3    H138065   0.221   0.403   6.341
12708TIP3    H238066   0.196   0.542   6.396
12709TIP3   OH238067   4.369   2.597   3.527
12709TIP3    H138068   4.398   2.592   3.436
12709TIP3    H238069   4.406   2.680   3.559
12710TIP3   OH238070   2.246   1.847   0.368
12710TIP3    H138071   2.163   1.889   0.388
12710TIP3    H238072   2.260   1.866   0.275
12711TIP3   OH238073   2.326   4.151   0.781
12711TIP3    H138074   2.345   4.194   0.697
12711TIP3    H238075   2.351   4.059   0.767
12712TIP3   OH238076   8.358   6.359   4.923
12712TIP3    H138077   8.422   6.288   4.929
12712TIP3    H238078   8.291   6.327   4.862
12713TIP3   OH238079   3.642   7.290   3.049
12713TIP3    H138080   3.697   7.288   3.127
12713TIP3    H238081   3.692   7.241   2.983
12714TIP3   OH238082   4.761   2.952   4.826
12714TIP3    H138083   4.709   2.996   4.759
12714TIP3    H238084   4.843   3.001   4.828
12715TIP3   OH238085   5.565   6.632   5.710
12715TIP3    H138086   5.643   6.601   5.664
12715TIP3    H238087   5.592   6.713   5.752
12716TIP3   OH238088   5.159   6.809   6.129
12716TIP3    H138089   5.096   6.865   6.175
12716TIP3    H238090   5.187   6.746   6.195
12717TIP3   OH238091   3.694   4.111   1.184
12717TIP3    H138092   3.787   4.116   1.162
12717TIP3    H238093   3.678   4.187   1.239
12718TIP3   OH238094   5.305   5.272   2.233
12718TIP3    H138095   5.259   5.205   2.182
12718TIP3    H238096   5.262   5.354   2.208
12719TIP3   OH238097   0.176   0.370   5.842
12719TIP3    H138098   0.216   0.427   5.908
12719TIP3    H238099   0.251   0.328   5.799
12720TIP3   OH238100   2.056   0.152   6.297
12720TIP3    H138101   2.058   0.240   6.260
12720TIP3    H238102   1.966   0.139   6.326
12721TIP3   OH238103   1.065   0.977   3.774
12721TIP3    H138104   1.151   0.935   3.770
12721TIP3    H238105   1.083   1.066   3.804
12722TIP3   OH238106   4.473   6.736   2.422
12722TIP3    H138107   4.529   6.667   2.457
12722TIP3    H238108   4.503   6.748   2.332
12723TIP3   OH238109   5.188   6.252   0.912
12723TIP3    H138110   5.146   6.287   0.991
12723TIP3    H238111   5.239   6.177   0.943
12724TIP3   OH238112   1.504   7.903   3.498
12724TIP3    H138113   1.446   7.843   3.451
12724TIP3    H238114   1.577   7.847   3.527
12725TIP3   OH238115   8.240   1.096   3.856
12725TIP3    H138116   8.280   1.143   3.783
12725TIP3    H238117   8.235   1.005   3.826
12726TIP3   OH238118   2.053   0.825   4.824
12726TIP3    H138119   2.006   0.777   4.756
12726TIP3    H238120   2.102   0.893   4.777
12727TIP3   OH238121   5.291   4.511   6.567
12727TIP3    H138122   5.311   4.486   6.477
12727TIP3    H238123   5.246   4.435   6.604
12728TIP3   OH238124   3.550   0.716   6.519
12728TIP3    H138125   3.486   0.645   6.533
12728TIP3    H238126   3.584   0.734   6.607
12729TIP3   OH238127   2.218   1.691   5.772
12729TIP3    H138128   2.239   1.611   5.820
12729TIP3    H238129   2.124   1.702   5.784
12730TIP3   OH238130   5.961   1.636   0.743
12730TIP3    H138131   6.031   1.595   0.794
12730TIP3    H238132   5.909   1.562   0.711
12731TIP3   OH238133   6.369   0.809   4.833
12731TIP3    H138134   6.280   0.786   4.859
12731TIP3    H238135   6.366   0.812   4.737
12732TIP3   OH238136   7.640   7.309   2.959
12732TIP3    H138137   7.695   7.323   2.882
12732TIP3    H238138   7.557   7.276   2.924
12733TIP3   OH238139   5.901   7.510   0.711
12733TIP3    H138140   5.979   7.564   0.697
12733TIP3    H238141   5.936   7.423   0.731
12734TIP3   OH238142   4.889   5.760   6.183
12734TIP3    H138143   4.926   5.770   6.271
12734TIP3    H238144   4.913   5.672   6.156
12735TIP3   OH238145   3.486   4.516   3.462
12735TIP3    H138146   3.489   4.540   3.555
12735TIP3    H238147   3.431   4.438   3.459
12736TIP3   OH238148   2.286   2.941   6.045
12736TIP3    H138149   2.364   2.885   6.051
12736TIP3    H238150   2.307   3.003   5.976
12737TIP3   OH238151   0.613   6.298   5.050
12737TIP3    H138152   0.567   6.297   4.966
12737TIP3    H238153   0.565   6.361   5.103
12738TIP3   OH238154   6.933   5.032   0.272
12738TIP3    H138155   6.947   4.959   0.211
12738TIP3    H238156   6.917   5.107   0.215
12739TIP3   OH238157   4.264   0.269   5.855
12739TIP3    H138158   4.301   0.313   5.778
12739TIP3    H238159   4.258   0.177   5.829
12740TIP3   OH238160   3.322   7.251   0.312
12740TIP3    H138161   3.272   7.257   0.394
12740TIP3    H238162   3.323   7.158   0.291
12741TIP3   OH238163   3.257   6.732   2.099
12741TIP3    H138164   3.189   6.784   2.055
12741TIP3    H238165   3.301   6.795   2.156
12742TIP3   OH238166   2.160   0.670   1.016
12742TIP3    H138167   2.196   0.710   0.936
12742TIP3    H238168   2.204   0.716   1.087
12743TIP3   OH238169   5.487   3.348   1.795
12743TIP3    H138170   5.513   3.285   1.863
12743TIP3    H238171   5.399   3.376   1.821
12744TIP3   OH238172   5.356   7.370   5.083
12744TIP3    H138173   5.407   7.333   5.155
12744TIP3    H238174   5.265   7.355   5.109
12745TIP3   OH238175   0.114   5.808   4.608
12745TIP3    H138176   0.209   5.808   4.619
12745TIP3    H238177   0.084   5.886   4.654
12746TIP3   OH238178   4.143   5.815   1.010
12746TIP3    H138179   4.055   5.800   1.043
12746TIP3    H238180   4.182   5.728   1.004
12747TIP3   OH238181   7.312   3.337   6.444
12747TIP3    H138182   7.304   3.429   6.421
12747TIP3    H238183   7.347   3.295   6.365
12748TIP3   OH238184   3.339   1.283   6.206
12748TIP3    H138185   3.405   1.305   6.141
12748TIP3    H238186   3.305   1.368   6.235
12749TIP3   OH238187   4.129   3.308   2.836
12749TIP3    H138188   4.069   3.377   2.806
12749TIP3    H238189   4.071   3.238   2.866
12750TIP3   OH238190   7.076   3.806   2.577
12750TIP3    H138191   7.129   3.740   2.622
12750TIP3    H238192   7.140   3.863   2.534
12751TIP3   OH238193   8.014   5.108   0.307
12751TIP3    H138194   8.052   5.186   0.267
12751TIP3    H238195   8.026   5.120   0.401
12752TIP3   OH238196   4.781   2.392   3.541
12752TIP3    H138197   4.767   2.486   3.550
12752TIP3    H238198   4.694   2.356   3.524
12753TIP3   OH238199   6.526   2.804   3.352
12753TIP3    H138200   6.519   2.773   3.262
12753TIP3    H238201   6.504   2.897   3.347
12754TIP3   OH238202   7.964   7.253   4.604
12754TIP3    H138203   7.924   7.228   4.520
12754TIP3    H238204   7.981   7.170   4.648
12755TIP3   OH238205   3.070   6.155   2.360
12755TIP3    H138206   3.057   6.093   2.432
12755TIP3    H238207   3.125   6.107   2.298
12756TIP3   OH238208   0.800   4.205   4.387
12756TIP3    H138209   0.737   4.151   4.340
12756TIP3    H238210   0.815   4.280   4.330
12757TIP3   OH238211   4.940   7.542   0.068
12757TIP3    H138212   5.011   7.542   0.004
12757TIP3    H238213   4.891   7.622   0.050
12758TIP3   OH238214   8.320   1.846   5.818
12758TIP3    H138215   8.244   1.788   5.821
12758TIP3    H238216   8.303   1.912   5.885
12759TIP3   OH238217   1.642   4.758   0.630
12759TIP3    H138218   1.591   4.838   0.635
12759TIP3    H238219   1.707   4.774   0.562
12760TIP3   OH238220   5.438   7.146   6.677
12760TIP3    H138221   5.379   7.203   6.627
12760TIP3    H238222   5.488   7.206   6.733
12761TIP3   OH238223   4.972   4.852   1.915
12761TIP3    H138224   4.990   4.796   1.992
12761TIP3    H238225   5.032   4.926   1.925
12762TIP3   OH238226   6.634   1.790   1.215
12762TIP3    H138227   6.728   1.773   1.215
12762TIP3    H238228   6.621   1.855   1.146
12763TIP3   OH238229   5.290   1.849   5.524
12763TIP3    H138230   5.237   1.770   5.515
12763TIP3    H238231   5.238   1.918   5.484
12764TIP3   OH238232   7.903   5.811   1.030
12764TIP3    H138233   7.972   5.748   1.052
12764TIP3    H238234   7.874   5.845   1.115
12765TIP3   OH238235   2.898   4.525   1.030
12765TIP3    H138236   2.834   4.465   1.067
12765TIP3    H238237   2.857   4.611   1.035
12766TIP3   OH238238   2.873   7.837   6.621
12766TIP3    H138239   2.933   7.908   6.643
12766TIP3    H238240   2.794   7.855   6.672
12767TIP3   OH238241   1.977   5.991   4.917
12767TIP3    H138242   2.011   5.990   4.827
12767TIP3    H238243   1.893   5.946   4.911
12768TIP3   OH238244   0.423   5.570   3.623
12768TIP3    H138245   0.436   5.665   3.615
12768TIP3    H238246   0.433   5.552   3.716
12769TIP3   OH238247   1.622   5.500   2.288
12769TIP3    H138248   1.671   5.475   2.366
12769TIP3    H238249   1.627   5.423   2.231
12770TIP3   OH238250   1.091   6.449   6.637
12770TIP3    H138251   1.134   6.416   6.716
12770TIP3    H238252   1.030   6.379   6.612
12771TIP3   OH238253   0.200   3.250   3.249
12771TIP3    H138254   0.223   3.245   3.342
12771TIP3    H238255   0.255   3.184   3.207
12772TIP3   OH238256   3.073   1.355   3.161
12772TIP3    H138257   3.151   1.301   3.148
12772TIP3    H238258   3.030   1.315   3.237
12773TIP3   OH238259   6.982   1.925   5.428
12773TIP3    H138260   6.894   1.948   5.459
12773TIP3    H238261   7.019   1.872   5.498
12774TIP3   OH238262   6.629   0.998   6.756
12774TIP3    H138263   6.697   1.043   6.807
12774TIP3    H238264   6.609   1.059   6.685
12775TIP3   OH238265   1.487   6.046   3.261
12775TIP3    H138266   1.535   6.002   3.191
12775TIP3    H238267   1.501   5.992   3.338
12776TIP3   OH238268   6.630   4.868   2.814
12776TIP3    H138269   6.630   4.942   2.753
12776TIP3    H238270   6.712   4.876   2.862
12777TIP3   OH238271   2.505   0.646   1.783
12777TIP3    H138272   2.465   0.562   1.806
12777TIP3    H238273   2.435   0.710   1.795
12778TIP3   OH238274   6.234   4.436   4.199
12778TIP3    H138275   6.277   4.517   4.226
12778TIP3    H238276   6.298   4.393   4.142
12779TIP3   OH238277   3.258   1.312   0.784
12779TIP3    H138278   3.255   1.392   0.731
12779TIP3    H238279   3.265   1.344   0.874
12780TIP3   OH238280   6.988   1.060   6.053
12780TIP3    H138281   6.945   0.988   6.100
12780TIP3    H238282   7.033   1.018   5.979
12781TIP3   OH238283   3.475   2.975   3.958
12781TIP3    H138284   3.493   3.022   4.040
12781TIP3    H238285   3.491   2.883   3.979
12782TIP3   OH238286   1.008   2.028   2.717
12782TIP3    H138287   0.985   1.936   2.705
12782TIP3    H238288   1.076   2.027   2.784
12783TIP3   OH238289   7.106   5.327   3.521
12783TIP3    H138290   7.025   5.368   3.551
12783TIP3    H238291   7.087   5.299   3.431
12784TIP3   OH238292   3.541   3.500   1.046
12784TIP3    H138293   3.473   3.434   1.043
12784TIP3    H238294   3.542   3.538   0.958
12785TIP3   OH238295   2.173   4.193   3.824
12785TIP3    H138296   2.093   4.176   3.774
12785TIP3    H238297   2.188   4.113   3.874
12786TIP3   OH238298   4.463   2.704   0.786
12786TIP3    H138299   4.434   2.786   0.745
12786TIP3    H238300   4.403   2.638   0.751
12787TIP3   OH238301   4.462   0.089   2.478
12787TIP3    H138302   4.503   0.027   2.418
12787TIP3    H238303   4.473   0.174   2.435
12788TIP3   OH238304   1.024   6.705   5.742
12788TIP3    H138305   0.986   6.647   5.808
12788TIP3    H238306   1.003   6.663   5.658
12789TIP3   OH238307   5.759   1.769   1.497
12789TIP3    H138308   5.825   1.699   1.498
12789TIP3    H238309   5.677   1.723   1.514
12790TIP3   OH238310   2.492   6.267   4.080
12790TIP3    H138311   2.449   6.288   3.997
12790TIP3    H238312   2.584   6.293   4.066
12791TIP3   OH238313   1.016   6.288   6.400
12791TIP3    H138314   1.006   6.206   6.449
12791TIP3    H238315   1.063   6.261   6.320
12792TIP3   OH238316   6.259   6.999   3.326
12792TIP3    H138317   6.345   6.956   3.324
12792TIP3    H238318   6.271   7.079   3.274
12793TIP3   OH238319   3.736   6.303   6.139
12793TIP3    H138320   3.647   6.314   6.107
12793TIP3    H238321   3.730   6.237   6.208
12794TIP3   OH238322   4.679   3.151   6.214
12794TIP3    H138323   4.648   3.185   6.130
12794TIP3    H238324   4.774   3.145   6.204
12795TIP3   OH238325   4.966   6.719   0.139
12795TIP3    H138326   5.007   6.773   0.072
12795TIP3    H238327   5.037   6.700   0.200
12796TIP3   OH238328   0.133   6.546   5.491
12796TIP3    H138329   0.116   6.560   5.584
12796TIP3    H238330   0.049   6.522   5.454
12797TIP3   OH238331   5.047   5.566   1.166
12797TIP3    H138332   5.080   5.491   1.116
12797TIP3    H238333   4.988   5.527   1.231
12798TIP3   OH238334   3.260   7.711   1.881
12798TIP3    H138335   3.188   7.774   1.881
12798TIP3    H238336   3.265   7.681   1.790
12799TIP3   OH238337   4.111   5.792   5.116
12799TIP3    H138338   4.181   5.737   5.081
12799TIP3    H238339   4.156   5.864   5.160
12800TIP3   OH238340   2.025   6.051   3.589
12800TIP3    H138341   2.083   6.127   3.582
12800TIP3    H238342   2.057   5.991   3.522
12801TIP3   OH238343   0.894   3.025   3.148
12801TIP3    H138344   0.962   3.040   3.214
12801TIP3    H238345   0.840   2.955   3.185
12802TIP3   OH238346   7.214   4.088   5.326
12802TIP3    H138347   7.130   4.042   5.328
12802TIP3    H238348   7.190   4.180   5.337
12803TIP3   OH238349   0.535   3.147   6.117
12803TIP3    H138350   0.508   3.200   6.043
12803TIP3    H238351   0.457   3.098   6.142
12804TIP3   OH238352   4.930   5.698   0.071
12804TIP3    H138353   4.935   5.652  -0.013
12804TIP3    H238354   4.949   5.789   0.051
12805TIP3   OH238355   2.026   5.019   3.948
12805TIP3    H138356   1.967   5.006   4.023
12805TIP3    H238357   2.095   5.075   3.981
12806TIP3   OH238358   3.769   6.093   2.265
12806TIP3    H138359   3.828   6.025   2.298
12806TIP3    H238360   3.698   6.097   2.330
12807TIP3   OH238361   2.350   0.684   6.708
12807TIP3    H138362   2.355   0.769   6.754
12807TIP3    H238363   2.311   0.705   6.623
12808TIP3   OH238364   1.618   7.740   2.314
12808TIP3    H138365   1.687   7.674   2.320
12808TIP3    H238366   1.632   7.782   2.229
12809TIP3   OH238367   8.039   3.615   3.902
12809TIP3    H138368   8.127   3.635   3.933
12809TIP3    H238369   8.052   3.566   3.821
12810TIP3   OH238370   6.938   3.739   3.115
12810TIP3    H138371   6.852   3.778   3.131
12810TIP3    H238372   6.974   3.790   3.043
12811TIP3   OH238373   1.015   4.165   6.319
12811TIP3    H138374   1.109   4.171   6.302
12811TIP3    H238375   0.974   4.196   6.239
12812TIP3   OH238376   6.310   1.399   3.647
12812TIP3    H138377   6.364   1.335   3.600
12812TIP3    H238378   6.223   1.391   3.609
12813TIP3   OH238379   7.172   6.160   1.671
12813TIP3    H138380   7.142   6.209   1.594
12813TIP3    H238381   7.099   6.102   1.692
12814TIP3   OH238382   3.405   0.369   0.622
12814TIP3    H138383   3.330   0.376   0.562
12814TIP3    H238384   3.439   0.281   0.607
12815TIP3   OH238385   7.273   6.883   3.415
12815TIP3    H138386   7.213   6.927   3.475
12815TIP3    H238387   7.355   6.877   3.463
12816TIP3   OH238388   0.698   1.277   2.964
12816TIP3    H138389   0.787   1.311   2.979
12816TIP3    H238390   0.653   1.288   3.048
12817TIP3   OH238391   4.649   1.598   4.148
12817TIP3    H138392   4.698   1.676   4.173
12817TIP3    H238393   4.562   1.611   4.186
12818TIP3   OH238394   5.598   7.130   2.016
12818TIP3    H138395   5.567   7.215   1.985
12818TIP3    H238396   5.693   7.134   2.007
12819TIP3   OH238397   1.854   4.092   4.223
12819TIP3    H138398   1.869   4.097   4.129
12819TIP3    H238399   1.767   4.053   4.232
12820TIP3   OH238400   5.768   3.245   4.449
12820TIP3    H138401   5.792   3.331   4.413
12820TIP3    H238402   5.674   3.237   4.432
12821TIP3   OH238403   5.675   4.533   3.139
12821TIP3    H138404   5.599   4.590   3.129
12821TIP3    H238405   5.714   4.561   3.223
12822TIP3   OH238406   8.092   4.361   0.416
12822TIP3    H138407   8.094   4.457   0.412
12822TIP3    H238408   8.017   4.337   0.361
12823TIP3   OH238409   0.004   4.479   4.352
12823TIP3    H138410   0.000   4.493   4.258
12823TIP3    H238411   0.091   4.443   4.368
12824TIP3   OH238412   6.142   2.713   5.723
12824TIP3    H138413   6.135   2.692   5.816
12824TIP3    H238414   6.230   2.750   5.714
12825TIP3   OH238415   5.050   5.857   6.553
12825TIP3    H138416   5.023   5.947   6.535
12825TIP3    H238417   4.968   5.806   6.548
12826TIP3   OH238418   4.734   1.309   0.357
12826TIP3    H138419   4.723   1.230   0.409
12826TIP3    H238420   4.682   1.375   0.404
12827TIP3   OH238421   6.038   3.034   5.464
12827TIP3    H138422   6.030   3.001   5.374
12827TIP3    H238423   5.948   3.055   5.490
12828TIP3   OH238424   3.614   4.684   2.314
12828TIP3    H138425   3.641   4.769   2.348
12828TIP3    H238426   3.660   4.620   2.369
12829TIP3   OH238427   3.134   7.837   0.256
12829TIP3    H138428   3.078   7.837   0.179
12829TIP3    H238429   3.087   7.890   0.320
12830TIP3   OH238430   4.679   4.736   1.514
12830TIP3    H138431   4.690   4.732   1.609
12830TIP3    H238432   4.765   4.715   1.479
12831TIP3   OH238433   6.936   2.655   3.806
12831TIP3    H138434   6.976   2.706   3.735
12831TIP3    H238435   7.009   2.603   3.841
12832TIP3   OH238436   5.909   7.166   1.539
12832TIP3    H138437   5.902   7.262   1.541
12832TIP3    H238438   5.850   7.137   1.609
12833TIP3   OH238439   5.119   1.530   1.361
12833TIP3    H138440   5.025   1.547   1.367
12833TIP3    H238441   5.142   1.496   1.448
12834TIP3   OH238442   4.541   0.754   2.647
12834TIP3    H138443   4.465   0.722   2.599
12834TIP3    H238444   4.573   0.677   2.694
12835TIP3   OH238445   0.986   1.906   0.347
12835TIP3    H138446   0.976   1.997   0.373
12835TIP3    H238447   0.901   1.866   0.364
12836TIP3   OH238448   3.510   2.450   6.390
12836TIP3    H138449   3.488   2.465   6.481
12836TIP3    H238450   3.594   2.403   6.393
12837TIP3   OH238451   6.977   3.553   2.493
12837TIP3    H138452   7.037   3.541   2.419
12837TIP3    H238453   6.987   3.645   2.517
12838TIP3   OH238454   5.183   1.533   0.491
12838TIP3    H138455   5.197   1.458   0.549
12838TIP3    H238456   5.233   1.511   0.412
12839TIP3   OH238457   2.173   7.565   5.946
12839TIP3    H138458   2.128   7.518   6.015
12839TIP3    H238459   2.250   7.602   5.988
12840TIP3   OH238460   3.005   2.629   5.027
12840TIP3    H138461   3.066   2.600   4.959
12840TIP3    H238462   2.937   2.676   4.980
12841TIP3   OH238463   0.516   6.617   6.294
12841TIP3    H138464   0.526   6.581   6.206
12841TIP3    H238465   0.600   6.657   6.313
12842TIP3   OH238466   4.856   2.270   6.430
12842TIP3    H138467   4.831   2.200   6.369
12842TIP3    H238468   4.808   2.347   6.399
12843TIP3   OH238469   7.252   4.428   4.679
12843TIP3    H138470   7.298   4.350   4.648
12843TIP3    H238471   7.186   4.395   4.741
12844TIP3   OH238472   7.545   0.509   3.259
12844TIP3    H138473   7.460   0.544   3.231
12844TIP3    H238474   7.600   0.587   3.270
12845TIP3   OH238475   6.010   3.538   6.547
12845TIP3    H138476   5.972   3.625   6.550
12845TIP3    H238477   6.023   3.520   6.454
12846TIP3   OH238478   2.328   0.875   0.264
12846TIP3    H138479   2.361   0.931   0.333
12846TIP3    H238480   2.234   0.865   0.283
12847TIP3   OH238481   2.551   3.797   3.139
12847TIP3    H138482   2.570   3.791   3.046
12847TIP3    H238483   2.494   3.723   3.157
12848TIP3   OH238484   2.424   5.414   6.279
12848TIP3    H138485   2.489   5.358   6.237
12848TIP3    H238486   2.472   5.492   6.306
12849TIP3   OH238487   4.179   5.832   1.422
12849TIP3    H138488   4.192   5.775   1.347
12849TIP3    H238489   4.252   5.811   1.481
12850TIP3   OH238490   7.323   0.193   2.090
12850TIP3    H138491   7.320   0.225   2.181
12850TIP3    H238492   7.241   0.224   2.051
12851TIP3   OH238493   0.969   4.468   0.419
12851TIP3    H138494   0.952   4.447   0.327
12851TIP3    H238495   1.064   4.480   0.424
12852TIP3   OH238496   1.596   7.682   4.728
12852TIP3    H138497   1.664   7.691   4.795
12852TIP3    H238498   1.612   7.595   4.690
12853TIP3   OH238499   2.607   3.739   6.247
12853TIP3    H138500   2.554   3.781   6.180
12853TIP3    H238501   2.643   3.662   6.203
12854TIP3   OH238502   4.236   6.491   4.056
12854TIP3    H138503   4.250   6.542   4.135
12854TIP3    H238504   4.188   6.413   4.085
12855TIP3   OH238505   5.983   4.346   3.615
12855TIP3    H138506   6.039   4.328   3.690
12855TIP3    H238507   6.043   4.363   3.543
12856TIP3   OH238508   6.055   7.802   2.625
12856TIP3    H138509   6.034   7.826   2.716
12856TIP3    H238510   6.105   7.877   2.591
12857TIP3   OH238511   2.843   2.733   5.826
12857TIP3    H138512   2.806   2.744   5.913
12857TIP3    H238513   2.937   2.727   5.840
12858TIP3   OH238514   2.400   3.192   2.877
12858TIP3    H138515   2.333   3.171   2.942
12858TIP3    H238516   2.358   3.176   2.792
12859TIP3   OH238517   6.380   6.941   4.126
12859TIP3    H138518   6.291   6.926   4.159
12859TIP3    H238519   6.387   6.881   4.051
12860TIP3   OH238520   7.028   5.494   4.242
12860TIP3    H138521   6.935   5.490   4.264
12860TIP3    H238522   7.066   5.550   4.310
12861TIP3   OH238523   3.459   6.030   3.934
12861TIP3    H138524   3.369   5.999   3.934
12861TIP3    H238525   3.488   6.022   4.025
12862TIP3   OH238526   7.193   4.949   6.755
12862TIP3    H138527   7.253   4.885   6.793
12862TIP3    H238528   7.200   4.936   6.661
12863TIP3   OH238529   7.815   6.446   3.607
12863TIP3    H138530   7.745   6.505   3.634
12863TIP3    H238531   7.854   6.489   3.531
12864TIP3   OH238532   7.817   7.072   5.541
12864TIP3    H138533   7.739   7.126   5.553
12864TIP3    H238534   7.888   7.126   5.574
12865TIP3   OH238535   1.117   1.900   3.370
12865TIP3    H138536   1.205   1.874   3.398
12865TIP3    H238537   1.067   1.819   3.371
12866TIP3   OH238538   7.235   0.411   5.778
12866TIP3    H138539   7.167   0.346   5.796
12866TIP3    H238540   7.223   0.478   5.845
12867TIP3   OH238541   2.941   1.707   5.001
12867TIP3    H138542   2.924   1.641   5.069
12867TIP3    H238543   3.014   1.759   5.036
12868TIP3   OH238544   3.363   5.373   2.138
12868TIP3    H138545   3.341   5.423   2.060
12868TIP3    H238546   3.306   5.296   2.134
12869TIP3   OH238547   7.988   3.050   1.891
12869TIP3    H138548   7.945   3.092   1.816
12869TIP3    H238549   8.033   2.974   1.853
12870TIP3   OH238550   6.602   6.471   5.584
12870TIP3    H138551   6.535   6.418   5.625
12870TIP3    H238552   6.587   6.461   5.490
12871TIP3   OH238553   3.050   6.758   3.741
12871TIP3    H138554   3.035   6.851   3.725
12871TIP3    H238555   3.022   6.715   3.660
12872TIP3   OH238556   4.488   0.376   5.723
12872TIP3    H138557   4.438   0.396   5.644
12872TIP3    H238558   4.545   0.452   5.735
12873TIP3   OH238559   0.055   3.917   5.351
12873TIP3    H138560   0.101   4.000   5.341
12873TIP3    H238561  -0.033   3.942   5.381
12874TIP3   OH238562   6.827   7.148   1.457
12874TIP3    H138563   6.812   7.065   1.412
12874TIP3    H238564   6.920   7.165   1.447
12875TIP3   OH238565   6.333   0.600   6.442
12875TIP3    H138566   6.274   0.630   6.511
12875TIP3    H238567   6.411   0.570   6.489
12876TIP3   OH238568   2.962   1.469   6.200
12876TIP3    H138569   3.008   1.432   6.125
12876TIP3    H238570   2.991   1.417   6.274
12877TIP3   OH238571   1.193   7.007   4.491
12877TIP3    H138572   1.129   7.022   4.561
12877TIP3    H238573   1.183   6.914   4.470
12878TIP3   OH238574   1.415   5.689   3.624
12878TIP3    H138575   1.427   5.606   3.671
12878TIP3    H238576   1.476   5.684   3.550
12879TIP3   OH238577   4.543   6.080   4.959
12879TIP3    H138578   4.590   6.006   4.997
12879TIP3    H238579   4.590   6.098   4.877
12880TIP3   OH238580   0.400   5.926   2.264
12880TIP3    H138581   0.328   5.971   2.309
12880TIP3    H238582   0.359   5.848   2.227
12881TIP3   OH238583   2.252   7.349   0.858
12881TIP3    H138584   2.344   7.322   0.855
12881TIP3    H238585   2.212   7.289   0.921
12882TIP3   OH238586   5.230   7.347   2.291
12882TIP3    H138587   5.227   7.251   2.285
12882TIP3    H238588   5.320   7.369   2.269
12883TIP3   OH238589   1.031   0.148   4.196
12883TIP3    H138590   0.974   0.166   4.121
12883TIP3    H238591   0.986   0.189   4.270
12884TIP3   OH238592   6.713   2.212   2.978
12884TIP3    H138593   6.697   2.293   2.929
12884TIP3    H238594   6.626   2.180   3.002
12885TIP3   OH238595   8.086   6.726   0.301
12885TIP3    H138596   8.103   6.658   0.366
12885TIP3    H238597   8.025   6.786   0.344
12886TIP3   OH238598   2.236   1.540   1.938
12886TIP3    H138599   2.158   1.591   1.918
12886TIP3    H238600   2.247   1.482   1.862
12887TIP3   OH238601   8.038   6.027   5.398
12887TIP3    H138602   8.014   5.955   5.457
12887TIP3    H238603   8.060   5.983   5.315
12888TIP3   OH238604   5.512   7.607   2.143
12888TIP3    H138605   5.573   7.678   2.161
12888TIP3    H238606   5.464   7.636   2.065
12889TIP3   OH238607   1.521   1.536   2.339
12889TIP3    H138608   1.558   1.623   2.353
12889TIP3    H238609   1.431   1.553   2.312
12890TIP3   OH238610   7.035   2.422   0.729
12890TIP3    H138611   7.096   2.475   0.779
12890TIP3    H238612   6.957   2.416   0.784
12891TIP3   OH238613   4.842   3.016   5.643
12891TIP3    H138614   4.930   3.014   5.605
12891TIP3    H238615   4.833   3.103   5.681
12892TIP3   OH238616   1.143   3.375   6.295
12892TIP3    H138617   1.111   3.285   6.306
12892TIP3    H238618   1.186   3.396   6.378
12893TIP3   OH238619   5.434   0.924   5.206
12893TIP3    H138620   5.355   0.953   5.251
12893TIP3    H238621   5.472   1.005   5.171
12894TIP3   OH238622   4.317   2.818   1.950
12894TIP3    H138623   4.390   2.778   1.903
12894TIP3    H238624   4.356   2.858   2.027
12895TIP3   OH238625   0.781   6.511   3.695
12895TIP3    H138626   0.807   6.468   3.777
12895TIP3    H238627   0.784   6.441   3.630
12896TIP3   OH238628   5.892   5.345   5.119
12896TIP3    H138629   5.864   5.345   5.027
12896TIP3    H238630   5.927   5.433   5.132
12897TIP3   OH238631   4.396   0.733   3.266
12897TIP3    H138632   4.424   0.754   3.355
12897TIP3    H238633   4.410   0.638   3.259
12898TIP3   OH238634   3.757   4.705   1.266
12898TIP3    H138635   3.696   4.767   1.225
12898TIP3    H238636   3.787   4.751   1.344
12899TIP3   OH238637   3.495   2.513   5.501
12899TIP3    H138638   3.454   2.438   5.459
12899TIP3    H238639   3.441   2.587   5.476
12900TIP3   OH238640   3.776   0.300   0.282
12900TIP3    H138641   3.770   0.285   0.188
12900TIP3    H238642   3.729   0.382   0.297
12901TIP3   OH238643   0.657   3.977   3.468
12901TIP3    H138644   0.747   3.991   3.498
12901TIP3    H238645   0.630   3.895   3.509
12902TIP3   OH238646   3.128   4.848   3.126
12902TIP3    H138647   3.155   4.777   3.185
12902TIP3    H238648   3.172   4.925   3.161
12903TIP3   OH238649   5.284   7.908   6.212
12903TIP3    H138650   5.276   8.000   6.238
12903TIP3    H238651   5.373   7.899   6.181
12904TIP3   OH238652   2.719   6.591   5.464
12904TIP3    H138653   2.724   6.508   5.417
12904TIP3    H238654   2.627   6.617   5.458
12905TIP3   OH238655   6.744   3.244   0.933
12905TIP3    H138656   6.755   3.186   0.858
12905TIP3    H238657   6.713   3.187   1.003
12906TIP3   OH238658   6.739   7.044   4.443
12906TIP3    H138659   6.778   6.981   4.504
12906TIP3    H238660   6.676   7.093   4.497
12907TIP3   OH238661   1.600   2.620   3.127
12907TIP3    H138662   1.522   2.654   3.085
12907TIP3    H238663   1.620   2.683   3.196
12908TIP3   OH238664   2.315   3.740   4.670
12908TIP3    H138665   2.228   3.725   4.708
12908TIP3    H238666   2.298   3.746   4.576
12909TIP3   OH238667   4.486   4.564   4.935
12909TIP3    H138668   4.398   4.600   4.922
12909TIP3    H238669   4.484   4.479   4.891
12910TIP3   OH238670   2.795   7.590   3.674
12910TIP3    H138671   2.809   7.578   3.580
12910TIP3    H238672   2.875   7.632   3.705
12911TIP3   OH238673   4.263   6.761   1.426
12911TIP3    H138674   4.305   6.822   1.365
12911TIP3    H238675   4.308   6.775   1.509
12912TIP3   OH238676   0.656   0.926   4.344
12912TIP3    H138677   0.740   0.912   4.387
12912TIP3    H238678   0.671   0.901   4.253
12913TIP3   OH238679   7.011   4.010   5.780
12913TIP3    H138680   7.060   4.018   5.862
12913TIP3    H238681   7.051   3.936   5.736
12914TIP3   OH238682   2.675   1.848   0.226
12914TIP3    H138683   2.734   1.809   0.161
12914TIP3    H238684   2.683   1.942   0.213
12915TIP3   OH238685   7.674   1.760   1.008
12915TIP3    H138686   7.670   1.759   0.912
12915TIP3    H238687   7.662   1.669   1.034
12916TIP3   OH238688   5.584   3.658   0.245
12916TIP3    H138689   5.566   3.648   0.151
12916TIP3    H238690   5.502   3.634   0.287
12917TIP3   OH238691   5.427   1.260   5.163
12917TIP3    H138692   5.487   1.233   5.094
12917TIP3    H238693   5.394   1.345   5.134
12918TIP3   OH238694   6.250   7.461   0.367
12918TIP3    H138695   6.315   7.531   0.363
12918TIP3    H238696   6.222   7.460   0.458
12919TIP3   OH238697   3.169   1.069   2.535
12919TIP3    H138698   3.201   1.149   2.577
12919TIP3    H238699   3.084   1.052   2.576
12920TIP3   OH238700   8.300   5.275   3.513
12920TIP3    H138701   8.370   5.283   3.577
12920TIP3    H238702   8.222   5.307   3.558
12921TIP3   OH238703   0.717   7.905   1.279
12921TIP3    H138704   0.791   7.891   1.220
12921TIP3    H238705   0.699   7.998   1.273
12922TIP3   OH238706   8.061   1.142   4.532
12922TIP3    H138707   8.144   1.113   4.570
12922TIP3    H238708   8.081   1.227   4.493
12923TIP3   OH238709   2.502   4.039   4.526
12923TIP3    H138710   2.548   3.966   4.485
12923TIP3    H238711   2.523   4.114   4.470
12924TIP3   OH238712   3.618   3.901   2.332
12924TIP3    H138713   3.577   3.963   2.272
12924TIP3    H238714   3.711   3.902   2.307
12925TIP3   OH238715   3.530   0.748   3.385
12925TIP3    H138716   3.499   0.783   3.302
12925TIP3    H238717   3.606   0.694   3.362
12926TIP3   OH238718   1.912   4.116   3.676
12926TIP3    H138719   1.842   4.174   3.646
12926TIP3    H238720   1.954   4.087   3.595
12927TIP3   OH238721   4.424   7.433   6.526
12927TIP3    H138722   4.355   7.435   6.593
12927TIP3    H238723   4.413   7.514   6.477
12928TIP3   OH238724   5.001   5.581   4.008
12928TIP3    H138725   4.912   5.581   4.044
12928TIP3    H238726   4.990   5.606   3.917
12929TIP3   OH238727   2.675   4.980   4.222
12929TIP3    H138728   2.752   5.021   4.262
12929TIP3    H238729   2.709   4.903   4.177
12930TIP3   OH238730   4.920   6.929   5.901
12930TIP3    H138731   4.860   6.928   5.976
12930TIP3    H238732   4.983   6.859   5.921
12931TIP3   OH238733   7.583   3.639   0.043
12931TIP3    H138734   7.624   3.701   0.103
12931TIP3    H238735   7.575   3.558   0.094
12932TIP3   OH238736   6.773   4.799   0.809
12932TIP3    H138737   6.694   4.850   0.825
12932TIP3    H238738   6.779   4.795   0.713
12933TIP3   OH238739   2.132   5.324   0.679
12933TIP3    H138740   2.150   5.327   0.773
12933TIP3    H238741   2.182   5.249   0.647
12934TIP3   OH238742   2.922   3.498   4.726
12934TIP3    H138743   3.010   3.468   4.707
12934TIP3    H238744   2.905   3.566   4.660
12935TIP3   OH238745   1.902   5.280   2.838
12935TIP3    H138746   1.890   5.265   2.932
12935TIP3    H238747   1.931   5.371   2.832
12936TIP3   OH238748   1.524   4.190   5.699
12936TIP3    H138749   1.564   4.155   5.779
12936TIP3    H238750   1.438   4.220   5.727
12937TIP3   OH238751   6.865   6.598   2.450
12937TIP3    H138752   6.907   6.531   2.398
12937TIP3    H238753   6.883   6.574   2.541
12938TIP3   OH238754   8.064   6.955   6.385
12938TIP3    H138755   7.979   6.991   6.409
12938TIP3    H238756   8.125   6.992   6.449
12939TIP3   OH238757   7.560   1.020   4.709
12939TIP3    H138758   7.608   1.054   4.785
12939TIP3    H238759   7.556   0.925   4.725
12940TIP3   OH238760   3.679   5.816   2.415
12940TIP3    H138761   3.657   5.909   2.416
12940TIP3    H238762   3.653   5.785   2.502
12941TIP3   OH238763   7.083   6.804   5.212
12941TIP3    H138764   7.047   6.740   5.273
12941TIP3    H238765   7.176   6.807   5.234
12942TIP3   OH238766   0.827   3.610   5.226
12942TIP3    H138767   0.796   3.546   5.161
12942TIP3    H238768   0.755   3.616   5.289
12943TIP3   OH238769   2.582   5.670   0.053
12943TIP3    H138770   2.566   5.583   0.090
12943TIP3    H238771   2.555   5.731   0.121
12944TIP3   OH238772   2.727   7.690   2.247
12944TIP3    H138773   2.785   7.750   2.201
12944TIP3    H238774   2.696   7.739   2.323
12945TIP3   OH238775   4.771   5.153   5.422
12945TIP3    H138776   4.762   5.220   5.489
12945TIP3    H238777   4.859   5.119   5.433
12946TIP3   OH238778   3.785   6.374   1.831
12946TIP3    H138779   3.704   6.388   1.781
12946TIP3    H238780   3.755   6.353   1.919
12947TIP3   OH238781   0.790   0.109   2.799
12947TIP3    H138782   0.722   0.051   2.834
12947TIP3    H238783   0.742   0.175   2.749
12948TIP3   OH238784   6.148   6.251   6.470
12948TIP3    H138785   6.206   6.213   6.404
12948TIP3    H238786   6.163   6.346   6.462
12949TIP3   OH238787   1.159   2.622   3.280
12949TIP3    H138788   1.157   2.627   3.375
12949TIP3    H238789   1.168   2.712   3.251
12950TIP3   OH238790   1.666   3.785   3.037
12950TIP3    H138791   1.604   3.858   3.038
12950TIP3    H238792   1.658   3.747   2.950
12951TIP3   OH238793   5.501   3.923   6.085
12951TIP3    H138794   5.508   3.866   6.161
12951TIP3    H238795   5.411   3.953   6.085
12952TIP3   OH238796   7.498   6.493   1.828
12952TIP3    H138797   7.581   6.452   1.854
12952TIP3    H238798   7.471   6.444   1.751
12953TIP3   OH238799   5.051   2.550   6.159
12953TIP3    H138800   5.022   2.626   6.108
12953TIP3    H238801   4.983   2.539   6.226
12954TIP3   OH238802   8.010   7.597   0.914
12954TIP3    H138803   7.981   7.666   0.854
12954TIP3    H238804   8.090   7.632   0.952
12955TIP3   OH238805   5.960   6.579   2.131
12955TIP3    H138806   5.870   6.548   2.130
12955TIP3    H238807   5.953   6.674   2.144
12956TIP3   OH238808   7.653   6.800   3.366
12956TIP3    H138809   7.571   6.782   3.320
12956TIP3    H238810   7.625   6.836   3.450
12957TIP3   OH238811   7.293   5.443   5.204
12957TIP3    H138812   7.208   5.480   5.179
12957TIP3    H238813   7.291   5.353   5.171
12958TIP3   OH238814   5.997   2.338   3.144
12958TIP3    H138815   6.048   2.334   3.225
12958TIP3    H238816   5.966   2.248   3.130
12959TIP3   OH238817   3.523   7.025   5.837
12959TIP3    H138818   3.534   7.033   5.932
12959TIP3    H238819   3.488   6.937   5.824
12960TIP3   OH238820   4.639   1.915   1.470
12960TIP3    H138821   4.685   1.925   1.554
12960TIP3    H238822   4.697   1.860   1.418
12961TIP3   OH238823   5.325   3.204   4.821
12961TIP3    H138824   5.292   3.207   4.911
12961TIP3    H238825   5.256   3.246   4.770
12962TIP3   OH238826   7.246   3.560   2.861
12962TIP3    H138827   7.223   3.559   2.954
12962TIP3    H238828   7.170   3.523   2.817
12963TIP3   OH238829   8.189   3.757   6.103
12963TIP3    H138830   8.198   3.765   6.008
12963TIP3    H238831   8.160   3.844   6.131
12964TIP3   OH238832   5.496   2.785   2.137
12964TIP3    H138833   5.535   2.756   2.220
12964TIP3    H238834   5.560   2.845   2.100
12965TIP3   OH238835   7.939   0.344   0.627
12965TIP3    H138836   7.936   0.349   0.532
12965TIP3    H238837   8.012   0.401   0.653
12966TIP3   OH238838   6.990   3.947   2.243
12966TIP3    H138839   6.982   3.998   2.163
12966TIP3    H238840   6.902   3.945   2.280
12967TIP3   OH238841   6.898   0.206   5.353
12967TIP3    H138842   6.839   0.157   5.296
12967TIP3    H238843   6.982   0.206   5.306
12968TIP3   OH238844   3.062   7.558   5.395
12968TIP3    H138845   3.027   7.469   5.404
12968TIP3    H238846   3.077   7.587   5.485
12969TIP3   OH238847   1.184   2.012   5.767
12969TIP3    H138848   1.260   2.030   5.713
12969TIP3    H238849   1.109   2.021   5.708
12970TIP3   OH238850   2.555   0.239   4.395
12970TIP3    H138851   2.481   0.178   4.395
12970TIP3    H238852   2.627   0.189   4.357
12971TIP3   OH238853   1.582   3.147   2.206
12971TIP3    H138854   1.636   3.203   2.150
12971TIP3    H238855   1.604   3.174   2.295
12972TIP3   OH238856   3.007   5.292   1.111
12972TIP3    H138857   2.997   5.203   1.147
12972TIP3    H238858   3.056   5.280   1.030
12973TIP3   OH238859   4.855   6.047   4.399
12973TIP3    H138860   4.854   6.102   4.321
12973TIP3    H238861   4.919   6.088   4.457
12974TIP3   OH238862   6.473   7.032   3.016
12974TIP3    H138863   6.417   7.087   3.071
12974TIP3    H238864   6.562   7.054   3.043
12975TIP3   OH238865   2.850   6.693   6.675
12975TIP3    H138866   2.912   6.753   6.716
12975TIP3    H238867   2.764   6.730   6.697
12976TIP3   OH238868   1.643   3.903   6.017
12976TIP3    H138869   1.580   3.845   6.059
12976TIP3    H238870   1.641   3.877   5.925
12977TIP3   OH238871   2.907   6.742   4.468
12977TIP3    H138872   2.947   6.824   4.498
12977TIP3    H238873   2.955   6.674   4.514
12978TIP3   OH238874   6.327   5.757   0.869
12978TIP3    H138875   6.305   5.670   0.834
12978TIP3    H238876   6.351   5.741   0.960
12979TIP3   OH238877   5.047   3.472   0.578
12979TIP3    H138878   5.122   3.483   0.638
12979TIP3    H238879   5.063   3.536   0.509
12980TIP3   OH238880   7.097   4.089   0.991
12980TIP3    H138881   7.179   4.116   1.031
12980TIP3    H238882   7.068   4.165   0.941
12981TIP3   OH238883   8.280   6.789   5.742
12981TIP3    H138884   8.221   6.810   5.814
12981TIP3    H238885   8.223   6.765   5.669
12982TIP3   OH238886   4.204   6.930   5.414
12982TIP3    H138887   4.165   7.010   5.451
12982TIP3    H238888   4.130   6.871   5.401
12983TIP3   OH238889   5.939   0.850   3.722
12983TIP3    H138890   5.971   0.925   3.672
12983TIP3    H238891   5.861   0.883   3.768
12984TIP3   OH238892   7.833   5.826   3.175
12984TIP3    H138893   7.764   5.876   3.220
12984TIP3    H238894   7.894   5.893   3.143
12985TIP3   OH238895   1.193   4.646   2.823
12985TIP3    H138896   1.109   4.612   2.793
12985TIP3    H238897   1.213   4.718   2.764
12986TIP3   OH238898   7.386   1.625   4.366
12986TIP3    H138899   7.440   1.701   4.392
12986TIP3    H238900   7.443   1.550   4.383
12987TIP3   OH238901   6.239   6.564   2.166
12987TIP3    H138902   6.144   6.569   2.155
12987TIP3    H238903   6.250   6.513   2.246
12988TIP3   OH238904   5.039   0.931   1.278
12988TIP3    H138905   5.036   0.956   1.186
12988TIP3    H238906   5.119   0.972   1.311
12989TIP3   OH238907   6.631   0.977   5.998
12989TIP3    H138908   6.536   0.986   5.987
12989TIP3    H238909   6.669   1.024   5.924
12990TIP3   OH238910   5.334   7.651   6.699
12990TIP3    H138911   5.415   7.602   6.713
12990TIP3    H238912   5.264   7.586   6.709
12991TIP3   OH238913   5.842   0.113   6.722
12991TIP3    H138914   5.812   0.200   6.749
12991TIP3    H238915   5.928   0.129   6.683
12992TIP3   OH238916   8.254   1.905   4.426
12992TIP3    H138917   8.330   1.893   4.483
12992TIP3    H238918   8.195   1.962   4.476
12993TIP3   OH238919   1.383   3.844   1.032
12993TIP3    H138920   1.370   3.850   0.937
12993TIP3    H238921   1.298   3.813   1.066
12994TIP3   OH238922   3.944   4.546   3.238
12994TIP3    H138923   3.976   4.632   3.212
12994TIP3    H238924   3.849   4.557   3.246
12995TIP3   OH238925   5.376   4.534   2.524
12995TIP3    H138926   5.386   4.459   2.583
12995TIP3    H238927   5.464   4.548   2.489
12996TIP3   OH238928   0.351   5.884   4.099
12996TIP3    H138929   0.441   5.886   4.132
12996TIP3    H238930   0.300   5.932   4.165
12997TIP3   OH238931   5.780   0.264   3.523
12997TIP3    H138932   5.776   0.270   3.619
12997TIP3    H238933   5.779   0.355   3.493
12998TIP3   OH238934   7.931   3.437   2.010
12998TIP3    H138935   7.855   3.490   1.988
12998TIP3    H238936   7.963   3.474   2.093
12999TIP3   OH238937   0.103   1.262   5.502
12999TIP3    H138938   0.071   1.283   5.415
12999TIP3    H238939   0.181   1.317   5.512
13000TIP3   OH238940   5.652   4.344   4.171
13000TIP3    H138941   5.624   4.435   4.165
13000TIP3    H238942   5.586   4.302   4.226
13001TIP3   OH238943   2.869   0.916   5.736
13001TIP3    H138944   2.903   0.843   5.684
13001TIP3    H238945   2.913   0.993   5.701
13002TIP3   OH238946   2.083   3.431   0.779
13002TIP3    H138947   2.056   3.421   0.687
13002TIP3    H238948   2.028   3.502   0.812
13003TIP3   OH238949   3.152   3.541   5.946
13003TIP3    H138950   3.123   3.454   5.919
13003TIP3    H238951   3.077   3.576   5.995
13004TIP3   OH238952   7.899   1.268   5.215
13004TIP3    H138953   7.824   1.325   5.198
13004TIP3    H238954   7.932   1.296   5.300
13005TIP3   OH238955   6.781   4.001   4.459
13005TIP3    H138956   6.852   4.052   4.419
13005TIP3    H238957   6.707   4.012   4.399
13006TIP3   OH238958   5.871   0.228   1.717
13006TIP3    H138959   5.928   0.271   1.653
13006TIP3    H238960   5.819   0.300   1.754
13007TIP3   OH238961   6.644   3.055   1.090
13007TIP3    H138962   6.580   3.049   1.161
13007TIP3    H238963   6.659   2.964   1.064
13008TIP3   OH238964   4.740   7.275   1.363
13008TIP3    H138965   4.668   7.217   1.386
13008TIP3    H238966   4.818   7.221   1.370
13009TIP3   OH238967   0.493   5.542   6.078
13009TIP3    H138968   0.399   5.552   6.095
13009TIP3    H238969   0.502   5.455   6.040
13010TIP3   OH238970   6.978   6.279   6.059
13010TIP3    H138971   6.949   6.244   6.144
13010TIP3    H238972   7.073   6.267   6.059
13011TIP3   OH238973   1.943   6.889   3.850
13011TIP3    H138974   1.988   6.959   3.803
13011TIP3    H238975   1.960   6.907   3.942
13012TIP3   OH238976   3.324   0.740   1.750
13012TIP3    H138977   3.299   0.827   1.781
13012TIP3    H238978   3.411   0.725   1.786
13013TIP3   OH238979   6.145   6.999   4.289
13013TIP3    H138980   6.228   7.041   4.310
13013TIP3    H238981   6.079   7.051   4.336
13014TIP3   OH238982   6.914   2.923   6.128
13014TIP3    H138983   6.876   2.859   6.189
13014TIP3    H238984   6.883   2.896   6.042
13015TIP3   OH238985   2.087   4.260   2.543
13015TIP3    H138986   2.145   4.268   2.467
13015TIP3    H238987   2.134   4.203   2.603
13016TIP3   OH238988   1.435   3.646   0.429
13016TIP3    H138989   1.452   3.740   0.431
13016TIP3    H238990   1.341   3.639   0.412
13017TIP3   OH238991   3.607   2.672   6.250
13017TIP3    H138992   3.661   2.634   6.181
13017TIP3    H238993   3.565   2.597   6.292
13018TIP3   OH238994   1.366   0.869   1.045
13018TIP3    H138995   1.455   0.901   1.030
13018TIP3    H238996   1.347   0.815   0.967
13019TIP3   OH238997   5.036   2.885   4.575
13019TIP3    H138998   5.098   2.948   4.612
13019TIP3    H238999   5.088   2.807   4.558
13020TIP3   OH239000   6.687   5.047   2.630
13020TIP3    H139001   6.755   5.075   2.568
13020TIP3    H239002   6.605   5.057   2.580
13021TIP3   OH239003   8.358   2.923   3.216
13021TIP3    H139004   8.434   2.966   3.177
13021TIP3    H239005   8.392   2.841   3.253
13022TIP3   OH239006   1.898   0.718   3.624
13022TIP3    H139007   1.813   0.716   3.581
13022TIP3    H239008   1.894   0.794   3.682
13023TIP3   OH239009   4.858   4.383   1.375
13023TIP3    H139010   4.946   4.390   1.412
13023TIP3    H239011   4.869   4.329   1.297
13024TIP3   OH239012   6.042   1.217   5.629
13024TIP3    H139013   6.050   1.209   5.534
13024TIP3    H239014   6.006   1.133   5.658
13025TIP3   OH239015   7.381   3.005   6.317
13025TIP3    H139016   7.290   2.991   6.293
13025TIP3    H239017   7.378   3.043   6.405
13026TIP3   OH239018   2.951   3.434   5.318
13026TIP3    H139019   2.981   3.462   5.231
13026TIP3    H239020   2.861   3.406   5.304
13027TIP3   OH239021   2.224   7.070   3.410
13027TIP3    H139022   2.225   7.166   3.407
13027TIP3    H239023   2.151   7.045   3.353
13028TIP3   OH239024   6.143   7.316   5.024
13028TIP3    H139025   6.056   7.302   4.987
13028TIP3    H239026   6.146   7.409   5.044
13029TIP3   OH239027   3.802   2.722   3.916
13029TIP3    H139028   3.820   2.700   4.007
13029TIP3    H239029   3.886   2.711   3.871
13030TIP3   OH239030   8.223   6.682   2.641
13030TIP3    H139031   8.190   6.772   2.645
13030TIP3    H239032   8.162   6.633   2.697
13031TIP3   OH239033   6.894   2.684   6.258
13031TIP3    H139034   6.983   2.671   6.225
13031TIP3    H239035   6.901   2.662   6.351
13032TIP3   OH239036   7.753   1.622   2.830
13032TIP3    H139037   7.688   1.675   2.876
13032TIP3    H239038   7.715   1.534   2.828
13033TIP3   OH239039   3.280   1.770   6.217
13033TIP3    H139040   3.227   1.840   6.179
13033TIP3    H239041   3.238   1.751   6.301
13034TIP3   OH239042   0.132   0.017   1.126
13034TIP3    H139043   0.166   0.093   1.172
13034TIP3    H239044   0.065   0.053   1.067
13035TIP3   OH239045   5.532   4.502   4.799
13035TIP3    H139046   5.510   4.418   4.758
13035TIP3    H239047   5.461   4.561   4.772
13036TIP3   OH239048   3.113   4.802   0.348
13036TIP3    H139049   3.167   4.740   0.396
13036TIP3    H239050   3.036   4.816   0.404
13037TIP3   OH239051   2.938   6.857   1.753
13037TIP3    H139052   2.878   6.919   1.793
13037TIP3    H239053   3.024   6.880   1.788
13038TIP3   OH239054   4.844   7.068   3.157
13038TIP3    H139055   4.894   7.139   3.116
13038TIP3    H239056   4.757   7.104   3.171
13039TIP3   OH239057   7.006   3.946   0.749
13039TIP3    H139058   6.919   3.973   0.718
13039TIP3    H239059   7.032   4.015   0.810
13040TIP3   OH239060   2.767   0.957   2.346
13040TIP3    H139061   2.701   0.932   2.281
13040TIP3    H239062   2.827   0.882   2.349
13041TIP3   OH239063   5.734   4.815   4.701
13041TIP3    H139064   5.648   4.776   4.687
13041TIP3    H239065   5.783   4.796   4.622
13042TIP3   OH239066   8.032   6.072   6.028
13042TIP3    H139067   7.976   6.111   5.960
13042TIP3    H239068   8.118   6.109   6.012
13043TIP3   OH239069   2.824   6.705   5.031
13043TIP3    H139070   2.849   6.666   4.948
13043TIP3    H239071   2.744   6.659   5.057
13044TIP3   OH239072   1.258   2.737   3.682
13044TIP3    H139073   1.263   2.795   3.606
13044TIP3    H239074   1.273   2.650   3.646
13045TIP3   OH239075   4.254   3.926   3.400
13045TIP3    H139076   4.241   4.012   3.360
13045TIP3    H239077   4.289   3.945   3.487
13046TIP3   OH239078   1.591   1.862   1.769
13046TIP3    H139079   1.595   1.895   1.679
13046TIP3    H239080   1.593   1.767   1.760
13047TIP3   OH239081   6.539   4.051   6.496
13047TIP3    H139082   6.607   4.008   6.443
13047TIP3    H239083   6.497   4.113   6.435
13048TIP3   OH239084   5.347   0.537   4.854
13048TIP3    H139085   5.425   0.576   4.893
13048TIP3    H239086   5.365   0.443   4.853
13049TIP3   OH239087   4.962   3.548   5.075
13049TIP3    H139088   4.924   3.485   5.013
13049TIP3    H239089   4.971   3.628   5.024
13050TIP3   OH239090   7.770   2.093   3.834
13050TIP3    H139091   7.701   2.027   3.837
13050TIP3    H239092   7.724   2.175   3.817
13051TIP3   OH239093   7.744   4.159   1.897
13051TIP3    H139094   7.705   4.178   1.811
13051TIP3    H239095   7.837   4.145   1.879
13052TIP3   OH239096   5.744   3.563   5.287
13052TIP3    H139097   5.832   3.544   5.321
13052TIP3    H239098   5.750   3.541   5.194
13053TIP3   OH239099   4.241   0.696   5.003
13053TIP3    H139100   4.173   0.628   5.011
13053TIP3    H239101   4.293   0.669   4.928
13054TIP3   OH239102   0.085   1.122   5.098
13054TIP3    H139103  -0.006   1.134   5.124
13054TIP3    H239104   0.130   1.198   5.133
13055TIP3   OH239105   3.772   3.822   5.735
13055TIP3    H139106   3.757   3.814   5.641
13055TIP3    H239107   3.766   3.915   5.753
13056TIP3   OH239108   6.629   4.266   1.631
13056TIP3    H139109   6.665   4.351   1.658
13056TIP3    H239110   6.577   4.286   1.553
13057TIP3   OH239111   2.519   1.655   2.952
13057TIP3    H139112   2.601   1.672   2.998
13057TIP3    H239113   2.495   1.566   2.978
13058TIP3   OH239114   4.124   4.437   4.686
13058TIP3    H139115   4.034   4.470   4.688
13058TIP3    H239116   4.116   4.343   4.700
13059TIP3   OH239117   3.033   5.217   1.425
13059TIP3    H139118   2.997   5.132   1.448
13059TIP3    H239119   3.107   5.198   1.367
13060TIP3   OH239120   1.923   2.278   0.545
13060TIP3    H139121   1.865   2.331   0.490
13060TIP3    H239122   2.007   2.279   0.499
13061TIP3   OH239123   1.581   0.610   6.627
13061TIP3    H139124   1.497   0.617   6.581
13061TIP3    H239125   1.621   0.531   6.592
13062TIP3   OH239126   0.266   5.260   1.922
13062TIP3    H139127   0.319   5.233   1.997
13062TIP3    H239128   0.198   5.316   1.959
13063TIP3   OH239129   2.824   4.900   2.025
13063TIP3    H139130   2.842   4.914   2.118
13063TIP3    H239131   2.767   4.823   2.022
13064TIP3   OH239132   6.694   3.371   5.093
13064TIP3    H139133   6.658   3.452   5.057
13064TIP3    H239134   6.778   3.360   5.048
13065TIP3   OH239135   4.378   6.428   3.599
13065TIP3    H139136   4.468   6.450   3.575
13065TIP3    H239137   4.371   6.451   3.691
13066TIP3   OH239138   0.766   6.508   6.671
13066TIP3    H139139   0.844   6.563   6.683
13066TIP3    H239140   0.754   6.466   6.756
13067TIP3   OH239141   4.568   1.985   5.524
13067TIP3    H139142   4.576   1.897   5.561
13067TIP3    H239143   4.644   2.032   5.558
13068TIP3   OH239144   5.889   7.011   3.595
13068TIP3    H139145   5.963   7.011   3.656
13068TIP3    H239146   5.912   6.946   3.529
13069TIP3   OH239147   5.414   6.247   2.917
13069TIP3    H139148   5.490   6.233   2.973
13069TIP3    H239149   5.340   6.219   2.971
13070TIP3   OH239150   4.170   3.081   5.273
13070TIP3    H139151   4.198   3.106   5.185
13070TIP3    H239152   4.212   2.996   5.288
13071TIP3   OH239153   5.850   3.595   0.633
13071TIP3    H139154   5.836   3.588   0.539
13071TIP3    H239155   5.817   3.682   0.656
13072TIP3   OH239156   2.030   4.621   3.529
13072TIP3    H139157   2.124   4.637   3.521
13072TIP3    H239158   2.004   4.583   3.445
13073TIP3   OH239159   1.862   6.508   3.557
13073TIP3    H139160   1.867   6.435   3.495
13073TIP3    H239161   1.855   6.586   3.502
13074TIP3   OH239162   5.627   5.693   4.453
13074TIP3    H139163   5.539   5.656   4.463
13074TIP3    H239164   5.684   5.631   4.499
13075TIP3   OH239165   4.201   7.092   4.949
13075TIP3    H139166   4.143   7.102   4.873
13075TIP3    H239167   4.146   7.051   5.016
13076TIP3   OH239168   0.405   6.141   5.395
13076TIP3    H139169   0.477   6.081   5.417
13076TIP3    H239170   0.445   6.228   5.400
13077TIP3   OH239171   5.081   0.941   0.992
13077TIP3    H139172   5.113   1.028   1.014
13077TIP3    H239173   5.075   0.941   0.897
13078TIP3   OH239174   2.512   4.963   5.430
13078TIP3    H139175   2.483   4.978   5.520
13078TIP3    H239176   2.598   4.922   5.439
13079TIP3   OH239177   5.630   7.179   4.813
13079TIP3    H139178   5.592   7.259   4.850
13079TIP3    H239179   5.680   7.141   4.886
13080TIP3   OH239180   3.032   3.096   6.191
13080TIP3    H139181   3.076   3.076   6.274
13080TIP3    H239182   2.953   3.043   6.192
13081TIP3   OH239183   6.855   1.336   6.615
13081TIP3    H139184   6.851   1.404   6.548
13081TIP3    H239185   6.765   1.305   6.624
13082TIP3   OH239186   1.029   4.146   4.093
13082TIP3    H139187   1.024   4.240   4.110
13082TIP3    H239188   1.082   4.140   4.013
13083TIP3   OH239189   1.021   5.018   4.803
13083TIP3    H139190   0.977   4.934   4.817
13083TIP3    H239191   1.084   5.001   4.733
13084TIP3   OH239192   1.375   6.011   3.814
13084TIP3    H139193   1.470   6.002   3.829
13084TIP3    H239194   1.338   5.931   3.850
13085TIP3   OH239195   0.466   0.159   1.606
13085TIP3    H139196   0.516   0.090   1.650
13085TIP3    H239197   0.531   0.203   1.551
13086TIP3   OH239198   0.270   4.739   4.146
13086TIP3    H139199   0.230   4.659   4.113
13086TIP3    H239200   0.310   4.713   4.229
13087TIP3   OH239201   2.079   4.364   0.680
13087TIP3    H139202   2.168   4.347   0.709
13087TIP3    H239203   2.024   4.311   0.737
13088TIP3   OH239204   0.103   6.673   6.574
13088TIP3    H139205   0.020   6.674   6.525
13088TIP3    H239206   0.113   6.762   6.606
13089TIP3   OH239207   7.562   1.425   0.245
13089TIP3    H139208   7.499   1.353   0.244
13089TIP3    H239209   7.602   1.424   0.158
13090TIP3   OH239210   4.573   0.545   0.610
13090TIP3    H139211   4.502   0.483   0.627
13090TIP3    H239212   4.641   0.493   0.567
13091TIP3   OH239213   5.324   5.891   3.284
13091TIP3    H139214   5.275   5.840   3.219
13091TIP3    H239215   5.260   5.953   3.319
13092TIP3   OH239216   1.791   7.443   0.742
13092TIP3    H139217   1.816   7.534   0.756
13092TIP3    H239218   1.871   7.393   0.755
13093TIP3   OH239219   3.061   1.177   1.112
13093TIP3    H139220   3.027   1.214   1.031
13093TIP3    H239221   3.111   1.100   1.084
13094TIP3   OH239222   4.697   1.449   2.496
13094TIP3    H139223   4.724   1.538   2.474
13094TIP3    H239224   4.712   1.441   2.590
13095TIP3   OH239225   5.678   0.846   4.845
13095TIP3    H139226   5.592   0.890   4.846
13095TIP3    H239227   5.732   0.899   4.904
13096TIP3   OH239228   6.507   0.444   3.522
13096TIP3    H139229   6.470   0.443   3.611
13096TIP3    H239230   6.446   0.392   3.470
13097TIP3   OH239231   5.369   5.592   5.756
13097TIP3    H139232   5.378   5.582   5.851
13097TIP3    H239233   5.275   5.602   5.742
13098TIP3   OH239234   1.047   3.473   4.663
13098TIP3    H139235   1.127   3.421   4.672
13098TIP3    H239236   1.011   3.477   4.752
13099TIP3   OH239237   5.889   6.268   3.559
13099TIP3    H139238   5.857   6.249   3.647
13099TIP3    H239239   5.885   6.183   3.514
13100TIP3   OH239240   5.683   4.093   4.767
13100TIP3    H139241   5.777   4.080   4.755
13100TIP3    H239242   5.663   4.047   4.848
13101TIP3   OH239243   3.717   5.794   6.475
13101TIP3    H139244   3.663   5.820   6.550
13101TIP3    H239245   3.659   5.804   6.399
13102TIP3   OH239246   4.747   5.984   5.960
13102TIP3    H139247   4.840   5.962   5.958
13102TIP3    H239248   4.704   5.901   5.979
13103TIP3   OH239249   6.130   0.832   2.887
13103TIP3    H139250   6.109   0.875   2.804
13103TIP3    H239251   6.048   0.789   2.913
13104TIP3   OH239252   2.278   5.189   5.129
13104TIP3    H139253   2.189   5.166   5.100
13104TIP3    H239254   2.311   5.109   5.170
13105TIP3   OH239255   1.634   3.974   4.319
13105TIP3    H139256   1.641   3.919   4.397
13105TIP3    H239257   1.558   3.941   4.272
13106TIP3   OH239258   7.738   6.406   4.994
13106TIP3    H139259   7.771   6.363   5.072
13106TIP3    H239260   7.660   6.453   5.023
13107TIP3   OH239261   7.066   6.967   2.525
13107TIP3    H139262   7.005   6.948   2.453
13107TIP3    H239263   7.134   6.899   2.517
13108TIP3   OH239264   4.134   0.087   2.444
13108TIP3    H139265   4.061   0.027   2.459
13108TIP3    H239266   4.212   0.035   2.462
13109TIP3   OH239267   4.712   0.187   4.748
13109TIP3    H139268   4.664   0.198   4.830
13109TIP3    H239269   4.685   0.101   4.716
13110TIP3   OH239270   4.027   0.767   6.018
13110TIP3    H139271   4.088   0.720   5.962
13110TIP3    H239272   4.013   0.710   6.094
13111TIP3   OH239273   7.521   0.230   2.659
13111TIP3    H139274   7.607   0.263   2.687
13111TIP3    H239275   7.473   0.216   2.741
13112TIP3   OH239276   4.855   3.827   0.884
13112TIP3    H139277   4.863   3.921   0.900
13112TIP3    H239278   4.769   3.804   0.920
13113TIP3   OH239279   0.504   1.243   2.180
13113TIP3    H139280   0.555   1.235   2.261
13113TIP3    H239281   0.420   1.201   2.201
13114TIP3   OH239282   6.156   5.953   5.476
13114TIP3    H139283   6.170   5.960   5.570
13114TIP3    H239284   6.117   5.867   5.463
13115TIP3   OH239285   1.375   3.010   4.836
13115TIP3    H139286   1.376   2.933   4.779
13115TIP3    H239287   1.301   3.063   4.804
13116TIP3   OH239288   7.950   0.346   1.033
13116TIP3    H139289   7.920   0.431   1.064
13116TIP3    H239290   7.956   0.292   1.111
13117TIP3   OH239291   3.443   6.246   0.275
13117TIP3    H139292   3.356   6.246   0.236
13117TIP3    H239293   3.475   6.336   0.264
13118TIP3   OH239294   1.255   3.347   5.819
13118TIP3    H139295   1.298   3.375   5.901
13118TIP3    H239296   1.210   3.266   5.842
13119TIP3   OH239297   7.535   0.949   2.457
13119TIP3    H139298   7.516   1.043   2.460
13119TIP3    H239299   7.616   0.939   2.506
13120TIP3   OH239300   4.002   1.177   2.089
13120TIP3    H139301   4.013   1.257   2.141
13120TIP3    H239302   4.049   1.195   2.008
13121TIP3   OH239303   2.269   4.860   1.019
13121TIP3    H139304   2.249   4.790   1.080
13121TIP3    H239305   2.256   4.941   1.070
13122TIP3   OH239306   5.581   1.089   5.025
13122TIP3    H139307   5.652   1.036   5.061
13122TIP3    H239308   5.623   1.143   4.957
13123TIP3   OH239309   4.528   5.304   2.230
13123TIP3    H139310   4.483   5.263   2.304
13123TIP3    H239311   4.516   5.398   2.244
13124TIP3   OH239312   0.155   7.455   6.466
13124TIP3    H139313   0.171   7.424   6.555
13124TIP3    H239314   0.100   7.388   6.426
13125TIP3   OH239315   1.264   4.333   3.438
13125TIP3    H139316   1.193   4.398   3.438
13125TIP3    H239317   1.295   4.331   3.348
13126TIP3   OH239318   4.296   1.898   6.391
13126TIP3    H139319   4.253   1.967   6.441
13126TIP3    H239320   4.256   1.817   6.422
13127TIP3   OH239321   4.312   2.996   0.142
13127TIP3    H139322   4.329   3.063   0.076
13127TIP3    H239323   4.217   2.999   0.155
13128TIP3   OH239324   1.803   1.345   3.839
13128TIP3    H139325   1.809   1.315   3.930
13128TIP3    H239326   1.713   1.377   3.830
13129TIP3   OH239327   2.700   6.783   1.623
13129TIP3    H139328   2.674   6.873   1.644
13129TIP3    H239329   2.765   6.762   1.689
13130TIP3   OH239330   7.310   1.023   4.572
13130TIP3    H139331   7.300   0.961   4.500
13130TIP3    H239332   7.402   1.016   4.597
13131TIP3   OH239333   5.060   7.233   6.502
13131TIP3    H139334   5.001   7.308   6.488
13131TIP3    H239335   5.001   7.159   6.520
13132TIP3   OH239336   5.855   5.142   2.980
13132TIP3    H139337   5.926   5.152   3.044
13132TIP3    H239338   5.779   5.118   3.033
13133TIP3   OH239339   1.674   3.831   5.732
13133TIP3    H139340   1.681   3.744   5.695
13133TIP3    H239341   1.721   3.888   5.671
13134TIP3   OH239342   2.812   1.645   1.824
13134TIP3    H139343   2.846   1.640   1.914
13134TIP3    H239344   2.830   1.559   1.787
13135TIP3   OH239345   0.258   5.754   2.091
13135TIP3    H139346   0.169   5.746   2.058
13135TIP3    H239347   0.311   5.696   2.036
13136TIP3   OH239348   8.339   0.886   1.870
13136TIP3    H139349   8.433   0.890   1.889
13136TIP3    H239350   8.334   0.883   1.774
13137TIP3   OH239351   2.774   0.554   1.058
13137TIP3    H139352   2.823   0.635   1.069
13137TIP3    H239353   2.834   0.494   1.013
13138TIP3   OH239354   2.095   6.624   0.204
13138TIP3    H139355   2.157   6.688   0.171
13138TIP3    H239356   2.141   6.581   0.276
13139TIP3   OH239357   7.057   1.213   1.373
13139TIP3    H139358   7.009   1.252   1.446
13139TIP3    H239359   7.023   1.124   1.367
13140TIP3   OH239360   3.822   1.856   3.022
13140TIP3    H139361   3.738   1.897   3.042
13140TIP3    H239362   3.820   1.773   3.070
13141TIP3   OH239363   6.139   7.224   3.105
13141TIP3    H139364   6.082   7.300   3.115
13141TIP3    H239365   6.223   7.260   3.077
13142TIP3   OH239366   5.385   2.872   5.970
13142TIP3    H139367   5.333   2.902   6.044
13142TIP3    H239368   5.331   2.888   5.893
13143TIP3   OH239369   1.185   1.406   4.927
13143TIP3    H139370   1.109   1.372   4.880
13143TIP3    H239371   1.169   1.383   5.018
13144TIP3   OH239372   6.946   2.949   0.301
13144TIP3    H139373   7.028   2.905   0.277
13144TIP3    H239374   6.963   2.985   0.388
13145TIP3   OH239375   7.608   7.723   1.724
13145TIP3    H139376   7.615   7.786   1.653
13145TIP3    H239377   7.613   7.638   1.681
13146TIP3   OH239378   6.231   3.447   2.562
13146TIP3    H139379   6.295   3.489   2.620
13146TIP3    H239380   6.283   3.412   2.490
13147TIP3   OH239381   3.174   0.802   2.486
13147TIP3    H139382   3.267   0.794   2.466
13147TIP3    H239383   3.158   0.897   2.489
13148TIP3   OH239384   3.202   4.510   6.031
13148TIP3    H139385   3.173   4.516   5.940
13148TIP3    H239386   3.209   4.601   6.060
13149TIP3   OH239387   1.506   3.698   1.689
13149TIP3    H139388   1.473   3.726   1.775
13149TIP3    H239389   1.504   3.602   1.693
13150TIP3   OH239390   0.552   6.419   5.686
13150TIP3    H139391   0.637   6.389   5.655
13150TIP3    H239392   0.523   6.351   5.746
13151TIP3   OH239393   1.126   2.777   6.799
13151TIP3    H139394   1.146   2.830   6.876
13151TIP3    H239395   1.064   2.830   6.749
13152TIP3   OH239396   6.385   6.040   6.677
13152TIP3    H139397   6.324   6.100   6.721
13152TIP3    H239398   6.390   6.074   6.588
13153TIP3   OH239399   1.328   6.733   5.616
13153TIP3    H139400   1.289   6.656   5.575
13153TIP3    H239401   1.346   6.705   5.706
13154TIP3   OH239402   6.567   7.763   1.750
13154TIP3    H139403   6.658   7.764   1.720
13154TIP3    H239404   6.574   7.747   1.844
13155TIP3   OH239405   8.283   7.514   6.138
13155TIP3    H139406   8.217   7.540   6.073
13155TIP3    H239407   8.261   7.423   6.158
13156TIP3   OH239408   7.200   0.260   6.304
13156TIP3    H139409   7.209   0.355   6.296
13156TIP3    H239410   7.112   0.242   6.271
13157TIP3   OH239411   0.288   6.503   2.812
13157TIP3    H139412   0.269   6.502   2.719
13157TIP3    H239413   0.235   6.574   2.848
13158TIP3   OH239414   6.795   1.903   3.569
13158TIP3    H139415   6.732   1.969   3.540
13158TIP3    H239416   6.804   1.919   3.663
13159TIP3   OH239417   4.250   0.811   5.273
13159TIP3    H139418   4.226   0.763   5.193
13159TIP3    H239419   4.166   0.827   5.317
13160TIP3   OH239420   6.249   7.684   1.427
13160TIP3    H139421   6.343   7.666   1.435
13160TIP3    H239422   6.244   7.758   1.367
13161TIP3   OH239423   4.482   6.876   5.371
13161TIP3    H139424   4.397   6.894   5.410
13161TIP3    H239425   4.503   6.955   5.320
13162TIP3   OH239426   5.620   7.241   1.004
13162TIP3    H139427   5.662   7.304   0.946
13162TIP3    H239428   5.557   7.293   1.055
13163TIP3   OH239429   0.241   7.543   5.953
13163TIP3    H139430   0.192   7.625   5.966
13163TIP3    H239431   0.295   7.535   6.031
13164TIP3   OH239432   0.810   2.424   4.717
13164TIP3    H139433   0.856   2.408   4.799
13164TIP3    H239434   0.846   2.506   4.684
13165TIP3   OH239435   7.073   6.073   1.211
13165TIP3    H139436   7.001   6.070   1.148
13165TIP3    H239437   7.097   5.981   1.224
13166TIP3   OH239438   2.932   0.260   6.721
13166TIP3    H139439   2.907   0.208   6.645
13166TIP3    H239440   2.963   0.197   6.785
13167TIP3   OH239441   5.744   6.797   0.235
13167TIP3    H139442   5.658   6.780   0.273
13167TIP3    H239443   5.726   6.850   0.157
13168TIP3   OH239444   0.601   2.889   2.219
13168TIP3    H139445   0.672   2.897   2.155
13168TIP3    H239446   0.539   2.959   2.196
13169TIP3   OH239447   1.281   2.346   5.831
13169TIP3    H139448   1.206   2.311   5.783
13169TIP3    H239449   1.244   2.386   5.909
13170TIP3   OH239450   0.400   4.846   6.191
13170TIP3    H139451   0.329   4.781   6.190
13170TIP3    H239452   0.455   4.820   6.265
13171TIP3   OH239453   2.107   7.141   2.023
13171TIP3    H139454   2.134   7.112   2.110
13171TIP3    H239455   2.145   7.228   2.012
13172TIP3   OH239456   6.060   5.700   5.438
13172TIP3    H139457   6.070   5.703   5.343
13172TIP3    H239458   5.991   5.636   5.452
13173TIP3   OH239459   3.793   0.637   0.028
13173TIP3    H139460   3.779   0.631   0.122
13173TIP3    H239461   3.888   0.643   0.018
13174TIP3   OH239462   6.927   0.689   1.522
13174TIP3    H139463   6.949   0.673   1.431
13174TIP3    H239464   6.910   0.602   1.558
13175TIP3   OH239465   6.508   7.346   3.707
13175TIP3    H139466   6.581   7.407   3.713
13175TIP3    H239467   6.471   7.360   3.620
13176TIP3   OH239468   1.554   6.062   1.001
13176TIP3    H139469   1.603   5.984   0.977
13176TIP3    H239470   1.557   6.064   1.096
13177TIP3   OH239471   7.820   5.968   6.803
13177TIP3    H139472   7.773   5.962   6.886
13177TIP3    H239473   7.876   6.045   6.814
13178TIP3   OH239474   3.060   5.158   5.319
13178TIP3    H139475   3.087   5.214   5.392
13178TIP3    H239476   3.110   5.191   5.244
13179TIP3   OH239477   5.696   1.453   5.151
13179TIP3    H139478   5.706   1.364   5.185
13179TIP3    H239479   5.698   1.508   5.229
13180TIP3   OH239480   1.740   5.279   1.035
13180TIP3    H139481   1.824   5.237   1.013
13180TIP3    H239482   1.704   5.306   0.951
13181TIP3   OH239483   6.663   2.003   5.243
13181TIP3    H139484   6.568   2.016   5.242
13181TIP3    H239485   6.675   1.920   5.289
13182TIP3   OH239486   5.170   2.294   6.161
13182TIP3    H139487   5.188   2.367   6.103
13182TIP3    H239488   5.160   2.333   6.248
13183TIP3   OH239489   6.615   4.761   6.643
13183TIP3    H139490   6.564   4.694   6.598
13183TIP3    H239491   6.601   4.744   6.736
13184TIP3   OH239492   4.559   5.672   1.656
13184TIP3    H139493   4.582   5.607   1.722
13184TIP3    H239494   4.624   5.741   1.666
13185TIP3   OH239495   5.441   0.541   0.005
13185TIP3    H139496   5.473   0.470   0.060
13185TIP3    H239497   5.517   0.598  -0.007
13186TIP3   OH239498   0.823   1.564   5.929
13186TIP3    H139499   0.882   1.606   5.866
13186TIP3    H239500   0.875   1.556   6.008
13187TIP3   OH239501   1.724   3.618   5.550
13187TIP3    H139502   1.810   3.585   5.576
13187TIP3    H239503   1.685   3.546   5.501
13188TIP3   OH239504   3.496   0.715   4.464
13188TIP3    H139505   3.543   0.757   4.392
13188TIP3    H239506   3.434   0.782   4.493
13189TIP3   OH239507   5.678   4.639   2.609
13189TIP3    H139508   5.646   4.680   2.689
13189TIP3    H239509   5.658   4.703   2.540
13190TIP3   OH239510   0.603   1.157   0.847
13190TIP3    H139511   0.664   1.140   0.775
13190TIP3    H239512   0.655   1.205   0.912
13191TIP3   OH239513   6.672   1.321   5.090
13191TIP3    H139514   6.577   1.333   5.101
13191TIP3    H239515   6.686   1.228   5.106
13192TIP3   OH239516   6.555   4.635   4.644
13192TIP3    H139517   6.541   4.668   4.555
13192TIP3    H239518   6.647   4.654   4.662
13193TIP3   OH239519   1.724   4.244   1.620
13193TIP3    H139520   1.686   4.309   1.561
13193TIP3    H239521   1.700   4.274   1.708
13194TIP3   OH239522   1.971   7.424   4.046
13194TIP3    H139523   1.957   7.341   4.000
13194TIP3    H239524   2.065   7.426   4.063
13195TIP3   OH239525   5.209   6.046   4.196
13195TIP3    H139526   5.287   6.049   4.140
13195TIP3    H239527   5.237   6.085   4.279
13196TIP3   OH239528   0.135   1.873   0.845
13196TIP3    H139529   0.214   1.889   0.793
13196TIP3    H239530   0.163   1.888   0.936
13197TIP3   OH239531   7.984   0.686   3.765
13197TIP3    H139532   7.923   0.695   3.692
13197TIP3    H239533   8.061   0.643   3.728
13198TIP3   OH239534   7.292   2.857   1.341
13198TIP3    H139535   7.350   2.787   1.372
13198TIP3    H239536   7.282   2.915   1.416
13199TIP3   OH239537   5.211   6.227   2.675
13199TIP3    H139538   5.190   6.271   2.593
13199TIP3    H239539   5.167   6.143   2.671
13200TIP3   OH239540   2.592   2.401   5.979
13200TIP3    H139541   2.563   2.438   6.063
13200TIP3    H239542   2.677   2.361   5.999
13201TIP3   OH239543   6.668   2.544   6.657
13201TIP3    H139544   6.584   2.503   6.673
13201TIP3    H239545   6.677   2.545   6.562
13202TIP3   OH239546   5.379   0.320   3.590
13202TIP3    H139547   5.426   0.393   3.551
13202TIP3    H239548   5.326   0.359   3.660
13203TIP3   OH239549   0.877   2.170   4.221
13203TIP3    H139550   0.846   2.226   4.292
13203TIP3    H239551   0.801   2.158   4.164
13204TIP3   OH239552   2.413   1.479   5.975
13204TIP3    H139553   2.492   1.531   5.991
13204TIP3    H239554   2.442   1.388   5.978
13205TIP3   OH239555   4.331   4.861   5.609
13205TIP3    H139556   4.236   4.853   5.616
13205TIP3    H239557   4.350   4.850   5.516
13206TIP3   OH239558   4.133   1.115   3.729
13206TIP3    H139559   4.124   1.157   3.815
13206TIP3    H239560   4.197   1.046   3.744
13207TIP3   OH239561   4.800   0.023   4.396
13207TIP3    H139562   4.854  -0.026   4.458
13207TIP3    H239563   4.774  -0.041   4.330
13208TIP3   OH239564   3.687   4.621   5.705
13208TIP3    H139565   3.760   4.559   5.703
13208TIP3    H239566   3.727   4.707   5.691
13209TIP3   OH239567   3.893   2.703   3.118
13209TIP3    H139568   3.855   2.633   3.065
13209TIP3    H239569   3.965   2.660   3.166
13210TIP3   OH239570   6.949   5.696   6.026
13210TIP3    H139571   7.034   5.740   6.022
13210TIP3    H239572   6.931   5.689   6.120
13211TIP3   OH239573   5.899   6.841   2.732
13211TIP3    H139574   5.966   6.910   2.728
13211TIP3    H239575   5.820   6.886   2.763
13212TIP3   OH239576   6.407   6.556   4.274
13212TIP3    H139577   6.469   6.492   4.239
13212TIP3    H239578   6.441   6.576   4.362
13213TIP3   OH239579   8.240   4.155   0.141
13213TIP3    H139580   8.311   4.217   0.157
13213TIP3    H239581   8.163   4.196   0.182
13214TIP3   OH239582   8.259   7.333   5.754
13214TIP3    H139583   8.206   7.413   5.746
13214TIP3    H239584   8.339   7.352   5.705
13215TIP3   OH239585   7.703   2.970   5.958
13215TIP3    H139586   7.730   2.900   5.899
13215TIP3    H239587   7.751   3.047   5.927
13216TIP3   OH239588   8.181   6.960   2.683
13216TIP3    H139589   8.089   6.975   2.707
13216TIP3    H239590   8.224   7.043   2.699
13217TIP3   OH239591   0.316   0.680   3.588
13217TIP3    H139592   0.401   0.677   3.632
13217TIP3    H239593   0.269   0.752   3.631
13218TIP3   OH239594   0.373   5.625   4.501
13218TIP3    H139595   0.375   5.529   4.502
13218TIP3    H239596   0.373   5.647   4.408
13219TIP3   OH239597   3.633   0.711   6.787
13219TIP3    H139598   3.539   0.726   6.803
13219TIP3    H239599   3.677   0.775   6.842
13220TIP3   OH239600   3.695   7.100   6.122
13220TIP3    H139601   3.788   7.079   6.123
13220TIP3    H239602   3.650   7.017   6.136
13221TIP3   OH239603   7.703   7.126   5.197
13221TIP3    H139604   7.673   7.195   5.137
13221TIP3    H239605   7.796   7.144   5.209
13222TIP3   OH239606   0.599   1.300   3.574
13222TIP3    H139607   0.691   1.309   3.550
13222TIP3    H239608   0.583   1.373   3.634
13223TIP3   OH239609   0.213   3.845   3.993
13223TIP3    H139610   0.182   3.819   4.080
13223TIP3    H239611   0.137   3.887   3.952
13224TIP3   OH239612   1.064   5.344   6.502
13224TIP3    H139613   1.092   5.324   6.591
13224TIP3    H239614   1.145   5.362   6.455
13225TIP3   OH239615   2.302   2.854   5.508
13225TIP3    H139616   2.226   2.821   5.554
13225TIP3    H239617   2.355   2.777   5.488
13226TIP3   OH239618   5.864   0.714   6.738
13226TIP3    H139619   5.925   0.715   6.811
13226TIP3    H239620   5.920   0.706   6.660
13227TIP3   OH239621   5.215   4.059   0.855
13227TIP3    H139622   5.306   4.074   0.830
13227TIP3    H239623   5.176   4.014   0.780
13228TIP3   OH239624   6.139   0.887   3.194
13228TIP3    H139625   6.103   0.917   3.110
13228TIP3    H239626   6.069   0.836   3.234
13229TIP3   OH239627   0.237   4.421   3.501
13229TIP3    H139628   0.235   4.344   3.443
13229TIP3    H239629   0.268   4.491   3.444
13230TIP3   OH239630   0.758   2.870   6.217
13230TIP3    H139631   0.790   2.801   6.276
13230TIP3    H239632   0.664   2.874   6.234
13231TIP3   OH239633   8.078   3.011   4.234
13231TIP3    H139634   8.165   3.051   4.232
13231TIP3    H239635   8.077   2.960   4.315
13232TIP3   OH239636   6.608   4.720   4.173
13232TIP3    H139637   6.518   4.688   4.162
13232TIP3    H239638   6.614   4.796   4.116
13233TIP3   OH239639   4.356   2.743   5.051
13233TIP3    H139640   4.440   2.730   5.007
13233TIP3    H239641   4.378   2.771   5.139
13234TIP3   OH239642   1.544   4.234   0.733
13234TIP3    H139643   1.482   4.203   0.798
13234TIP3    H239644   1.598   4.158   0.713
13235TIP3   OH239645   4.325   0.546   4.542
13235TIP3    H139646   4.367   0.469   4.504
13235TIP3    H239647   4.375   0.620   4.506
13236TIP3   OH239648   7.477   4.601   5.514
13236TIP3    H139649   7.481   4.507   5.530
13236TIP3    H239650   7.386   4.618   5.492
13237TIP3   OH239651   5.301   1.840   6.083
13237TIP3    H139652   5.351   1.789   6.148
13237TIP3    H239653   5.236   1.778   6.050
13238TIP3   OH239654   0.289   3.187   4.277
13238TIP3    H139655   0.249   3.204   4.192
13238TIP3    H239656   0.221   3.208   4.341
13239TIP3   OH239657   1.970   5.135   0.992
13239TIP3    H139658   2.043   5.194   0.974
13239TIP3    H239659   1.994   5.053   0.950
13240TIP3   OH239660   4.951   1.326   4.133
13240TIP3    H139661   5.001   1.250   4.165
13240TIP3    H239662   5.005   1.401   4.155
13241TIP3   OH239663   7.418   2.462   5.442
13241TIP3    H139664   7.377   2.447   5.527
13241TIP3    H239665   7.462   2.380   5.421
13242TIP3   OH239666   6.261   6.170   5.817
13242TIP3    H139667   6.292   6.080   5.813
13242TIP3    H239668   6.180   6.170   5.766
13243TIP3   OH239669   3.811   4.012   3.158
13243TIP3    H139670   3.782   4.008   3.067
13243TIP3    H239671   3.901   3.978   3.155
13244TIP3   OH239672   3.271   6.981   2.188
13244TIP3    H139673   3.184   6.971   2.150
13244TIP3    H239674   3.266   6.933   2.271
13245TIP3   OH239675   7.275   5.780   3.605
13245TIP3    H139676   7.273   5.726   3.685
13245TIP3    H239677   7.365   5.769   3.572
13246TIP3   OH239678   2.708   0.608   0.242
13246TIP3    H139679   2.752   0.556   0.310
13246TIP3    H239680   2.626   0.561   0.226
13247TIP3   OH239681   1.102   0.898   2.552
13247TIP3    H139682   1.181   0.849   2.529
13247TIP3    H239683   1.036   0.830   2.569
13248TIP3   OH239684   6.497   2.897   1.462
13248TIP3    H139685   6.561   2.840   1.421
13248TIP3    H239686   6.495   2.870   1.554
13249TIP3   OH239687   1.214   1.024   4.886
13249TIP3    H139688   1.295   1.039   4.836
13249TIP3    H239689   1.242   0.970   4.960
13250TIP3   OH239690   1.001   1.305   1.262
13250TIP3    H139691   1.080   1.265   1.298
13250TIP3    H239692   1.008   1.397   1.285
13251TIP3   OH239693   7.711   1.480   1.570
13251TIP3    H139694   7.770   1.501   1.642
13251TIP3    H239695   7.726   1.387   1.553
13252TIP3   OH239696   2.405   7.064   4.849
13252TIP3    H139697   2.312   7.058   4.827
13252TIP3    H239698   2.432   6.974   4.864
13253TIP3   OH239699   0.068   5.962   4.004
13253TIP3    H139700  -0.011   5.964   4.058
13253TIP3    H239701   0.115   5.885   4.035
13254TIP3   OH239702   4.272   5.342   2.065
13254TIP3    H139703   4.367   5.348   2.075
13254TIP3    H239704   4.249   5.261   2.111
13255TIP3   OH239705   0.593   2.722   3.945
13255TIP3    H139706   0.499   2.740   3.945
13255TIP3    H239707   0.631   2.795   3.896
13256TIP3   OH239708   2.353   4.305   4.659
13256TIP3    H139709   2.381   4.300   4.751
13256TIP3    H239710   2.302   4.225   4.645
13257TIP3   OH239711   7.476   2.071   3.804
13257TIP3    H139712   7.472   2.020   3.723
13257TIP3    H239713   7.405   2.035   3.858
13258TIP3   OH239714   7.346   1.890   5.908
13258TIP3    H139715   7.418   1.828   5.919
13258TIP3    H239716   7.319   1.912   5.997
13259TIP3   OH239717   0.328   5.368   1.662
13259TIP3    H139718   0.423   5.359   1.655
13259TIP3    H239719   0.298   5.284   1.694
13260TIP3   OH239720   2.302   4.624   0.797
13260TIP3    H139721   2.326   4.564   0.867
13260TIP3    H239722   2.212   4.650   0.817
13261TIP3   OH239723   2.788   1.159   1.460
13261TIP3    H139724   2.797   1.073   1.502
13261TIP3    H239725   2.708   1.153   1.409
13262TIP3   OH239726   1.555   2.558   6.755
13262TIP3    H139727   1.516   2.531   6.838
13262TIP3    H239728   1.616   2.628   6.778
13263TIP3   OH239729   5.479   4.282   5.078
13263TIP3    H139730   5.447   4.274   5.168
13263TIP3    H239731   5.410   4.331   5.032
13264TIP3   OH239732   0.477   6.348   0.369
13264TIP3    H139733   0.532   6.272   0.391
13264TIP3    H239734   0.508   6.417   0.427
13265TIP3   OH239735   7.119   0.552   0.319
13265TIP3    H139736   7.134   0.459   0.300
13265TIP3    H239737   7.201   0.595   0.297
13266TIP3   OH239738   6.306   6.187   3.351
13266TIP3    H139739   6.271   6.243   3.420
13266TIP3    H239740   6.228   6.155   3.305
13267TIP3   OH239741   6.421   7.059   1.349
13267TIP3    H139742   6.369   7.111   1.410
13267TIP3    H239743   6.482   7.012   1.404
13268TIP3   OH239744   6.234   6.237   1.747
13268TIP3    H139745   6.224   6.332   1.744
13268TIP3    H239746   6.317   6.223   1.793
13269TIP3   OH239747   5.561   1.418   2.874
13269TIP3    H139748   5.489   1.448   2.819
13269TIP3    H239749   5.527   1.425   2.964
13270TIP3   OH239750   8.204   0.237   4.927
13270TIP3    H139751   8.124   0.268   4.884
13270TIP3    H239752   8.231   0.160   4.877
13271TIP3   OH239753   0.210   3.768   0.736
13271TIP3    H139754   0.179   3.782   0.826
13271TIP3    H239755   0.168   3.838   0.686
13272TIP3   OH239756   3.663   2.096   5.324
13272TIP3    H139757   3.717   2.072   5.399
13272TIP3    H239758   3.715   2.073   5.248
13273TIP3   OH239759   3.175   1.750   5.886
13273TIP3    H139760   3.158   1.809   5.959
13273TIP3    H239761   3.271   1.743   5.883
13274TIP3   OH239762   0.938   7.876   0.538
13274TIP3    H139763   0.946   7.972   0.539
13274TIP3    H239764   0.929   7.854   0.445
13275TIP3   OH239765   1.637   0.266   3.800
13275TIP3    H139766   1.633   0.257   3.705
13275TIP3    H239767   1.720   0.226   3.825
13276TIP3   OH239768   5.384   5.537   3.568
13276TIP3    H139769   5.417   5.490   3.644
13276TIP3    H239770   5.411   5.628   3.583
13277TIP3   OH239771   7.577   1.642   6.612
13277TIP3    H139772   7.567   1.607   6.701
13277TIP3    H239773   7.658   1.603   6.580
13278TIP3   OH239774   5.027   1.046   3.909
13278TIP3    H139775   4.992   1.001   3.986
13278TIP3    H239776   4.965   1.025   3.839
13279TIP3   OH239777   0.646   2.876   1.839
13279TIP3    H139778   0.610   2.819   1.907
13279TIP3    H239779   0.740   2.860   1.842
13280TIP3   OH239780   4.874   5.373   0.366
13280TIP3    H139781   4.924   5.454   0.376
13280TIP3    H239782   4.816   5.371   0.442
13281TIP3   OH239783   0.491   6.114   2.068
13281TIP3    H139784   0.506   6.039   2.126
13281TIP3    H239785   0.572   6.165   2.072
13282TIP3   OH239786   0.046   3.042   0.921
13282TIP3    H139787   0.006   2.959   0.950
13282TIP3    H239788   0.036   3.100   0.996
13283TIP3   OH239789   8.172   0.746   5.223
13283TIP3    H139790   8.168   0.686   5.298
13283TIP3    H239791   8.100   0.807   5.237
13284TIP3   OH239792   1.482   1.809   4.460
13284TIP3    H139793   1.543   1.749   4.419
13284TIP3    H239794   1.425   1.754   4.514
13285TIP3   OH239795   2.917   6.904   2.411
13285TIP3    H139796   2.876   6.826   2.448
13285TIP3    H239797   2.881   6.977   2.461
13286TIP3   OH239798   6.207   7.114   0.720
13286TIP3    H139799   6.280   7.165   0.685
13286TIP3    H239800   6.164   7.078   0.643
13287TIP3   OH239801   1.637   2.527   1.669
13287TIP3    H139802   1.704   2.587   1.700
13287TIP3    H239803   1.554   2.573   1.684
13288TIP3   OH239804   0.695   1.928   3.395
13288TIP3    H139805   0.734   1.946   3.480
13288TIP3    H239806   0.606   1.963   3.401
13289TIP3   OH239807   2.892   5.525   3.277
13289TIP3    H139808   2.922   5.523   3.368
13289TIP3    H239809   2.942   5.455   3.234
13290TIP3   OH239810   0.127   2.068   3.293
13290TIP3    H139811   0.048   2.021   3.318
13290TIP3    H239812   0.097   2.137   3.233
13291TIP3   OH239813   8.249   0.202   3.442
13291TIP3    H139814   8.170   0.184   3.492
13291TIP3    H239815   8.291   0.117   3.432
13292TIP3   OH239816   6.467   2.780   1.714
13292TIP3    H139817   6.473   2.827   1.797
13292TIP3    H239818   6.456   2.688   1.738
13293TIP3   OH239819   1.520   7.682   1.977
13293TIP3    H139820   1.555   7.637   1.900
13293TIP3    H239821   1.499   7.612   2.039
13294TIP3   OH239822   5.490   4.440   6.387
13294TIP3    H139823   5.473   4.346   6.386
13294TIP3    H239824   5.463   4.470   6.300
13295TIP3   OH239825   6.787   5.270   0.880
13295TIP3    H139826   6.779   5.347   0.935
13295TIP3    H239827   6.846   5.297   0.809
13296TIP3   OH239828   2.925   3.496   3.406
13296TIP3    H139829   2.865   3.490   3.332
13296TIP3    H239830   2.956   3.407   3.420
13297TIP3   OH239831   3.926   6.849   0.208
13297TIP3    H139832   3.909   6.885   0.295
13297TIP3    H239833   3.945   6.756   0.224
13298TIP3   OH239834   4.492   4.362   6.050
13298TIP3    H139835   4.400   4.344   6.030
13298TIP3    H239836   4.524   4.409   5.974
13299TIP3   OH239837   5.994   6.217   5.491
13299TIP3    H139838   6.002   6.244   5.583
13299TIP3    H239839   6.047   6.138   5.484
13300TIP3   OH239840   7.526   4.772   0.735
13300TIP3    H139841   7.493   4.696   0.688
13300TIP3    H239842   7.579   4.737   0.806
13301TIP3   OH239843   0.725   5.209   1.480
13301TIP3    H139844   0.802   5.161   1.510
13301TIP3    H239845   0.715   5.280   1.544
13302TIP3   OH239846   7.602   5.820   0.967
13302TIP3    H139847   7.659   5.869   1.026
13302TIP3    H239848   7.626   5.728   0.982
13303TIP3   OH239849   4.439   6.967   1.322
13303TIP3    H139850   4.462   6.916   1.245
13303TIP3    H239851   4.429   7.057   1.289
13304TIP3   OH239852   1.843   2.296   4.817
13304TIP3    H139853   1.785   2.220   4.827
13304TIP3    H239854   1.796   2.368   4.860
13305TIP3   OH239855   5.129   3.299   4.634
13305TIP3    H139856   5.112   3.259   4.549
13305TIP3    H239857   5.132   3.393   4.617
13306TIP3   OH239858   7.780   5.885   0.491
13306TIP3    H139859   7.836   5.958   0.464
13306TIP3    H239860   7.811   5.861   0.578
13307TIP3   OH239861   8.288   5.080   6.612
13307TIP3    H139862   8.353   5.101   6.545
13307TIP3    H239863   8.298   4.987   6.627
13308TIP3   OH239864   6.573   2.496   4.573
13308TIP3    H139865   6.561   2.581   4.530
13308TIP3    H239866   6.556   2.432   4.504
13309TIP3   OH239867   6.188   4.735   3.444
13309TIP3    H139868   6.208   4.647   3.414
13309TIP3    H239869   6.100   4.728   3.481
13310TIP3   OH239870   1.521   4.620   3.096
13310TIP3    H139871   1.609   4.604   3.130
13310TIP3    H239872   1.499   4.708   3.128
13311TIP3   OH239873   4.323   7.060   2.442
13311TIP3    H139874   4.303   7.085   2.533
13311TIP3    H239875   4.391   6.993   2.451
13312TIP3   OH239876   0.339   2.260   0.638
13312TIP3    H139877   0.420   2.209   0.633
13312TIP3    H239878   0.317   2.279   0.547
13313TIP3   OH239879   7.532   3.970   6.596
13313TIP3    H139880   7.602   3.938   6.653
13313TIP3    H239881   7.576   4.031   6.536
13314TIP3   OH239882   5.226   4.814   4.037
13314TIP3    H139883   5.242   4.827   4.131
13314TIP3    H239884   5.264   4.892   3.996
13315TIP3   OH239885   7.210   6.854   1.502
13315TIP3    H139886   7.159   6.845   1.422
13315TIP3    H239887   7.220   6.949   1.514
13316TIP3   OH239888   7.518   3.921   0.721
13316TIP3    H139889   7.429   3.927   0.755
13316TIP3    H239890   7.563   3.859   0.779
13317TIP3   OH239891   7.475   3.261   0.342
13317TIP3    H139892   7.563   3.238   0.373
13317TIP3    H239893   7.416   3.222   0.406
13318TIP3   OH239894   1.799   4.270   5.283
13318TIP3    H139895   1.726   4.287   5.343
13318TIP3    H239896   1.756   4.241   5.202
13319TIP3   OH239897   2.836   7.350   3.791
13319TIP3    H139898   2.845   7.437   3.752
13319TIP3    H239899   2.921   7.333   3.832
13320TIP3   OH239900   7.169   7.260   1.021
13320TIP3    H139901   7.238   7.194   1.026
13320TIP3    H239902   7.151   7.268   0.927
13321TIP3   OH239903   3.043   4.940   3.657
13321TIP3    H139904   3.104   4.975   3.722
13321TIP3    H239905   2.968   4.910   3.709
13322TIP3   OH239906   2.321   4.300   1.649
13322TIP3    H139907   2.414   4.287   1.667
13322TIP3    H239908   2.291   4.215   1.618
13323TIP3   OH239909   4.336   7.434   4.403
13323TIP3    H139910   4.310   7.525   4.416
13323TIP3    H239911   4.352   7.427   4.309
13324TIP3   OH239912   2.748   1.094   2.571
13324TIP3    H139913   2.738   1.027   2.504
13324TIP3    H239914   2.754   1.176   2.522
13325TIP3   OH239915   2.103   5.904   1.461
13325TIP3    H139916   2.062   5.984   1.493
13325TIP3    H239917   2.096   5.911   1.365
13326TIP3   OH239918   3.697   6.762   2.041
13326TIP3    H139919   3.706   6.673   2.077
13326TIP3    H239920   3.641   6.751   1.964
13327TIP3   OH239921   2.891   3.792   0.401
13327TIP3    H139922   2.873   3.883   0.425
13327TIP3    H239923   2.953   3.799   0.328
13328TIP3   OH239924   8.211   5.452   5.622
13328TIP3    H139925   8.218   5.397   5.544
13328TIP3    H239926   8.119   5.447   5.647
13329TIP3   OH239927   4.102   0.692   4.623
13329TIP3    H139928   4.035   0.631   4.592
13329TIP3    H239929   4.184   0.659   4.587
13330TIP3   OH239930   5.331   2.747   3.098
13330TIP3    H139931   5.425   2.765   3.094
13330TIP3    H239932   5.308   2.760   3.190
13331TIP3   OH239933   8.283   0.112   0.222
13331TIP3    H139934   8.324   0.027   0.206
13331TIP3    H239935   8.268   0.114   0.316
13332TIP3   OH239936   1.961   2.543   5.224
13332TIP3    H139937   1.954   2.490   5.144
13332TIP3    H239938   1.870   2.567   5.245
13333TIP3   OH239939   4.518   5.868   2.453
13333TIP3    H139940   4.475   5.945   2.492
13333TIP3    H239941   4.543   5.897   2.365
13334TIP3   OH239942   4.855   7.827   0.373
13334TIP3    H139943   4.858   7.903   0.431
13334TIP3    H239944   4.786   7.848   0.310
13335TIP3   OH239945   0.261   6.899   0.855
13335TIP3    H139946   0.270   6.810   0.888
13335TIP3    H239947   0.310   6.953   0.917
13336TIP3   OH239948   3.594   5.151   3.818
13336TIP3    H139949   3.550   5.067   3.807
13336TIP3    H239950   3.524   5.210   3.848
13337TIP3   OH239951   5.176   2.646   1.380
13337TIP3    H139952   5.163   2.561   1.337
13337TIP3    H239953   5.155   2.711   1.313
13338TIP3   OH239954   1.497   6.613   0.020
13338TIP3    H139955   1.410   6.578   0.001
13338TIP3    H239956   1.489   6.707   0.004
13339TIP3   OH239957   3.532   3.379   4.646
13339TIP3    H139958   3.547   3.340   4.733
13339TIP3    H239959   3.619   3.407   4.617
13340TIP3   OH239960   7.145   2.580   1.391
13340TIP3    H139961   7.115   2.617   1.474
13340TIP3    H239962   7.221   2.526   1.415
13341TIP3   OH239963   6.976   1.856   4.606
13341TIP3    H139964   7.037   1.783   4.597
13341TIP3    H239965   6.985   1.905   4.524
13342TIP3   OH239966   5.845   4.641   4.918
13342TIP3    H139967   5.852   4.682   4.832
13342TIP3    H239968   5.825   4.549   4.899
13343TIP3   OH239969   4.990   5.785   1.582
13343TIP3    H139970   5.048   5.823   1.649
13343TIP3    H239971   5.028   5.699   1.564
13344TIP3   OH239972   6.260   3.868   6.369
13344TIP3    H139973   6.327   3.816   6.414
13344TIP3    H239974   6.294   3.880   6.280
13345TIP3   OH239975   7.849   4.527   6.389
13345TIP3    H139976   7.812   4.594   6.331
13345TIP3    H239977   7.942   4.550   6.395
13346TIP3   OH239978   0.294   4.859   3.617
13346TIP3    H139979   0.297   4.803   3.694
13346TIP3    H239980   0.205   4.894   3.616
13347TIP3   OH239981   2.214   6.558   1.594
13347TIP3    H139982   2.277   6.581   1.525
13347TIP3    H239983   2.203   6.640   1.643
13348TIP3   OH239984   5.079   0.709   3.921
13348TIP3    H139985   5.048   0.711   4.012
13348TIP3    H239986   5.169   0.741   3.926
13349TIP3   OH239987   0.022   6.835   1.134
13349TIP3    H139988   0.073   6.807   1.210
13349TIP3    H239989   0.037   6.768   1.068
13350TIP3   OH239990   0.545   5.500   3.875
13350TIP3    H139991   0.474   5.563   3.891
13350TIP3    H239992   0.556   5.456   3.959
13351TIP3   OH239993   7.433   2.323   2.420
13351TIP3    H139994   7.421   2.414   2.395
13351TIP3    H239995   7.474   2.326   2.506
13352TIP3   OH239996   0.985   0.658   5.199
13352TIP3    H139997   0.984   0.583   5.139
13352TIP3    H239998   1.043   0.631   5.270
13353TIP3   OH239999   5.825   3.868   1.734
13353TIP3    H140000   5.915   3.849   1.706
13353TIP3    H240001   5.778   3.886   1.653
13354TIP3   OH240002   2.332   3.444   3.276
13354TIP3    H140003   2.247   3.414   3.309
13354TIP3    H240004   2.392   3.372   3.297
13355TIP3   OH240005   1.606   3.185   1.715
13355TIP3    H140006   1.556   3.138   1.781
13355TIP3    H240007   1.654   3.117   1.668
13356TIP3   OH240008   0.267   4.834   1.440
13356TIP3    H140009   0.241   4.884   1.363
13356TIP3    H240010   0.242   4.744   1.419
13357TIP3   OH240011   3.306   5.862   5.642
13357TIP3    H140012   3.369   5.931   5.662
13357TIP3    H240013   3.349   5.808   5.576
13358TIP3   OH240014   4.875   6.675   4.090
13358TIP3    H140015   4.911   6.617   4.023
13358TIP3    H240016   4.786   6.644   4.104
13359TIP3   OH240017   3.232   5.024   3.822
13359TIP3    H140018   3.253   5.080   3.747
13359TIP3    H240019   3.302   5.041   3.885
13360TIP3   OH240020   6.724   6.471   3.056
13360TIP3    H140021   6.646   6.492   3.005
13360TIP3    H240022   6.796   6.508   3.005
13361TIP3   OH240023   2.059   4.176   3.287
13361TIP3    H140024   2.033   4.105   3.346
13361TIP3    H240025   2.096   4.242   3.345
13362TIP3   OH240026   5.990   5.208   6.210
13362TIP3    H140027   6.050   5.158   6.155
13362TIP3    H240028   5.996   5.297   6.175
13363TIP3   OH240029   5.208   7.346   3.704
13363TIP3    H140030   5.126   7.358   3.657
13363TIP3    H240031   5.192   7.385   3.790
13364TIP3   OH240032   4.706   1.224   1.969
13364TIP3    H140033   4.759   1.183   1.900
13364TIP3    H240034   4.696   1.315   1.940
13365TIP3   OH240035   0.225   6.500   5.016
13365TIP3    H140036   0.297   6.523   4.957
13365TIP3    H240037   0.209   6.407   4.998
13366TIP3   OH240038   5.182   3.886   4.309
13366TIP3    H140039   5.218   3.947   4.244
13366TIP3    H240040   5.121   3.831   4.259
13367TIP3   OH240041   7.666   2.296   3.559
13367TIP3    H140042   7.599   2.314   3.624
13367TIP3    H240043   7.685   2.382   3.520
13368TIP3   OH240044   1.228   4.923   5.012
13368TIP3    H140045   1.297   4.869   4.972
13368TIP3    H240046   1.149   4.902   4.961
13369TIP3   OH240047   1.156   4.243   3.124
13369TIP3    H140048   1.248   4.267   3.114
13369TIP3    H240049   1.122   4.242   3.035
13370TIP3   OH240050   2.335   7.550   3.752
13370TIP3    H140051   2.373   7.464   3.769
13370TIP3    H240052   2.410   7.610   3.754
13371TIP3   OH240053   8.047   0.812   4.452
13371TIP3    H140054   7.963   0.846   4.484
13371TIP3    H240055   8.085   0.768   4.528
13372TIP3   OH240056   2.714   5.567   1.947
13372TIP3    H140057   2.619   5.566   1.935
13372TIP3    H240058   2.729   5.502   2.015
13373TIP3   OH240059   5.031   7.869   2.919
13373TIP3    H140060   5.010   7.943   2.976
13373TIP3    H240061   4.977   7.797   2.950
13374TIP3   OH240062   4.373   7.706   6.477
13374TIP3    H140063   4.402   7.748   6.558
13374TIP3    H240064   4.368   7.777   6.414
13375TIP3   OH240065   1.601   1.558   2.032
13375TIP3    H140066   1.513   1.552   2.068
13375TIP3    H240067   1.589   1.548   1.938
13376TIP3   OH240068   3.206   6.439   1.625
13376TIP3    H140069   3.163   6.355   1.609
13376TIP3    H240070   3.194   6.454   1.719
13377TIP3   OH240071   1.735   1.467   6.746
13377TIP3    H140072   1.782   1.543   6.779
13377TIP3    H240073   1.699   1.424   6.824
13378TIP3   OH240074   7.150   5.506   0.883
13378TIP3    H140075   7.130   5.421   0.844
13378TIP3    H240076   7.065   5.546   0.898
13379TIP3   OH240077   5.330   6.305   1.276
13379TIP3    H140078   5.313   6.221   1.234
13379TIP3    H240079   5.322   6.286   1.370
13380TIP3   OH240080   3.088   3.126   0.248
13380TIP3    H140081   3.089   3.036   0.215
13380TIP3    H240082   3.032   3.124   0.325
13381TIP3   OH240083   1.055   2.870   2.198
13381TIP3    H140084   1.077   2.802   2.261
13381TIP3    H240085   1.005   2.935   2.247
13382TIP3   OH240086   7.155   4.015   4.196
13382TIP3    H140087   7.228   4.043   4.141
13382TIP3    H240088   7.196   3.967   4.268
13383TIP3   OH240089   4.448   1.607   5.533
13383TIP3    H140090   4.450   1.572   5.444
13383TIP3    H240091   4.387   1.681   5.528
13384TIP3   OH240092   6.827   4.983   1.337
13384TIP3    H140093   6.747   5.032   1.357
13384TIP3    H240094   6.893   5.051   1.322
13385TIP3   OH240095   7.597   1.178   2.697
13385TIP3    H140096   7.558   1.107   2.748
13385TIP3    H240097   7.664   1.135   2.643
13386TIP3   OH240098   7.466   7.099   6.582
13386TIP3    H140099   7.442   7.137   6.666
13386TIP3    H240100   7.462   7.004   6.596
13387TIP3   OH240101   4.021   3.649   6.370
13387TIP3    H140102   4.051   3.683   6.286
13387TIP3    H240103   4.056   3.559   6.373
13388TIP3   OH240104   2.217   3.774   3.212
13388TIP3    H140105   2.130   3.743   3.239
13388TIP3    H240106   2.243   3.714   3.142
13389TIP3   OH240107   5.668   0.853   1.751
13389TIP3    H140108   5.575   0.841   1.731
13389TIP3    H240109   5.682   0.948   1.745
13390TIP3   OH240110   5.734   0.783   0.922
13390TIP3    H140111   5.734   0.688   0.914
13390TIP3    H240112   5.804   0.802   0.985
13391TIP3   OH240113   4.001   3.544   3.332
13391TIP3    H140114   3.923   3.601   3.332
13391TIP3    H240115   4.066   3.593   3.281
13392TIP3   OH240116   7.188   3.523   6.191
13392TIP3    H140117   7.269   3.507   6.239
13392TIP3    H240118   7.195   3.466   6.114
13393TIP3   OH240119   7.937   6.560   6.252
13393TIP3    H140120   7.919   6.557   6.346
13393TIP3    H240121   8.004   6.627   6.243
13394TIP3   OH240122   5.294   4.255   3.327
13394TIP3    H140123   5.342   4.173   3.316
13394TIP3    H240124   5.248   4.245   3.410
13395TIP3   OH240125   3.437   5.172   6.202
13395TIP3    H140126   3.433   5.259   6.161
13395TIP3    H240127   3.514   5.175   6.258
13396TIP3   OH240128   6.041   6.868   3.396
13396TIP3    H140129   6.028   6.779   3.365
13396TIP3    H240130   6.127   6.894   3.361
13397TIP3   OH240131   1.410   5.705   0.521
13397TIP3    H140132   1.383   5.784   0.475
13397TIP3    H240133   1.505   5.701   0.507
13398TIP3   OH240134   1.917   4.711   1.066
13398TIP3    H140135   1.901   4.794   1.111
13398TIP3    H240136   1.871   4.646   1.119
13399TIP3   OH240137   5.364   4.506   0.708
13399TIP3    H140138   5.313   4.460   0.641
13399TIP3    H240139   5.298   4.547   0.764
13400TIP3   OH240140   1.117   7.171   1.534
13400TIP3    H140141   1.179   7.180   1.607
13400TIP3    H240142   1.031   7.172   1.575
13401TIP3   OH240143   2.178   5.827   5.803
13401TIP3    H140144   2.249   5.762   5.810
13401TIP3    H240145   2.223   5.911   5.796
13402TIP3   OH240146   2.912   4.085   0.182
13402TIP3    H140147   2.893   4.144   0.254
13402TIP3    H240148   2.871   4.125   0.106
13403TIP3   OH240149   6.817   4.055   3.738
13403TIP3    H140150   6.837   4.019   3.651
13403TIP3    H240151   6.902   4.065   3.780
13404TIP3   OH240152   4.045   0.900   2.170
13404TIP3    H140153   4.048   0.991   2.139
13404TIP3    H240154   4.062   0.906   2.264
13405TIP3   OH240155   5.245   3.352   2.883
13405TIP3    H140156   5.289   3.346   2.798
13405TIP3    H240157   5.207   3.266   2.897
13406TIP3   OH240158   4.199   3.375   6.049
13406TIP3    H140159   4.226   3.349   5.961
13406TIP3    H240160   4.240   3.311   6.106
13407TIP3   OH240161   1.053   1.846   4.713
13407TIP3    H140162   1.122   1.801   4.761
13407TIP3    H240163   1.011   1.778   4.662
13408TIP3   OH240164   2.311   0.437   5.972
13408TIP3    H140165   2.255   0.386   5.913
13408TIP3    H240166   2.258   0.449   6.051
13409TIP3   OH240167   7.049   3.069   6.856
13409TIP3    H140168   7.060   3.161   6.830
13409TIP3    H240169   7.137   3.040   6.879
13410TIP3   OH240170   7.912   3.372   5.324
13410TIP3    H140171   7.984   3.323   5.363
13410TIP3    H240172   7.946   3.400   5.239
13411TIP3   OH240173   4.929   6.908   3.589
13411TIP3    H140174   4.927   6.844   3.660
13411TIP3    H240175   4.979   6.982   3.624
13412TIP3   OH240176   5.367   1.693   0.045
13412TIP3    H140177   5.456   1.709   0.077
13412TIP3    H240178   5.378   1.625  -0.022
13413TIP3   OH240179   5.561   4.774   5.860
13413TIP3    H140180   5.621   4.796   5.788
13413TIP3    H240181   5.559   4.853   5.914
13414TIP3   OH240182   1.083   6.594   4.091
13414TIP3    H140183   1.108   6.643   4.169
13414TIP3    H240184   1.132   6.511   4.098
13415TIP3   OH240185   7.427   1.481   3.294
13415TIP3    H140186   7.425   1.445   3.205
13415TIP3    H240187   7.342   1.460   3.331
13416TIP3   OH240188   6.513   1.374   6.354
13416TIP3    H140189   6.504   1.468   6.373
13416TIP3    H240190   6.435   1.334   6.392
13417TIP3   OH240191   3.363   3.561   2.188
13417TIP3    H140192   3.458   3.566   2.179
13417TIP3    H240193   3.344   3.608   2.270
13418TIP3   OH240194   3.804   6.802   3.896
13418TIP3    H140195   3.859   6.871   3.861
13418TIP3    H240196   3.848   6.775   3.977
13419TIP3   OH240197   4.167   6.238   2.366
13419TIP3    H140198   4.090   6.285   2.399
13419TIP3    H240199   4.192   6.286   2.287
13420TIP3   OH240200   7.974   1.756   4.041
13420TIP3    H140201   7.950   1.674   4.083
13420TIP3    H240202   7.907   1.818   4.071
13421TIP3   OH240203   4.379   4.769   1.637
13421TIP3    H140204   4.411   4.786   1.549
13421TIP3    H240205   4.438   4.701   1.671
13422TIP3   OH240206   5.965   4.790   0.183
13422TIP3    H140207   5.964   4.863   0.245
13422TIP3    H240208   5.886   4.741   0.202
13423TIP3   OH240209   4.266   3.248   5.460
13423TIP3    H140210   4.217   3.206   5.390
13423TIP3    H240211   4.358   3.227   5.442
13424TIP3   OH240212   2.114   4.085   5.057
13424TIP3    H140213   2.103   4.072   5.152
13424TIP3    H240214   2.195   4.039   5.036
13425TIP3   OH240215   0.114   5.281   3.102
13425TIP3    H140216   0.052   5.335   3.053
13425TIP3    H240217   0.131   5.332   3.181
13426TIP3   OH240218   0.578   4.314   3.705
13426TIP3    H140219   0.498   4.263   3.713
13426TIP3    H240220   0.551   4.404   3.724
13427TIP3   OH240221   2.820   4.089   4.407
13427TIP3    H140222   2.747   4.129   4.358
13427TIP3    H240223   2.819   3.997   4.381
13428TIP3   OH240224   2.262   0.430   1.608
13428TIP3    H140225   2.292   0.367   1.674
13428TIP3    H240226   2.209   0.493   1.657
13429TIP3   OH240227   7.018   1.637   3.654
13429TIP3    H140228   7.023   1.687   3.573
13429TIP3    H240229   7.037   1.701   3.723
13430TIP3   OH240230   3.696   2.124   0.501
13430TIP3    H140231   3.670   2.053   0.442
13430TIP3    H240232   3.775   2.091   0.544
13431TIP3   OH240233   1.159   7.893   2.750
13431TIP3    H140234   1.064   7.907   2.753
13431TIP3    H240235   1.197   7.980   2.749
13432TIP3   OH240236   5.648   0.972   4.586
13432TIP3    H140237   5.686   1.031   4.521
13432TIP3    H240238   5.711   0.973   4.658
13433TIP3   OH240239   4.675   4.897   5.463
13433TIP3    H140240   4.702   4.982   5.428
13433TIP3    H240241   4.594   4.876   5.416
13434TIP3   OH240242   0.785   0.548   0.946
13434TIP3    H140243   0.773   0.477   0.883
13434TIP3    H240244   0.796   0.627   0.893
13435TIP3   OH240245   0.973   0.644   2.599
13435TIP3    H140246   1.049   0.619   2.650
13435TIP3    H240247   0.908   0.672   2.664
13436TIP3   OH240248   3.850   1.318   1.789
13436TIP3    H140249   3.898   1.363   1.859
13436TIP3    H240250   3.857   1.377   1.713
13437TIP3   OH240251   5.463   4.675   3.258
13437TIP3    H140252   5.519   4.650   3.331
13437TIP3    H240253   5.399   4.736   3.295
13438TIP3   OH240254   2.270   5.852   2.193
13438TIP3    H140255   2.187   5.897   2.209
13438TIP3    H240256   2.321   5.913   2.140
13439TIP3   OH240257   6.167   7.727   5.634
13439TIP3    H140258   6.083   7.699   5.670
13439TIP3    H240259   6.184   7.664   5.563
13440TIP3   OH240260   1.982   3.948   3.461
13440TIP3    H140261   2.040   3.910   3.527
13440TIP3    H240262   1.913   3.883   3.449
13441TIP3   OH240263   1.830   6.774   2.446
13441TIP3    H140264   1.774   6.707   2.486
13441TIP3    H240265   1.832   6.845   2.510
13442TIP3   OH240266   7.653   5.109   5.542
13442TIP3    H140267   7.677   5.165   5.468
13442TIP3    H240268   7.609   5.167   5.604
13443TIP3   OH240269   3.563   0.648   4.108
13443TIP3    H140270   3.646   0.696   4.112
13443TIP3    H240271   3.495   0.715   4.114
13444TIP3   OH240272   7.495   6.202   2.861
13444TIP3    H140273   7.445   6.132   2.902
13444TIP3    H240274   7.429   6.258   2.821
13445TIP3   OH240275   0.711   0.244   1.507
13445TIP3    H140276   0.766   0.316   1.477
13445TIP3    H240277   0.770   0.188   1.558
13446TIP3   OH240278   1.504   1.523   3.200
13446TIP3    H140279   1.490   1.609   3.162
13446TIP3    H240280   1.503   1.538   3.295
13447TIP3   OH240281   7.057   6.307   3.449
13447TIP3    H140282   7.117   6.339   3.516
13447TIP3    H240283   6.971   6.337   3.478
13448TIP3   OH240284   3.406   1.231   6.538
13448TIP3    H140285   3.418   1.215   6.445
13448TIP3    H240286   3.428   1.324   6.550
13449TIP3   OH240287   4.603   4.578   6.170
13449TIP3    H140288   4.542   4.646   6.140
13449TIP3    H240289   4.559   4.496   6.150
13450TIP3   OH240290   3.829   5.111   1.572
13450TIP3    H140291   3.911   5.113   1.621
13450TIP3    H240292   3.764   5.151   1.630
13451TIP3   OH240293   2.176   6.796   1.747
13451TIP3    H140294   2.267   6.782   1.773
13451TIP3    H240295   2.163   6.891   1.755
13452TIP3   OH240296   5.796   3.758   5.000
13452TIP3    H140297   5.814   3.667   4.979
13452TIP3    H240298   5.701   3.766   4.995
13453TIP3   OH240299   1.801   3.957   6.793
13453TIP3    H140300   1.706   3.956   6.782
13453TIP3    H240301   1.834   3.984   6.707
13454TIP3   OH240302   7.379   5.266   0.265
13454TIP3    H140303   7.461   5.298   0.227
13454TIP3    H240304   7.350   5.198   0.204
13455TIP3   OH240305   7.738   7.838   2.606
13455TIP3    H140306   7.692   7.754   2.604
13455TIP3    H240307   7.798   7.832   2.680
13456TIP3   OH240308   3.215   4.286   4.906
13456TIP3    H140309   3.244   4.235   4.982
13456TIP3    H240310   3.130   4.322   4.933
13457TIP3   OH240311   0.518   7.769   5.339
13457TIP3    H140312   0.430   7.772   5.378
13457TIP3    H240313   0.512   7.824   5.261
13458TIP3   OH240314   7.699   6.844   0.333
13458TIP3    H140315   7.674   6.813   0.420
13458TIP3    H240316   7.788   6.877   0.344
13459TIP3   OH240317   2.846   0.431   6.179
13459TIP3    H140318   2.919   0.490   6.196
13459TIP3    H240319   2.804   0.420   6.264
13460TIP3   OH240320   1.921   0.678   2.683
13460TIP3    H140321   1.887   0.747   2.627
13460TIP3    H240322   2.016   0.686   2.676
13461TIP3   OH240323   5.615   0.281   0.265
13461TIP3    H140324   5.584   0.191   0.257
13461TIP3    H240325   5.564   0.318   0.337
13462TIP3   OH240326   1.040   0.251   5.084
13462TIP3    H140327   1.097   0.293   5.149
13462TIP3    H240328   1.044   0.158   5.106
13463TIP3   OH240329   3.340   6.361   5.548
13463TIP3    H140330   3.430   6.336   5.526
13463TIP3    H240331   3.305   6.398   5.467
13464TIP3   OH240332   1.812   6.019   2.918
13464TIP3    H140333   1.822   5.985   2.829
13464TIP3    H240334   1.835   6.111   2.910
13465TIP3   OH240335   3.170   3.429   0.923
13465TIP3    H140336   3.221   3.468   0.852
13465TIP3    H240337   3.225   3.356   0.953
13466TIP3   OH240338   5.411   7.126   2.666
13466TIP3    H140339   5.410   7.219   2.640
13466TIP3    H240340   5.479   7.122   2.734
13467TIP3   OH240341   4.671   2.160   3.083
13467TIP3    H140342   4.753   2.153   3.035
13467TIP3    H240343   4.661   2.253   3.102
13468TIP3   OH240344   1.603   4.056   3.924
13468TIP3    H140345   1.537   4.038   3.857
13468TIP3    H240346   1.685   4.026   3.886
13469TIP3   OH240347   1.383   6.130   6.627
13469TIP3    H140348   1.321   6.077   6.678
13469TIP3    H240349   1.430   6.066   6.573
13470TIP3   OH240350   4.130   0.333   4.799
13470TIP3    H140351   4.038   0.355   4.816
13470TIP3    H240352   4.132   0.310   4.706
13471TIP3   OH240353   2.930   4.704   6.174
13471TIP3    H140354   2.922   4.771   6.106
13471TIP3    H240355   2.963   4.751   6.251
13472TIP3   OH240356   4.572   6.092   3.126
13472TIP3    H140357   4.554   6.026   3.060
13472TIP3    H240358   4.490   6.141   3.135
13473TIP3   OH240359   1.242   6.100   5.020
13473TIP3    H140360   1.158   6.057   5.035
13473TIP3    H240361   1.276   6.116   5.107
13474TIP3   OH240362   4.000   3.294   3.637
13474TIP3    H140363   4.061   3.312   3.708
13474TIP3    H240364   4.040   3.332   3.560
13475TIP3   OH240365   8.097   1.676   1.269
13475TIP3    H140366   8.049   1.710   1.344
13475TIP3    H240367   8.140   1.753   1.231
13476TIP3   OH240368   5.976   3.609   3.102
13476TIP3    H140369   5.919   3.531   3.100
13476TIP3    H240370   6.006   3.619   3.012
13477TIP3   OH240371   2.562   0.202   6.299
13477TIP3    H140372   2.534   0.286   6.262
13477TIP3    H240373   2.522   0.200   6.386
13478TIP3   OH240374   6.851   3.727   1.758
13478TIP3    H140375   6.861   3.812   1.802
13478TIP3    H240376   6.834   3.750   1.667
13479TIP3   OH240377   7.880   7.739   2.815
13479TIP3    H140378   7.957   7.752   2.870
13479TIP3    H240379   7.819   7.690   2.871
13480TIP3   OH240380   1.853   0.665   6.630
13480TIP3    H140381   1.883   0.665   6.721
13480TIP3    H240382   1.758   0.678   6.636
13481TIP3   OH240383   0.439   3.384   4.367
13481TIP3    H140384   0.389   3.305   4.348
13481TIP3    H240385   0.517   3.352   4.414
13482TIP3   OH240386   3.386   5.411   4.961
13482TIP3    H140387   3.307   5.460   4.984
13482TIP3    H240388   3.458   5.471   4.982
13483TIP3   OH240389   5.971   2.561   2.702
13483TIP3    H140390   6.040   2.546   2.767
13483TIP3    H240391   5.930   2.475   2.692
13484TIP3   OH240392   0.273   2.623   4.751
13484TIP3    H140393   0.181   2.644   4.733
13484TIP3    H240394   0.278   2.620   4.847
13485TIP3   OH240395   1.417   2.149   5.004
13485TIP3    H140396   1.330   2.108   4.999
13485TIP3    H240397   1.433   2.157   5.098
13486TIP3   OH240398   5.490   1.198   1.057
13486TIP3    H140399   5.560   1.258   1.032
13486TIP3    H240400   5.453   1.169   0.973
13487TIP3   OH240401   6.444   7.772   4.205
13487TIP3    H140402   6.496   7.852   4.210
13487TIP3    H240403   6.386   7.786   4.130
13488TIP3   OH240404   3.532   2.584   1.566
13488TIP3    H140405   3.613   2.614   1.525
13488TIP3    H240406   3.494   2.524   1.502
13489TIP3   OH240407   0.185   2.726   0.265
13489TIP3    H140408   0.202   2.801   0.207
13489TIP3    H240409   0.205   2.649   0.212
13490TIP3   OH240410   0.269   2.665   5.737
13490TIP3    H140411   0.238   2.630   5.820
13490TIP3    H240412   0.266   2.760   5.749
13491TIP3   OH240413   0.078   7.712   5.528
13491TIP3    H140414   0.008   7.727   5.591
13491TIP3    H240415   0.034   7.711   5.443
13492TIP3   OH240416   6.084   6.985   0.511
13492TIP3    H140417   6.047   6.911   0.560
13492TIP3    H240418   6.044   6.978   0.424
13493TIP3   OH240419   4.156   2.660   6.121
13493TIP3    H140420   4.083   2.715   6.092
13493TIP3    H240421   4.226   2.678   6.058
13494TIP3   OH240422   6.827   3.935   2.611
13494TIP3    H140423   6.785   3.925   2.526
13494TIP3    H240424   6.906   3.880   2.605
13495TIP3   OH240425   5.864   2.286   5.012
13495TIP3    H140426   5.880   2.235   4.933
13495TIP3    H240427   5.939   2.266   5.068
13496TIP3   OH240428   0.860   1.556   0.457
13496TIP3    H140429   0.780   1.562   0.405
13496TIP3    H240430   0.865   1.639   0.504
13497TIP3   OH240431   4.283   4.285   0.162
13497TIP3    H140432   4.342   4.276   0.237
13497TIP3    H240433   4.251   4.375   0.168
13498TIP3   OH240434   7.547   4.048   1.294
13498TIP3    H140435   7.640   4.026   1.306
13498TIP3    H240436   7.530   4.117   1.359
13499TIP3   OH240437   4.516   2.375   2.310
13499TIP3    H140438   4.518   2.357   2.216
13499TIP3    H240439   4.581   2.445   2.323
13500TIP3   OH240440   0.433   2.661   3.491
13500TIP3    H140441   0.430   2.735   3.431
13500TIP3    H240442   0.348   2.617   3.479
13501TIP3   OH240443   6.116   4.795   2.837
13501TIP3    H140444   6.033   4.776   2.881
13501TIP3    H240445   6.093   4.800   2.744
13502TIP3   OH240446   5.061   5.147   2.368
13502TIP3    H140447   5.061   5.177   2.277
13502TIP3    H240448   4.972   5.117   2.384
13503TIP3   OH240449   0.464   7.914   0.186
13503TIP3    H140450   0.435   7.882   0.101
13503TIP3    H240451   0.428   8.003   0.191
13504TIP3   OH240452   6.887   5.041   0.971
13504TIP3    H140453   6.827   4.984   0.925
13504TIP3    H240454   6.850   5.129   0.961
13505TIP3   OH240455   7.751   4.996   5.765
13505TIP3    H140456   7.679   5.037   5.812
13505TIP3    H240457   7.745   5.031   5.676
13506TIP3   OH240458   6.948   3.622   1.983
13506TIP3    H140459   6.900   3.682   1.925
13506TIP3    H240460   7.036   3.659   1.988
13507TIP3   OH240461   5.026   0.322   3.643
13507TIP3    H140462   5.064   0.251   3.591
13507TIP3    H240463   4.946   0.285   3.680
13508TIP3   OH240464   6.292   3.526   3.095
13508TIP3    H140465   6.257   3.543   3.008
13508TIP3    H240466   6.375   3.482   3.079
13509TIP3   OH240467   5.526   3.288   5.866
13509TIP3    H140468   5.523   3.236   5.785
13509TIP3    H240469   5.576   3.234   5.927
13510TIP3   OH240470   4.818   0.324   2.467
13510TIP3    H140471   4.875   0.396   2.494
13510TIP3    H240472   4.765   0.360   2.396
13511TIP3   OH240473   4.675   6.606   2.731
13511TIP3    H140474   4.648   6.516   2.747
13511TIP3    H240475   4.625   6.657   2.795
13512TIP3   OH240476   4.203   4.517   5.574
13512TIP3    H140477   4.290   4.477   5.578
13512TIP3    H240478   4.158   4.472   5.503
13513TIP3   OH240479   6.277   6.163   5.082
13513TIP3    H140480   6.196   6.123   5.115
13513TIP3    H240481   6.344   6.135   5.145
13514TIP3   OH240482   2.871   0.304   3.407
13514TIP3    H140483   2.784   0.327   3.377
13514TIP3    H240484   2.928   0.323   3.332
13515TIP3   OH240485   5.324   6.436   0.732
13515TIP3    H140486   5.259   6.503   0.752
13515TIP3    H240487   5.285   6.355   0.763
13516TIP3   OH240488   2.195   4.246   3.504
13516TIP3    H140489   2.289   4.251   3.517
13516TIP3    H240490   2.160   4.226   3.591
13517TIP3   OH240491   1.548   7.869   4.172
13517TIP3    H140492   1.598   7.809   4.117
13517TIP3    H240493   1.599   7.878   4.252
13518TIP3   OH240494   3.755   4.156   3.555
13518TIP3    H140495   3.850   4.148   3.557
13518TIP3    H240496   3.728   4.107   3.478
13519TIP3   OH240497   6.920   3.465   3.195
13519TIP3    H140498   6.892   3.549   3.158
13519TIP3    H240499   6.926   3.482   3.290
13520TIP3   OH240500   4.840   2.240   4.569
13520TIP3    H140501   4.912   2.299   4.545
13520TIP3    H240502   4.806   2.208   4.486
13521TIP3   OH240503   5.636   4.083   3.587
13521TIP3    H140504   5.728   4.071   3.561
13521TIP3    H240505   5.641   4.109   3.679
13522TIP3   OH240506   5.324   4.896   3.370
13522TIP3    H140507   5.296   4.858   3.453
13522TIP3    H240508   5.407   4.939   3.389
13523TIP3   OH240509   1.451   6.433   1.312
13523TIP3    H140510   1.452   6.528   1.306
13523TIP3    H240511   1.540   6.408   1.336
13524TIP3   OH240512   6.267   6.940   5.184
13524TIP3    H140513   6.318   6.972   5.110
13524TIP3    H240514   6.317   6.967   5.261
13525TIP3   OH240515   0.148   2.437   1.912
13525TIP3    H140516   0.085   2.366   1.927
13525TIP3    H240517   0.111   2.512   1.959
13526TIP3   OH240518   3.461   7.380   0.794
13526TIP3    H140519   3.427   7.291   0.787
13526TIP3    H240520   3.421   7.414   0.874
13527TIP3   OH240521   2.980   0.451   3.173
13527TIP3    H140522   2.923   0.502   3.115
13527TIP3    H240523   3.069   0.479   3.149
13528TIP3   OH240524   8.077   1.705   5.841
13528TIP3    H140525   8.002   1.746   5.885
13528TIP3    H240526   8.041   1.625   5.803
13529TIP3   OH240527   1.298   2.963   6.114
13529TIP3    H140528   1.308   3.022   6.189
13529TIP3    H240529   1.203   2.959   6.100
13530TIP3   OH240530   0.461   0.009   4.914
13530TIP3    H140531   0.510  -0.004   4.833
13530TIP3    H240532   0.526  -0.001   4.983
13531TIP3   OH240533   5.813   0.970   5.143
13531TIP3    H140534   5.832   0.901   5.207
13531TIP3    H240535   5.864   0.947   5.066
13532TIP3   OH240536   5.906   3.070   4.105
13532TIP3    H140537   5.846   3.125   4.055
13532TIP3    H240538   5.990   3.116   4.100
13533TIP3   OH240539   7.559   0.940   5.122
13533TIP3    H140540   7.511   0.858   5.128
13533TIP3    H240541   7.600   0.951   5.208
13534TIP3   OH240542   6.382   4.778   0.531
13534TIP3    H140543   6.362   4.755   0.440
13534TIP3    H240544   6.347   4.705   0.582
13535TIP3   OH240545   7.478   4.296   4.976
13535TIP3    H140546   7.399   4.343   5.002
13535TIP3    H240547   7.494   4.325   4.886
13536TIP3   OH240548   4.531   0.934   2.878
13536TIP3    H140549   4.549   0.878   2.802
13536TIP3    H240550   4.613   0.933   2.927
13537TIP3   OH240551   0.580   0.518   5.320
13537TIP3    H140552   0.581   0.545   5.228
13537TIP3    H240553   0.544   0.593   5.366
13538TIP3   OH240554   2.002   3.721   4.212
13538TIP3    H140555   1.966   3.706   4.300
13538TIP3    H240556   2.057   3.798   4.222
13539TIP3   OH240557   6.073   3.068   0.404
13539TIP3    H140558   5.987   3.049   0.442
13539TIP3    H240559   6.056   3.083   0.312
13540TIP3   OH240560   4.546   0.784   5.211
13540TIP3    H140561   4.460   0.813   5.242
13540TIP3    H240562   4.546   0.690   5.228
13541TIP3   OH240563   6.512   7.814   3.123
13541TIP3    H140564   6.418   7.823   3.133
13541TIP3    H240565   6.524   7.734   3.072
13542TIP3   OH240566   6.464   2.294   2.809
13542TIP3    H140567   6.461   2.266   2.717
13542TIP3    H240568   6.416   2.227   2.857
13543TIP3   OH240569   4.176   3.769   4.020
13543TIP3    H140570   4.271   3.782   4.023
13543TIP3    H240571   4.159   3.701   4.086
13544TIP3   OH240572   1.517   7.441   0.609
13544TIP3    H140573   1.474   7.490   0.679
13544TIP3    H240574   1.608   7.434   0.637
13545TIP3   OH240575   2.535   7.750   4.024
13545TIP3    H140576   2.496   7.664   4.033
13545TIP3    H240577   2.629   7.734   4.016
13546TIP3   OH240578   5.160   6.911   0.046
13546TIP3    H140579   5.185   6.867  -0.035
13546TIP3    H240580   5.236   6.901   0.103
13547TIP3   OH240581   3.134   7.102   6.504
13547TIP3    H140582   3.157   7.179   6.451
13547TIP3    H240583   3.043   7.116   6.528
13548TIP3   OH240584   5.183   7.212   4.857
13548TIP3    H140585   5.269   7.179   4.883
13548TIP3    H240586   5.139   7.233   4.940
13549TIP3   OH240587   0.453   4.743   2.108
13549TIP3    H140588   0.420   4.664   2.151
13549TIP3    H240589   0.448   4.723   2.015
13550TIP3   OH240590   8.263   4.507   3.994
13550TIP3    H140591   8.303   4.560   4.063
13550TIP3    H240592   8.263   4.563   3.917
13551TIP3   OH240593   5.770   6.203   2.440
13551TIP3    H140594   5.825   6.185   2.516
13551TIP3    H240595   5.798   6.290   2.410
13552TIP3   OH240596   1.284   6.445   5.706
13552TIP3    H140597   1.318   6.355   5.702
13552TIP3    H240598   1.302   6.473   5.796
13553TIP3   OH240599   1.974   1.493   2.834
13553TIP3    H140600   1.963   1.493   2.929
13553TIP3    H240601   1.886   1.483   2.799
13554TIP3   OH240602   4.216   0.453   1.943
13554TIP3    H140603   4.195   0.360   1.952
13554TIP3    H240604   4.193   0.474   1.852
13555TIP3   OH240605   3.228   1.951   3.392
13555TIP3    H140606   3.155   2.001   3.354
13555TIP3    H240607   3.192   1.864   3.406
13556TIP3   OH240608   3.838   0.682   3.522
13556TIP3    H140609   3.821   0.655   3.432
13556TIP3    H240610   3.804   0.611   3.576
13557TIP3   OH240611   6.498   2.774   4.504
13557TIP3    H140612   6.404   2.779   4.522
13557TIP3    H240613   6.507   2.797   4.412
13558TIP3   OH240614   2.399   7.496   2.345
13558TIP3    H140615   2.439   7.552   2.411
13558TIP3    H240616   2.451   7.511   2.266
13559TIP3   OH240617   2.826   0.439   1.650
13559TIP3    H140618   2.787   0.363   1.694
13559TIP3    H240619   2.916   0.441   1.681
13560TIP3   OH240620   0.408   2.064   3.083
13560TIP3    H140621   0.472   2.135   3.076
13560TIP3    H240622   0.454   1.987   3.051
13561TIP3   OH240623   5.644   7.502   4.514
13561TIP3    H140624   5.593   7.533   4.439
13561TIP3    H240625   5.654   7.408   4.499
13562TIP3   OH240626   8.293   0.962   2.685
13562TIP3    H140627   8.362   1.027   2.701
13562TIP3    H240628   8.332   0.902   2.621
13563TIP3   OH240629   2.000   1.533   3.895
13563TIP3    H140630   1.982   1.475   3.969
13563TIP3    H240631   1.960   1.490   3.820
13564TIP3   OH240632   5.646   4.537   6.593
13564TIP3    H140633   5.599   4.615   6.624
13564TIP3    H240634   5.588   4.500   6.527
13565TIP3   OH240635   2.730   1.437   4.562
13565TIP3    H140636   2.641   1.401   4.557
13565TIP3    H240637   2.780   1.370   4.609
13566TIP3   OH240638   1.914   2.286   2.765
13566TIP3    H140639   1.932   2.357   2.703
13566TIP3    H240640   1.851   2.323   2.826
13567TIP3   OH240641   2.103   1.252   1.180
13567TIP3    H140642   2.097   1.326   1.120
13567TIP3    H240643   2.097   1.175   1.123
13568TIP3   OH240644   1.853   4.111   6.557
13568TIP3    H140645   1.837   4.142   6.468
13568TIP3    H240646   1.916   4.173   6.593
13569TIP3   OH240647   6.731   6.817   6.259
13569TIP3    H140648   6.658   6.870   6.228
13569TIP3    H240649   6.808   6.873   6.249
13570TIP3   OH240650   7.736   2.555   4.130
13570TIP3    H140651   7.653   2.603   4.133
13570TIP3    H240652   7.713   2.470   4.091
13571TIP3   OH240653   4.592   3.218   2.568
13571TIP3    H140654   4.522   3.202   2.631
13571TIP3    H240655   4.567   3.300   2.524
13572TIP3   OH240656   0.169   1.969   0.119
13572TIP3    H140657   0.215   1.935   0.042
13572TIP3    H240658   0.093   2.014   0.083
13573TIP3   OH240659   3.482   3.180   5.491
13573TIP3    H140660   3.444   3.216   5.571
13573TIP3    H240661   3.407   3.145   5.442
13574TIP3   OH240662   4.954   7.693   6.152
13574TIP3    H140663   4.986   7.743   6.226
13574TIP3    H240664   4.996   7.608   6.160
13575TIP3   OH240665   6.017   7.478   3.377
13575TIP3    H140666   6.020   7.426   3.457
13575TIP3    H240667   6.023   7.569   3.407
13576TIP3   OH240668   1.786   5.596   5.780
13576TIP3    H140669   1.818   5.678   5.817
13576TIP3    H240670   1.696   5.615   5.754
13577TIP3   OH240671   4.186   4.471   2.005
13577TIP3    H140672   4.280   4.470   2.025
13577TIP3    H240673   4.144   4.498   2.087
13578TIP3   OH240674   4.675   7.851   3.440
13578TIP3    H140675   4.661   7.933   3.393
13578TIP3    H240676   4.695   7.787   3.371
13579TIP3   OH240677   2.812   2.153   1.488
13579TIP3    H140678   2.865   2.141   1.567
13579TIP3    H240679   2.839   2.238   1.453
13580TIP3   OH240680   7.960   1.026   3.294
13580TIP3    H140681   8.032   0.985   3.244
13580TIP3    H240682   8.004   1.075   3.363
13581TIP3   OH240683   2.224   5.295   2.280
13581TIP3    H140684   2.144   5.269   2.234
13581TIP3    H240685   2.205   5.279   2.372
13582TIP3   OH240686   0.031   0.574   1.770
13582TIP3    H140687   0.031   0.587   1.675
13582TIP3    H240688  -0.009   0.489   1.783
13583TIP3   OH240689   3.060   6.125   5.742
13583TIP3    H140690   3.012   6.180   5.681
13583TIP3    H240691   3.029   6.037   5.725
13584TIP3   OH240692   0.893   4.067   1.889
13584TIP3    H140693   0.865   4.070   1.980
13584TIP3    H240694   0.812   4.056   1.839
13585TIP3   OH240695   7.165   4.161   0.001
13585TIP3    H140696   7.121   4.219   0.062
13585TIP3    H240697   7.151   4.073   0.036
13586TIP3   OH240698   7.691   0.750   3.330
13586TIP3    H140699   7.743   0.773   3.407
13586TIP3    H240700   7.665   0.834   3.293
13587TIP3   OH240701   3.727   1.601   4.220
13587TIP3    H140702   3.745   1.535   4.288
13587TIP3    H240703   3.755   1.684   4.260
13588TIP3   OH240704   5.941   3.778   3.329
13588TIP3    H140705   5.850   3.782   3.301
13588TIP3    H240706   5.983   3.719   3.267
13589TIP3   OH240707   2.877   1.567   2.316
13589TIP3    H140708   2.786   1.549   2.295
13589TIP3    H240709   2.902   1.638   2.257
13590TIP3   OH240710   7.220   3.321   3.895
13590TIP3    H140711   7.253   3.326   3.985
13590TIP3    H240712   7.289   3.362   3.843
13591TIP3   OH240713   7.486   2.565   4.495
13591TIP3    H140714   7.563   2.511   4.478
13591TIP3    H240715   7.431   2.512   4.552
13592TIP3   OH240716   4.762   1.442   0.037
13592TIP3    H140717   4.708   1.437   0.116
13592TIP3    H240718   4.825   1.512   0.055
13593TIP3   OH240719   2.766   1.697   3.645
13593TIP3    H140720   2.746   1.741   3.563
13593TIP3    H240721   2.684   1.698   3.694
13594TIP3   OH240722   7.552   6.345   5.340
13594TIP3    H140723   7.544   6.429   5.295
13594TIP3    H240724   7.573   6.368   5.430
13595TIP3   OH240725   2.352   6.427   2.445
13595TIP3    H140726   2.410   6.397   2.515
13595TIP3    H240727   2.316   6.347   2.407
13596TIP3   OH240728   2.611   0.065   5.401
13596TIP3    H140729   2.571  -0.020   5.390
13596TIP3    H240730   2.633   0.094   5.313
13597TIP3   OH240731   7.256   2.836   1.805
13597TIP3    H140732   7.179   2.878   1.765
13597TIP3    H240733   7.262   2.751   1.762
13598TIP3   OH240734   6.846   3.005   5.464
13598TIP3    H140735   6.919   2.986   5.523
13598TIP3    H240736   6.875   2.974   5.379
13599TIP3   OH240737   2.233   7.089   2.673
13599TIP3    H140738   2.241   7.175   2.634
13599TIP3    H240739   2.139   7.079   2.690
13600TIP3   OH240740   0.777   6.283   5.661
13600TIP3    H140741   0.865   6.318   5.678
13600TIP3    H240742   0.779   6.194   5.693
13601TIP3   OH240743   5.428   5.903   0.862
13601TIP3    H140744   5.506   5.958   0.857
13601TIP3    H240745   5.374   5.945   0.930
13602TIP3   OH240746   2.082   3.182   3.778
13602TIP3    H140747   2.091   3.211   3.868
13602TIP3    H240748   2.052   3.091   3.785
13603TIP3   OH240749   5.232   1.275   5.998
13603TIP3    H140750   5.272   1.191   5.976
13603TIP3    H240751   5.143   1.269   5.961
13604TIP3   OH240752   6.449   4.575   2.376
13604TIP3    H140753   6.419   4.605   2.290
13604TIP3    H240754   6.509   4.643   2.406
13605TIP3   OH240755   5.342   2.556   1.916
13605TIP3    H140756   5.413   2.591   1.970
13605TIP3    H240757   5.350   2.602   1.833
13606TIP3   OH240758   8.362   0.888   0.660
13606TIP3    H140759   8.455   0.868   0.675
13606TIP3    H240760   8.362   0.981   0.636
13607TIP3   OH240761   8.193   6.237   2.856
13607TIP3    H140762   8.146   6.155   2.845
13607TIP3    H240763   8.217   6.263   2.767
13608TIP3   OH240764   0.183   1.041   4.444
13608TIP3    H140765   0.118   1.000   4.388
13608TIP3    H240766   0.176   1.134   4.427
13609TIP3   OH240767   0.884   2.408   3.093
13609TIP3    H140768   0.814   2.346   3.071
13609TIP3    H240769   0.940   2.359   3.153
13610TIP3   OH240770   0.514   2.663   2.694
13610TIP3    H140771   0.538   2.699   2.609
13610TIP3    H240772   0.567   2.713   2.757
13611TIP3   OH240773   0.828   4.936   5.266
13611TIP3    H140774   0.752   4.917   5.211
13611TIP3    H240775   0.818   5.028   5.289
13612TIP3   OH240776   2.989   1.894   0.562
13612TIP3    H140777   3.054   1.870   0.497
13612TIP3    H240778   2.944   1.812   0.583
13613TIP3   OH240779   1.508   3.926   2.816
13613TIP3    H140780   1.496   4.021   2.806
13613TIP3    H240781   1.420   3.893   2.836
13614TIP3   OH240782   2.892   3.830   5.376
13614TIP3    H140783   2.872   3.888   5.302
13614TIP3    H240784   2.977   3.792   5.353
13615TIP3   OH240785   4.757   7.531   3.862
13615TIP3    H140786   4.688   7.467   3.847
13615TIP3    H240787   4.720   7.613   3.829
13616TIP3   OH240788   3.681   6.888   4.759
13616TIP3    H140789   3.667   6.978   4.731
13616TIP3    H240790   3.718   6.895   4.846
13617TIP3   OH240791   0.648   4.056   0.167
13617TIP3    H140792   0.631   4.082   0.077
13617TIP3    H240793   0.562   4.047   0.207
13618TIP3   OH240794   3.280   1.190   3.858
13618TIP3    H140795   3.293   1.268   3.804
13618TIP3    H240796   3.350   1.193   3.922
13619TIP3   OH240797   2.811   5.914   6.372
13619TIP3    H140798   2.832   6.003   6.399
13619TIP3    H240799   2.888   5.885   6.323
13620TIP3   OH240800   4.906   2.661   4.655
13620TIP3    H140801   4.907   2.751   4.622
13620TIP3    H240802   4.838   2.617   4.604
13621TIP3   OH240803   8.264   4.707   4.168
13621TIP3    H140804   8.180   4.753   4.163
13621TIP3    H240805   8.329   4.771   4.139
13622TIP3   OH240806   1.004   2.484   4.917
13622TIP3    H140807   1.070   2.537   4.872
13622TIP3    H240808   0.942   2.547   4.953
13623TIP3   OH240809   3.444   4.655   3.119
13623TIP3    H140810   3.379   4.666   3.188
13623TIP3    H240811   3.395   4.622   3.044
13624TIP3   OH240812   5.411   4.932   5.270
13624TIP3    H140813   5.489   4.876   5.261
13624TIP3    H240814   5.416   4.966   5.359
13625TIP3   OH240815   6.331   0.326   5.745
13625TIP3    H140816   6.293   0.246   5.710
13625TIP3    H240817   6.399   0.350   5.682
13626TIP3   OH240818   4.025   4.991   5.355
13626TIP3    H140819   4.016   5.016   5.447
13626TIP3    H240820   3.997   4.900   5.352
13627TIP3   OH240821   1.726   0.665   4.202
13627TIP3    H140822   1.698   0.574   4.215
13627TIP3    H240823   1.752   0.670   4.110
13628TIP3   OH240824   4.057   4.831   2.061
13628TIP3    H140825   4.046   4.824   2.156
13628TIP3    H240826   4.151   4.823   2.047
13629TIP3   OH240827   3.777   7.527   1.773
13629TIP3    H140828   3.870   7.526   1.795
13629TIP3    H240829   3.737   7.461   1.830
13630TIP3   OH240830   3.064   3.228   4.480
13630TIP3    H140831   3.045   3.312   4.438
13630TIP3    H240832   3.156   3.235   4.506
13631TIP3   OH240833   0.676   6.189   3.339
13631TIP3    H140834   0.582   6.202   3.323
13631TIP3    H240835   0.678   6.124   3.410
13632TIP3   OH240836   2.550   5.771   3.542
13632TIP3    H140837   2.505   5.807   3.465
13632TIP3    H240838   2.606   5.702   3.506
13633TIP3   OH240839   7.342   3.268   5.095
13633TIP3    H140840   7.277   3.302   5.157
13633TIP3    H240841   7.425   3.302   5.129
13634TIP3   OH240842   3.553   1.425   2.884
13634TIP3    H140843   3.600   1.466   2.812
13634TIP3    H240844   3.618   1.418   2.954
13635TIP3   OH240845   0.433   7.691   1.622
13635TIP3    H140846   0.349   7.656   1.592
13635TIP3    H240847   0.411   7.776   1.660
13636TIP3   OH240848   1.751   4.928   1.634
13636TIP3    H140849   1.680   4.871   1.603
13636TIP3    H240850   1.828   4.899   1.585
13637TIP3   OH240851   2.934   4.040   1.887
13637TIP3    H140852   2.880   3.962   1.887
13637TIP3    H240853   3.024   4.008   1.876
13638TIP3   OH240854   4.428   1.400   3.696
13638TIP3    H140855   4.466   1.472   3.646
13638TIP3    H240856   4.338   1.428   3.715
13639TIP3   OH240857   2.035   2.385   6.766
13639TIP3    H140858   1.990   2.375   6.850
13639TIP3    H240859   1.985   2.331   6.705
13640TIP3   OH240860   7.903   1.381   0.181
13640TIP3    H140861   7.838   1.400   0.113
13640TIP3    H240862   7.874   1.298   0.219
13641TIP3   OH240863   6.483   7.831   2.583
13641TIP3    H140864   6.558   7.828   2.524
13641TIP3    H240865   6.519   7.864   2.665
13642TIP3   OH240866   5.753   2.364   5.828
13642TIP3    H140867   5.846   2.383   5.845
13642TIP3    H240868   5.754   2.280   5.783
13643TIP3   OH240869   1.318   3.147   5.595
13643TIP3    H140870   1.257   3.208   5.553
13643TIP3    H240871   1.279   3.130   5.681
13644TIP3   OH240872   4.480   6.100   3.836
13644TIP3    H140873   4.537   6.113   3.760
13644TIP3    H240874   4.480   6.184   3.881
13645TIP3   OH240875   4.733   3.385   2.924
13645TIP3    H140876   4.690   3.471   2.927
13645TIP3    H240877   4.826   3.405   2.918
13646TIP3   OH240878   4.617   6.154   0.511
13646TIP3    H140879   4.537   6.201   0.536
13646TIP3    H240880   4.686   6.196   0.562
13647TIP3   OH240881   7.567   5.931   2.558
13647TIP3    H140882   7.537   5.976   2.479
13647TIP3    H240883   7.490   5.931   2.616
13648TIP3   OH240884   7.069   7.665   2.407
13648TIP3    H140885   7.141   7.665   2.344
13648TIP3    H240886   6.997   7.620   2.362
13649TIP3   OH240887   0.822   0.733   2.806
13649TIP3    H140888   0.882   0.696   2.871
13649TIP3    H240889   0.748   0.764   2.858
13650TIP3   OH240890   5.178   4.081   2.543
13650TIP3    H140891   5.131   3.998   2.543
13650TIP3    H240892   5.269   4.058   2.524
13651TIP3   OH240893   7.384   1.426   3.048
13651TIP3    H140894   7.314   1.363   3.030
13651TIP3    H240895   7.448   1.411   2.979
13652TIP3   OH240896   1.068   7.039   0.450
13652TIP3    H140897   1.105   7.094   0.520
13652TIP3    H240898   1.143   6.992   0.415
13653TIP3   OH240899   4.583   1.917   0.444
13653TIP3    H140900   4.578   1.836   0.393
13653TIP3    H240901   4.674   1.919   0.476
13654TIP3   OH240902   7.062   0.781   4.705
13654TIP3    H140903   7.045   0.690   4.727
13654TIP3    H240904   7.138   0.778   4.647
13655TIP3   OH240905   6.322   0.054   5.667
13655TIP3    H140906   6.411   0.066   5.701
13655TIP3    H240907   6.316  -0.039   5.645
13656TIP3   OH240908   6.457   4.953   3.801
13656TIP3    H140909   6.414   5.039   3.800
13656TIP3    H240910   6.388   4.892   3.775
13657TIP3   OH240911   4.339   0.506   4.816
13657TIP3    H140912   4.269   0.442   4.828
13657TIP3    H240913   4.353   0.510   4.722
13658TIP3   OH240914   7.914   3.387   1.074
13658TIP3    H140915   8.003   3.362   1.098
13658TIP3    H240916   7.858   3.323   1.118
13659TIP3   OH240917   7.996   6.963   4.164
13659TIP3    H140918   7.936   6.889   4.166
13659TIP3    H240919   7.996   6.993   4.073
13660TIP3   OH240920   8.332   1.448   0.173
13660TIP3    H140921   8.379   1.371   0.142
13660TIP3    H240922   8.242   1.419   0.186
13661TIP3   OH240923   6.498   1.410   2.815
13661TIP3    H140924   6.582   1.402   2.770
13661TIP3    H240925   6.516   1.382   2.905
13662TIP3   OH240926   6.328   7.157   4.413
13662TIP3    H140927   6.286   7.200   4.488
13662TIP3    H240928   6.388   7.224   4.379
13663TIP3   OH240929   4.122   0.781   3.503
13663TIP3    H140930   4.097   0.803   3.413
13663TIP3    H240931   4.108   0.686   3.508
13664TIP3   OH240932   4.294   4.835   2.998
13664TIP3    H140933   4.382   4.800   2.979
13664TIP3    H240934   4.310   4.908   3.057
13665TIP3   OH240935   4.671   7.296   1.044
13665TIP3    H140936   4.659   7.375   0.992
13665TIP3    H240937   4.599   7.298   1.107
13666TIP3   OH240938   4.115   6.623   3.825
13666TIP3    H140939   4.194   6.579   3.857
13666TIP3    H240940   4.053   6.618   3.898
13667TIP3   OH240941   6.786   6.106   4.538
13667TIP3    H140942   6.821   6.184   4.494
13667TIP3    H240943   6.830   6.033   4.496
13668TIP3   OH240944   6.946   5.697   3.832
13668TIP3    H140945   7.017   5.761   3.823
13668TIP3    H240946   6.881   5.740   3.887
13669TIP3   OH240947   4.918   5.159   0.213
13669TIP3    H140948   4.892   5.240   0.258
13669TIP3    H240949   5.004   5.180   0.175
13670TIP3   OH240950   3.081   7.180   2.219
13670TIP3    H140951   3.086   7.252   2.281
13670TIP3    H240952   3.172   7.163   2.194
13671TIP3   OH240953   1.175   2.186   1.849
13671TIP3    H140954   1.117   2.255   1.817
13671TIP3    H240955   1.261   2.209   1.814
13672TIP3   OH240956   1.153   5.914   5.948
13672TIP3    H140957   1.088   5.888   6.014
13672TIP3    H240958   1.233   5.929   5.998
13673TIP3   OH240959   6.734   3.946   5.678
13673TIP3    H140960   6.823   3.965   5.705
13673TIP3    H240961   6.718   3.856   5.707
13674TIP3   OH240962   2.621   7.387   6.548
13674TIP3    H140963   2.604   7.315   6.609
13674TIP3    H240964   2.619   7.465   6.602
13675TIP3   OH240965   8.335   1.877   3.344
13675TIP3    H140966   8.323   1.835   3.259
13675TIP3    H240967   8.247   1.896   3.374
13676TIP3   OH240968   0.906   3.146   1.527
13676TIP3    H140969   0.893   3.186   1.441
13676TIP3    H240970   0.845   3.072   1.529
13677TIP3   OH240971   5.154   3.415   1.617
13677TIP3    H140972   5.215   3.342   1.629
13677TIP3    H240973   5.089   3.402   1.686
13678TIP3   OH240974   5.197   6.626   6.833
13678TIP3    H140975   5.267   6.582   6.785
13678TIP3    H240976   5.173   6.701   6.778
13679TIP3   OH240977   4.020   2.515   2.328
13679TIP3    H140978   4.045   2.606   2.347
13679TIP3    H240979   4.102   2.473   2.302
13680TIP3   OH240980   2.346   2.450   4.279
13680TIP3    H140981   2.383   2.537   4.264
13680TIP3    H240982   2.302   2.428   4.196
13681TIP3   OH240983   1.559   0.126   6.361
13681TIP3    H140984   1.640   0.086   6.394
13681TIP3    H240985   1.556   0.101   6.269
13682TIP3   OH240986   3.829   3.663   6.708
13682TIP3    H140987   3.742   3.624   6.719
13682TIP3    H240988   3.876   3.599   6.654
13683TIP3   OH240989   3.886   7.212   2.293
13683TIP3    H140990   3.806   7.161   2.304
13683TIP3    H240991   3.956   7.147   2.297
13684TIP3   OH240992   7.854   4.219   6.042
13684TIP3    H140993   7.848   4.239   5.949
13684TIP3    H240994   7.814   4.132   6.050
13685TIP3   OH240995   0.420   6.019   1.493
13685TIP3    H140996   0.362   6.055   1.560
13685TIP3    H240997   0.373   5.943   1.459
13686TIP3   OH240998   8.247   4.085   1.081
13686TIP3    H140999   8.195   4.015   1.122
13686TIP3    H241000   8.185   4.157   1.071
13687TIP3   OH241001   1.066   0.093   3.253
13687TIP3    H141002   1.146   0.067   3.208
13687TIP3    H241003   0.997   0.045   3.207
13688TIP3   OH241004   4.678   6.779   1.304
13688TIP3    H141005   4.763   6.818   1.322
13688TIP3    H241006   4.619   6.821   1.366
13689TIP3   OH241007   4.525   1.841   5.886
13689TIP3    H141008   4.477   1.876   5.962
13689TIP3    H241009   4.539   1.918   5.831
13690TIP3   OH241010   7.113   5.923   6.323
13690TIP3    H141011   7.116   5.922   6.419
13690TIP3    H241012   7.138   5.834   6.297
13691TIP3   OH241013   3.495   5.739   3.374
13691TIP3    H141014   3.482   5.834   3.375
13691TIP3    H241015   3.589   5.727   3.383
13692TIP3   OH241016   3.272   3.590   0.482
13692TIP3    H141017   3.305   3.505   0.512
13692TIP3    H241018   3.333   3.617   0.414
13693TIP3   OH241019   4.664   0.280   0.771
13693TIP3    H141020   4.719   0.229   0.712
13693TIP3    H241021   4.577   0.278   0.731
13694TIP3   OH241022   7.815   3.736   4.521
13694TIP3    H141023   7.909   3.756   4.517
13694TIP3    H241024   7.789   3.759   4.610
13695TIP3   OH241025   2.084   2.650   4.079
13695TIP3    H141026   2.118   2.571   4.122
13695TIP3    H241027   2.145   2.667   4.007
13696TIP3   OH241028   7.885   2.252   5.911
13696TIP3    H141029   7.809   2.212   5.953
13696TIP3    H241030   7.906   2.327   5.966
13697TIP3   OH241031   2.254   4.275   2.245
13697TIP3    H141032   2.179   4.225   2.211
13697TIP3    H241033   2.237   4.365   2.216
13698TIP3   OH241034   8.074   5.744   4.638
13698TIP3    H141035   7.988   5.704   4.624
13698TIP3    H241036   8.105   5.707   4.720
13699TIP3   OH241037   3.248   0.732   4.200
13699TIP3    H141038   3.199   0.778   4.132
13699TIP3    H241039   3.290   0.801   4.251
13700TIP3   OH241040   1.512   1.264   2.195
13700TIP3    H141041   1.561   1.252   2.277
13700TIP3    H241042   1.459   1.342   2.210
13701TIP3   OH241043   6.402   1.699   0.346
13701TIP3    H141044   6.366   1.685   0.434
13701TIP3    H241045   6.337   1.751   0.301
13702TIP3   OH241046   6.562   6.730   1.290
13702TIP3    H141047   6.467   6.744   1.288
13702TIP3    H241048   6.573   6.636   1.282
13703TIP3   OH241049   7.869   6.709   3.120
13703TIP3    H141050   7.948   6.759   3.139
13703TIP3    H241051   7.798   6.773   3.125
13704TIP3   OH241052   0.787   0.263   5.805
13704TIP3    H141053   0.854   0.294   5.865
13704TIP3    H241054   0.742   0.343   5.775
13705TIP3   OH241055   5.897   2.574   2.030
13705TIP3    H141056   5.978   2.607   1.993
13705TIP3    H241057   5.910   2.578   2.125
13706TIP3   OH241058   5.971   3.970   1.421
13706TIP3    H141059   5.879   3.996   1.417
13706TIP3    H241060   5.976   3.890   1.368
13707TIP3   OH241061   1.044   5.391   0.419
13707TIP3    H141062   1.087   5.461   0.371
13707TIP3    H241063   1.108   5.364   0.484
13708TIP3   OH241064   1.791   3.647   5.252
13708TIP3    H141065   1.816   3.739   5.244
13708TIP3    H241066   1.772   3.635   5.345
13709TIP3   OH241067   5.497   6.769   3.060
13709TIP3    H141068   5.426   6.814   3.105
13709TIP3    H241069   5.577   6.812   3.090
13710TIP3   OH241070   4.448   5.802   3.908
13710TIP3    H141071   4.479   5.892   3.921
13710TIP3    H241072   4.353   5.809   3.906
13711TIP3   OH241073   2.188   0.464   6.741
13711TIP3    H141074   2.164   0.469   6.649
13711TIP3    H241075   2.230   0.548   6.759
13712TIP3   OH241076   7.812   1.965   4.794
13712TIP3    H141077   7.861   2.031   4.844
13712TIP3    H241078   7.879   1.904   4.763
13713TIP3   OH241079   0.867   3.071   5.231
13713TIP3    H141080   0.866   3.151   5.179
13713TIP3    H241081   0.903   3.097   5.316
13714TIP3   OH241082   0.403   4.139   4.184
13714TIP3    H141083   0.413   4.141   4.088
13714TIP3    H241084   0.320   4.094   4.198
13715TIP3   OH241085   0.570   1.098   1.328
13715TIP3    H141086   0.638   1.099   1.261
13715TIP3    H241087   0.600   1.160   1.394
13716TIP3   OH241088   6.147   4.212   5.922
13716TIP3    H141089   6.143   4.175   5.833
13716TIP3    H241090   6.062   4.256   5.932
13717TIP3   OH241091   7.284   4.149   0.336
13717TIP3    H141092   7.360   4.124   0.388
13717TIP3    H241093   7.292   4.097   0.256
13718TIP3   OH241094   2.141   1.447   0.953
13718TIP3    H141095   2.149   1.385   0.880
13718TIP3    H241096   2.059   1.494   0.935
13719TIP3   OH241097   3.965   5.358   6.665
13719TIP3    H141098   4.011   5.409   6.732
13719TIP3    H241099   3.886   5.410   6.647
13720TIP3   OH241100   1.827   4.907   5.691
13720TIP3    H141101   1.765   4.906   5.763
13720TIP3    H241102   1.903   4.859   5.724
13721TIP3   OH241103   2.229   4.091   4.499
13721TIP3    H141104   2.309   4.046   4.528
13721TIP3    H241105   2.233   4.088   4.403
13722TIP3   OH241106   6.997   7.041   2.102
13722TIP3    H141107   6.929   7.103   2.129
13722TIP3    H241108   6.950   6.971   2.058
13723TIP3   OH241109   6.910   5.262   1.622
13723TIP3    H141110   6.914   5.209   1.702
13723TIP3    H241111   6.999   5.292   1.608
13724TIP3   OH241112   6.264   4.650   0.315
13724TIP3    H141113   6.183   4.670   0.267
13724TIP3    H241114   6.246   4.565   0.357
13725TIP3   OH241115   1.934   1.250   0.034
13725TIP3    H141116   1.902   1.236   0.122
13725TIP3    H241117   1.992   1.175   0.017
13726TIP3   OH241118   0.070   5.650   3.382
13726TIP3    H141119   0.009   5.677   3.451
13726TIP3    H241120   0.069   5.722   3.320
13727TIP3   OH241121   7.184   1.587   0.939
13727TIP3    H141122   7.102   1.563   0.984
13727TIP3    H241123   7.253   1.566   1.003
13728TIP3   OH241124   4.824   4.205   3.835
13728TIP3    H141125   4.781   4.290   3.824
13728TIP3    H241126   4.842   4.175   3.746
13729TIP3   OH241127   0.562   3.324   1.581
13729TIP3    H141128   0.506   3.392   1.545
13729TIP3    H241129   0.578   3.265   1.507
13730TIP3   OH241130   2.752   4.704   6.623
13730TIP3    H141131   2.787   4.619   6.598
13730TIP3    H241132   2.657   4.696   6.614
13731TIP3   OH241133   5.730   0.054   5.108
13731TIP3    H141134   5.729  -0.035   5.142
13731TIP3    H241135   5.693   0.046   5.020
13732TIP3   OH241136   6.049   6.068   6.629
13732TIP3    H141137   6.095   5.997   6.585
13732TIP3    H241138   6.085   6.148   6.592
13733TIP3   OH241139   1.594   2.610   4.626
13733TIP3    H141140   1.586   2.519   4.656
13733TIP3    H241141   1.609   2.603   4.532
13734TIP3   OH241142   2.962   6.998   5.917
13734TIP3    H141143   3.001   7.086   5.925
13734TIP3    H241144   3.002   6.962   5.837
13735TIP3   OH241145   6.451   4.318   1.416
13735TIP3    H141146   6.379   4.265   1.450
13735TIP3    H241147   6.428   4.408   1.442
13736TIP3   OH241148   0.368   6.185   3.518
13736TIP3    H141149   0.314   6.116   3.557
13736TIP3    H241150   0.356   6.175   3.424
13737TIP3   OH241151   1.760   0.531   3.909
13737TIP3    H141152   1.707   0.479   3.849
13737TIP3    H241153   1.781   0.472   3.981
13738TIP3   OH241154   1.887   1.495   0.622
13738TIP3    H141155   1.800   1.532   0.638
13738TIP3    H241156   1.920   1.473   0.709
13739TIP3   OH241157   5.751   6.088   1.172
13739TIP3    H141158   5.773   6.119   1.084
13739TIP3    H241159   5.701   6.160   1.211
13740TIP3   OH241160   1.049   4.032   3.267
13740TIP3    H141161   1.085   4.114   3.232
13740TIP3    H241162   1.120   3.995   3.320
13741TIP3   OH241163   0.927   4.594   3.098
13741TIP3    H141164   0.843   4.606   3.142
13741TIP3    H241165   0.935   4.500   3.084
13742TIP3   OH241166   1.080   4.979   5.421
13742TIP3    H141167   1.170   4.996   5.393
13742TIP3    H241168   1.032   4.963   5.340
13743TIP3   OH241169   5.565   2.748   6.339
13743TIP3    H141170   5.541   2.701   6.419
13743TIP3    H241171   5.537   2.690   6.268
13744TIP3   OH241172   5.884   6.996   1.914
13744TIP3    H141173   5.885   7.083   1.875
13744TIP3    H241174   5.796   6.963   1.898
13745TIP3   OH241175   4.471   6.176   3.534
13745TIP3    H141176   4.430   6.252   3.576
13745TIP3    H241177   4.522   6.214   3.463
13746TIP3   OH241178   8.257   7.201   2.727
13746TIP3    H141179   8.319   7.229   2.660
13746TIP3    H241180   8.183   7.261   2.717
13747TIP3   OH241181   8.363   3.188   5.235
13747TIP3    H141182   8.286   3.243   5.222
13747TIP3    H241183   8.386   3.201   5.327
13748TIP3   OH241184   5.098   6.015   0.362
13748TIP3    H141185   5.029   5.987   0.302
13748TIP3    H241186   5.100   5.948   0.430
13749TIP3   OH241187   4.564   0.155   5.933
13749TIP3    H141188   4.531   0.236   5.894
13749TIP3    H241189   4.659   0.162   5.925
13750TIP3   OH241190   4.649   2.618   2.258
13750TIP3    H141191   4.563   2.646   2.226
13750TIP3    H241192   4.708   2.688   2.232
13751TIP3   OH241193   6.297   1.903   1.180
13751TIP3    H141194   6.313   1.894   1.087
13751TIP3    H241195   6.262   1.992   1.190
13752TIP3   OH241196   1.875   3.519   2.951
13752TIP3    H141197   1.814   3.460   2.995
13752TIP3    H241198   1.939   3.460   2.911
13753TIP3   OH241199   7.950   3.313   0.597
13753TIP3    H141200   7.903   3.312   0.681
13753TIP3    H241201   7.980   3.404   0.589
13754TIP3   OH241202   6.686   3.725   4.618
13754TIP3    H141203   6.767   3.773   4.637
13754TIP3    H241204   6.616   3.787   4.637
13755TIP3   OH241205   4.438   5.842   6.845
13755TIP3    H141206   4.378   5.797   6.905
13755TIP3    H241207   4.405   5.821   6.758
13756TIP3   OH241208   0.377   1.855   3.292
13756TIP3    H141209   0.331   1.933   3.260
13756TIP3    H241210   0.371   1.861   3.387
13757TIP3   OH241211   0.468   1.529   4.660
13757TIP3    H141212   0.439   1.563   4.575
13757TIP3    H241213   0.555   1.568   4.673
13758TIP3   OH241214   8.374   5.629   4.263
13758TIP3    H141215   8.421   5.711   4.278
13758TIP3    H241216   8.379   5.615   4.169
13759TIP3   OH241217   2.171   2.918   3.409
13759TIP3    H141218   2.139   2.875   3.329
13759TIP3    H241219   2.192   2.846   3.468
13760TIP3   OH241220   2.825   5.718   6.131
13760TIP3    H141221   2.783   5.675   6.205
13760TIP3    H241222   2.896   5.770   6.169
13761TIP3   OH241223   1.571   7.760   3.090
13761TIP3    H141224   1.504   7.815   3.049
13761TIP3    H241225   1.575   7.790   3.180
13762TIP3   OH241226   1.785   6.675   3.330
13762TIP3    H141227   1.743   6.599   3.290
13762TIP3    H241228   1.877   6.668   3.304
13763TIP3   OH241229   6.169   4.508   4.804
13763TIP3    H141230   6.231   4.578   4.826
13763TIP3    H241231   6.146   4.469   4.888
13764TIP3   OH241232   1.840   3.906   5.353
13764TIP3    H141233   1.931   3.918   5.381
13764TIP3    H241234   1.788   3.943   5.425
13765TIP3   OH241235   4.788   3.361   2.007
13765TIP3    H141236   4.820   3.287   2.058
13765TIP3    H241237   4.693   3.353   2.009
13766TIP3   OH241238   0.960   6.933   5.302
13766TIP3    H141239   0.935   7.025   5.317
13766TIP3    H241240   1.023   6.914   5.372
13767TIP3   OH241241   1.437   1.376   3.840
13767TIP3    H141242   1.506   1.427   3.883
13767TIP3    H241243   1.372   1.442   3.815
13768TIP3   OH241244   5.006   6.400   1.551
13768TIP3    H141245   4.946   6.348   1.498
13768TIP3    H241246   5.089   6.351   1.548
13769TIP3   OH241247   4.513   5.742   4.521
13769TIP3    H141248   4.583   5.760   4.458
13769TIP3    H241249   4.517   5.815   4.583
13770TIP3   OH241250   3.501   2.697   3.570
13770TIP3    H141251   3.565   2.753   3.615
13770TIP3    H241252   3.553   2.627   3.531
13771TIP3   OH241253   0.679   3.773   6.064
13771TIP3    H141254   0.629   3.719   6.125
13771TIP3    H241255   0.717   3.842   6.119
13772TIP3   OH241256   1.187   1.477   6.375
13772TIP3    H141257   1.163   1.569   6.389
13772TIP3    H241258   1.261   1.481   6.315
13773TIP3   OH241259   0.276   4.301   1.842
13773TIP3    H141260   0.312   4.238   1.780
13773TIP3    H241261   0.341   4.370   1.848
13774TIP3   OH241262   5.446   0.757   4.615
13774TIP3    H141263   5.517   0.814   4.587
13774TIP3    H241264   5.424   0.788   4.703
13775TIP3   OH241265   3.864   1.838   5.195
13775TIP3    H141266   3.774   1.812   5.215
13775TIP3    H241267   3.855   1.920   5.147
13776TIP3   OH241268   6.837   5.485   5.656
13776TIP3    H141269   6.884   5.499   5.574
13776TIP3    H241270   6.766   5.426   5.633
13777TIP3   OH241271   8.268   4.327   0.815
13777TIP3    H141272   8.358   4.307   0.839
13777TIP3    H241273   8.237   4.249   0.769
13778TIP3   OH241274   1.227   0.723   0.868
13778TIP3    H141275   1.188   0.635   0.865
13778TIP3    H241276   1.210   0.760   0.782
13779TIP3   OH241277   1.627   0.677   3.573
13779TIP3    H141278   1.581   0.668   3.656
13779TIP3    H241279   1.561   0.710   3.512
13780TIP3   OH241280   0.208   1.902   3.000
13780TIP3    H141281   0.262   1.979   3.019
13780TIP3    H241282   0.237   1.872   2.914
13781TIP3   OH241283   6.451   5.190   0.681
13781TIP3    H141284   6.526   5.198   0.622
13781TIP3    H241285   6.375   5.214   0.628
13782TIP3   OH241286   1.246   1.792   0.893
13782TIP3    H141287   1.155   1.814   0.870
13782TIP3    H241288   1.239   1.711   0.944
13783TIP3   OH241289   0.353   1.802   6.324
13783TIP3    H141290   0.326   1.724   6.373
13783TIP3    H241291   0.348   1.776   6.232
13784TIP3   OH241292   3.599   2.814   0.224
13784TIP3    H141293   3.563   2.727   0.242
13784TIP3    H241294   3.693   2.799   0.211
13785TIP3   OH241295   3.216   5.511   4.197
13785TIP3    H141296   3.187   5.601   4.209
13785TIP3    H241297   3.291   5.517   4.138
13786TIP3   OH241298   6.624   1.489   4.675
13786TIP3    H141299   6.713   1.480   4.642
13786TIP3    H241300   6.614   1.583   4.691
13787TIP3   OH241301   5.807   5.406   4.363
13787TIP3    H141302   5.726   5.450   4.391
13787TIP3    H241303   5.842   5.368   4.444
13788TIP3   OH241304   2.375   4.870   4.169
13788TIP3    H141305   2.357   4.787   4.213
13788TIP3    H241306   2.329   4.864   4.086
13789TIP3   OH241307   2.693   1.425   4.173
13789TIP3    H141308   2.739   1.504   4.201
13789TIP3    H241309   2.604   1.455   4.154
13790TIP3   OH241310   4.558   1.050   4.523
13790TIP3    H141311   4.528   1.086   4.606
13790TIP3    H241312   4.649   1.025   4.539
13791TIP3   OH241313   5.816   5.396   3.797
13791TIP3    H141314   5.778   5.310   3.819
13791TIP3    H241315   5.764   5.458   3.847
13792TIP3   OH241316   3.306   1.343   4.930
13792TIP3    H141317   3.381   1.361   4.986
13792TIP3    H241318   3.259   1.426   4.926
13793TIP3   OH241319   1.809   5.809   2.390
13793TIP3    H141320   1.859   5.858   2.324
13793TIP3    H241321   1.721   5.803   2.354
13794TIP3   OH241322   5.450   7.836   4.295
13794TIP3    H141323   5.470   7.750   4.258
13794TIP3    H241324   5.523   7.855   4.354
13795TIP3   OH241325   0.280   3.791   6.147
13795TIP3    H141326   0.269   3.854   6.219
13795TIP3    H241327   0.200   3.800   6.095
13796TIP3   OH241328   2.569   6.714   4.404
13796TIP3    H141329   2.538   6.643   4.348
13796TIP3    H241330   2.590   6.672   4.487
13797TIP3   OH241331   3.566   1.147   5.368
13797TIP3    H141332   3.661   1.151   5.377
13797TIP3    H241333   3.539   1.238   5.357
13798TIP3   OH241334   4.926   3.926   4.553
13798TIP3    H141335   4.899   3.836   4.534
13798TIP3    H241336   4.849   3.966   4.595
13799TIP3   OH241337   0.669   4.391   3.226
13799TIP3    H141338   0.633   4.327   3.287
13799TIP3    H241339   0.746   4.347   3.188
13800TIP3   OH241340   0.971   4.130   6.581
13800TIP3    H141341   0.880   4.106   6.598
13800TIP3    H241342   0.978   4.130   6.485
13801TIP3   OH241343   2.601   2.567   3.773
13801TIP3    H141344   2.507   2.578   3.790
13801TIP3    H241345   2.605   2.542   3.681
13802TIP3   OH241346   2.676   1.161   2.826
13802TIP3    H141347   2.654   1.109   2.748
13802TIP3    H241348   2.696   1.248   2.791
13803TIP3   OH241349   4.165   2.890   6.304
13803TIP3    H141350   4.169   2.803   6.264
13803TIP3    H241351   4.082   2.926   6.275
13804TIP3   OH241352   4.186   7.220   3.325
13804TIP3    H141353   4.185   7.125   3.315
13804TIP3    H241354   4.123   7.251   3.260
13805TIP3   OH241355   0.560   4.332   0.867
13805TIP3    H141356   0.640   4.377   0.897
13805TIP3    H241357   0.529   4.285   0.945
13806TIP3   OH241358   3.349   4.792   5.920
13806TIP3    H141359   3.412   4.721   5.925
13806TIP3    H241360   3.390   4.856   5.862
13807TIP3   OH241361   1.927   3.247   2.272
13807TIP3    H141362   1.931   3.336   2.306
13807TIP3    H241363   1.887   3.256   2.186
13808TIP3   OH241364   0.524   3.681   6.445
13808TIP3    H141365   0.604   3.718   6.482
13808TIP3    H241366   0.552   3.641   6.363
13809TIP3   OH241367   2.356   3.050   3.249
13809TIP3    H141368   2.451   3.054   3.264
13809TIP3    H241369   2.319   3.039   3.336
13810TIP3   OH241370   6.871   4.711   2.055
13810TIP3    H141371   6.934   4.709   2.127
13810TIP3    H241372   6.913   4.765   1.989
13811TIP3   OH241373   6.773   1.564   6.161
13811TIP3    H141374   6.785   1.653   6.193
13811TIP3    H241375   6.769   1.511   6.241
13812TIP3   OH241376   6.170   7.137   3.600
13812TIP3    H141377   6.230   7.203   3.566
13812TIP3    H241378   6.139   7.090   3.523
13813TIP3   OH241379   8.165   0.036   0.522
13813TIP3    H141380   8.141  -0.048   0.483
13813TIP3    H241381   8.096   0.096   0.495
13814TIP3   OH241382   7.830   0.231   4.307
13814TIP3    H141383   7.822   0.205   4.399
13814TIP3    H241384   7.915   0.195   4.280
13815TIP3   OH241385   6.257   4.460   3.383
13815TIP3    H141386   6.222   4.420   3.304
13815TIP3    H241387   6.345   4.488   3.358
13816TIP3   OH241388   4.206   5.096   5.188
13816TIP3    H141389   4.146   5.063   5.254
13816TIP3    H241390   4.150   5.137   5.122
13817TIP3   OH241391   3.933   2.260   1.744
13817TIP3    H141392   3.871   2.332   1.735
13817TIP3    H241393   3.972   2.273   1.831
13818TIP3   OH241394   5.042   0.980   6.723
13818TIP3    H141395   5.009   0.998   6.635
13818TIP3    H241396   5.136   0.966   6.712
13819TIP3   OH241397   2.465   1.202   0.903
13819TIP3    H141398   2.504   1.288   0.920
13819TIP3    H241399   2.461   1.160   0.990
13820TIP3   OH241400   3.315   3.953   0.165
13820TIP3    H141401   3.386   3.933   0.104
13820TIP3    H241402   3.239   3.908   0.128
13821TIP3   OH241403   3.087   3.491   0.285
13821TIP3    H141404   3.143   3.413   0.288
13821TIP3    H241405   3.117   3.545   0.359
13822TIP3   OH241406   0.481   5.270   2.533
13822TIP3    H141407   0.412   5.315   2.581
13822TIP3    H241408   0.463   5.177   2.546
13823TIP3   OH241409   4.111   2.289   0.731
13823TIP3    H141410   4.090   2.297   0.824
13823TIP3    H241411   4.064   2.360   0.689
13824TIP3   OH241412   7.469   2.137   1.089
13824TIP3    H141413   7.403   2.190   1.133
13824TIP3    H241414   7.427   2.052   1.075
13825TIP3   OH241415   6.805   1.561   5.142
13825TIP3    H141416   6.858   1.547   5.063
13825TIP3    H241417   6.743   1.489   5.142
13826TIP3   OH241418   6.664   5.749   6.721
13826TIP3    H141419   6.597   5.761   6.788
13826TIP3    H241420   6.730   5.693   6.763
13827TIP3   OH241421   8.189   4.410   5.920
13827TIP3    H141422   8.260   4.382   5.862
13827TIP3    H241423   8.186   4.505   5.909
13828TIP3   OH241424   4.931   2.073   0.197
13828TIP3    H141425   4.849   2.112   0.227
13828TIP3    H241426   4.999   2.136   0.223
13829TIP3   OH241427   7.160   6.665   5.959
13829TIP3    H141428   7.152   6.674   5.865
13829TIP3    H241429   7.075   6.632   5.988
13830TIP3   OH241430   3.313   7.558   4.753
13830TIP3    H141431   3.373   7.629   4.730
13830TIP3    H241432   3.252   7.597   4.815
13831TIP3   OH241433   0.453   1.788   0.243
13831TIP3    H141434   0.403   1.764   0.165
13831TIP3    H241435   0.389   1.785   0.314
13832TIP3   OH241436   0.895   7.670   0.694
13832TIP3    H141437   0.905   7.736   0.625
13832TIP3    H241438   0.871   7.590   0.647
13833TIP3   OH241439   8.325   2.601   4.164
13833TIP3    H141440   8.262   2.531   4.178
13833TIP3    H241441   8.275   2.670   4.120
13834TIP3   OH241442   7.673   7.860   3.886
13834TIP3    H141443   7.677   7.768   3.859
13834TIP3    H241444   7.745   7.902   3.839
13835TIP3   OH241445   2.048   2.262   3.485
13835TIP3    H141446   2.122   2.229   3.535
13835TIP3    H241447   2.080   2.267   3.395
13836TIP3   OH241448   1.795   2.934   5.244
13836TIP3    H141449   1.874   2.926   5.298
13836TIP3    H241450   1.807   3.016   5.197
13837TIP3   OH241451   6.716   7.372   0.620
13837TIP3    H141452   6.744   7.280   0.629
13837TIP3    H241453   6.700   7.383   0.527
13838TIP3   OH241454   7.418   7.871   5.413
13838TIP3    H141455   7.464   7.851   5.332
13838TIP3    H241456   7.351   7.803   5.421
13839TIP3   OH241457   1.075   1.286   3.701
13839TIP3    H141458   0.985   1.289   3.733
13839TIP3    H241459   1.128   1.272   3.780
13840TIP3   OH241460   8.087   2.538   3.647
13840TIP3    H141461   8.089   2.538   3.552
13840TIP3    H241462   8.020   2.473   3.669
13841TIP3   OH241463   5.983   4.680   1.162
13841TIP3    H141464   6.040   4.604   1.174
13841TIP3    H241465   5.895   4.644   1.151
13842TIP3   OH241466   6.980   3.195   6.088
13842TIP3    H141467   6.965   3.104   6.110
13842TIP3    H241468   7.060   3.219   6.135
13843TIP3   OH241469   0.507   5.854   1.061
13843TIP3    H141470   0.451   5.782   1.032
13843TIP3    H241471   0.446   5.926   1.079
13844TIP3   OH241472   6.490   3.418   0.298
13844TIP3    H141473   6.469   3.329   0.268
13844TIP3    H241474   6.516   3.407   0.389
13845TIP3   OH241475   5.716   2.060   6.765
13845TIP3    H141476   5.644   2.025   6.816
13845TIP3    H241477   5.673   2.109   6.694
13846TIP3   OH241478   2.550   5.666   4.769
13846TIP3    H141479   2.487   5.594   4.771
13846TIP3    H241480   2.597   5.655   4.686
13847TIP3   OH241481   5.175   2.026   5.862
13847TIP3    H141482   5.149   1.937   5.842
13847TIP3    H241483   5.136   2.044   5.948
13848TIP3   OH241484   6.829   7.156   2.483
13848TIP3    H141485   6.841   7.103   2.404
13848TIP3    H241486   6.870   7.104   2.553
13849TIP3   OH241487   4.639   7.613   3.214
13849TIP3    H141488   4.662   7.540   3.271
13849TIP3    H241489   4.676   7.590   3.129
13850TIP3   OH241490   0.424   0.573   5.688
13850TIP3    H141491   0.338   0.613   5.696
13850TIP3    H241492   0.406   0.482   5.664
13851TIP3   OH241493   5.658   2.471   1.565
13851TIP3    H141494   5.627   2.440   1.480
13851TIP3    H241495   5.635   2.400   1.626
13852TIP3   OH241496   0.601   6.473   2.403
13852TIP3    H141497   0.597   6.412   2.476
13852TIP3    H241498   0.576   6.557   2.441
13853TIP3   OH241499   5.510   6.731   0.381
13853TIP3    H141500   5.461   6.810   0.358
13853TIP3    H241501   5.480   6.708   0.469
13854TIP3   OH241502   3.556   5.038   3.221
13854TIP3    H141503   3.613   4.965   3.245
13854TIP3    H241504   3.519   5.067   3.304
13855TIP3   OH241505   4.140   4.868   1.560
13855TIP3    H141506   4.222   4.821   1.580
13855TIP3    H241507   4.137   4.870   1.465
13856TIP3   OH241508   7.086   0.052   0.082
13856TIP3    H141509   7.126   0.081   0.000
13856TIP3    H241510   7.123  -0.035   0.097
13857TIP3   OH241511   3.318   3.581   6.823
13857TIP3    H141512   3.364   3.662   6.845
13857TIP3    H241513   3.235   3.610   6.785
13858TIP3   OH241514   3.107   4.956   2.884
13858TIP3    H141515   3.124   4.922   2.972
13858TIP3    H241516   3.185   5.008   2.864
13859TIP3   OH241517   1.442   1.894   5.588
13859TIP3    H141518   1.396   1.834   5.529
13859TIP3    H241519   1.507   1.839   5.632
13860TIP3   OH241520   7.373   1.728   0.449
13860TIP3    H141521   7.451   1.696   0.494
13860TIP3    H241522   7.300   1.702   0.506
13861TIP3   OH241523   5.103   7.567   2.209
13861TIP3    H141524   5.077   7.533   2.123
13861TIP3    H241525   5.161   7.499   2.244
13862TIP3   OH241526   2.452   0.502   2.615
13862TIP3    H141527   2.460   0.592   2.582
13862TIP3    H241528   2.368   0.472   2.580
13863TIP3   OH241529   8.114   1.851   5.541
13863TIP3    H141530   8.098   1.883   5.629
13863TIP3    H241531   8.174   1.777   5.553
13864TIP3   OH241532   3.385   4.333   0.453
13864TIP3    H141533   3.400   4.299   0.365
13864TIP3    H241534   3.455   4.296   0.505
13865TIP3   OH241535   6.901   3.402   1.812
13865TIP3    H141536   6.913   3.488   1.852
13865TIP3    H241537   6.833   3.360   1.864
13866TIP3   OH241538   7.067   2.083   0.696
13866TIP3    H141539   7.128   2.119   0.760
13866TIP3    H241540   7.072   2.144   0.622
13867TIP3   OH241541   2.963   2.167   6.236
13867TIP3    H141542   2.952   2.097   6.300
13867TIP3    H241543   3.057   2.179   6.227
13868TIP3   OH241544   6.299   3.391   3.921
13868TIP3    H141545   6.299   3.478   3.881
13868TIP3    H241546   6.326   3.406   4.012
13869TIP3   OH241547   3.766   6.095   3.962
13869TIP3    H141548   3.671   6.107   3.961
13869TIP3    H241549   3.779   6.006   3.995
13870TIP3   OH241550   4.116   2.024   2.010
13870TIP3    H141551   4.186   1.984   1.958
13870TIP3    H241552   4.041   1.965   1.999
13871TIP3   OH241553   1.122   4.696   6.323
13871TIP3    H141554   1.076   4.631   6.270
13871TIP3    H241555   1.110   4.667   6.413
13872TIP3   OH241556   4.700   5.357   6.287
13872TIP3    H141557   4.770   5.312   6.335
13872TIP3    H241558   4.621   5.309   6.311
13873TIP3   OH241559   7.316   4.264   2.357
13873TIP3    H141560   7.280   4.292   2.442
13873TIP3    H241561   7.411   4.270   2.368
13874TIP3   OH241562   7.291   2.147   2.156
13874TIP3    H141563   7.296   2.106   2.242
13874TIP3    H241564   7.239   2.086   2.103
13875TIP3   OH241565   5.239   3.445   1.899
13875TIP3    H141566   5.197   3.529   1.914
13875TIP3    H241567   5.174   3.380   1.928
13876TIP3   OH241568   5.726   2.881   6.120
13876TIP3    H141569   5.815   2.910   6.140
13876TIP3    H241570   5.697   2.837   6.199
13877TIP3   OH241571   6.792   2.416   5.256
13877TIP3    H141572   6.781   2.503   5.296
13877TIP3    H241573   6.801   2.357   5.330
13878TIP3   OH241574   2.527   3.338   4.585
13878TIP3    H141575   2.592   3.284   4.540
13878TIP3    H241576   2.555   3.340   4.676
13879TIP3   OH241577   2.330   1.164   0.023
13879TIP3    H141578   2.253   1.106   0.031
13879TIP3    H241579   2.293   1.251   0.012
13880TIP3   OH241580   5.918   3.555   6.801
13880TIP3    H141581   5.968   3.547   6.882
13880TIP3    H241582   5.967   3.503   6.737
13881TIP3   OH241583   3.388   4.029   5.593
13881TIP3    H141584   3.294   4.023   5.576
13881TIP3    H241585   3.427   3.963   5.536
13882TIP3   OH241586   7.145   4.765   0.360
13882TIP3    H141587   7.185   4.712   0.291
13882TIP3    H241588   7.153   4.855   0.329
13883TIP3   OH241589   4.084   3.794   6.585
13883TIP3    H141590   4.039   3.753   6.511
13883TIP3    H241591   4.176   3.772   6.571
13884TIP3   OH241592   5.855   1.987   4.197
13884TIP3    H141593   5.891   2.043   4.266
13884TIP3    H241594   5.836   2.047   4.125
13885TIP3   OH241595   7.026   2.864   4.713
13885TIP3    H141596   7.119   2.880   4.698
13885TIP3    H241597   7.023   2.815   4.795
13886TIP3   OH241598   1.588   5.072   4.311
13886TIP3    H141599   1.585   5.007   4.381
13886TIP3    H241600   1.643   5.142   4.345
13887TIP3   OH241601   8.055   3.427   1.768
13887TIP3    H141602   8.128   3.369   1.746
13887TIP3    H241603   8.012   3.385   1.842
13888TIP3   OH241604   3.345   1.163   4.603
13888TIP3    H141605   3.377   1.169   4.693
13888TIP3    H241606   3.402   1.221   4.553
13889TIP3   OH241607   7.624   4.801   2.237
13889TIP3    H141608   7.591   4.823   2.325
13889TIP3    H241609   7.712   4.767   2.253
13890TIP3   OH241610   6.326   7.512   3.260
13890TIP3    H141611   6.253   7.571   3.245
13890TIP3    H241612   6.379   7.556   3.327
13891TIP3   OH241613   7.112   4.935   5.761
13891TIP3    H141614   7.082   4.868   5.700
13891TIP3    H241615   7.161   4.887   5.828
13892TIP3   OH241616   0.385   3.555   5.237
13892TIP3    H141617   0.293   3.541   5.259
13892TIP3    H241618   0.383   3.618   5.165
13893TIP3   OH241619   6.091   7.014   4.721
13893TIP3    H141620   6.009   7.017   4.771
13893TIP3    H241621   6.151   6.964   4.776
13894TIP3   OH241622   2.445   6.782   4.949
13894TIP3    H141623   2.385   6.730   4.895
13894TIP3    H241624   2.509   6.718   4.982
13895TIP3   OH241625   6.460   5.497   6.744
13895TIP3    H141626   6.536   5.475   6.798
13895TIP3    H241627   6.462   5.593   6.738
13896TIP3   OH241628   7.076   4.001   6.055
13896TIP3    H141629   7.079   3.914   6.095
13896TIP3    H241630   6.989   4.035   6.078
13897TIP3   OH241631   3.179   2.421   3.857
13897TIP3    H141632   3.244   2.489   3.837
13897TIP3    H241633   3.188   2.407   3.952
13898TIP3   OH241634   7.622   3.381   5.340
13898TIP3    H141635   7.597   3.396   5.249
13898TIP3    H241636   7.715   3.404   5.343
13899TIP3   OH241637   1.759   5.814   6.775
13899TIP3    H141638   1.709   5.853   6.846
13899TIP3    H241639   1.706   5.739   6.746
13900TIP3   OH241640   5.032   2.409   1.512
13900TIP3    H141641   5.009   2.501   1.499
13900TIP3    H241642   5.120   2.400   1.476
13901TIP3   OH241643   1.063   4.209   5.363
13901TIP3    H141644   1.130   4.177   5.423
13901TIP3    H241645   1.048   4.136   5.303
13902TIP3   OH241646   6.157   3.679   1.901
13902TIP3    H141647   6.133   3.632   1.980
13902TIP3    H241648   6.092   3.652   1.836
13903TIP3   OH241649   5.085   6.513   5.845
13903TIP3    H141650   5.157   6.573   5.823
13903TIP3    H241651   5.008   6.570   5.854
13904TIP3   OH241652   0.019   3.467   1.025
13904TIP3    H141653   0.021   3.545   0.970
13904TIP3    H241654   0.111   3.445   1.038
13905TIP3   OH241655   4.235   1.814   2.709
13905TIP3    H141656   4.293   1.751   2.664
13905TIP3    H241657   4.182   1.760   2.767
13906TIP3   OH241658   5.477   4.974   2.194
13906TIP3    H141659   5.474   5.019   2.278
13906TIP3    H241660   5.520   5.036   2.135
13907TIP3   OH241661   8.033   4.421   2.041
13907TIP3    H141662   7.942   4.421   2.072
13907TIP3    H241663   8.073   4.498   2.081
13908TIP3   OH241664   2.319   1.053   6.092
13908TIP3    H141665   2.289   0.971   6.053
13908TIP3    H241666   2.246   1.113   6.081
13909TIP3   OH241667   3.161   6.776   4.004
13909TIP3    H141668   3.251   6.798   3.980
13909TIP3    H241669   3.113   6.776   3.921
13910TIP3   OH241670   0.298   0.168   0.725
13910TIP3    H141671   0.237   0.217   0.670
13910TIP3    H241672   0.282   0.077   0.703
13911TIP3   OH241673   6.078   6.285   2.116
13911TIP3    H141674   6.015   6.220   2.147
13911TIP3    H241675   6.055   6.364   2.165
13912TIP3   OH241676   1.346   5.403   3.249
13912TIP3    H141677   1.360   5.475   3.188
13912TIP3    H241678   1.430   5.393   3.294
13913TIP3   OH241679   7.639   3.765   0.927
13913TIP3    H141680   7.635   3.670   0.928
13913TIP3    H241681   7.582   3.792   1.000
13914TIP3   OH241682   2.481   0.729   1.206
13914TIP3    H141683   2.456   0.660   1.267
13914TIP3    H241684   2.558   0.770   1.247
13915TIP3   OH241685   5.290   3.466   3.891
13915TIP3    H141686   5.233   3.400   3.851
13915TIP3    H241687   5.370   3.463   3.839
13916TIP3   OH241688   3.370   1.165   6.792
13916TIP3    H141689   3.395   1.215   6.714
13916TIP3    H241690   3.280   1.137   6.775
13917TIP3   OH241691   8.039   2.007   3.917
13917TIP3    H141692   7.959   2.042   3.879
13917TIP3    H241693   8.022   1.914   3.929
13918TIP3   OH241694   0.495   1.374   3.843
13918TIP3    H141695   0.413   1.400   3.803
13918TIP3    H241696   0.484   1.395   3.936
13919TIP3   OH241697   4.810   6.885   0.583
13919TIP3    H141698   4.797   6.832   0.661
13919TIP3    H241699   4.896   6.925   0.595
13920TIP3   OH241700   4.404   0.070   0.819
13920TIP3    H141701   4.347   0.010   0.772
13920TIP3    H241702   4.466   0.013   0.865
13921TIP3   OH241703   2.404   0.557   4.649
13921TIP3    H141704   2.466   0.566   4.577
13921TIP3    H241705   2.327   0.608   4.621
13922TIP3   OH241706   1.040   2.430   4.223
13922TIP3    H141707   0.957   2.459   4.186
13922TIP3    H241708   1.055   2.344   4.184
13923TIP3   OH241709   3.096   3.823   4.174
13923TIP3    H141710   3.120   3.759   4.241
13923TIP3    H241711   3.118   3.780   4.091
13924TIP3   OH241712   5.510   7.681   2.754
13924TIP3    H141713   5.591   7.732   2.745
13924TIP3    H241714   5.540   7.593   2.778
13925TIP3   OH241715   6.105   4.589   1.459
13925TIP3    H141716   6.068   4.565   1.543
13925TIP3    H241717   6.058   4.669   1.434
13926TIP3   OH241718   4.039   1.813   4.915
13926TIP3    H141719   4.132   1.801   4.932
13926TIP3    H241720   4.029   1.908   4.904
13927TIP3   OH241721   3.565   6.652   0.752
13927TIP3    H141722   3.646   6.601   0.763
13927TIP3    H241723   3.540   6.675   0.842
13928TIP3   OH241724   2.727   7.783   1.041
13928TIP3    H141725   2.669   7.715   1.075
13928TIP3    H241726   2.759   7.747   0.958
13929TIP3   OH241727   6.311   6.848   2.124
13929TIP3    H141728   6.263   6.778   2.168
13929TIP3    H241729   6.396   6.810   2.103
13930TIP3   OH241730   7.104   7.707   1.887
13930TIP3    H141731   7.069   7.726   1.800
13930TIP3    H241732   7.191   7.747   1.887
13931TIP3   OH241733   1.467   1.720   0.173
13931TIP3    H141734   1.485   1.709   0.266
13931TIP3    H241735   1.374   1.741   0.169
13932TIP3   OH241736   1.817   1.638   5.634
13932TIP3    H141737   1.804   1.549   5.669
13932TIP3    H241738   1.795   1.695   5.707
13933TIP3   OH241739   2.596   4.513   5.053
13933TIP3    H141740   2.691   4.505   5.059
13933TIP3    H241741   2.565   4.494   5.142
13934TIP3   OH241742   7.406   1.516   1.476
13934TIP3    H141743   7.413   1.611   1.488
13934TIP3    H241744   7.486   1.481   1.517
13935TIP3   OH241745   5.111   5.751   3.175
13935TIP3    H141746   5.107   5.703   3.258
13935TIP3    H241747   5.029   5.801   3.172
13936TIP3   OH241748   0.611   1.110   6.689
13936TIP3    H141749   0.698   1.086   6.721
13936TIP3    H241750   0.626   1.191   6.639
13937TIP3   OH241751   1.294   0.236   4.136
13937TIP3    H141752   1.285   0.248   4.231
13937TIP3    H241753   1.224   0.290   4.099
13938TIP3   OH241754   0.114   4.211   0.838
13938TIP3    H141755   0.170   4.189   0.912
13938TIP3    H241756   0.114   4.133   0.783
13939TIP3   OH241757   4.698   2.268   0.263
13939TIP3    H141758   4.646   2.349   0.265
13939TIP3    H241759   4.634   2.199   0.244
13940TIP3   OH241760   6.995   1.579   0.490
13940TIP3    H141761   6.914   1.528   0.488
13940TIP3    H241762   7.007   1.601   0.583
13941TIP3   OH241763   5.321   2.425   1.460
13941TIP3    H141764   5.281   2.512   1.454
13941TIP3    H241765   5.401   2.432   1.407
13942TIP3   OH241766   1.286   0.237   3.603
13942TIP3    H141767   1.379   0.245   3.580
13942TIP3    H241768   1.258   0.326   3.621
13943TIP3   OH241769   0.207   2.166   3.641
13943TIP3    H141770   0.158   2.223   3.581
13943TIP3    H241771   0.190   2.078   3.609
13944TIP3   OH241772   7.204   6.946   5.781
13944TIP3    H141773   7.126   6.965   5.833
13944TIP3    H241774   7.267   7.014   5.805
13945TIP3   OH241775   5.687   3.274   4.003
13945TIP3    H141776   5.712   3.357   4.043
13945TIP3    H241777   5.699   3.289   3.909
13946TIP3   OH241778   5.822   1.113   4.416
13946TIP3    H141779   5.752   1.123   4.351
13946TIP3    H241780   5.876   1.191   4.404
13947TIP3   OH241781   4.141   6.756   1.794
13947TIP3    H141782   4.055   6.717   1.780
13947TIP3    H241783   4.132   6.804   1.877
13948TIP3   OH241784   3.437   1.851   0.596
13948TIP3    H141785   3.427   1.922   0.659
13948TIP3    H241786   3.347   1.826   0.574
13949TIP3   OH241787   7.738   5.573   4.027
13949TIP3    H141788   7.735   5.510   3.954
13949TIP3    H241789   7.694   5.528   4.099
13950TIP3   OH241790   4.860   6.523   2.960
13950TIP3    H141791   4.782   6.538   2.906
13950TIP3    H241792   4.893   6.610   2.980
13951TIP3   OH241793   7.229   3.797   1.716
13951TIP3    H141794   7.199   3.887   1.700
13951TIP3    H241795   7.211   3.782   1.809
13952TIP3   OH241796   3.752   2.929   2.971
13952TIP3    H141797   3.807   2.871   3.024
13952TIP3    H241798   3.693   2.871   2.924
13953TIP3   OH241799   4.049   7.749   5.231
13953TIP3    H141800   4.135   7.774   5.266
13953TIP3    H241801   4.066   7.667   5.185
13954TIP3   OH241802   4.964   3.494   6.727
13954TIP3    H141803   4.954   3.569   6.786
13954TIP3    H241804   4.993   3.423   6.784
13955TIP3   OH241805   8.157   5.265   3.259
13955TIP3    H141806   8.202   5.269   3.343
13955TIP3    H241807   8.207   5.322   3.201
13956TIP3   OH241808   0.896   2.685   4.633
13956TIP3    H141809   0.943   2.657   4.555
13956TIP3    H241810   0.965   2.712   4.694
13957TIP3   OH241811   7.592   3.484   2.073
13957TIP3    H141812   7.554   3.511   2.157
13957TIP3    H241813   7.672   3.537   2.066
13958TIP3   OH241814   4.653   2.339   6.095
13958TIP3    H141815   4.567   2.375   6.116
13958TIP3    H241816   4.702   2.414   6.060
13959TIP3   OH241817   4.467   6.910   0.469
13959TIP3    H141818   4.402   6.979   0.456
13959TIP3    H241819   4.476   6.904   0.565
13960TIP3   OH241820   2.016   7.664   0.298
13960TIP3    H141821   1.987   7.744   0.255
13960TIP3    H241822   1.935   7.618   0.320
13961TIP3   OH241823   1.452   4.695   3.711
13961TIP3    H141824   1.435   4.737   3.795
13961TIP3    H241825   1.367   4.696   3.667
13962TIP3   OH241826   8.138   5.248   0.595
13962TIP3    H141827   8.215   5.219   0.544
13962TIP3    H241828   8.104   5.168   0.634
13963TIP3   OH241829   1.969   5.567   2.815
13963TIP3    H141830   2.029   5.599   2.883
13963TIP3    H241831   1.977   5.630   2.744
13964TIP3   OH241832   7.593   7.305   1.858
13964TIP3    H141833   7.499   7.288   1.858
13964TIP3    H241834   7.633   7.222   1.882
13965TIP3   OH241835   7.654   4.645   1.673
13965TIP3    H141836   7.583   4.646   1.608
13965TIP3    H241837   7.721   4.702   1.636
13966TIP3   OH241838   1.290   2.207   2.186
13966TIP3    H141839   1.364   2.204   2.126
13966TIP3    H241840   1.240   2.285   2.159
13967TIP3   OH241841   5.695   2.130   5.691
13967TIP3    H141842   5.602   2.115   5.708
13967TIP3    H241843   5.702   2.130   5.595
13968TIP3   OH241844   8.339   3.099   0.103
13968TIP3    H141845   8.330   3.188   0.069
13968TIP3    H241846   8.265   3.089   0.163
13969TIP3   OH241847   7.193   4.795   5.988
13969TIP3    H141848   7.206   4.849   6.066
13969TIP3    H241849   7.273   4.744   5.981
13970TIP3   OH241850   0.665   0.564   2.658
13970TIP3    H141851   0.598   0.632   2.648
13970TIP3    H241852   0.732   0.604   2.714
13971TIP3   OH241853   5.803   5.844   2.799
13971TIP3    H141854   5.754   5.824   2.720
13971TIP3    H241855   5.742   5.825   2.871
13972TIP3   OH241856   1.620   3.628   5.051
13972TIP3    H141857   1.689   3.659   5.109
13972TIP3    H241858   1.597   3.541   5.084
13973TIP3   OH241859   0.990   7.459   2.602
13973TIP3    H141860   0.956   7.496   2.683
13973TIP3    H241861   0.988   7.532   2.540
13974TIP3   OH241862   7.115   5.283   0.732
13974TIP3    H141863   7.153   5.196   0.720
13974TIP3    H241864   7.036   5.282   0.678
13975TIP3   OH241865   1.273   2.604   2.989
13975TIP3    H141866   1.246   2.593   3.080
13975TIP3    H241867   1.225   2.681   2.959
13976TIP3   OH241868   5.607   5.947   3.388
13976TIP3    H141869   5.654   5.876   3.432
13976TIP3    H241870   5.538   5.903   3.339
13977TIP3   OH241871   5.584   2.379   3.900
13977TIP3    H141872   5.578   2.316   3.971
13977TIP3    H241873   5.509   2.437   3.913
13978TIP3   OH241874   5.948   3.849   6.420
13978TIP3    H141875   6.040   3.876   6.425
13978TIP3    H241876   5.901   3.916   6.468
13979TIP3   OH241877   0.021   3.939   1.685
13979TIP3    H141878   0.017   3.844   1.673
13979TIP3    H241879   0.020   3.951   1.780
13980TIP3   OH241880   2.919   7.235   3.072
13980TIP3    H141881   2.971   7.315   3.072
13980TIP3    H241882   2.984   7.164   3.074
13981TIP3   OH241883   4.192   3.254   1.614
13981TIP3    H141884   4.200   3.158   1.609
13981TIP3    H241885   4.270   3.286   1.568
13982TIP3   OH241886   6.576   6.954   1.569
13982TIP3    H141887   6.625   7.008   1.631
13982TIP3    H241888   6.512   6.908   1.623
13983TIP3   OH241889   2.040   0.562   2.298
13983TIP3    H141890   2.007   0.643   2.261
13983TIP3    H241891   2.075   0.513   2.223
13984TIP3   OH241892   0.495   5.913   6.211
13984TIP3    H141893   0.485   6.007   6.196
13984TIP3    H241894   0.488   5.874   6.124
13985TIP3   OH241895   3.021   0.269   4.008
13985TIP3    H141896   3.045   0.362   4.013
13985TIP3    H241897   2.930   0.266   4.036
13986TIP3   OH241898   4.543   7.861   6.082
13986TIP3    H141899   4.501   7.775   6.080
13986TIP3    H241900   4.482   7.918   6.036
13987TIP3   OH241901   2.337   6.030   4.821
13987TIP3    H141902   2.275   5.968   4.784
13987TIP3    H241903   2.348   6.097   4.753
13988TIP3   OH241904   5.919   1.682   5.441
13988TIP3    H141905   5.962   1.596   5.436
13988TIP3    H241906   5.827   1.664   5.419
13989TIP3   OH241907   2.656   5.408   1.604
13989TIP3    H141908   2.683   5.459   1.528
13989TIP3    H241909   2.738   5.378   1.644
13990TIP3   OH241910   2.694   7.134   5.700
13990TIP3    H141911   2.619   7.193   5.693
13990TIP3    H241912   2.713   7.130   5.794
13991TIP3   OH241913   6.494   5.030   6.722
13991TIP3    H141914   6.410   5.004   6.761
13991TIP3    H241915   6.526   4.950   6.679
13992TIP3   OH241916   5.602   6.302   1.240
13992TIP3    H141917   5.532   6.321   1.303
13992TIP3    H241918   5.590   6.367   1.170
13993TIP3   OH241919   2.947   4.163   2.475
13993TIP3    H141920   2.883   4.191   2.409
13993TIP3    H241921   3.013   4.231   2.475
13994TIP3   OH241922   3.539   7.460   4.150
13994TIP3    H141923   3.593   7.402   4.204
13994TIP3    H241924   3.516   7.533   4.208
13995TIP3   OH241925   4.536   0.842   6.390
13995TIP3    H141926   4.526   0.766   6.333
13995TIP3    H241927   4.500   0.915   6.339
13996TIP3   OH241928   6.392   5.689   4.762
13996TIP3    H141929   6.314   5.672   4.710
13996TIP3    H241930   6.452   5.734   4.702
13997TIP3   OH241931   4.830   3.840   1.657
13997TIP3    H141932   4.882   3.897   1.600
13997TIP3    H241933   4.739   3.855   1.630
13998TIP3   OH241934   2.927   0.079   3.585
13998TIP3    H141935   2.993   0.130   3.632
13998TIP3    H241936   2.897   0.137   3.515
13999TIP3   OH241937   4.474   3.576   1.767
13999TIP3    H141938   4.567   3.577   1.744
13999TIP3    H241939   4.472   3.611   1.856
14000TIP3   OH241940   3.927   2.200   6.344
14000TIP3    H141941   3.851   2.238   6.389
14000TIP3    H241942   3.935   2.112   6.382
14001TIP3   OH241943   7.914   5.365   3.247
14001TIP3    H141944   7.882   5.348   3.336
14001TIP3    H241945   7.992   5.311   3.239
14002TIP3   OH241946   5.897   5.173   5.666
14002TIP3    H141947   5.848   5.149   5.745
14002TIP3    H241948   5.898   5.268   5.666
14003TIP3   OH241949   6.837   4.260   2.269
14003TIP3    H141950   6.812   4.212   2.348
14003TIP3    H241951   6.781   4.338   2.269
14004TIP3   OH241952   6.954   0.339   0.624
14004TIP3    H141953   6.877   0.329   0.567
14004TIP3    H241954   6.921   0.389   0.698
14005TIP3   OH241955   7.324   2.356   3.430
14005TIP3    H141956   7.347   2.424   3.367
14005TIP3    H241957   7.230   2.368   3.446
14006TIP3   OH241958   0.282   5.210   6.463
14006TIP3    H141959   0.286   5.205   6.367
14006TIP3    H241960   0.370   5.234   6.489
14007TIP3   OH241961   3.128   0.896   2.102
14007TIP3    H141962   3.148   0.979   2.146
14007TIP3    H241963   3.042   0.910   2.062
14008TIP3   OH241964   4.049   0.970   5.023
14008TIP3    H141965   4.036   0.930   5.109
14008TIP3    H241966   4.003   0.911   4.962
14009TIP3   OH241967   3.423   3.603   5.933
14009TIP3    H141968   3.414   3.698   5.924
14009TIP3    H241969   3.333   3.570   5.928
14010TIP3   OH241970   2.339   3.428   5.842
14010TIP3    H141971   2.281   3.352   5.834
14010TIP3    H241972   2.421   3.400   5.801
14011TIP3   OH241973   2.759   2.246   3.661
14011TIP3    H141974   2.821   2.249   3.589
14011TIP3    H241975   2.805   2.285   3.736
14012TIP3   OH241976   4.445   7.259   5.580
14012TIP3    H141977   4.504   7.185   5.596
14012TIP3    H241978   4.426   7.292   5.668
14013TIP3   OH241979   8.374   7.661   5.262
14013TIP3    H141980   8.378   7.717   5.185
14013TIP3    H241981   8.316   7.589   5.236
14014TIP3   OH241982   3.099   4.288   2.023
14014TIP3    H141983   3.182   4.242   2.032
14014TIP3    H241984   3.038   4.221   1.992
14015TIP3   OH241985   5.330   5.874   0.117
14015TIP3    H141986   5.319   5.914   0.031
14015TIP3    H241987   5.258   5.811   0.124
14016TIP3   OH241988   0.742   2.960   4.507
14016TIP3    H141989   0.731   2.867   4.528
14016TIP3    H241990   0.666   2.983   4.454
14017TIP3   OH241991   5.942   4.109   6.185
14017TIP3    H141992   6.015   4.083   6.243
14017TIP3    H241993   5.865   4.105   6.241
14018TIP3   OH241994   2.053   3.806   6.804
14018TIP3    H141995   2.002   3.883   6.828
14018TIP3    H241996   2.135   3.841   6.769
14019TIP3   OH241997   2.765   0.772   4.250
14019TIP3    H141998   2.688   0.795   4.303
14019TIP3    H241999   2.791   0.854   4.210
14020TIP3   OH242000   2.970   7.876   4.033
14020TIP3    H142001   3.059   7.880   3.999
14020TIP3    H242002   2.980   7.850   4.125
14021TIP3   OH242003   6.491   0.490   1.752
14021TIP3    H142004   6.476   0.401   1.721
14021TIP3    H242005   6.585   0.503   1.744
14022TIP3   OH242006   6.530   3.281   1.226
14022TIP3    H142007   6.493   3.194   1.212
14022TIP3    H242008   6.613   3.265   1.270
14023TIP3   OH242009   3.795   7.278   6.548
14023TIP3    H142010   3.832   7.242   6.628
14023TIP3    H242011   3.727   7.216   6.523
14024TIP3   OH242012   7.695   6.708   4.488
14024TIP3    H142013   7.662   6.773   4.426
14024TIP3    H242014   7.768   6.752   4.533
14025TIP3   OH242015   1.522   7.665   1.673
14025TIP3    H142016   1.579   7.607   1.623
14025TIP3    H242017   1.433   7.637   1.649
14026TIP3   OH242018   1.107   0.148   6.056
14026TIP3    H142019   1.128   0.095   6.133
14026TIP3    H242020   1.147   0.101   5.983
14027TIP3   OH242021   2.842   2.338   6.044
14027TIP3    H142022   2.916   2.390   6.013
14027TIP3    H242023   2.880   2.275   6.105
14028TIP3   OH242024   1.288   3.077   4.473
14028TIP3    H142025   1.200   3.050   4.449
14028TIP3    H242026   1.345   3.008   4.439
14029TIP3   OH242027   2.456   1.365   4.575
14029TIP3    H142028   2.386   1.430   4.565
14029TIP3    H242029   2.462   1.350   4.669
14030TIP3   OH242030   2.599   0.348   2.770
14030TIP3    H142031   2.545   0.408   2.720
14030TIP3    H242032   2.689   0.366   2.742
14031TIP3   OH242033   0.889   7.213   2.683
14031TIP3    H142034   0.799   7.246   2.679
14031TIP3    H242035   0.942   7.288   2.658
14032TIP3   OH242036   0.190   6.952   4.129
14032TIP3    H142037   0.235   6.893   4.068
14032TIP3    H242038   0.200   6.911   4.214
14033TIP3   OH242039   3.309   6.050   5.422
14033TIP3    H142040   3.328   5.978   5.362
14033TIP3    H242041   3.274   6.006   5.500
14034TIP3   OH242042   0.026   6.317   5.818
14034TIP3    H142043   0.034   6.406   5.784
14034TIP3    H242044  -0.014   6.268   5.746
14035TIP3   OH242045   5.853   3.427   3.376
14035TIP3    H142046   5.789   3.483   3.420
14035TIP3    H242047   5.904   3.388   3.447
14036TIP3   OH242048   4.661   7.304   4.352
14036TIP3    H142049   4.593   7.238   4.339
14036TIP3    H242050   4.636   7.350   4.432
14037TIP3   OH242051   4.880   4.465   6.579
14037TIP3    H142052   4.925   4.549   6.567
14037TIP3    H242053   4.804   4.469   6.521
14038TIP3   OH242054   8.357   1.936   1.669
14038TIP3    H142055   8.364   1.878   1.592
14038TIP3    H242056   8.296   1.890   1.727
14039TIP3   OH242057   6.600   5.865   5.489
14039TIP3    H142058   6.593   5.886   5.582
14039TIP3    H242059   6.693   5.875   5.469
14040TIP3   OH242060   2.058   3.470   3.339
14040TIP3    H142061   1.988   3.407   3.355
14040TIP3    H242062   2.013   3.548   3.306
14041TIP3   OH242063   6.043   7.557   2.515
14041TIP3    H142064   6.057   7.634   2.571
14041TIP3    H242065   5.949   7.555   2.500
14042TIP3   OH242066   2.419   6.238   4.623
14042TIP3    H142067   2.364   6.284   4.560
14042TIP3    H242068   2.507   6.244   4.586
14043TIP3   OH242069   7.081   2.630   0.153
14043TIP3    H142070   7.016   2.654   0.087
14043TIP3    H242071   7.109   2.714   0.191
14044TIP3   OH242072   5.759   3.097   5.406
14044TIP3    H142073   5.711   3.020   5.436
14044TIP3    H242074   5.739   3.164   5.471
14045TIP3   OH242075   2.759   5.672   1.507
14045TIP3    H142076   2.846   5.633   1.504
14045TIP3    H242077   2.771   5.755   1.552
14046TIP3   OH242078   8.012   2.435   2.319
14046TIP3    H142079   8.069   2.475   2.252
14046TIP3    H242080   8.068   2.369   2.361
14047TIP3   OH242081   8.384   0.291   1.460
14047TIP3    H142082   8.361   0.272   1.369
14047TIP3    H242083   8.311   0.256   1.511
14048TIP3   OH242084   8.055   7.111   1.530
14048TIP3    H142085   8.064   7.206   1.537
14048TIP3    H242086   7.972   7.091   1.574
14049TIP3   OH242087   3.251   4.028   2.419
14049TIP3    H142088   3.182   4.076   2.464
14049TIP3    H242089   3.230   4.039   2.326
14050TIP3   OH242090   5.715   1.259   4.863
14050TIP3    H142091   5.808   1.278   4.849
14050TIP3    H242092   5.669   1.336   4.830
14051TIP3   OH242093   3.315   6.039   1.293
14051TIP3    H142094   3.384   6.000   1.240
14051TIP3    H242095   3.254   5.968   1.310
14052TIP3   OH242096   5.934   1.194   3.021
14052TIP3    H142097   5.959   1.282   2.993
14052TIP3    H242098   5.840   1.188   3.000
14053TIP3   OH242099   1.292   6.686   1.171
14053TIP3    H142100   1.304   6.711   1.079
14053TIP3    H242101   1.295   6.769   1.219
14054TIP3   OH242102   5.017   0.872   3.260
14054TIP3    H142103   5.084   0.904   3.321
14054TIP3    H242104   4.934   0.897   3.300
14055TIP3   OH242105   3.482   0.312   5.914
14055TIP3    H142106   3.471   0.327   6.008
14055TIP3    H242107   3.424   0.238   5.895
14056TIP3   OH242108   6.123   4.787   5.133
14056TIP3    H142109   6.044   4.823   5.093
14056TIP3    H242110   6.112   4.803   5.227
14057TIP3   OH242111   7.734   6.656   0.548
14057TIP3    H142112   7.823   6.628   0.569
14057TIP3    H242113   7.706   6.595   0.480
14058TIP3   OH242114   7.307   3.337   2.503
14058TIP3    H142115   7.302   3.259   2.448
14058TIP3    H242116   7.273   3.408   2.447
14059TIP3   OH242117   1.098   0.933   1.501
14059TIP3    H142118   1.055   0.859   1.543
14059TIP3    H242119   1.180   0.897   1.468
14060TIP3   OH242120   0.037   7.056   3.909
14060TIP3    H142121   0.109   7.004   3.945
14060TIP3    H242122  -0.030   7.053   3.977
14061TIP3   OH242123   1.458   2.117   0.059
14061TIP3    H142124   1.466   2.024   0.041
14061TIP3    H242125   1.395   2.149  -0.006
14062TIP3   OH242126   4.213   6.065   3.839
14062TIP3    H142127   4.205   5.993   3.775
14062TIP3    H242128   4.307   6.084   3.842
14063TIP3   OH242129   6.701   1.316   3.354
14063TIP3    H142130   6.763   1.348   3.419
14063TIP3    H242131   6.679   1.392   3.301
14064TIP3   OH242132   6.709   0.487   2.352
14064TIP3    H142133   6.797   0.520   2.332
14064TIP3    H242134   6.654   0.565   2.348
14065TIP3   OH242135   6.088   6.277   0.676
14065TIP3    H142136   6.174   6.253   0.711
14065TIP3    H242137   6.060   6.351   0.730
14066TIP3   OH242138   6.816   7.474   2.150
14066TIP3    H142139   6.872   7.550   2.133
14066TIP3    H242140   6.728   7.510   2.157
14067TIP3   OH242141   6.378   3.220   2.200
14067TIP3    H142142   6.372   3.315   2.190
14067TIP3    H242143   6.333   3.185   2.124
14068TIP3   OH242144   3.377   2.041   4.666
14068TIP3    H142145   3.307   2.098   4.697
14068TIP3    H242146   3.382   1.971   4.732
14069TIP3   OH242147   2.194   7.423   1.985
14069TIP3    H142148   2.166   7.450   1.897
14069TIP3    H242149   2.289   7.418   1.979
14070TIP3   OH242150   1.015   2.577   6.522
14070TIP3    H142151   1.046   2.495   6.483
14070TIP3    H242152   1.032   2.567   6.615
14071TIP3   OH242153   0.527   2.195   6.515
14071TIP3    H142154   0.569   2.260   6.459
14071TIP3    H242155   0.494   2.128   6.454
14072TIP3   OH242156   4.475   1.023   1.636
14072TIP3    H142157   4.504   0.938   1.604
14072TIP3    H242158   4.544   1.084   1.610
14073TIP3   OH242159   6.245   1.235   2.858
14073TIP3    H142160   6.334   1.246   2.828
14073TIP3    H242161   6.190   1.272   2.788
14074TIP3   OH242162   4.928   4.401   4.069
14074TIP3    H142163   4.867   4.387   4.142
14074TIP3    H242164   5.003   4.345   4.090
14075TIP3   OH242165   7.210   3.977   1.362
14075TIP3    H142166   7.279   4.022   1.410
14075TIP3    H242167   7.240   3.886   1.356
14076TIP3   OH242168   5.594   4.315   6.744
14076TIP3    H142169   5.585   4.249   6.676
14076TIP3    H242170   5.590   4.398   6.697
14077TIP3   OH242171   7.389   7.244   3.676
14077TIP3    H142172   7.418   7.153   3.670
14077TIP3    H242173   7.313   7.242   3.735
14078TIP3   OH242174   2.458   6.443   1.895
14078TIP3    H142175   2.467   6.366   1.951
14078TIP3    H242176   2.402   6.414   1.823
14079TIP3   OH242177   3.817   1.726   2.554
14079TIP3    H142178   3.726   1.731   2.585
14079TIP3    H242179   3.855   1.653   2.603
14080TIP3   OH242180   6.967   3.813   1.275
14080TIP3    H142181   6.957   3.807   1.180
14080TIP3    H242182   7.055   3.849   1.288
14081TIP3   OH242183   6.371   0.458   0.204
14081TIP3    H142184   6.304   0.495   0.148
14081TIP3    H242185   6.384   0.369   0.170
14082TIP3   OH242186   4.562   4.126   0.756
14082TIP3    H142187   4.640   4.181   0.751
14082TIP3    H242188   4.594   4.037   0.743
14083TIP3   OH242189   2.897   5.201   0.689
14083TIP3    H142190   2.826   5.247   0.734
14083TIP3    H242191   2.975   5.223   0.740
14084TIP3   OH242192   2.549   5.309   6.607
14084TIP3    H142193   2.507   5.286   6.524
14084TIP3    H242194   2.637   5.271   6.601
14085TIP3   OH242195   7.380   6.755   6.317
14085TIP3    H142196   7.448   6.800   6.267
14085TIP3    H242197   7.305   6.752   6.258
14086TIP3   OH242198   5.794   6.152   6.491
14086TIP3    H142199   5.797   6.105   6.407
14086TIP3    H242200   5.872   6.122   6.538
14087TIP3   OH242201   2.163   5.882   4.690
14087TIP3    H142202   2.079   5.908   4.654
14087TIP3    H242203   2.203   5.828   4.621
14088TIP3   OH242204   2.948   4.703   1.389
14088TIP3    H142205   2.883   4.656   1.336
14088TIP3    H242206   3.025   4.646   1.388
14089TIP3   OH242207   6.233   3.983   6.063
14089TIP3    H142208   6.186   4.064   6.040
14089TIP3    H242209   6.201   3.918   6.000
14090TIP3   OH242210   4.317   3.412   4.504
14090TIP3    H142211   4.252   3.432   4.437
14090TIP3    H242212   4.304   3.479   4.571
14091TIP3   OH242213   5.996   4.798   4.104
14091TIP3    H142214   6.003   4.724   4.166
14091TIP3    H242215   6.069   4.856   4.128
14092TIP3   OH242216   3.160   3.811   6.461
14092TIP3    H142217   3.123   3.894   6.430
14092TIP3    H242218   3.230   3.837   6.521
14093TIP3   OH242219   5.813   6.296   1.709
14093TIP3    H142220   5.748   6.227   1.724
14093TIP3    H242221   5.773   6.375   1.746
14094TIP3   OH242222   6.093   1.699   4.552
14094TIP3    H142223   6.077   1.792   4.539
14094TIP3    H242224   6.160   1.695   4.620
14095TIP3   OH242225   3.987   3.199   4.894
14095TIP3    H142226   3.977   3.110   4.859
14095TIP3    H242227   3.898   3.225   4.919
14096TIP3   OH242228   5.090   5.068   0.998
14096TIP3    H142229   5.123   5.069   0.909
14096TIP3    H242230   4.997   5.088   0.990
14097TIP3   OH242231   2.751   0.691   1.711
14097TIP3    H142232   2.767   0.613   1.657
14097TIP3    H242233   2.658   0.686   1.733
14098TIP3   OH242234   6.952   6.058   2.929
14098TIP3    H142235   6.924   6.085   3.016
14098TIP3    H242236   7.047   6.072   2.929
14099TIP3   OH242237   8.148   0.633   4.661
14099TIP3    H142238   8.167   0.574   4.588
14099TIP3    H242239   8.212   0.611   4.728
14100TIP3   OH242240   7.388   7.164   4.881
14100TIP3    H142241   7.321   7.197   4.822
14100TIP3    H242242   7.350   7.086   4.921
14101TIP3   OH242243   6.390   1.307   2.048
14101TIP3    H142244   6.353   1.263   1.972
14101TIP3    H242245   6.477   1.269   2.058
14102TIP3   OH242246   1.194   2.924   4.142
14102TIP3    H142247   1.189   2.932   4.046
14102TIP3    H242248   1.195   2.830   4.158
14103TIP3   OH242249   3.332   1.291   3.500
14103TIP3    H142250   3.236   1.288   3.503
14103TIP3    H242251   3.352   1.307   3.407
14104TIP3   OH242252   1.091   1.096   3.290
14104TIP3    H142253   1.095   1.017   3.343
14104TIP3    H242254   1.001   1.126   3.299
14105TIP3   OH242255   1.091   1.539   1.648
14105TIP3    H142256   1.020   1.532   1.713
14105TIP3    H242257   1.129   1.451   1.645
14106TIP3   OH242258   3.388   5.436   6.146
14106TIP3    H142259   3.364   5.480   6.228
14106TIP3    H242260   3.305   5.413   6.105
14107TIP3   OH242261   5.667   5.056   0.398
14107TIP3    H142262   5.602   5.108   0.446
14107TIP3    H242263   5.683   4.980   0.454
14108TIP3   OH242264   1.397   3.438   2.398
14108TIP3    H142265   1.463   3.507   2.390
14108TIP3    H242266   1.385   3.406   2.308
14109TIP3   OH242267   4.315   0.946   5.759
14109TIP3    H142268   4.248   0.917   5.698
14109TIP3    H242269   4.363   0.866   5.781
14110TIP3   OH242270   0.180   2.134   2.626
14110TIP3    H142271   0.146   2.212   2.582
14110TIP3    H242272   0.245   2.099   2.565
14111TIP3   OH242273   7.821   2.621   6.373
14111TIP3    H142274   7.790   2.696   6.322
14111TIP3    H242275   7.823   2.653   6.463
14112TIP3   OH242276   5.974   5.537   2.825
14112TIP3    H142277   5.893   5.545   2.876
14112TIP3    H242278   6.043   5.546   2.890
14113TIP3   OH242279   5.749   2.938   3.515
14113TIP3    H142280   5.708   2.977   3.592
14113TIP3    H242281   5.675   2.913   3.459
14114TIP3   OH242282   8.307   2.348   2.734
14114TIP3    H142283   8.390   2.352   2.688
14114TIP3    H242284   8.246   2.307   2.672
14115TIP3   OH242285   4.993   4.406   1.999
14115TIP3    H142286   4.926   4.380   1.935
14115TIP3    H242287   5.070   4.424   1.945
14116TIP3   OH242288   6.167   2.269   5.877
14116TIP3    H142289   6.235   2.271   5.945
14116TIP3    H242290   6.130   2.357   5.878
14117TIP3   OH242291   5.119   2.061   3.341
14117TIP3    H142292   5.034   2.081   3.380
14117TIP3    H242293   5.176   2.044   3.416
14118TIP3   OH242294   3.240   6.416   5.239
14118TIP3    H142295   3.190   6.352   5.289
14118TIP3    H242296   3.177   6.485   5.218
14119TIP3   OH242297   6.064   0.860   6.292
14119TIP3    H142298   6.002   0.791   6.318
14119TIP3    H242299   6.049   0.930   6.355
14120TIP3   OH242300   2.003   6.813   4.177
14120TIP3    H142301   2.032   6.756   4.249
14120TIP3    H242302   1.914   6.784   4.158
14121TIP3   OH242303   4.623   5.763   3.193
14121TIP3    H142304   4.671   5.722   3.121
14121TIP3    H242305   4.531   5.758   3.167
14122TIP3   OH242306   5.228   7.036   3.374
14122TIP3    H142307   5.304   7.094   3.369
14122TIP3    H242308   5.200   7.041   3.466
14123TIP3   OH242309   3.793   5.988   0.447
14123TIP3    H142310   3.740   5.955   0.375
14123TIP3    H242311   3.846   5.913   0.474
14124TIP3   OH242312   4.953   7.562   4.902
14124TIP3    H142313   4.875   7.540   4.954
14124TIP3    H242314   4.929   7.644   4.857
14125TIP3   OH242315   7.613   6.510   0.890
14125TIP3    H142316   7.526   6.471   0.886
14125TIP3    H242317   7.617   6.568   0.815
14126TIP3   OH242318   4.867   1.197   6.167
14126TIP3    H142319   4.891   1.232   6.081
14126TIP3    H242320   4.938   1.224   6.225
14127TIP3   OH242321   4.521   1.356   1.074
14127TIP3    H142322   4.591   1.291   1.074
14127TIP3    H242323   4.441   1.305   1.083
14128TIP3   OH242324   7.025   6.606   4.486
14128TIP3    H142325   6.974   6.659   4.547
14128TIP3    H242326   7.065   6.669   4.426
14129TIP3   OH242327   4.528   7.664   5.424
14129TIP3    H142328   4.576   7.618   5.355
14129TIP3    H242329   4.580   7.743   5.440
14130TIP3   OH242330   7.104   4.339   6.740
14130TIP3    H142331   7.187   4.354   6.693
14130TIP3    H242332   7.060   4.271   6.689
14131TIP3   OH242333   6.912   0.134   1.471
14131TIP3    H142334   6.897   0.067   1.538
14131TIP3    H242335   6.885   0.093   1.389
14132TIP3   OH242336   4.119   4.429   5.835
14132TIP3    H142337   4.157   4.456   5.751
14132TIP3    H242338   4.139   4.501   5.895
14133TIP3   OH242339   5.280   5.310   5.123
14133TIP3    H142340   5.357   5.312   5.181
14133TIP3    H242341   5.282   5.222   5.084
14134TIP3   OH242342   1.678   2.141   2.927
14134TIP3    H142343   1.753   2.136   2.987
14134TIP3    H242344   1.675   2.233   2.900
14135TIP3   OH242345   2.234   2.572   4.810
14135TIP3    H142346   2.305   2.633   4.832
14135TIP3    H242347   2.168   2.627   4.768
14136TIP3   OH242348   6.943   1.847   0.651
14136TIP3    H142349   6.937   1.857   0.556
14136TIP3    H242350   6.979   1.930   0.682
14137TIP3   OH242351   3.479   3.965   5.294
14137TIP3    H142352   3.468   3.878   5.333
14137TIP3    H242353   3.401   3.978   5.240
14138TIP3   OH242354   1.557   3.746   2.355
14138TIP3    H142355   1.588   3.833   2.381
14138TIP3    H242356   1.625   3.713   2.296
14139TIP3   OH242357   5.985   3.114   1.963
14139TIP3    H142358   5.925   3.045   1.935
14139TIP3    H242359   6.054   3.068   2.011
14140TIP3   OH242360   1.708   4.166   3.163
14140TIP3    H142361   1.712   4.224   3.087
14140TIP3    H242362   1.749   4.085   3.133
14141TIP3   OH242363   4.442   7.871   5.668
14141TIP3    H142364   4.399   7.789   5.692
14141TIP3    H242365   4.536   7.853   5.681
14142TIP3   OH242366   5.663   0.770   6.488
14142TIP3    H142367   5.612   0.733   6.416
14142TIP3    H242368   5.697   0.694   6.535
14143TIP3   OH242369   2.341   1.104   3.821
14143TIP3    H142370   2.378   1.132   3.905
14143TIP3    H242371   2.350   1.009   3.822
14144TIP3   OH242372   7.921   6.260   5.490
14144TIP3    H142373   7.867   6.206   5.547
14144TIP3    H242374   7.983   6.199   5.450
14145TIP3   OH242375   2.928   5.986   0.860
14145TIP3    H142376   2.983   6.017   0.788
14145TIP3    H242377   2.843   6.026   0.843
14146TIP3   OH242378   8.158   5.681   1.328
14146TIP3    H142379   8.219   5.747   1.295
14146TIP3    H242380   8.136   5.628   1.251
14147TIP3   OH242381   5.073   3.726   0.463
14147TIP3    H142382   4.977   3.725   0.469
14147TIP3    H242383   5.091   3.749   0.372
14148TIP3   OH242384   5.707   5.353   1.492
14148TIP3    H142385   5.685   5.261   1.479
14148TIP3    H242386   5.772   5.353   1.562
14149TIP3   OH242387   5.180   0.011   3.814
14149TIP3    H142388   5.214   0.027   3.902
14149TIP3    H242389   5.244  -0.048   3.774
14150TIP3   OH242390   7.594   1.787   2.040
14150TIP3    H142391   7.573   1.703   2.082
14150TIP3    H242392   7.578   1.852   2.108
14151TIP3   OH242393   2.308   0.269   5.658
14151TIP3    H142394   2.237   0.317   5.702
14151TIP3    H242395   2.362   0.338   5.618
14152TIP3   OH242396   7.517   4.748   3.485
14152TIP3    H142397   7.448   4.700   3.530
14152TIP3    H242398   7.596   4.697   3.503
14153TIP3   OH242399   3.431   5.161   2.513
14153TIP3    H142400   3.386   5.246   2.510
14153TIP3    H242401   3.419   5.125   2.426
14154TIP3   OH242402   6.406   1.195   0.466
14154TIP3    H142403   6.381   1.127   0.529
14154TIP3    H242404   6.324   1.239   0.445
14155TIP3   OH242405   5.329   3.570   4.414
14155TIP3    H142406   5.343   3.664   4.399
14155TIP3    H242407   5.236   3.564   4.436
14156TIP3   OH242408   3.801   7.223   3.283
14156TIP3    H142409   3.793   7.153   3.348
14156TIP3    H242410   3.774   7.302   3.330
14157TIP3   OH242411   2.023   5.085   1.572
14157TIP3    H142412   1.952   5.021   1.560
14157TIP3    H242413   2.041   5.118   1.484
14158TIP3   OH242414   3.746   2.667   0.506
14158TIP3    H142415   3.821   2.663   0.447
14158TIP3    H242416   3.743   2.759   0.533
14159TIP3   OH242417   4.311   0.810   1.466
14159TIP3    H142418   4.353   0.896   1.471
14159TIP3    H242419   4.359   0.757   1.530
14160TIP3   OH242420   4.337   1.009   3.184
14160TIP3    H142421   4.359   0.917   3.202
14160TIP3    H242422   4.255   1.004   3.135
14161TIP3   OH242423   7.683   6.572   2.626
14161TIP3    H142424   7.733   6.645   2.590
14161TIP3    H242425   7.721   6.494   2.585
14162TIP3   OH242426   1.766   3.358   0.780
14162TIP3    H142427   1.718   3.438   0.757
14162TIP3    H242428   1.833   3.351   0.712
14163TIP3   OH242429   5.872   7.147   1.080
14163TIP3    H142430   5.787   7.189   1.070
14163TIP3    H242431   5.867   7.100   1.163
14164TIP3   OH242432   5.371   5.851   6.786
14164TIP3    H142433   5.312   5.885   6.719
14164TIP3    H242434   5.454   5.894   6.769
14165TIP3   OH242435   2.227   7.378   5.205
14165TIP3    H142436   2.193   7.467   5.196
14165TIP3    H242437   2.313   7.390   5.246
14166TIP3   OH242438   2.311   7.878   5.034
14166TIP3    H142439   2.384   7.939   5.045
14166TIP3    H242440   2.254   7.920   4.969
14167TIP3   OH242441   0.081   4.584   2.502
14167TIP3    H142442  -0.015   4.588   2.510
14167TIP3    H242443   0.108   4.676   2.501
14168TIP3   OH242444   3.741   3.716   2.798
14168TIP3    H142445   3.663   3.748   2.842
14168TIP3    H242446   3.727   3.736   2.705
14169TIP3   OH242447   6.769   4.177   5.248
14169TIP3    H142448   6.821   4.228   5.311
14169TIP3    H242449   6.759   4.091   5.289
14170TIP3   OH242450   0.534   1.990   2.355
14170TIP3    H142451   0.573   1.978   2.268
14170TIP3    H242452   0.581   2.065   2.392
14171TIP3   OH242453   6.824   2.019   3.846
14171TIP3    H142454   6.852   2.074   3.919
14171TIP3    H242455   6.763   2.073   3.797
14172TIP3   OH242456   4.016   7.745   6.485
14172TIP3    H142457   4.024   7.727   6.391
14172TIP3    H242458   4.000   7.660   6.525
14173TIP3   OH242459   6.440   7.225   2.441
14173TIP3    H142460   6.531   7.201   2.457
14173TIP3    H242461   6.423   7.195   2.352
14174TIP3   OH242462   2.639   5.482   5.434
14174TIP3    H142463   2.568   5.435   5.391
14174TIP3    H242464   2.679   5.418   5.493
14175TIP3   OH242465   3.298   6.837   1.333
14175TIP3    H142466   3.311   6.757   1.383
14175TIP3    H242467   3.318   6.812   1.243
14176TIP3   OH242468   4.537   2.277   2.035
14176TIP3    H142469   4.595   2.216   1.989
14176TIP3    H242470   4.467   2.222   2.070
14177TIP3   OH242471   1.044   0.767   4.080
14177TIP3    H142472   1.137   0.790   4.088
14177TIP3    H242473   1.023   0.724   4.164
14178TIP3   OH242474   4.875   2.615   0.881
14178TIP3    H142475   4.864   2.530   0.923
14178TIP3    H242476   4.880   2.595   0.788
14179TIP3   OH242477   1.749   4.044   5.569
14179TIP3    H142478   1.663   4.080   5.591
14179TIP3    H242479   1.807   4.121   5.568
14180TIP3   OH242480   3.643   4.099   3.791
14180TIP3    H142481   3.611   4.178   3.835
14180TIP3    H242482   3.672   4.130   3.705
14181TIP3   OH242483   3.637   5.567   6.105
14181TIP3    H142484   3.665   5.531   6.189
14181TIP3    H242485   3.542   5.555   6.105
14182TIP3   OH242486   2.363   5.218   0.548
14182TIP3    H142487   2.431   5.176   0.496
14182TIP3    H242488   2.358   5.164   0.628
14183TIP3   OH242489   8.360   5.277   4.023
14183TIP3    H142490   8.329   5.236   4.104
14183TIP3    H242491   8.347   5.209   3.956
14184TIP3   OH242492   7.673   2.174   0.888
14184TIP3    H142493   7.733   2.128   0.946
14184TIP3    H242494   7.588   2.168   0.932
14185TIP3   OH242495   3.154   2.851   0.743
14185TIP3    H142496   3.109   2.906   0.807
14185TIP3    H242497   3.230   2.902   0.716
14186TIP3   OH242498   7.937   2.234   5.259
14186TIP3    H142499   7.987   2.309   5.226
14186TIP3    H242500   7.996   2.191   5.321
14187TIP3   OH242501   5.269   6.157   2.311
14187TIP3    H142502   5.253   6.235   2.364
14187TIP3    H242503   5.261   6.084   2.373
14188TIP3   OH242504   5.480   0.560   6.295
14188TIP3    H142505   5.496   0.466   6.300
14188TIP3    H242506   5.417   0.578   6.365
14189TIP3   OH242507   4.749   5.750   1.084
14189TIP3    H142508   4.753   5.834   1.038
14189TIP3    H242509   4.722   5.774   1.173
14190TIP3   OH242510   3.920   5.746   2.890
14190TIP3    H142511   4.015   5.746   2.898
14190TIP3    H242512   3.902   5.801   2.813
14191TIP3   OH242513   8.016   0.033   5.033
14191TIP3    H142514   8.081   0.099   5.008
14191TIP3    H242515   8.039  -0.044   4.980
14192TIP3   OH242516   0.874   0.691   3.597
14192TIP3    H142517   0.793   0.739   3.614
14192TIP3    H242518   0.913   0.738   3.523
14193TIP3   OH242519   5.614   2.985   4.803
14193TIP3    H142520   5.686   2.923   4.798
14193TIP3    H242521   5.649   3.067   4.768
14194TIP3   OH242522   3.918   2.621   5.766
14194TIP3    H142523   3.843   2.679   5.774
14194TIP3    H242524   3.884   2.544   5.721
14195TIP3   OH242525   1.617   0.364   1.748
14195TIP3    H142526   1.684   0.331   1.688
14195TIP3    H242527   1.539   0.374   1.694
14196TIP3   OH242528   7.476   5.404   1.696
14196TIP3    H142529   7.491   5.312   1.719
14196TIP3    H242530   7.501   5.453   1.774
14197TIP3   OH242531   6.355   0.217   4.896
14197TIP3    H142532   6.392   0.166   4.823
14197TIP3    H242533   6.295   0.279   4.854
14198TIP3   OH242534   7.343   3.687   0.275
14198TIP3    H142535   7.406   3.617   0.261
14198TIP3    H242536   7.321   3.682   0.368
14199TIP3   OH242537   6.712   5.844   0.344
14199TIP3    H142538   6.774   5.873   0.277
14199TIP3    H242539   6.731   5.751   0.356
14200TIP3   OH242540   4.286   6.150   0.045
14200TIP3    H142541   4.374   6.113   0.037
14200TIP3    H242542   4.291   6.207   0.122
14201TIP3   OH242543   0.522   7.348   0.444
14201TIP3    H142544   0.550   7.430   0.484
14201TIP3    H242545   0.559   7.280   0.500
14202TIP3   OH242546   6.388   7.814   6.324
14202TIP3    H142547   6.458   7.768   6.278
14202TIP3    H242548   6.309   7.794   6.274
14203TIP3   OH242549   7.247   3.406   5.635
14203TIP3    H142550   7.261   3.323   5.592
14203TIP3    H242551   7.276   3.392   5.725
14204TIP3   OH242552   2.361   0.336   4.016
14204TIP3    H142553   2.272   0.361   3.991
14204TIP3    H242554   2.401   0.417   4.049
14205TIP3   OH242555   0.480   3.230   1.840
14205TIP3    H142556   0.527   3.265   1.915
14205TIP3    H242557   0.539   3.245   1.766
14206TIP3   OH242558   0.780   1.362   3.837
14206TIP3    H142559   0.686   1.373   3.852
14206TIP3    H242560   0.806   1.439   3.787
14207TIP3   OH242561   1.955   7.411   1.424
14207TIP3    H142562   1.994   7.499   1.426
14207TIP3    H242563   1.956   7.387   1.332
14208TIP3   OH242564   0.078   3.863   3.609
14208TIP3    H142565   0.042   3.866   3.521
14208TIP3    H242566   0.094   3.769   3.625
14209TIP3   OH242567   3.029   3.330   1.805
14209TIP3    H142568   2.980   3.283   1.872
14209TIP3    H242569   3.006   3.285   1.723
14210TIP3   OH242570   5.406   6.587   4.157
14210TIP3    H142571   5.407   6.584   4.253
14210TIP3    H242572   5.438   6.675   4.136
14211TIP3   OH242573   3.290   0.641   6.732
14211TIP3    H142574   3.330   0.715   6.778
14211TIP3    H242575   3.216   0.680   6.684
14212TIP3   OH242576   1.712   0.539   1.248
14212TIP3    H142577   1.644   0.567   1.309
14212TIP3    H242578   1.697   0.592   1.169
14213TIP3   OH242579   2.925   6.757   5.687
14213TIP3    H142580   2.865   6.814   5.639
14213TIP3    H242581   2.876   6.732   5.765
14214TIP3   OH242582   8.282   7.029   4.145
14214TIP3    H142583   8.188   7.014   4.137
14214TIP3    H242584   8.298   7.029   4.240
14215TIP3   OH242585   5.529   4.057   0.789
14215TIP3    H142586   5.522   4.152   0.798
14215TIP3    H242587   5.588   4.031   0.860
14216TIP3   OH242588   5.901   3.121   6.332
14216TIP3    H142589   5.974   3.064   6.358
14216TIP3    H242590   5.853   3.137   6.414
14217TIP3   OH242591   4.414   1.579   5.805
14217TIP3    H142592   4.455   1.665   5.811
14217TIP3    H242593   4.420   1.556   5.712
14218TIP3   OH242594   2.117   2.023   5.041
14218TIP3    H142595   2.108   2.085   5.113
14218TIP3    H242596   2.086   1.940   5.077
14219TIP3   OH242597   4.610   7.318   1.870
14219TIP3    H142598   4.697   7.354   1.857
14219TIP3    H242599   4.570   7.374   1.937
14220TIP3   OH242600   3.912   0.772   1.433
14220TIP3    H142601   3.989   0.759   1.377
14220TIP3    H242602   3.838   0.752   1.376
14221TIP3   OH242603   3.293   0.431   5.307
14221TIP3    H142604   3.353   0.498   5.273
14221TIP3    H242605   3.221   0.429   5.244
14222TIP3   OH242606   5.695   0.261   1.371
14222TIP3    H142607   5.645   0.217   1.303
14222TIP3    H242608   5.631   0.282   1.439
14223TIP3   OH242609   5.232   3.689   6.182
14223TIP3    H142610   5.192   3.639   6.254
14223TIP3    H242611   5.322   3.705   6.211
14224TIP3   OH242612   4.377   5.506   4.428
14224TIP3    H142613   4.444   5.526   4.493
14224TIP3    H242614   4.426   5.484   4.349
14225TIP3   OH242615   4.859   5.861   5.389
14225TIP3    H142616   4.926   5.928   5.400
14225TIP3    H242617   4.905   5.778   5.404
14226TIP3   OH242618   0.942   1.760   2.661
14226TIP3    H142619   0.883   1.713   2.602
14226TIP3    H242620   1.019   1.705   2.667
14227TIP3   OH242621   2.314   6.781   6.787
14227TIP3    H142622   2.266   6.826   6.856
14227TIP3    H242623   2.254   6.713   6.757
14228TIP3   OH242624   6.759   3.538   4.456
14228TIP3    H142625   6.843   3.580   4.439
14228TIP3    H242626   6.718   3.592   4.524
14229TIP3   OH242627   4.663   3.516   3.639
14229TIP3    H142628   4.576   3.482   3.616
14229TIP3    H242629   4.665   3.604   3.602
14230TIP3   OH242630   5.792   6.711   3.595
14230TIP3    H142631   5.777   6.635   3.539
14230TIP3    H242632   5.732   6.778   3.562
14231TIP3   OH242633   0.081   1.225   2.721
14231TIP3    H142634   0.138   1.227   2.644
14231TIP3    H242635   0.140   1.241   2.795
14232TIP3   OH242636   4.449   4.429   3.027
14232TIP3    H142637   4.411   4.388   2.949
14232TIP3    H242638   4.378   4.426   3.092
14233TIP3   OH242639   1.124   3.956   6.763
14233TIP3    H142640   1.167   4.008   6.831
14233TIP3    H242641   1.092   4.021   6.700
14234TIP3   OH242642   2.423   3.407   4.060
14234TIP3    H142643   2.422   3.443   3.972
14234TIP3    H242644   2.334   3.421   4.093
14235TIP3   OH242645   7.478   1.844   5.494
14235TIP3    H142646   7.407   1.787   5.522
14235TIP3    H242647   7.502   1.811   5.407
14236TIP3   OH242648   7.978   7.562   3.155
14236TIP3    H142649   7.897   7.582   3.108
14236TIP3    H242650   7.948   7.535   3.242
14237TIP3   OH242651   3.143   7.835   1.247
14237TIP3    H142652   3.200   7.763   1.220
14237TIP3    H242653   3.146   7.897   1.174
14238TIP3   OH242654   6.739   1.362   2.235
14238TIP3    H142655   6.821   1.374   2.186
14238TIP3    H242656   6.703   1.281   2.200
14239TIP3   OH242657   0.702   6.662   4.198
14239TIP3    H142658   0.667   6.703   4.119
14239TIP3    H242659   0.777   6.716   4.222
14240TIP3   OH242660   7.955   3.253   4.444
14240TIP3    H142661   7.929   3.222   4.357
14240TIP3    H242662   7.993   3.339   4.428
14241TIP3   OH242663   8.252   7.634   1.039
14241TIP3    H142664   8.320   7.612   1.102
14241TIP3    H242665   8.255   7.730   1.034
14242TIP3   OH242666   0.552   5.314   5.961
14242TIP3    H142667   0.490   5.256   5.917
14242TIP3    H242668   0.624   5.257   5.988
14243TIP3   OH242669   0.163   1.818   1.919
14243TIP3    H142670   0.121   1.898   1.949
14243TIP3    H242671   0.106   1.747   1.949
14244TIP3   OH242672   0.376   6.679   0.019
14244TIP3    H142673   0.339   6.602   0.061
14244TIP3    H242674   0.300   6.722  -0.022
14245TIP3   OH242675   7.150   1.088   0.839
14245TIP3    H142676   7.175   1.123   0.754
14245TIP3    H242677   7.080   1.025   0.819
14246TIP3   OH242678   1.438   5.525   0.760
14246TIP3    H142679   1.525   5.485   0.765
14246TIP3    H242680   1.430   5.554   0.669
14247TIP3   OH242681   3.098   7.374   2.404
14247TIP3    H142682   3.032   7.385   2.473
14247TIP3    H242683   3.109   7.461   2.366
14248TIP3   OH242684   4.446   1.563   5.267
14248TIP3    H142685   4.400   1.527   5.191
14248TIP3    H242686   4.508   1.625   5.229
14249TIP3   OH242687   8.143   3.401   5.125
14249TIP3    H142688   8.169   3.469   5.188
14249TIP3    H242689   8.197   3.418   5.048
14250TIP3   OH242690   8.058   2.978   6.268
14250TIP3    H142691   8.098   3.042   6.328
14250TIP3    H242692   7.967   2.972   6.297
14251TIP3   OH242693   0.221   6.690   4.683
14251TIP3    H142694   0.274   6.653   4.753
14251TIP3    H242695   0.133   6.655   4.698
14252TIP3   OH242696   7.596   2.067   4.098
14252TIP3    H142697   7.688   2.044   4.108
14252TIP3    H242698   7.551   1.982   4.089
14253TIP3   OH242699   0.692   2.425   0.015
14253TIP3    H142700   0.657   2.512   0.000
14253TIP3    H242701   0.739   2.431   0.098
14254TIP3   OH242702   4.177   4.547   6.359
14254TIP3    H142703   4.235   4.482   6.320
14254TIP3    H242704   4.110   4.563   6.293
14255TIP3   OH242705   5.249   4.782   2.748
14255TIP3    H142706   5.329   4.834   2.745
14255TIP3    H242707   5.277   4.695   2.777
14256TIP3   OH242708   6.529   4.054   4.339
14256TIP3    H142709   6.495   4.045   4.250
14256TIP3    H242710   6.472   3.999   4.393
14257TIP3   OH242711   0.273   1.657   4.902
14257TIP3    H142712   0.271   1.588   4.969
14257TIP3    H242713   0.352   1.640   4.852
14258TIP3   OH242714   8.223   0.023   4.759
14258TIP3    H142715   8.162  -0.049   4.742
14258TIP3    H242716   8.294  -0.017   4.809
14259TIP3   OH242717   4.679   7.354   5.423
14259TIP3    H142718   4.714   7.429   5.471
14259TIP3    H242719   4.592   7.340   5.461
14260TIP3   OH242720   2.767   5.186   5.237
14260TIP3    H142721   2.720   5.202   5.319
14260TIP3    H242722   2.858   5.210   5.256
14261TIP3   OH242723   7.996   3.462   5.767
14261TIP3    H142724   7.945   3.393   5.725
14261TIP3    H242725   8.008   3.528   5.699
14262TIP3   OH242726   7.299   3.187   4.755
14262TIP3    H142727   7.368   3.239   4.714
14262TIP3    H242728   7.266   3.242   4.825
14263TIP3   OH242729   4.206   7.570   2.148
14263TIP3    H142730   4.182   7.482   2.118
14263TIP3    H242731   4.229   7.558   2.240
14264TIP3   OH242732   8.096   0.513   2.461
14264TIP3    H142733   8.050   0.450   2.405
14264TIP3    H242734   8.093   0.595   2.413
14265TIP3   OH242735   8.007   6.093   4.644
14265TIP3    H142736   7.947   6.122   4.712
14265TIP3    H242737   8.045   6.012   4.679
14266TIP3   OH242738   2.235   3.207   3.573
14266TIP3    H142739   2.193   3.157   3.503
14266TIP3    H242740   2.169   3.210   3.643
14267TIP3   OH242741   4.654   5.887   4.724
14267TIP3    H142742   4.623   5.806   4.766
14267TIP3    H242743   4.693   5.938   4.795
14268TIP3   OH242744   7.665   3.813   0.424
14268TIP3    H142745   7.717   3.805   0.344
14268TIP3    H242746   7.699   3.745   0.482
14269TIP3   OH242747   0.390   3.790   3.669
14269TIP3    H142748   0.484   3.797   3.687
14269TIP3    H242749   0.373   3.861   3.607
14270TIP3   OH242750   5.652   2.139   4.438
14270TIP3    H142751   5.621   2.180   4.519
14270TIP3    H242752   5.666   2.048   4.461
14271TIP3   OH242753   2.720   3.225   0.603
14271TIP3    H142754   2.728   3.296   0.667
14271TIP3    H242755   2.676   3.265   0.528
14272TIP3   OH242756   0.702   3.481   1.810
14272TIP3    H142757   0.720   3.435   1.728
14272TIP3    H242758   0.696   3.411   1.876
14273TIP3   OH242759   8.172   7.492   5.116
14273TIP3    H142760   8.088   7.522   5.079
14273TIP3    H242761   8.148   7.419   5.172
14274TIP3   OH242762   3.807   2.084   2.238
14274TIP3    H142763   3.757   2.107   2.160
14274TIP3    H242764   3.741   2.063   2.304
14275TIP3   OH242765   3.179   7.294   3.273
14275TIP3    H142766   3.262   7.282   3.226
14275TIP3    H242767   3.167   7.213   3.322
14276TIP3   OH242768   7.822   6.655   2.181
14276TIP3    H142769   7.870   6.623   2.104
14276TIP3    H242770   7.796   6.575   2.228
14277TIP3   OH242771   1.780   5.992   3.371
14277TIP3    H142772   1.736   6.055   3.314
14277TIP3    H242773   1.789   5.913   3.318
14278TIP3   OH242774   3.261   1.600   5.077
14278TIP3    H142775   3.220   1.647   5.150
14278TIP3    H242776   3.353   1.595   5.100
14279TIP3   OH242777   1.903   7.053   6.820
14279TIP3    H142778   1.985   7.078   6.863
14279TIP3    H242779   1.904   6.957   6.821
14280TIP3   OH242780   0.412   3.104   6.850
14280TIP3    H142781   0.420   3.018   6.809
14280TIP3    H242782   0.484   3.155   6.812
14281TIP3   OH242783   6.657   0.440   4.093
14281TIP3    H142784   6.681   0.382   4.021
14281TIP3    H242785   6.740   0.472   4.126
14282TIP3   OH242786   5.141   3.983   2.824
14282TIP3    H142787   5.224   4.028   2.812
14282TIP3    H242788   5.138   3.917   2.755
14283TIP3   OH242789   7.463   5.208   4.110
14283TIP3    H142790   7.525   5.136   4.097
14283TIP3    H242791   7.414   5.185   4.189
14284TIP3   OH242792   5.909   1.005   6.066
14284TIP3    H142793   5.959   1.046   6.137
14284TIP3    H242794   5.921   0.911   6.080
14285TIP3   OH242795   3.559   0.976   5.836
14285TIP3    H142796   3.636   0.920   5.832
14285TIP3    H242797   3.571   1.028   5.916
14286TIP3   OH242798   1.590   1.818   3.700
14286TIP3    H142799   1.506   1.859   3.678
14286TIP3    H242800   1.633   1.880   3.758
14287TIP3   OH242801   2.110   7.324   0.381
14287TIP3    H142802   2.036   7.283   0.336
14287TIP3    H242803   2.151   7.380   0.314
14288TIP3   OH242804   5.324   0.146   5.008
14288TIP3    H142805   5.372   0.227   5.022
14288TIP3    H242806   5.349   0.117   4.921
14289TIP3   OH242807   2.352   2.895   2.021
14289TIP3    H142808   2.405   2.852   1.953
14289TIP3    H242809   2.376   2.849   2.101
14290TIP3   OH242810   0.180   7.243   5.193
14290TIP3    H142811   0.268   7.278   5.209
14290TIP3    H242812   0.130   7.269   5.270
14291TIP3   OH242813   5.289   4.903   5.936
14291TIP3    H142814   5.311   4.993   5.911
14291TIP3    H242815   5.366   4.871   5.981
14292TIP3   OH242816   1.682   2.985   3.196
14292TIP3    H142817   1.675   2.974   3.101
14292TIP3    H242818   1.728   2.907   3.227
14293TIP3   OH242819   3.656   1.278   3.238
14293TIP3    H142820   3.687   1.346   3.298
14293TIP3    H242821   3.727   1.268   3.174
14294TIP3   OH242822   2.136   1.765   3.839
14294TIP3    H142823   2.135   1.675   3.872
14294TIP3    H242824   2.187   1.761   3.758
14295TIP3   OH242825   5.165   3.422   4.157
14295TIP3    H142826   5.135   3.505   4.195
14295TIP3    H242827   5.240   3.447   4.102
14296TIP3   OH242828   6.282   1.504   5.624
14296TIP3    H142829   6.285   1.572   5.692
14296TIP3    H242830   6.189   1.496   5.604
14297TIP3   OH242831   5.437   1.272   3.655
14297TIP3    H142832   5.503   1.267   3.586
14297TIP3    H242833   5.413   1.364   3.659
14298TIP3   OH242834   3.035   0.796   0.650
14298TIP3    H142835   2.940   0.794   0.661
14298TIP3    H242836   3.061   0.882   0.683
14299TIP3   OH242837   6.241   4.584   6.350
14299TIP3    H142838   6.150   4.591   6.321
14299TIP3    H242839   6.275   4.509   6.301
14300TIP3   OH242840   1.246   3.475   6.545
14300TIP3    H142841   1.321   3.451   6.599
14300TIP3    H242842   1.234   3.569   6.560
14301TIP3   OH242843   7.356   1.467   2.169
14301TIP3    H142844   7.267   1.491   2.192
14301TIP3    H242845   7.350   1.377   2.139
14302TIP3   OH242846   7.888   2.892   0.773
14302TIP3    H142847   7.981   2.883   0.753
14302TIP3    H242848   7.844   2.852   0.698
14303TIP3   OH242849   1.706   0.265   1.123
14303TIP3    H142850   1.616   0.271   1.093
14303TIP3    H242851   1.730   0.355   1.146
14304TIP3   OH242852   0.201   7.305   3.837
14304TIP3    H142853   0.185   7.399   3.843
14304TIP3    H242854   0.296   7.296   3.843
14305TIP3   OH242855   5.989   5.091   1.450
14305TIP3    H142856   6.050   5.148   1.404
14305TIP3    H242857   5.955   5.145   1.522
14306TIP3   OH242858   6.487   6.621   6.719
14306TIP3    H142859   6.537   6.540   6.712
14306TIP3    H242860   6.540   6.686   6.673
14307TIP3   OH242861   5.328   5.366   4.593
14307TIP3    H142862   5.247   5.405   4.624
14307TIP3    H242863   5.330   5.384   4.499
14308TIP3   OH242864   0.703   7.853   3.327
14308TIP3    H142865   0.749   7.800   3.262
14308TIP3    H242866   0.693   7.795   3.403
14309TIP3   OH242867   5.693   1.652   4.060
14309TIP3    H142868   5.782   1.668   4.091
14309TIP3    H242869   5.668   1.734   4.016
14310TIP3   OH242870   2.992   7.141   1.727
14310TIP3    H142871   2.956   7.183   1.649
14310TIP3    H242872   3.076   7.105   1.698
14311TIP3   OH242873   1.564   6.193   5.969
14311TIP3    H142874   1.547   6.237   6.052
14311TIP3    H242875   1.658   6.171   5.972
14312TIP3   OH242876   0.661   7.743   0.230
14312TIP3    H142877   0.702   7.721   0.146
14312TIP3    H242878   0.586   7.797   0.207
14313TIP3   OH242879   4.551   2.741   1.735
14313TIP3    H142880   4.532   2.757   1.643
14313TIP3    H242881   4.570   2.647   1.740
14314TIP3   OH242882   4.544   5.460   5.952
14314TIP3    H142883   4.479   5.390   5.956
14314TIP3    H242884   4.621   5.419   5.914
14315TIP3   OH242885   2.268   3.938   3.934
14315TIP3    H142886   2.329   3.877   3.892
14315TIP3    H242887   2.185   3.891   3.936
14316TIP3   OH242888   7.711   5.841   4.103
14316TIP3    H142889   7.706   5.747   4.122
14316TIP3    H242890   7.634   5.878   4.146
14317TIP3   OH242891   6.705   1.577   0.527
14317TIP3    H142892   6.659   1.495   0.511
14317TIP3    H242893   6.696   1.592   0.621
14318TIP3   OH242894   1.935   7.745   2.712
14318TIP3    H142895   1.929   7.838   2.735
14318TIP3    H242896   1.985   7.744   2.630
14319TIP3   OH242897   1.980   5.433   3.224
14319TIP3    H142898   1.953   5.343   3.210
14319TIP3    H242899   2.075   5.430   3.224
14320TIP3   OH242900   4.167   6.992   1.614
14320TIP3    H142901   4.249   6.945   1.623
14320TIP3    H242902   4.132   6.999   1.703
14321TIP3   OH242903   3.786   7.451   2.227
14321TIP3    H142904   3.810   7.516   2.293
14321TIP3    H242905   3.828   7.370   2.257
14322TIP3   OH242906   1.051   3.813   0.610
14322TIP3    H142907   1.033   3.755   0.684
14322TIP3    H242908   1.008   3.895   0.633
14323TIP3   OH242909   4.433   7.153   0.879
14323TIP3    H142910   4.525   7.137   0.854
14323TIP3    H242911   4.434   7.241   0.916
14324TIP3   OH242912   4.678   1.450   6.302
14324TIP3    H142913   4.695   1.431   6.210
14324TIP3    H242914   4.765   1.455   6.342
14325TIP3   OH242915   4.529   6.303   6.663
14325TIP3    H142916   4.502   6.300   6.571
14325TIP3    H242917   4.580   6.223   6.676
14326TIP3   OH242918   0.941   5.631   5.330
14326TIP3    H142919   0.902   5.563   5.386
14326TIP3    H242920   0.973   5.583   5.254
14327TIP3   OH242921   0.388   6.061   2.854
14327TIP3    H142922   0.336   5.987   2.823
14327TIP3    H242923   0.323   6.129   2.873
14328TIP3   OH242924   4.003   7.031   1.850
14328TIP3    H142925   3.966   7.008   1.935
14328TIP3    H242926   4.055   7.109   1.866
14329TIP3   OH242927   4.855   1.918   3.385
14329TIP3    H142928   4.837   2.005   3.349
14329TIP3    H242929   4.944   1.897   3.356
14330TIP3   OH242930   3.242   5.318   5.237
14330TIP3    H142931   3.303   5.250   5.212
14330TIP3    H242932   3.192   5.336   5.158
14331TIP3   OH242933   5.377   7.083   5.001
14331TIP3    H142934   5.471   7.068   5.013
14331TIP3    H242935   5.341   7.078   5.090
14332TIP3   OH242936   4.514   3.085   5.047
14332TIP3    H142937   4.523   3.045   5.133
14332TIP3    H242938   4.457   3.025   4.998
14333TIP3   OH242939   3.634   0.364   3.310
14333TIP3    H142940   3.714   0.319   3.335
14333TIP3    H242941   3.574   0.294   3.286
14334TIP3   OH242942   2.451   7.230   1.898
14334TIP3    H142943   2.461   7.184   1.815
14334TIP3    H242944   2.418   7.164   1.958
14335TIP3   OH242945   4.069   0.290   1.687
14335TIP3    H142946   3.983   0.299   1.727
14335TIP3    H242947   4.091   0.198   1.699
14336TIP3   OH242948   3.415   1.466   0.463
14336TIP3    H142949   3.477   1.404   0.424
14336TIP3    H242950   3.470   1.531   0.505
14337TIP3   OH242951   1.084   6.954   1.379
14337TIP3    H142952   1.174   6.942   1.350
14337TIP3    H242953   1.086   7.036   1.428
14338TIP3   OH242954   1.277   6.131   1.266
14338TIP3    H142955   1.210   6.095   1.325
14338TIP3    H242956   1.231   6.199   1.216
14339TIP3   OH242957   0.906   0.317   1.140
14339TIP3    H142958   0.883   0.378   1.069
14339TIP3    H242959   0.827   0.266   1.154
14340TIP3   OH242960   7.032   5.323   4.599
14340TIP3    H142961   7.010   5.414   4.619
14340TIP3    H242962   7.020   5.277   4.682
14341TIP3   OH242963   6.926   7.591   5.346
14341TIP3    H142964   6.879   7.519   5.387
14341TIP3    H242965   7.010   7.553   5.320
14342TIP3   OH242966   4.785   3.767   0.392
14342TIP3    H142967   4.720   3.835   0.374
14342TIP3    H242968   4.734   3.686   0.395
14343TIP3   OH242969   0.055   2.129   1.135
14343TIP3    H142970   0.099   2.044   1.130
14343TIP3    H242971  -0.001   2.132   1.058
14344TIP3   OH242972   4.366   4.407   6.706
14344TIP3    H142973   4.289   4.408   6.763
14344TIP3    H242974   4.434   4.367   6.759
14345TIP3   OH242975   8.256   0.323   1.729
14345TIP3    H142976   8.212   0.259   1.672
14345TIP3    H242977   8.235   0.294   1.818
14346TIP3   OH242978   0.972   3.494   4.952
14346TIP3    H142979   0.934   3.413   4.987
14346TIP3    H242980   0.982   3.550   5.029
14347TIP3   OH242981   7.373   4.219   6.513
14347TIP3    H142982   7.343   4.309   6.528
14347TIP3    H242983   7.467   4.228   6.495
14348TIP3   OH242984   4.270   4.203   4.224
14348TIP3    H142985   4.285   4.288   4.181
14348TIP3    H242986   4.222   4.152   4.159
14349TIP3   OH242987   0.832   6.570   1.940
14349TIP3    H142988   0.877   6.518   1.873
14349TIP3    H242989   0.902   6.606   1.994
14350TIP3   OH242990   1.387   1.066   0.270
14350TIP3    H142991   1.479   1.046   0.256
14350TIP3    H242992   1.358   1.104   0.187
14351TIP3   OH242993   8.178   5.745   0.301
14351TIP3    H142994   8.211   5.668   0.349
14351TIP3    H242995   8.213   5.734   0.212
14352TIP3   OH242996   3.319   2.863   6.243
14352TIP3    H142997   3.265   2.921   6.297
14352TIP3    H242998   3.329   2.909   6.160
14353TIP3   OH242999   0.276   2.326   6.618
14353TIP3    H143000   0.361   2.360   6.646
14353TIP3    H243001   0.297   2.257   6.555
14354TIP3   OH243002   4.580   3.473   5.158
14354TIP3    H143003   4.617   3.538   5.218
14354TIP3    H243004   4.622   3.492   5.074
14355TIP3   OH243005   3.812   0.230   4.314
14355TIP3    H143006   3.835   0.318   4.285
14355TIP3    H243007   3.717   0.233   4.326
14356TIP3   OH243008   5.965   6.130   4.949
14356TIP3    H143009   6.002   6.158   5.033
14356TIP3    H243010   6.026   6.165   4.883
14357TIP3   OH243011   5.408   4.457   1.686
14357TIP3    H143012   5.465   4.407   1.627
14357TIP3    H243013   5.385   4.535   1.636
14358TIP3   OH243014   3.484   2.318   0.599
14358TIP3    H143015   3.561   2.278   0.559
14358TIP3    H243016   3.470   2.268   0.679
14359TIP3   OH243017   6.238   5.244   5.712
14359TIP3    H143018   6.199   5.165   5.748
14359TIP3    H243019   6.211   5.314   5.772
14360TIP3   OH243020   3.752   4.569   2.983
14360TIP3    H143021   3.831   4.519   2.962
14360TIP3    H243022   3.682   4.523   2.935
14361TIP3   OH243023   3.463   1.889   4.162
14361TIP3    H143024   3.534   1.866   4.101
14361TIP3    H243025   3.481   1.980   4.186
14362TIP3   OH243026   6.436   2.864   6.515
14362TIP3    H143027   6.363   2.803   6.506
14362TIP3    H243028   6.500   2.836   6.450
14363TIP3   OH243029   2.386   3.082   0.564
14363TIP3    H143030   2.439   3.026   0.507
14363TIP3    H243031   2.402   3.050   0.652
14364TIP3   OH243032   4.396   4.329   4.821
14364TIP3    H143033   4.408   4.237   4.845
14364TIP3    H243034   4.307   4.350   4.851
14365TIP3   OH243035   4.264   2.197   4.556
14365TIP3    H143036   4.268   2.171   4.463
14365TIP3    H243037   4.319   2.275   4.561
14366TIP3   OH243038   0.363   2.951   2.646
14366TIP3    H143039   0.445   2.903   2.647
14366TIP3    H243040   0.314   2.918   2.722
14367TIP3   OH243041   1.445   4.189   4.709
14367TIP3    H143042   1.441   4.172   4.803
14367TIP3    H243043   1.382   4.129   4.670
14368TIP3   OH243044   6.968   4.207   2.027
14368TIP3    H143045   6.936   4.234   2.113
14368TIP3    H243046   6.931   4.272   1.966
14369TIP3   OH243047   7.243   0.562   6.205
14369TIP3    H143048   7.255   0.645   6.252
14369TIP3    H243049   7.196   0.587   6.125
14370TIP3   OH243050   1.811   5.207   3.382
14370TIP3    H143051   1.747   5.272   3.411
14370TIP3    H243052   1.766   5.123   3.388
14371TIP3   OH243053   1.085   2.000   2.291
14371TIP3    H143054   1.163   2.013   2.344
14371TIP3    H243055   1.044   2.086   2.286
14372TIP3   OH243056   8.116   3.232   2.037
14372TIP3    H143057   8.074   3.159   1.990
14372TIP3    H243058   8.056   3.305   2.024
14373TIP3   OH243059   6.824   1.270   0.297
14373TIP3    H143060   6.899   1.327   0.283
14373TIP3    H243061   6.847   1.188   0.253
14374TIP3   OH243062   8.066   3.921   1.233
14374TIP3    H143063   8.118   3.907   1.312
14374TIP3    H243064   7.989   3.866   1.245
14375TIP3   OH243065   0.129   6.199   0.835
14375TIP3    H143066   0.137   6.160   0.748
14375TIP3    H243067   0.190   6.273   0.833
14376TIP3   OH243068   1.946   3.470   1.921
14376TIP3    H143069   1.974   3.559   1.899
14376TIP3    H243070   2.025   3.427   1.953
14377TIP3   OH243071   8.016   4.845   5.077
14377TIP3    H143072   8.011   4.760   5.033
14377TIP3    H243073   8.109   4.855   5.098
14378TIP3   OH243074   7.649   4.347   0.582
14378TIP3    H143075   7.599   4.414   0.535
14378TIP3    H243076   7.735   4.388   0.597
14379TIP3   OH243077   5.513   6.892   1.309
14379TIP3    H143078   5.600   6.931   1.312
14379TIP3    H243079   5.480   6.914   1.222
14380TIP3   OH243080   6.483   7.314   0.462
14380TIP3    H143081   6.428   7.239   0.439
14380TIP3    H243082   6.537   7.329   0.385
14381TIP3   OH243083   0.678   1.008   2.410
14381TIP3    H143084   0.741   1.012   2.482
14381TIP3    H243085   0.727   0.967   2.338
14382TIP3   OH243086   5.428   7.051   5.593
14382TIP3    H143087   5.400   6.968   5.555
14382TIP3    H243088   5.383   7.118   5.542
14383TIP3   OH243089   3.182   7.357   6.426
14383TIP3    H143090   3.273   7.379   6.406
14383TIP3    H243091   3.130   7.421   6.377
14384TIP3   OH243092   1.797   6.218   3.706
14384TIP3    H143093   1.741   6.221   3.628
14384TIP3    H243094   1.868   6.159   3.682
14385TIP3   OH243095   7.382   7.877   6.703
14385TIP3    H143096   7.287   7.862   6.711
14385TIP3    H243097   7.419   7.835   6.781
14386TIP3   OH243098   3.717   5.879   5.295
14386TIP3    H143099   3.625   5.865   5.270
14386TIP3    H243100   3.766   5.844   5.221
14387TIP3   OH243101   7.034   6.556   4.921
14387TIP3    H143102   7.027   6.500   4.998
14387TIP3    H243103   7.051   6.496   4.848
14388TIP3   OH243104   3.766   1.075   1.900
14388TIP3    H143105   3.832   1.084   1.968
14388TIP3    H243106   3.766   1.159   1.854
14389TIP3   OH243107   5.622   2.723   3.114
14389TIP3    H143108   5.647   2.638   3.079
14389TIP3    H243109   5.698   2.779   3.098
14390TIP3   OH243110   5.147   1.739   0.747
14390TIP3    H143111   5.121   1.750   0.656
14390TIP3    H243112   5.085   1.794   0.796
14391TIP3   OH243113   4.290   5.401   5.386
14391TIP3    H143114   4.352   5.472   5.367
14391TIP3    H243115   4.345   5.329   5.416
14392TIP3   OH243116   6.957   4.112   1.444
14392TIP3    H143117   6.865   4.103   1.418
14392TIP3    H243118   7.005   4.058   1.381
14393TIP3   OH243119   7.416   4.405   3.017
14393TIP3    H143120   7.336   4.354   3.012
14393TIP3    H243121   7.388   4.496   3.005
14394TIP3   OH243122   5.692   2.009   2.530
14394TIP3    H143123   5.697   2.067   2.606
14394TIP3    H243124   5.685   2.067   2.455
14395TIP3   OH243125   2.604   2.558   3.450
14395TIP3    H143126   2.636   2.641   3.486
14395TIP3    H243127   2.633   2.559   3.359
14396TIP3   OH243128   6.966   0.943   1.421
14396TIP3    H143129   6.965   0.888   1.499
14396TIP3    H243130   6.873   0.953   1.398
14397TIP3   OH243131   2.427   4.010   1.784
14397TIP3    H143132   2.448   4.042   1.696
14397TIP3    H243133   2.399   4.088   1.832
14398TIP3   OH243134   1.538   7.073   4.042
14398TIP3    H143135   1.564   7.155   4.084
14398TIP3    H243136   1.443   7.068   4.055
14399TIP3   OH243137   1.610   5.044   4.836
14399TIP3    H143138   1.695   5.082   4.859
14399TIP3    H243139   1.597   4.974   4.900
14400TIP3   OH243140   6.858   3.322   2.535
14400TIP3    H143141   6.890   3.411   2.525
14400TIP3    H243142   6.907   3.271   2.471
14401TIP3   OH243143   2.603   5.204   2.995
14401TIP3    H143144   2.600   5.130   2.934
14401TIP3    H243145   2.696   5.221   3.008
14402TIP3   OH243146   5.674   3.988   2.660
14402TIP3    H143147   5.713   3.948   2.583
14402TIP3    H243148   5.730   4.063   2.679
14403TIP3   OH243149   6.737   7.098   0.939
14403TIP3    H143150   6.793   7.026   0.967
14403TIP3    H243151   6.779   7.176   0.976
14404TIP3   OH243152   6.262   1.595   1.954
14404TIP3    H143153   6.312   1.544   2.019
14404TIP3    H243154   6.171   1.572   1.973
14405TIP3   OH243155   1.261   5.276   0.612
14405TIP3    H143156   1.330   5.338   0.589
14405TIP3    H243157   1.284   5.196   0.565
14406TIP3   OH243158   3.670   7.194   1.023
14406TIP3    H143159   3.598   7.228   1.077
14406TIP3    H243160   3.642   7.105   0.999
14407TIP3   OH243161   1.570   6.794   4.009
14407TIP3    H143162   1.475   6.784   4.008
14407TIP3    H243163   1.584   6.887   3.992
14408TIP3   OH243164   6.956   6.715   1.484
14408TIP3    H143165   6.943   6.774   1.410
14408TIP3    H243166   7.035   6.665   1.462
14409TIP3   OH243167   6.178   1.802   0.208
14409TIP3    H143168   6.085   1.806   0.229
14409TIP3    H243169   6.181   1.761   0.121
14410TIP3   OH243170   1.251   0.790   5.317
14410TIP3    H143171   1.228   0.835   5.399
14410TIP3    H243172   1.225   0.699   5.332
14411TIP3   OH243173   6.325   2.591   1.254
14411TIP3    H143174   6.240   2.636   1.263
14411TIP3    H243175   6.352   2.573   1.344
14412TIP3   OH243176   3.182   2.458   4.133
14412TIP3    H143177   3.227   2.529   4.179
14412TIP3    H243178   3.095   2.456   4.173
14413TIP3   OH243179   7.820   3.591   5.922
14413TIP3    H143180   7.762   3.609   5.849
14413TIP3    H243181   7.895   3.547   5.883
14414TIP3   OH243182   4.208   0.908   1.060
14414TIP3    H143183   4.186   0.871   1.145
14414TIP3    H243184   4.128   0.901   1.008
14415TIP3   OH243185   3.813   1.869   1.149
14415TIP3    H143186   3.843   1.945   1.200
14415TIP3    H243187   3.853   1.881   1.063
14416TIP3   OH243188   7.567   6.439   2.142
14416TIP3    H143189   7.630   6.451   2.071
14416TIP3    H243190   7.619   6.410   2.217
14417TIP3   OH243191   7.506   6.328   1.451
14417TIP3    H143192   7.575   6.310   1.388
14417TIP3    H243193   7.552   6.352   1.531
14418TIP3   OH243194   8.248   6.669   6.446
14418TIP3    H143195   8.160   6.696   6.473
14418TIP3    H243196   8.242   6.658   6.351
14419TIP3   OH243197   0.700   5.985   3.516
14419TIP3    H143198   0.740   5.899   3.522
14419TIP3    H243199   0.687   6.012   3.606
14420TIP3   OH243200   8.375   0.821   1.581
14420TIP3    H143201   8.451   0.798   1.528
14420TIP3    H243202   8.300   0.803   1.525
14421TIP3   OH243203   1.285   5.792   0.778
14421TIP3    H143204   1.266   5.883   0.756
14421TIP3    H243205   1.335   5.759   0.704
14422TIP3   OH243206   0.196   7.717   6.772
14422TIP3    H143207   0.284   7.747   6.792
14422TIP3    H243208   0.142   7.796   6.782
14423TIP3   OH243209   3.131   7.517   2.028
14423TIP3    H143210   3.104   7.575   2.100
14423TIP3    H243211   3.180   7.573   1.968
14424TIP3   OH243212   4.045   4.175   3.586
14424TIP3    H143213   4.060   4.255   3.537
14424TIP3    H243214   4.116   4.170   3.649
14425TIP3   OH243215   4.594   3.656   6.361
14425TIP3    H143216   4.680   3.649   6.403
14425TIP3    H243217   4.591   3.582   6.300
14426TIP3   OH243218   4.301   5.097   0.624
14426TIP3    H143219   4.261   5.148   0.694
14426TIP3    H243220   4.359   5.159   0.579
14427TIP3   OH243221   2.458   1.086   2.132
14427TIP3    H143222   2.501   1.171   2.143
14427TIP3    H243223   2.400   1.079   2.208
14428TIP3   OH243224   2.866   0.183   6.044
14428TIP3    H143225   2.943   0.204   5.991
14428TIP3    H243226   2.857   0.257   6.104
14429TIP3   OH243227   0.706   2.930   1.544
14429TIP3    H143228   0.695   2.929   1.449
14429TIP3    H243229   0.667   2.848   1.574
14430TIP3   OH243230   8.043   7.282   3.311
14430TIP3    H143231   8.131   7.289   3.349
14430TIP3    H243232   7.995   7.226   3.372
14431TIP3   OH243233   1.095   6.097   2.567
14431TIP3    H143234   1.118   6.008   2.593
14431TIP3    H243235   1.179   6.140   2.550
14432TIP3   OH243236   4.768   6.453   1.368
14432TIP3    H143237   4.807   6.513   1.304
14432TIP3    H243238   4.715   6.509   1.424
14433TIP3   OH243239   2.822   2.494   0.535
14433TIP3    H143240   2.771   2.423   0.495
14433TIP3    H243241   2.844   2.462   0.622
14434TIP3   OH243242   3.867   5.755   4.563
14434TIP3    H143243   3.953   5.766   4.603
14434TIP3    H243244   3.806   5.798   4.625
14435TIP3   OH243245   3.450   6.012   3.312
14435TIP3    H143246   3.435   6.105   3.293
14435TIP3    H243247   3.540   5.996   3.283
14436TIP3   OH243248   7.686   5.305   2.036
14436TIP3    H143249   7.738   5.274   1.962
14436TIP3    H243250   7.631   5.230   2.060
14437TIP3   OH243251   0.711   4.841   5.822
14437TIP3    H143252   0.757   4.855   5.739
14437TIP3    H243253   0.763   4.890   5.886
14438TIP3   OH243254   2.782   0.727   5.443
14438TIP3    H143255   2.854   0.708   5.503
14438TIP3    H243256   2.727   0.649   5.447
14439TIP3   OH243257   0.382   7.384   5.755
14439TIP3    H143258   0.310   7.426   5.802
14439TIP3    H243259   0.461   7.419   5.797
14440TIP3   OH243260   8.166   0.517   3.654
14440TIP3    H143261   8.253   0.496   3.619
14440TIP3    H243262   8.106   0.463   3.603
14441TIP3   OH243263   5.862   1.256   3.341
14441TIP3    H143264   5.788   1.301   3.383
14441TIP3    H243265   5.916   1.327   3.305
14442TIP3   OH243266   0.236   7.571   5.200
14442TIP3    H143267   0.262   7.657   5.232
14442TIP3    H243268   0.167   7.543   5.260
14443TIP3   OH243269   1.401   4.364   3.133
14443TIP3    H143270   1.492   4.346   3.107
14443TIP3    H243271   1.391   4.459   3.124
14444TIP3   OH243272   6.419   5.321   6.517
14444TIP3    H143273   6.448   5.383   6.450
14444TIP3    H243274   6.451   5.358   6.600
14445TIP3   OH243275   2.438   6.849   2.233
14445TIP3    H143276   2.442   6.754   2.232
14445TIP3    H243277   2.399   6.871   2.317
14446TIP3   OH243278   6.699   4.351   5.681
14446TIP3    H143279   6.739   4.417   5.624
14446TIP3    H243280   6.625   4.317   5.630
14447TIP3   OH243281   0.847   5.594   2.963
14447TIP3    H143282   0.866   5.630   3.049
14447TIP3    H243283   0.929   5.600   2.915
14448TIP3   OH243284   6.188   5.093   2.621
14448TIP3    H143285   6.164   5.184   2.604
14448TIP3    H243286   6.140   5.043   2.555
14449TIP3   OH243287   1.779   2.433   0.362
14449TIP3    H143288   1.832   2.501   0.320
14449TIP3    H243289   1.741   2.383   0.290
14450TIP3   OH243290   6.507   0.691   2.323
14450TIP3    H143291   6.460   0.621   2.278
14450TIP3    H243292   6.470   0.772   2.286
14451TIP3   OH243293   4.910   5.403   2.353
14451TIP3    H143294   4.839   5.363   2.404
14451TIP3    H243295   4.869   5.427   2.270
14452TIP3   OH243296   1.073   6.745   1.861
14452TIP3    H143297   1.050   6.755   1.953
14452TIP3    H243298   1.049   6.829   1.821
14453TIP3   OH243299   4.339   6.527   1.321
14453TIP3    H143300   4.325   6.462   1.389
14453TIP3    H243301   4.316   6.610   1.361
14454TIP3   OH243302   7.646   1.384   5.167
14454TIP3    H143303   7.666   1.471   5.131
14454TIP3    H243304   7.583   1.401   5.236
14455TIP3   OH243305   5.750   2.890   2.044
14455TIP3    H143306   5.798   2.903   2.126
14455TIP3    H243307   5.814   2.849   1.985
14456TIP3   OH243308   2.700   6.637   3.120
14456TIP3    H143309   2.755   6.714   3.109
14456TIP3    H243310   2.620   6.670   3.162
14457TIP3   OH243311   8.325   1.676   0.322
14457TIP3    H143312   8.342   1.596   0.271
14457TIP3    H243313   8.277   1.732   0.261
14458TIP3   OH243314   0.409   1.043   1.066
14458TIP3    H143315   0.443   1.097   0.995
14458TIP3    H243316   0.463   1.065   1.142
14459TIP3   OH243317   3.305   5.511   6.379
14459TIP3    H143318   3.275   5.427   6.413
14459TIP3    H243319   3.367   5.543   6.445
14460TIP3   OH243320   1.200   1.412   1.902
14460TIP3    H143321   1.241   1.326   1.894
14460TIP3    H243322   1.107   1.395   1.887
14461TIP3   OH243323   7.879   2.732   4.548
14461TIP3    H143324   7.926   2.661   4.591
14461TIP3    H243325   7.823   2.769   4.617
14462TIP3   OH243326   7.732   2.987   2.711
14462TIP3    H143327   7.740   2.968   2.804
14462TIP3    H243328   7.822   2.982   2.677
14463TIP3   OH243329   5.728   2.856   1.227
14463TIP3    H143330   5.696   2.838   1.315
14463TIP3    H243331   5.650   2.874   1.176
14464TIP3   OH243332   8.051   2.547   5.768
14464TIP3    H143333   8.111   2.583   5.703
14464TIP3    H243334   8.027   2.461   5.733
14465TIP3   OH243335   3.607   6.938   0.930
14465TIP3    H143336   3.605   6.895   1.015
14465TIP3    H243337   3.689   6.908   0.890
14466TIP3   OH243338   7.566   2.304   2.712
14466TIP3    H143339   7.486   2.269   2.752
14466TIP3    H243340   7.570   2.395   2.743
14467TIP3   OH243341   4.737   4.889   3.594
14467TIP3    H143342   4.656   4.839   3.596
14467TIP3    H243343   4.712   4.977   3.566
14468TIP3   OH243344   0.940   0.309   0.440
14468TIP3    H143345   0.959   0.365   0.516
14468TIP3    H243346   1.009   0.329   0.377
14469TIP3   OH243347   2.242   5.472   1.598
14469TIP3    H143348   2.324   5.520   1.596
14469TIP3    H243349   2.185   5.518   1.535
14470TIP3   OH243350   2.921   5.854   1.128
14470TIP3    H143351   2.917   5.883   1.036
14470TIP3    H243352   3.009   5.817   1.138
14471TIP3   OH243353   8.079   4.892   5.727
14471TIP3    H143354   8.102   4.826   5.662
14471TIP3    H243355   8.008   4.852   5.778
14472TIP3   OH243356   7.896   3.642   4.158
14472TIP3    H143357   7.962   3.609   4.097
14472TIP3    H243358   7.895   3.737   4.144
14473TIP3   OH243359   6.710   4.384   6.236
14473TIP3    H143360   6.688   4.318   6.170
14473TIP3    H243361   6.763   4.448   6.188
14474TIP3   OH243362   4.127   1.710   4.501
14474TIP3    H143363   4.202   1.731   4.557
14474TIP3    H243364   4.138   1.618   4.479
14475TIP3   OH243365   5.076   6.212   3.837
14475TIP3    H143366   5.052   6.179   3.924
14475TIP3    H243367   5.169   6.192   3.829
14476TIP3   OH243368   7.913   1.040   6.155
14476TIP3    H143369   7.862   1.022   6.234
14476TIP3    H243370   7.860   1.003   6.084
14477TIP3   OH243371   1.227   0.157   1.689
14477TIP3    H143372   1.279   0.136   1.611
14477TIP3    H243373   1.199   0.247   1.675
14478TIP3   OH243374   2.704   4.731   3.466
14478TIP3    H143375   2.664   4.780   3.394
14478TIP3    H243376   2.646   4.747   3.540
14479TIP3   OH243377   2.309   0.014   0.531
14479TIP3    H143378   2.291   0.003   0.624
14479TIP3    H243379   2.257   0.089   0.504
14480TIP3   OH243380   6.995   2.146   6.808
14480TIP3    H143381   7.065   2.199   6.769
14480TIP3    H243382   6.927   2.210   6.832
14481TIP3   OH243383   2.370   4.264   1.910
14481TIP3    H143384   2.341   4.320   1.982
14481TIP3    H243385   2.333   4.304   1.832
14482TIP3   OH243386   7.304   7.554   0.680
14482TIP3    H143387   7.377   7.523   0.733
14482TIP3    H243388   7.342   7.620   0.623
14483TIP3   OH243389   8.119   3.583   6.679
14483TIP3    H143390   8.177   3.553   6.748
14483TIP3    H243391   8.177   3.617   6.611
14484TIP3   OH243392   6.099   0.717   2.042
14484TIP3    H143393   6.133   0.666   1.969
14484TIP3    H243394   6.086   0.804   2.007
14485TIP3   OH243395   7.008   3.395   2.769
14485TIP3    H143396   7.072   3.397   2.698
14485TIP3    H243397   6.930   3.356   2.730
14486TIP3   OH243398   6.241   6.742   3.816
14486TIP3    H143399   6.309   6.710   3.756
14486TIP3    H243400   6.261   6.700   3.899
14487TIP3   OH243401   2.740   2.718   4.163
14487TIP3    H143402   2.649   2.688   4.164
14487TIP3    H243403   2.735   2.813   4.171
14488TIP3   OH243404   7.706   1.682   0.212
14488TIP3    H143405   7.647   1.607   0.220
14488TIP3    H243406   7.647   1.756   0.197
14489TIP3   OH243407   5.435   7.482   0.199
14489TIP3    H143408   5.458   7.563   0.244
14489TIP3    H243409   5.348   7.460   0.232
14490TIP3   OH243410   7.283   5.680   6.440
14490TIP3    H143411   7.348   5.610   6.446
14490TIP3    H243412   7.324   5.755   6.482
14491TIP3   OH243413   4.435   6.367   0.353
14491TIP3    H143414   4.408   6.452   0.387
14491TIP3    H243415   4.429   6.309   0.429
14492TIP3   OH243416   5.745   4.508   1.145
14492TIP3    H143417   5.685   4.569   1.189
14492TIP3    H243418   5.784   4.458   1.217
14493TIP3   OH243419   5.460   1.422   3.126
14493TIP3    H143420   5.467   1.508   3.167
14493TIP3    H243421   5.391   1.377   3.175
14494TIP3   OH243422   7.341   6.691   4.616
14494TIP3    H143423   7.433   6.698   4.641
14494TIP3    H243424   7.334   6.738   4.533
14495TIP3   OH243425   0.969   7.190   6.270
14495TIP3    H143426   0.886   7.210   6.228
14495TIP3    H243427   1.029   7.257   6.236
14496TIP3   OH243428   4.992   3.776   5.664
14496TIP3    H143429   4.931   3.850   5.668
14496TIP3    H243430   5.064   3.808   5.609
14497TIP3   OH243431   1.538   6.003   5.522
14497TIP3    H143432   1.571   6.083   5.482
14497TIP3    H243433   1.527   5.943   5.448
14498TIP3   OH243434   7.617   0.395   5.705
14498TIP3    H143435   7.603   0.436   5.791
14498TIP3    H243436   7.679   0.454   5.661
14499TIP3   OH243437   7.043   0.957   0.423
14499TIP3    H143438   7.107   0.992   0.485
14499TIP3    H243439   7.010   0.877   0.465
14500TIP3   OH243440   1.447   7.794   0.159
14500TIP3    H143441   1.496   7.753   0.230
14500TIP3    H243442   1.379   7.845   0.204
14501TIP3   OH243443   3.380   1.543   2.076
14501TIP3    H143444   3.366   1.612   2.012
14501TIP3    H243445   3.383   1.462   2.024
14502TIP3   OH243446   2.012   7.151   3.919
14502TIP3    H143447   1.991   7.210   3.846
14502TIP3    H243448   2.107   7.152   3.924
14503TIP3   OH243449   5.652   5.807   6.208
14503TIP3    H143450   5.665   5.853   6.125
14503TIP3    H243451   5.730   5.752   6.217
14504TIP3   OH243452   6.547   7.832   4.689
14504TIP3    H143453   6.622   7.777   4.711
14504TIP3    H243454   6.505   7.851   4.773
14505TIP3   OH243455   3.375   1.542   3.171
14505TIP3    H143456   3.465   1.573   3.162
14505TIP3    H243457   3.333   1.606   3.229
14506TIP3   OH243458   5.254   3.485   6.670
14506TIP3    H143459   5.184   3.424   6.692
14506TIP3    H243460   5.335   3.434   6.679
14507TIP3   OH243461   4.366   7.718   0.041
14507TIP3    H143462   4.404   7.647  -0.011
14507TIP3    H243463   4.284   7.683   0.074
14508TIP3   OH243464   2.722   0.397   4.885
14508TIP3    H143465   2.732   0.433   4.796
14508TIP3    H243466   2.731   0.473   4.942
14509TIP3   OH243467   2.381   4.061   2.612
14509TIP3    H143468   2.324   4.105   2.675
14509TIP3    H243469   2.445   4.015   2.667
14510TIP3   OH243470   6.684   2.740   3.559
14510TIP3    H143471   6.623   2.751   3.486
14510TIP3    H243472   6.660   2.656   3.598
14511TIP3   OH243473   0.457   4.585   6.021
14511TIP3    H143474   0.458   4.557   6.112
14511TIP3    H243475   0.382   4.539   5.983
14512TIP3   OH243476   0.002   5.444   0.640
14512TIP3    H143477  -0.042   5.403   0.714
14512TIP3    H243478   0.089   5.467   0.673
14513TIP3   OH243479   7.606   3.543   0.310
14513TIP3    H143480   7.655   3.547   0.392
14513TIP3    H243481   7.551   3.465   0.319
14514TIP3   OH243482   0.058   3.271   4.417
14514TIP3    H143483   0.049   3.360   4.384
14514TIP3    H243484   0.084   3.283   4.509
14515TIP3   OH243485   8.371   2.756   0.708
14515TIP3    H143486   8.451   2.779   0.756
14515TIP3    H243487   8.402   2.727   0.622
14516TIP3   OH243488   5.104   4.079   5.901
14516TIP3    H143489   5.114   4.013   5.970
14516TIP3    H243490   5.054   4.035   5.833
14517TIP3   OH243491   7.487   0.773   4.815
14517TIP3    H143492   7.566   0.719   4.814
14517TIP3    H243493   7.419   0.716   4.781
14518TIP3   OH243494   1.020   3.201   0.309
14518TIP3    H143495   0.990   3.117   0.274
14518TIP3    H243496   1.057   3.180   0.394
14519TIP3   OH243497   5.714   4.619   0.197
14519TIP3    H143498   5.736   4.566   0.120
14519TIP3    H243499   5.645   4.678   0.166
14520TIP3   OH243500   6.185   4.236   4.542
14520TIP3    H143501   6.251   4.289   4.496
14520TIP3    H243502   6.180   4.155   4.492
14521TIP3   OH243503   6.867   4.443   6.528
14521TIP3    H143504   6.932   4.431   6.598
14521TIP3    H243505   6.901   4.392   6.455
14522TIP3   OH243506   0.806   5.123   3.782
14522TIP3    H143507   0.716   5.090   3.780
14522TIP3    H243508   0.858   5.047   3.808
14523TIP3   OH243509   0.845   5.286   4.750
14523TIP3    H143510   0.805   5.351   4.808
14523TIP3    H243511   0.924   5.258   4.795
14524TIP3   OH243512   2.265   0.149   3.038
14524TIP3    H143513   2.268   0.145   2.942
14524TIP3    H243514   2.346   0.108   3.066
14525TIP3   OH243515   1.834   3.157   6.390
14525TIP3    H143516   1.926   3.134   6.400
14525TIP3    H243517   1.828   3.200   6.305
14526TIP3   OH243518   8.284   5.757   5.662
14526TIP3    H143519   8.259   5.734   5.573
14526TIP3    H243520   8.269   5.678   5.713
14527TIP3   OH243521   3.356   6.501   1.950
14527TIP3    H143522   3.324   6.579   1.997
14527TIP3    H243523   3.291   6.433   1.968
14528TIP3   OH243524   0.827   4.345   5.310
14528TIP3    H143525   0.905   4.297   5.335
14528TIP3    H243526   0.777   4.356   5.391
14529TIP3   OH243527   6.284   2.050   0.216
14529TIP3    H143528   6.265   1.956   0.214
14529TIP3    H243529   6.198   2.092   0.209
14530TIP3   OH243530   5.153   1.270   3.791
14530TIP3    H143531   5.246   1.253   3.781
14530TIP3    H243532   5.119   1.193   3.837
14531TIP3   OH243533   2.628   0.501   4.456
14531TIP3    H143534   2.586   0.415   4.466
14531TIP3    H243535   2.720   0.485   4.473
14532TIP3   OH243536   2.717   3.854   5.596
14532TIP3    H143537   2.792   3.821   5.546
14532TIP3    H243538   2.736   3.830   5.686
14533TIP3   OH243539   7.367   1.052   2.821
14533TIP3    H143540   7.304   0.984   2.797
14533TIP3    H243541   7.331   1.089   2.902
14534TIP3   OH243542   5.405   7.577   3.896
14534TIP3    H143543   5.375   7.630   3.823
14534TIP3    H243544   5.483   7.532   3.863
14535TIP3   OH243545   2.094   0.094   2.039
14535TIP3    H143546   2.082   0.084   2.134
14535TIP3    H243547   2.151   0.020   2.015
14536TIP3   OH243548   3.223   6.283   3.480
14536TIP3    H143549   3.263   6.366   3.508
14536TIP3    H243550   3.282   6.216   3.514
14537TIP3   OH243551   7.403   1.165   1.244
14537TIP3    H143552   7.424   1.112   1.320
14537TIP3    H243553   7.314   1.197   1.261
14538TIP3   OH243554   4.952   1.237   4.395
14538TIP3    H143555   5.029   1.206   4.443
14538TIP3    H243556   4.908   1.296   4.456
14539TIP3   OH243557   2.425   0.856   4.786
14539TIP3    H143558   2.501   0.841   4.729
14539TIP3    H243559   2.388   0.939   4.755
14540TIP3   OH243560   0.138   5.577   3.082
14540TIP3    H143561   0.083   5.639   3.130
14540TIP3    H243562   0.226   5.594   3.115
14541TIP3   OH243563   8.036   2.701   2.593
14541TIP3    H143564   8.121   2.663   2.614
14541TIP3    H243565   7.975   2.627   2.601
14542TIP3   OH243566   4.180   7.333   0.954
14542TIP3    H143567   4.115   7.393   0.990
14542TIP3    H243568   4.156   7.248   0.990
14543TIP3   OH243569   3.500   4.277   0.796
14543TIP3    H143570   3.560   4.242   0.731
14543TIP3    H243571   3.498   4.371   0.778
14544TIP3   OH243572   1.686   0.495   5.726
14544TIP3    H143573   1.639   0.577   5.713
14544TIP3    H243574   1.680   0.478   5.820
14545TIP3   OH243575   6.070   5.551   1.391
14545TIP3    H143576   6.125   5.514   1.460
14545TIP3    H243577   6.085   5.495   1.315
14546TIP3   OH243578   3.514   6.042   5.639
14546TIP3    H143579   3.556   6.049   5.553
14546TIP3    H243580   3.550   6.115   5.690
14547TIP3   OH243581   2.689   6.977   2.888
14547TIP3    H143582   2.601   6.966   2.923
14547TIP3    H243583   2.686   6.938   2.801
14548TIP3   OH243584   6.216   0.201   3.991
14548TIP3    H143585   6.172   0.117   4.000
14548TIP3    H243586   6.150   0.259   3.953
14549TIP3   OH243587   4.477   4.121   5.396
14549TIP3    H143588   4.508   4.200   5.351
14549TIP3    H243589   4.457   4.151   5.485
14550TIP3   OH243590   3.411   0.817   3.159
14550TIP3    H143591   3.432   0.733   3.118
14550TIP3    H243592   3.449   0.883   3.101
14551TIP3   OH243593   2.096   5.378   5.471
14551TIP3    H143594   2.014   5.375   5.520
14551TIP3    H243595   2.071   5.406   5.383
14552TIP3   OH243596   0.626   7.265   1.981
14552TIP3    H143597   0.551   7.265   1.921
14552TIP3    H243598   0.597   7.315   2.057
14553TIP3   OH243599   1.972   2.137   6.585
14553TIP3    H143600   2.058   2.123   6.546
14553TIP3    H243601   1.936   2.049   6.597
14554TIP3   OH243602   4.831   1.020   2.268
14554TIP3    H143603   4.784   1.101   2.288
14554TIP3    H243604   4.762   0.957   2.248
14555TIP3   OH243605   0.318   7.798   4.777
14555TIP3    H143606   0.386   7.760   4.723
14555TIP3    H243607   0.275   7.723   4.818
14556TIP3   OH243608   7.988   5.153   6.643
14556TIP3    H143609   7.936   5.075   6.663
14556TIP3    H243610   8.079   5.123   6.649
14557TIP3   OH243611   4.979   2.052   6.523
14557TIP3    H143612   4.914   2.021   6.586
14557TIP3    H243613   4.948   2.139   6.498
14558TIP3   OH243614   4.528   5.674   0.298
14558TIP3    H143615   4.584   5.692   0.373
14558TIP3    H243616   4.573   5.605   0.249
14559TIP3   OH243617   1.094   2.319   6.442
14559TIP3    H143618   1.077   2.285   6.529
14559TIP3    H243619   1.181   2.287   6.419
14560TIP3   OH243620   0.575   0.589   3.294
14560TIP3    H143621   0.587   0.680   3.267
14560TIP3    H243622   0.649   0.571   3.352
14561TIP3   OH243623   4.811   7.091   1.644
14561TIP3    H143624   4.887   7.135   1.607
14561TIP3    H243625   4.833   7.078   1.736
14562TIP3   OH243626   6.130   2.374   4.840
14562TIP3    H143627   6.169   2.461   4.846
14562TIP3    H243628   6.133   2.340   4.930
14563TIP3   OH243629   6.458   7.308   1.157
14563TIP3    H143630   6.467   7.230   1.212
14563TIP3    H243631   6.388   7.286   1.097
14564TIP3   OH243632   5.184   5.443   0.507
14564TIP3    H143633   5.160   5.515   0.565
14564TIP3    H243634   5.252   5.480   0.451
14565TIP3   OH243635   7.740   5.576   3.165
14565TIP3    H143636   7.776   5.665   3.160
14565TIP3    H243637   7.800   5.530   3.223
14566TIP3   OH243638   1.393   5.978   3.558
14566TIP3    H143639   1.376   5.998   3.650
14566TIP3    H243640   1.356   5.890   3.545
14567TIP3   OH243641   4.032   0.238   3.645
14567TIP3    H143642   3.971   0.310   3.658
14567TIP3    H243643   4.108   0.277   3.602
14568TIP3   OH243644   2.259   2.529   0.443
14568TIP3    H143645   2.271   2.600   0.380
14568TIP3    H243646   2.164   2.522   0.453
14569TIP3   OH243647   4.964   4.102   5.144
14569TIP3    H143648   5.032   4.038   5.166
14569TIP3    H243649   5.003   4.187   5.168
14570TIP3   OH243650   4.013   1.586   5.719
14570TIP3    H143651   4.045   1.674   5.699
14570TIP3    H243652   4.033   1.574   5.812
14571TIP3   OH243653   6.732   4.836   5.178
14571TIP3    H143654   6.638   4.840   5.160
14571TIP3    H243655   6.750   4.915   5.229
14572TIP3   OH243656   2.814   1.387   0.169
14572TIP3    H143657   2.723   1.405   0.149
14572TIP3    H243658   2.812   1.311   0.227
14573TIP3   OH243659   1.015   5.427   5.148
14573TIP3    H143660   1.065   5.498   5.107
14573TIP3    H243661   1.048   5.347   5.106
14574TIP3   OH243662   7.527   6.141   3.598
14574TIP3    H143663   7.527   6.237   3.603
14574TIP3    H243664   7.579   6.113   3.673
14575TIP3   OH243665   6.859   1.637   2.940
14575TIP3    H143666   6.861   1.631   3.036
14575TIP3    H243667   6.820   1.555   2.912
14576TIP3   OH243668   1.191   7.069   0.923
14576TIP3    H143669   1.135   7.098   0.852
14576TIP3    H243670   1.131   7.038   0.990
14577TIP3   OH243671   2.874   2.447   4.578
14577TIP3    H143672   2.819   2.374   4.549
14577TIP3    H243673   2.903   2.421   4.665
14578TIP3   OH243674   4.406   2.415   3.015
14578TIP3    H143675   4.388   2.324   3.042
14578TIP3    H243676   4.473   2.406   2.947
14579TIP3   OH243677   7.027   5.397   6.337
14579TIP3    H143678   6.958   5.383   6.273
14579TIP3    H243679   6.991   5.460   6.399
14580TIP3   OH243680   1.894   1.857   3.749
14580TIP3    H143681   1.840   1.889   3.822
14580TIP3    H243682   1.964   1.808   3.792
14581TIP3   OH243683   2.634   2.353   3.233
14581TIP3    H143684   2.640   2.440   3.193
14581TIP3    H243685   2.547   2.321   3.210
14582TIP3   OH243686   0.211   2.931   3.103
14582TIP3    H143687   0.305   2.933   3.117
14582TIP3    H243688   0.194   3.001   3.039
14583TIP3   OH243689   0.167   4.737   0.975
14583TIP3    H143690   0.174   4.661   0.918
14583TIP3    H243691   0.239   4.794   0.948
14584TIP3   OH243692   6.316   3.090   1.538
14584TIP3    H143693   6.288   3.070   1.627
14584TIP3    H243694   6.360   3.011   1.508
14585TIP3   OH243695   1.231   1.474   3.181
14585TIP3    H143696   1.198   1.427   3.258
14585TIP3    H243697   1.325   1.482   3.197
14586TIP3   OH243698   1.993   5.566   4.068
14586TIP3    H143699   1.924   5.552   4.003
14586TIP3    H243700   2.075   5.557   4.019
14587TIP3   OH243701   4.415   4.775   6.107
14587TIP3    H143702   4.385   4.782   6.198
14587TIP3    H243703   4.457   4.860   6.090
14588TIP3   OH243704   6.622   7.422   4.096
14588TIP3    H143705   6.656   7.499   4.142
14588TIP3    H243706   6.697   7.362   4.091
14589TIP3   OH243707   7.648   6.500   3.964
14589TIP3    H143708   7.611   6.415   3.939
14589TIP3    H243709   7.693   6.483   4.047
14590TIP3   OH243710   2.222   1.251   0.760
14590TIP3    H143711   2.224   1.315   0.689
14590TIP3    H243712   2.308   1.258   0.801
14591TIP3   OH243713   3.075   6.294   4.809
14591TIP3    H143714   3.101   6.364   4.750
14591TIP3    H243715   3.050   6.339   4.890
14592TIP3   OH243716   1.901   7.094   4.218
14592TIP3    H143717   1.952   7.013   4.229
14592TIP3    H243718   1.945   7.140   4.146
14593TIP3   OH243719   6.637   4.129   4.973
14593TIP3    H143720   6.594   4.072   5.036
14593TIP3    H243721   6.587   4.117   4.892
14594TIP3   OH243722   4.602   7.544   0.891
14594TIP3    H143723   4.657   7.622   0.904
14594TIP3    H243724   4.514   7.573   0.914
14595TIP3   OH243725   3.527   4.865   0.142
14595TIP3    H143726   3.588   4.938   0.139
14595TIP3    H243727   3.466   4.881   0.069
14596TIP3   OH243728   1.817   3.727   3.474
14596TIP3    H143729   1.880   3.656   3.489
14596TIP3    H243730   1.756   3.691   3.409
14597TIP3   OH243731   2.545   3.967   6.782
14597TIP3    H143732   2.573   3.907   6.852
14597TIP3    H243733   2.624   4.014   6.758
14598TIP3   OH243734   1.421   7.222   1.425
14598TIP3    H143735   1.515   7.242   1.424
14598TIP3    H243736   1.381   7.301   1.461
14599TIP3   OH243737   5.506   0.965   3.424
14599TIP3    H143738   5.599   0.945   3.409
14599TIP3    H243739   5.492   0.944   3.517
14600TIP3   OH243740   4.861   2.617   1.518
14600TIP3    H143741   4.901   2.703   1.505
14600TIP3    H243742   4.770   2.629   1.493
14601TIP3   OH243743   6.852   0.550   0.813
14601TIP3    H143744   6.878   0.631   0.857
14601TIP3    H243745   6.783   0.576   0.752
14602TIP3   OH243746   2.822   7.434   5.176
14602TIP3    H143747   2.825   7.399   5.265
14602TIP3    H243748   2.777   7.367   5.125
14603TIP3   OH243749   3.658   3.190   5.747
14603TIP3    H143750   3.616   3.275   5.763
14603TIP3    H243751   3.749   3.203   5.774
14604TIP3   OH243752   4.851   2.825   2.224
14604TIP3    H143753   4.855   2.849   2.317
14604TIP3    H243754   4.839   2.907   2.178
14605TIP3   OH243755   3.040   5.491   1.331
14605TIP3    H143756   3.031   5.419   1.392
14605TIP3    H243757   3.020   5.453   1.245
14606TIP3   OH243758   4.471   7.125   4.015
14606TIP3    H143759   4.565   7.142   4.022
14606TIP3    H243760   4.432   7.174   4.087
14607TIP3   OH243761   3.746   2.004   3.890
14607TIP3    H143762   3.801   2.058   3.946
14607TIP3    H243763   3.714   1.934   3.948
14608TIP3   OH243764   0.176   4.078   2.457
14608TIP3    H143765   0.106   4.079   2.391
14608TIP3    H243766   0.230   4.003   2.433
14609TIP3   OH243767   6.683   2.983   1.676
14609TIP3    H143768   6.659   2.898   1.712
14609TIP3    H243769   6.640   3.047   1.733
14610TIP3   OH243770   0.906   1.143   3.511
14610TIP3    H143771   0.890   1.212   3.574
14610TIP3    H243772   0.941   1.070   3.562
14611TIP3   OH243773   0.228   4.495   4.036
14611TIP3    H143774   0.319   4.476   4.055
14611TIP3    H243775   0.225   4.508   3.941
14612TIP3   OH243776   3.684   6.950   5.517
14612TIP3    H143777   3.615   6.885   5.528
14612TIP3    H243778   3.644   7.032   5.549
14613TIP3   OH243779   0.806   7.117   6.032
14613TIP3    H143780   0.802   7.149   5.941
14613TIP3    H243781   0.725   7.067   6.042
14614TIP3   OH243782   3.329   4.602   2.295
14614TIP3    H143783   3.262   4.660   2.259
14614TIP3    H243784   3.411   4.649   2.281
14615TIP3   OH243785   4.442   3.775   5.663
14615TIP3    H143786   4.477   3.851   5.616
14615TIP3    H243787   4.408   3.718   5.594
14616TIP3   OH243788   8.150   3.774   0.598
14616TIP3    H143789   8.114   3.847   0.548
14616TIP3    H243790   8.171   3.812   0.684
14617TIP3   OH243791   5.695   2.909   6.554
14617TIP3    H143792   5.677   2.858   6.475
14617TIP3    H243793   5.616   2.962   6.567
14618TIP3   OH243794   2.811   4.567   4.390
14618TIP3    H143795   2.782   4.498   4.329
14618TIP3    H243796   2.874   4.618   4.340
14619TIP3   OH243797   6.082   1.677   3.468
14619TIP3    H143798   5.999   1.717   3.444
14619TIP3    H243799   6.061   1.585   3.486
14620TIP3   OH243800   4.891   5.727   4.625
14620TIP3    H143801   4.809   5.766   4.596
14620TIP3    H243802   4.952   5.742   4.553
14621TIP3   OH243803   7.571   2.043   3.191
14621TIP3    H143804   7.561   1.952   3.164
14621TIP3    H243805   7.602   2.037   3.282
14622TIP3   OH243806   2.077   1.978   0.733
14622TIP3    H143807   2.078   2.008   0.824
14622TIP3    H243808   2.168   1.981   0.705
14623TIP3   OH243809   7.784   6.065   4.505
14623TIP3    H143810   7.865   6.094   4.548
14623TIP3    H243811   7.813   6.020   4.426
14624TIP3   OH243812   4.573   0.127   6.650
14624TIP3    H143813   4.665   0.105   6.637
14624TIP3    H243814   4.525   0.052   6.614
14625TIP3   OH243815   7.639   2.396   6.334
14625TIP3    H143816   7.601   2.462   6.276
14625TIP3    H243817   7.712   2.440   6.377
14626TIP3   OH243818   5.897   7.546   4.392
14626TIP3    H143819   5.963   7.562   4.459
14626TIP3    H243820   5.814   7.564   4.435
14627TIP3   OH243821   7.840   3.943   3.029
14627TIP3    H143822   7.870   3.922   3.118
14627TIP3    H243823   7.753   3.980   3.042
14628TIP3   OH243824   6.550   0.551   4.549
14628TIP3    H143825   6.641   0.576   4.535
14628TIP3    H243826   6.504   0.633   4.564
14629TIP3   OH243827   6.496   5.048   2.455
14629TIP3    H143828   6.450   5.125   2.487
14629TIP3    H243829   6.428   4.982   2.440
14630TIP3   OH243830   2.063   1.302   0.339
14630TIP3    H143831   1.977   1.342   0.335
14630TIP3    H243832   2.124   1.374   0.324
14631TIP3   OH243833   0.217   6.669   5.237
14631TIP3    H143834   0.185   6.615   5.165
14631TIP3    H243835   0.198   6.618   5.316
14632TIP3   OH243836   5.727   6.391   5.051
14632TIP3    H143837   5.761   6.321   5.107
14632TIP3    H243838   5.715   6.349   4.965
14633TIP3   OH243839   0.926   3.236   4.204
14633TIP3    H143840   0.948   3.249   4.297
14633TIP3    H243841   0.857   3.170   4.205
14634TIP3   OH243842   2.922   3.048   5.926
14634TIP3    H143843   2.897   3.053   6.018
14634TIP3    H243844   2.839   3.044   5.879
14635TIP3   OH243845   0.244   0.782   1.492
14635TIP3    H143846   0.318   0.751   1.544
14635TIP3    H243847   0.271   0.770   1.402
14636TIP3   OH243848   2.685   3.339   2.567
14636TIP3    H143849   2.712   3.260   2.521
14636TIP3    H243850   2.766   3.380   2.596
14637TIP3   OH243851   2.235   1.498   3.165
14637TIP3    H143852   2.148   1.478   3.131
14637TIP3    H243853   2.272   1.412   3.186
14638TIP3   OH243854   2.836   7.555   3.401
14638TIP3    H143855   2.826   7.650   3.407
14638TIP3    H243856   2.777   7.529   3.330
14639TIP3   OH243857   7.493   2.123   6.106
14639TIP3    H143858   7.532   2.162   6.185
14639TIP3    H243859   7.433   2.057   6.139
14640TIP3   OH243860   5.328   4.710   1.150
14640TIP3    H143861   5.387   4.685   1.222
14640TIP3    H243862   5.363   4.792   1.117
14641TIP3   OH243863   1.938   4.491   5.180
14641TIP3    H143864   1.986   4.427   5.128
14641TIP3    H243865   1.879   4.438   5.234
14642TIP3   OH243866   0.599   0.954   5.736
14642TIP3    H143867   0.655   0.939   5.811
14642TIP3    H243868   0.603   0.873   5.686
14643TIP3   OH243869   0.760   4.101   2.938
14643TIP3    H143870   0.724   4.066   3.019
14643TIP3    H243871   0.729   4.042   2.870
14644TIP3   OH243872   2.232   2.367   5.421
14644TIP3    H143873   2.271   2.431   5.481
14644TIP3    H243874   2.251   2.282   5.461
14645TIP3   OH243875   0.640   4.549   1.221
14645TIP3    H143876   0.553   4.552   1.182
14645TIP3    H243877   0.636   4.479   1.286
14646TIP3   OH243878   2.909   7.268   0.320
14646TIP3    H143879   2.940   7.243   0.407
14646TIP3    H243880   2.820   7.234   0.315
14647TIP3   OH243881   0.633   7.140   6.809
14647TIP3    H143882   0.678   7.106   6.732
14647TIP3    H243883   0.576   7.209   6.776
14648TIP3   OH243884   2.506   1.909   0.462
14648TIP3    H143885   2.437   1.852   0.426
14648TIP3    H243886   2.540   1.956   0.386
14649TIP3   OH243887   8.348   1.622   3.467
14649TIP3    H143888   8.336   1.679   3.543
14649TIP3    H243889   8.308   1.669   3.394
14650TIP3   OH243890   0.714   5.290   4.269
14650TIP3    H143891   0.807   5.269   4.257
14650TIP3    H243892   0.692   5.253   4.355
14651TIP3   OH243893   5.747   2.133   3.979
14651TIP3    H143894   5.799   2.166   3.906
14651TIP3    H243895   5.747   2.204   4.043
14652TIP3   OH243896   1.288   1.958   1.221
14652TIP3    H143897   1.212   1.900   1.220
14652TIP3    H243898   1.317   1.959   1.312
14653TIP3   OH243899   1.311   3.889   2.621
14653TIP3    H143900   1.306   3.965   2.562
14653TIP3    H243901   1.404   3.880   2.639
14654TIP3   OH243902   1.690   2.519   6.170
14654TIP3    H143903   1.617   2.479   6.218
14654TIP3    H243904   1.650   2.550   6.089
14655TIP3   OH243905   5.853   2.944   3.175
14655TIP3    H143906   5.828   2.987   3.257
14655TIP3    H243907   5.811   2.997   3.107
14656TIP3   OH243908   6.252   0.989   5.837
14656TIP3    H143909   6.261   0.953   5.925
14656TIP3    H243910   6.160   1.014   5.829
14657TIP3   OH243911   6.296   7.782   4.428
14657TIP3    H143912   6.317   7.720   4.498
14657TIP3    H243913   6.363   7.766   4.361
14658TIP3   OH243914   3.311   4.802   1.218
14658TIP3    H143915   3.289   4.854   1.295
14658TIP3    H243916   3.406   4.807   1.212
14659TIP3   OH243917   2.482   3.884   0.542
14659TIP3    H143918   2.549   3.934   0.495
14659TIP3    H243919   2.404   3.890   0.486
14660TIP3   OH243920   6.726   6.686   3.811
14660TIP3    H143921   6.770   6.728   3.737
14660TIP3    H243922   6.657   6.747   3.835
14661TIP3   OH243923   3.673   1.555   0.810
14661TIP3    H143924   3.753   1.517   0.846
14661TIP3    H243925   3.606   1.488   0.825
14662TIP3   OH243926   4.489   4.313   4.568
14662TIP3    H143927   4.433   4.374   4.521
14662TIP3    H243928   4.451   4.308   4.656
14663TIP3   OH243929   3.826   4.420   0.222
14663TIP3    H143930   3.824   4.514   0.202
14663TIP3    H243931   3.859   4.415   0.311
14664TIP3   OH243932   5.647   1.878   2.892
14664TIP3    H143933   5.558   1.847   2.910
14664TIP3    H243934   5.704   1.806   2.921
14665TIP3   OH243935   3.745   3.475   1.742
14665TIP3    H143936   3.838   3.495   1.752
14665TIP3    H243937   3.733   3.461   1.648
14666TIP3   OH243938   2.791   4.915   5.162
14666TIP3    H143939   2.775   5.004   5.193
14666TIP3    H243940   2.865   4.923   5.102
14667TIP3   OH243941   6.838   3.501   1.516
14667TIP3    H143942   6.872   3.528   1.602
14667TIP3    H243943   6.786   3.423   1.535
14668TIP3   OH243944   0.746   3.930   1.414
14668TIP3    H143945   0.831   3.975   1.419
14668TIP3    H243946   0.762   3.843   1.450
14669TIP3   OH243947   4.897   0.472   6.018
14669TIP3    H143948   4.803   0.467   6.031
14669TIP3    H243949   4.915   0.412   5.945
14670TIP3   OH243950   3.807   5.002   6.704
14670TIP3    H143951   3.802   5.093   6.676
14670TIP3    H243952   3.804   5.006   6.800
14671TIP3   OH243953   1.315   7.784   1.416
14671TIP3    H143954   1.382   7.847   1.389
14671TIP3    H243955   1.300   7.802   1.508
14672TIP3   OH243956   3.533   0.687   0.011
14672TIP3    H143957   3.559   0.691  -0.081
14672TIP3    H243958   3.613   0.666   0.058
14673TIP3   OH243959   5.928   1.280   3.772
14673TIP3    H143960   5.961   1.228   3.845
14673TIP3    H243961   5.836   1.255   3.764
14674TIP3   OH243962   4.161   3.848   2.289
14674TIP3    H143963   4.254   3.866   2.279
14674TIP3    H243964   4.157   3.774   2.349
14675TIP3   OH243965   5.043   3.469   5.617
14675TIP3    H143966   5.137   3.458   5.600
14675TIP3    H243967   5.037   3.550   5.667
14676TIP3   OH243968   4.000   4.770   2.636
14676TIP3    H143969   3.998   4.808   2.724
14676TIP3    H243970   4.058   4.695   2.643
14677TIP3   OH243971   7.511   3.183   4.567
14677TIP3    H143972   7.596   3.155   4.601
14677TIP3    H243973   7.529   3.212   4.477
14678TIP3   OH243974   7.118   2.226   5.327
14678TIP3    H143975   7.052   2.188   5.385
14678TIP3    H243976   7.200   2.218   5.376
14679TIP3   OH243977   6.129   3.239   4.134
14679TIP3    H143978   6.157   3.330   4.128
14679TIP3    H243979   6.209   3.190   4.153
14680TIP3   OH243980   2.269   4.096   0.152
14680TIP3    H143981   2.221   4.082   0.234
14680TIP3    H243982   2.222   4.044   0.087
14681TIP3   OH243983   1.085   6.933   6.820
14681TIP3    H143984   1.172   6.966   6.797
14681TIP3    H243985   1.097   6.894   6.907
14682TIP3   OH243986   7.796   0.021   4.788
14682TIP3    H143987   7.709   0.000   4.824
14682TIP3    H243988   7.810   0.113   4.810
14683TIP3   OH243989   6.872   5.965   5.122
14683TIP3    H143990   6.826   6.042   5.155
14683TIP3    H243991   6.954   5.962   5.170
14684TIP3   OH243992   2.591   0.901   6.718
14684TIP3    H143993   2.665   0.957   6.741
14684TIP3    H243994   2.611   0.869   6.630
14685TIP3   OH243995   1.269   7.120   4.231
14685TIP3    H143996   1.292   7.037   4.190
14685TIP3    H243997   1.206   7.097   4.299
14686TIP3   OH243998   4.353   7.047   3.669
14686TIP3    H143999   4.327   6.955   3.666
14686TIP3    H244000   4.271   7.096   3.661
14687TIP3   OH244001   3.425   6.494   5.024
14687TIP3    H144002   3.356   6.513   4.961
14687TIP3    H244003   3.378   6.482   5.107
14688TIP3   OH244004   7.642   3.650   5.720
14688TIP3    H144005   7.693   3.685   5.646
14688TIP3    H244006   7.584   3.586   5.680
14689TIP3   OH244007   3.401   6.239   2.273
14689TIP3    H144008   3.310   6.234   2.244
14689TIP3    H244009   3.397   6.223   2.367
14690TIP3   OH244010   1.370   5.993   6.088
14690TIP3    H144011   1.431   6.054   6.047
14690TIP3    H244012   1.414   5.908   6.081
14691TIP3   OH244013   1.573   2.895   1.342
14691TIP3    H144014   1.488   2.852   1.338
14691TIP3    H244015   1.594   2.895   1.436
14692TIP3   OH244016   3.438   3.905   6.232
14692TIP3    H144017   3.366   3.859   6.189
14692TIP3    H244018   3.409   3.917   6.322
14693TIP3   OH244019   0.494   5.326   4.081
14693TIP3    H144020   0.567   5.295   4.134
14693TIP3    H244021   0.416   5.291   4.125
14694TIP3   OH244022   2.492   1.133   5.640
14694TIP3    H144023   2.475   1.090   5.556
14694TIP3    H244024   2.560   1.197   5.620
14695TIP3   OH244025   7.340   4.151   1.153
14695TIP3    H144026   7.368   4.220   1.093
14695TIP3    H244027   7.421   4.121   1.194
14696TIP3   OH244028   3.938   5.013   3.741
14696TIP3    H144029   3.890   4.961   3.677
14696TIP3    H244030   3.920   4.970   3.825
14697TIP3   OH244031   6.521   6.627   0.307
14697TIP3    H144032   6.583   6.698   0.324
14697TIP3    H244033   6.479   6.651   0.224
14698TIP3   OH244034   7.936   5.121   2.113
14698TIP3    H144035   7.848   5.083   2.116
14698TIP3    H244036   7.944   5.158   2.026
14699TIP3   OH244037   1.301   0.026   2.939
14699TIP3    H144038   1.300   0.118   2.964
14699TIP3    H244039   1.259   0.024   2.853
14700TIP3   OH244040   0.058   0.139   2.065
14700TIP3    H144041   0.028   0.179   2.147
14700TIP3    H244042   0.068   0.046   2.087
14701TIP3   OH244043   0.621   4.927   5.071
14701TIP3    H144044   0.536   4.923   5.115
14701TIP3    H244045   0.601   4.961   4.983
14702TIP3   OH244046   2.251   3.694   0.896
14702TIP3    H144047   2.252   3.642   0.816
14702TIP3    H244048   2.308   3.769   0.877
14703TIP3   OH244049   2.841   3.422   5.761
14703TIP3    H144050   2.816   3.471   5.840
14703TIP3    H244051   2.879   3.489   5.703
14704TIP3   OH244052   8.362   6.605   0.515
14704TIP3    H144053   8.314   6.524   0.533
14704TIP3    H244054   8.380   6.642   0.602
14705TIP3   OH244055   8.169   2.555   0.186
14705TIP3    H144056   8.073   2.545   0.182
14705TIP3    H244057   8.183   2.649   0.174
14706TIP3   OH244058   5.287   6.206   0.338
14706TIP3    H144059   5.379   6.179   0.344
14706TIP3    H244060   5.238   6.134   0.377
14707TIP3   OH244061   6.555   7.603   4.519
14707TIP3    H144062   6.620   7.574   4.583
14707TIP3    H244063   6.565   7.698   4.517
14708TIP3   OH244064   4.970   1.438   6.633
14708TIP3    H144065   5.005   1.460   6.719
14708TIP3    H244066   4.903   1.371   6.650
14709TIP3   OH244067   0.502   1.975   4.910
14709TIP3    H144068   0.425   1.957   4.964
14709TIP3    H244069   0.562   1.904   4.929
14710TIP3   OH244070   3.984   6.942   5.622
14710TIP3    H144071   3.896   6.955   5.588
14710TIP3    H244072   4.005   6.851   5.601
14711TIP3   OH244073   4.736   3.209   0.285
14711TIP3    H144074   4.698   3.186   0.370
14711TIP3    H244075   4.830   3.214   0.300
14712TIP3   OH244076   7.602   3.550   6.695
14712TIP3    H144077   7.537   3.598   6.644
14712TIP3    H244078   7.680   3.606   6.694
14713TIP3   OH244079   4.281   1.441   5.052
14713TIP3    H144080   4.269   1.346   5.047
14713TIP3    H244081   4.192   1.476   5.050
14714TIP3   OH244082   6.180   1.888   2.941
14714TIP3    H144083   6.127   1.832   2.885
14714TIP3    H244084   6.162   1.858   3.030
14715TIP3   OH244085   3.545   2.706   3.973
14715TIP3    H144086   3.534   2.637   4.039
14715TIP3    H244087   3.640   2.719   3.969
14716TIP3   OH244088   6.440   2.294   1.421
14716TIP3    H144089   6.531   2.324   1.418
14716TIP3    H244090   6.394   2.363   1.468
14717TIP3   OH244091   5.582   4.379   2.910
14717TIP3    H144092   5.637   4.394   2.987
14717TIP3    H244093   5.552   4.466   2.885
14718TIP3   OH244094   5.943   4.212   1.692
14718TIP3    H144095   5.920   4.133   1.643
14718TIP3    H244096   5.996   4.180   1.765
14719TIP3   OH244097   4.800   4.532   0.731
14719TIP3    H144098   4.711   4.496   0.733
14719TIP3    H244099   4.813   4.558   0.640
14720TIP3   OH244100   2.071   2.629   2.943
14720TIP3    H144101   1.990   2.680   2.946
14720TIP3    H244102   2.131   2.682   2.890
14721TIP3   OH244103   6.557   6.877   3.879
14721TIP3    H144104   6.618   6.936   3.923
14721TIP3    H244105   6.503   6.934   3.824
14722TIP3   OH244106   6.653   4.985   6.361
14722TIP3    H144107   6.592   4.914   6.383
14722TIP3    H244108   6.700   5.002   6.443
14723TIP3   OH244109   3.873   2.702   1.563
14723TIP3    H144110   3.833   2.788   1.574
14723TIP3    H244111   3.915   2.685   1.648
14724TIP3   OH244112   2.221   2.693   4.403
14724TIP3    H144113   2.150   2.646   4.446
14724TIP3    H244114   2.300   2.660   4.446
14725TIP3   OH244115   7.448   6.925   0.164
14725TIP3    H144116   7.483   7.005   0.125
14725TIP3    H244117   7.472   6.931   0.257
14726TIP3   OH244118   4.231   4.974   4.005
14726TIP3    H144119   4.252   4.929   4.086
14726TIP3    H244120   4.162   5.036   4.028
14727TIP3   OH244121   6.035   7.070   2.516
14727TIP3    H144122   6.051   7.158   2.552
14727TIP3    H244123   5.976   7.086   2.442
14728TIP3   OH244124   3.899   5.253   0.860
14728TIP3    H144125   3.842   5.305   0.804
14728TIP3    H244126   3.847   5.233   0.937
14729TIP3   OH244127   6.634   4.872   4.775
14729TIP3    H144128   6.572   4.804   4.749
14729TIP3    H244129   6.615   4.945   4.716
14730TIP3   OH244130   3.495   0.925   4.254
14730TIP3    H144131   3.421   0.985   4.265
14730TIP3    H244132   3.518   0.933   4.161
14731TIP3   OH244133   0.314   3.253   3.798
14731TIP3    H144134   0.336   3.336   3.756
14731TIP3    H244135   0.357   3.257   3.883
14732TIP3   OH244136   7.419   4.660   6.007
14732TIP3    H144137   7.466   4.733   6.049
14732TIP3    H244138   7.483   4.623   5.947
14733TIP3   OH244139   1.580   4.670   0.307
14733TIP3    H144140   1.620   4.631   0.230
14733TIP3    H244141   1.589   4.764   0.294
14734TIP3   OH244142   2.171   0.605   4.457
14734TIP3    H144143   2.158   0.532   4.396
14734TIP3    H244144   2.099   0.665   4.437
14735TIP3   OH244145   1.370   4.454   5.685
14735TIP3    H144146   1.382   4.507   5.764
14735TIP3    H244147   1.278   4.427   5.688
14736TIP3   OH244148   7.777   3.380   4.775
14736TIP3    H144149   7.767   3.316   4.846
14736TIP3    H244150   7.829   3.450   4.813
14737TIP3   OH244151   3.636   0.731   2.211
14737TIP3    H144152   3.595   0.674   2.146
14737TIP3    H244153   3.612   0.820   2.184
14738TIP3   OH244154   6.126   2.382   5.379
14738TIP3    H144155   6.153   2.327   5.453
14738TIP3    H244156   6.046   2.426   5.410
14739TIP3   OH244157   0.577   6.988   0.874
14739TIP3    H144158   0.595   7.031   0.957
14739TIP3    H244159   0.553   6.898   0.897
14740TIP3   OH244160   6.437   5.540   0.512
14740TIP3    H144161   6.428   5.608   0.444
14740TIP3    H244162   6.488   5.471   0.470
14741TIP3   OH244163   0.740   1.335   0.977
14741TIP3    H144164   0.707   1.401   1.038
14741TIP3    H244165   0.726   1.374   0.890
14742TIP3   OH244166   5.902   4.248   4.115
14742TIP3    H144167   5.814   4.284   4.122
14742TIP3    H244168   5.905   4.177   4.180
14743TIP3   OH244169   3.532   1.600   6.068
14743TIP3    H144170   3.448   1.558   6.088
14743TIP3    H244171   3.513   1.694   6.074
14744TIP3   OH244172   7.928   2.037   2.805
14744TIP3    H144173   7.960   1.950   2.781
14744TIP3    H244174   7.833   2.032   2.791
14745TIP3   OH244175   8.340   7.136   4.692
14745TIP3    H144176   8.292   7.054   4.679
14745TIP3    H244177   8.373   7.131   4.781
14746TIP3   OH244178   3.480   7.908   1.668
14746TIP3    H144179   3.543   7.858   1.719
14746TIP3    H244180   3.497   7.999   1.691
14747TIP3   OH244181   5.127   0.957   0.364
14747TIP3    H144182   5.222   0.969   0.357
14747TIP3    H244183   5.113   0.932   0.455
14748TIP3   OH244184   7.374   1.349   5.272
14748TIP3    H144185   7.371   1.277   5.209
14748TIP3    H244186   7.288   1.391   5.265
14749TIP3   OH244187   3.945   4.451   1.362
14749TIP3    H144188   3.934   4.508   1.438
14749TIP3    H244189   4.018   4.490   1.313
14750TIP3   OH244190   6.843   7.797   0.148
14750TIP3    H144191   6.790   7.853   0.205
14750TIP3    H244192   6.917   7.853   0.123
14751TIP3   OH244193   6.332   5.329   2.004
14751TIP3    H144194   6.239   5.332   2.027
14751TIP3    H244195   6.377   5.359   2.083
14752TIP3   OH244196   1.477   0.402   0.596
14752TIP3    H144197   1.458   0.312   0.569
14752TIP3    H244198   1.509   0.393   0.685
14753TIP3   OH244199   1.560   0.910   4.197
14753TIP3    H144200   1.580   0.877   4.110
14753TIP3    H244201   1.596   0.999   4.198
14754TIP3   OH244202   2.887   4.839   0.611
14754TIP3    H144203   2.899   4.924   0.568
14754TIP3    H244204   2.827   4.792   0.554
14755TIP3   OH244205   7.778   3.684   2.011
14755TIP3    H144206   7.859   3.734   2.002
14755TIP3    H244207   7.708   3.750   2.011
14756TIP3   OH244208   7.003   5.278   3.270
14756TIP3    H144209   7.024   5.194   3.231
14756TIP3    H244210   6.982   5.335   3.195
14757TIP3   OH244211   7.827   6.540   5.754
14757TIP3    H144212   7.888   6.565   5.685
14757TIP3    H244213   7.834   6.610   5.819
14758TIP3   OH244214   1.405   7.701   5.267
14758TIP3    H144215   1.337   7.673   5.329
14758TIP3    H244216   1.358   7.752   5.201
14759TIP3   OH244217   1.609   1.079   5.595
14759TIP3    H144218   1.607   1.075   5.690
14759TIP3    H244219   1.621   0.988   5.567
14760TIP3   OH244220   3.157   4.373   5.326
14760TIP3    H144221   3.083   4.357   5.268
14760TIP3    H244222   3.124   4.352   5.413
14761TIP3   OH244223   5.064   7.575   3.310
14761TIP3    H144224   5.055   7.486   3.344
14761TIP3    H244225   5.030   7.570   3.220
14762TIP3   OH244226   0.534   0.875   6.819
14762TIP3    H144227   0.530   0.955   6.768
14762TIP3    H244228   0.583   0.814   6.764
14763TIP3   OH244229   2.015   3.737   1.492
14763TIP3    H144230   2.025   3.774   1.580
14763TIP3    H244231   2.083   3.670   1.487
14764TIP3   OH244232   2.145   3.387   5.346
14764TIP3    H144233   2.180   3.367   5.259
14764TIP3    H244234   2.218   3.429   5.391
14765TIP3   OH244235   3.215   2.044   5.728
14765TIP3    H144236   3.147   2.069   5.791
14765TIP3    H244237   3.172   2.047   5.643
14766TIP3   OH244238   3.534   3.030   6.406
14766TIP3    H144239   3.551   2.999   6.318
14766TIP3    H244240   3.568   3.120   6.407
14767TIP3   OH244241   0.299   3.543   3.687
14767TIP3    H144242   0.208   3.544   3.718
14767TIP3    H244243   0.324   3.635   3.682
14768TIP3   OH244244   7.467   3.571   2.563
14768TIP3    H144245   7.410   3.497   2.542
14768TIP3    H244246   7.442   3.597   2.651
14769TIP3   OH244247   7.960   2.825   2.819
14769TIP3    H144248   8.015   2.896   2.853
14769TIP3    H244249   8.015   2.782   2.753
14770TIP3   OH244250   5.528   1.635   1.500
14770TIP3    H144251   5.521   1.610   1.592
14770TIP3    H244252   5.444   1.676   1.480
14771TIP3   OH244253   0.070   6.101   6.172
14771TIP3    H144254  -0.008   6.102   6.116
14771TIP3    H244255   0.110   6.016   6.155
14772TIP3   OH244256   1.879   5.898   3.857
14772TIP3    H144257   1.849   5.864   3.773
14772TIP3    H244258   1.969   5.925   3.842
14773TIP3   OH244259   3.724   4.461   2.151
14773TIP3    H144260   3.743   4.495   2.238
14773TIP3    H244261   3.744   4.533   2.092
14774TIP3   OH244262   7.818   4.037   0.505
14774TIP3    H144263   7.818   4.055   0.599
14774TIP3    H244264   7.750   3.970   0.494
14775TIP3   OH244265   0.169   4.268   2.085
14775TIP3    H144266   0.230   4.299   2.019
14775TIP3    H244267   0.082   4.290   2.050
14776TIP3   OH244268   4.660   3.177   1.783
14776TIP3    H144269   4.700   3.172   1.871
14776TIP3    H244270   4.733   3.159   1.723
14777TIP3   OH244271   0.763   3.995   4.092
14777TIP3    H144272   0.824   4.062   4.060
14777TIP3    H244273   0.713   3.970   4.014
14778TIP3   OH244274   2.240   7.758   2.852
14778TIP3    H144275   2.215   7.843   2.817
14778TIP3    H244276   2.158   7.713   2.871
14779TIP3   OH244277   3.741   3.379   1.487
14779TIP3    H144278   3.837   3.378   1.479
14779TIP3    H244279   3.711   3.419   1.405
14780TIP3   OH244280   0.918   3.056   5.756
14780TIP3    H144281   0.909   3.146   5.725
14780TIP3    H244282   0.874   3.055   5.841
14781TIP3   OH244283   6.200   5.924   4.671
14781TIP3    H144284   6.279   5.906   4.621
14781TIP3    H244285   6.131   5.878   4.624
14782TIP3   OH244286   5.114   0.559   6.144
14782TIP3    H144287   5.038   0.509   6.112
14782TIP3    H244288   5.185   0.495   6.144
14783TIP3   OH244289   1.134   4.990   4.567
14783TIP3    H144290   1.193   5.040   4.512
14783TIP3    H244291   1.148   4.899   4.542
14784TIP3   OH244292   2.345   4.934   5.203
14784TIP3    H144293   2.398   4.875   5.150
14784TIP3    H244294   2.395   4.945   5.284
14785TIP3   OH244295   3.206   6.849   2.402
14785TIP3    H144296   3.120   6.884   2.422
14785TIP3    H244297   3.200   6.755   2.422
14786TIP3   OH244298   2.603   7.251   4.488
14786TIP3    H144299   2.548   7.257   4.566
14786TIP3    H244300   2.642   7.163   4.493
14787TIP3   OH244301   5.455   2.729   6.781
14787TIP3    H144302   5.549   2.734   6.802
14787TIP3    H244303   5.449   2.657   6.717
14788TIP3   OH244304   5.302   6.517   2.140
14788TIP3    H144305   5.345   6.570   2.073
14788TIP3    H244306   5.304   6.571   2.219
14789TIP3   OH244307   8.222   3.872   4.705
14789TIP3    H144308   8.314   3.847   4.701
14789TIP3    H244309   8.218   3.940   4.772
14790TIP3   OH244310   4.026   6.049   0.151
14790TIP3    H144311   4.118   6.052   0.127
14790TIP3    H244312   4.022   6.091   0.237
14791TIP3   OH244313   4.618   6.072   1.931
14791TIP3    H144314   4.663   6.131   1.870
14791TIP3    H244315   4.687   6.012   1.961
14792TIP3   OH244316   4.886   6.121   1.617
14792TIP3    H144317   4.846   6.206   1.636
14792TIP3    H244318   4.970   6.123   1.664
14793TIP3   OH244319   6.613   5.913   1.675
14793TIP3    H144320   6.524   5.943   1.658
14793TIP3    H244321   6.620   5.912   1.770
14794TIP3   OH244322   4.599   1.167   0.127
14794TIP3    H144323   4.611   1.080   0.165
14794TIP3    H244324   4.655   1.225   0.179
14795TIP3   OH244325   4.271   0.202   4.567
14795TIP3    H144326   4.238   0.222   4.479
14795TIP3    H244327   4.359   0.168   4.552
14796TIP3   OH244328   6.843   4.406   3.228
14796TIP3    H144329   6.888   4.457   3.295
14796TIP3    H244330   6.863   4.451   3.146
14797TIP3   OH244331   6.740   7.161   1.721
14797TIP3    H144332   6.786   7.158   1.637
14797TIP3    H244333   6.760   7.248   1.756
14798TIP3   OH244334   5.638   1.277   4.224
14798TIP3    H144335   5.700   1.304   4.157
14798TIP3    H244336   5.634   1.351   4.285
14799TIP3   OH244337   0.051   3.472   5.029
14799TIP3    H144338   0.126   3.469   4.971
14799TIP3    H244339  -0.014   3.416   4.987
14800TIP3   OH244340   0.269   0.920   0.008
14800TIP3    H144341   0.310   0.921  -0.079
14800TIP3    H244342   0.284   0.831   0.040
14801TIP3   OH244343   0.560   5.735   0.809
14801TIP3    H144344   0.568   5.775   0.896
14801TIP3    H244345   0.631   5.774   0.758
14802TIP3   OH244346   0.710   3.946   6.279
14802TIP3    H144347   0.804   3.933   6.290
14802TIP3    H244348   0.678   3.960   6.369
14803TIP3   OH244349   7.568   6.232   4.379
14803TIP3    H144350   7.627   6.163   4.409
14803TIP3    H244351   7.611   6.313   4.407
14804TIP3   OH244352   6.485   5.783   6.489
14804TIP3    H144353   6.395   5.769   6.518
14804TIP3    H244354   6.539   5.763   6.566
14805TIP3   OH244355   1.524   2.528   1.017
14805TIP3    H144356   1.507   2.437   0.992
14805TIP3    H244357   1.603   2.552   0.968
14806TIP3   OH244358   7.193   7.869   3.774
14806TIP3    H144359   7.105   7.883   3.740
14806TIP3    H244360   7.204   7.935   3.843
14807TIP3   OH244361   7.322   1.969   2.422
14807TIP3    H144362   7.302   1.941   2.511
14807TIP3    H244363   7.407   1.928   2.403
14808TIP3   OH244364   2.978   1.984   2.679
14808TIP3    H144365   2.963   1.900   2.723
14808TIP3    H244366   2.946   1.970   2.590
14809TIP3   OH244367   3.727   4.668   0.072
14809TIP3    H144368   3.792   4.704   0.132
14809TIP3    H244369   3.656   4.731   0.074
14810TIP3   OH244370   2.131   7.556   0.972
14810TIP3    H144371   2.083   7.610   0.909
14810TIP3    H244372   2.184   7.498   0.917
14811TIP3   OH244373   6.113   1.690   6.291
14811TIP3    H144374   6.050   1.761   6.286
14811TIP3    H244375   6.102   1.653   6.378
14812TIP3   OH244376   3.561   5.544   1.736
14812TIP3    H144377   3.593   5.633   1.746
14812TIP3    H244378   3.478   5.553   1.689
14813TIP3   OH244379   5.415   1.107   1.836
14813TIP3    H144380   5.374   1.033   1.791
14813TIP3    H244381   5.456   1.158   1.766
14814TIP3   OH244382   8.362   1.061   3.397
14814TIP3    H144383   8.455   1.069   3.376
14814TIP3    H244384   8.359   0.999   3.470
14815TIP3   OH244385   1.411   5.262   0.090
14815TIP3    H144386   1.494   5.269   0.043
14815TIP3    H244387   1.382   5.352   0.101
14816TIP3   OH244388   5.877   3.976   5.730
14816TIP3    H144389   5.793   4.013   5.754
14816TIP3    H244390   5.856   3.896   5.682
14817TIP3   OH244391   1.554   6.036   4.801
14817TIP3    H144392   1.480   6.027   4.741
14817TIP3    H244393   1.599   6.116   4.772
14818TIP3   OH244394   6.561   6.555   1.687
14818TIP3    H144395   6.550   6.559   1.592
14818TIP3    H244396   6.510   6.629   1.720
14819TIP3   OH244397   4.587   3.714   1.997
14819TIP3    H144398   4.681   3.710   2.016
14819TIP3    H244399   4.573   3.803   1.964
14820TIP3   OH244400   7.469   7.062   5.481
14820TIP3    H144401   7.485   7.155   5.471
14820TIP3    H244402   7.545   7.020   5.441
14821TIP3   OH244403   2.405   5.723   5.935
14821TIP3    H144404   2.447   5.778   6.001
14821TIP3    H244405   2.443   5.636   5.949
14822TIP3   OH244406   5.761   0.485   1.804
14822TIP3    H144407   5.820   0.542   1.755
14822TIP3    H244408   5.689   0.542   1.831
14823TIP3   OH244409   2.569   4.830   1.352
14823TIP3    H144410   2.526   4.915   1.351
14823TIP3    H244411   2.660   4.849   1.376
14824TIP3   OH244412   7.093   1.862   1.003
14824TIP3    H144413   7.101   1.799   0.931
14824TIP3    H244414   7.184   1.882   1.027
14825TIP3   OH244415   3.538   7.688   6.194
14825TIP3    H144416   3.582   7.655   6.272
14825TIP3    H244417   3.591   7.657   6.121
14826TIP3   OH244418   8.253   0.617   6.504
14826TIP3    H144419   8.189   0.554   6.538
14826TIP3    H244420   8.226   0.701   6.539
14827TIP3   OH244421   7.604   7.770   0.284
14827TIP3    H144422   7.577   7.710   0.215
14827TIP3    H244423   7.538   7.839   0.284
14828TIP3   OH244424   4.638   0.639   3.436
14828TIP3    H144425   4.573   0.603   3.497
14828TIP3    H244426   4.720   0.637   3.485
14829TIP3   OH244427   6.292   0.661   0.687
14829TIP3    H144428   6.306   0.696   0.599
14829TIP3    H244429   6.238   0.726   0.731
14830TIP3   OH244430   4.570   5.943   5.314
14830TIP3    H144431   4.653   5.926   5.359
14830TIP3    H244432   4.572   5.887   5.236
14831TIP3   OH244433   5.193   4.462   1.828
14831TIP3    H144434   5.281   4.452   1.790
14831TIP3    H244435   5.160   4.543   1.791
14832TIP3   OH244436   4.400   0.107   1.121
14832TIP3    H144437   4.485   0.137   1.152
14832TIP3    H244438   4.409   0.104   1.026
14833TIP3   OH244439   0.178   0.665   0.423
14833TIP3    H144440   0.089   0.695   0.407
14833TIP3    H244441   0.214   0.727   0.486
14834TIP3   OH244442   4.245   6.423   0.155
14834TIP3    H144443   4.217   6.494   0.213
14834TIP3    H244444   4.324   6.388   0.196
14835TIP3   OH244445   4.964   5.306   2.710
14835TIP3    H144446   4.915   5.238   2.757
14835TIP3    H244447   4.910   5.327   2.635
14836TIP3   OH244448   4.120   0.142   3.893
14836TIP3    H144449   4.107   0.155   3.800
14836TIP3    H244450   4.177   0.065   3.899
14837TIP3   OH244451   1.318   7.653   5.889
14837TIP3    H144452   1.337   7.675   5.798
14837TIP3    H244453   1.222   7.655   5.894
14838TIP3   OH244454   2.279   4.019   5.526
14838TIP3    H144455   2.319   4.095   5.570
14838TIP3    H244456   2.189   4.017   5.559
14839TIP3   OH244457   3.815   5.663   5.854
14839TIP3    H144458   3.744   5.657   5.790
14839TIP3    H244459   3.779   5.622   5.933
14840TIP3   OH244460   6.074   2.863   4.895
14840TIP3    H144461   6.164   2.892   4.914
14840TIP3    H244462   6.081   2.767   4.894
14841TIP3   OH244463   3.115   1.269   5.757
14841TIP3    H144464   3.089   1.361   5.750
14841TIP3    H244465   3.060   1.223   5.694
14842TIP3   OH244466   1.077   7.169   6.015
14842TIP3    H144467   1.090   7.086   5.969
14842TIP3    H244468   0.987   7.164   6.049
14843TIP3   OH244469   4.827   1.189   5.444
14843TIP3    H144470   4.770   1.212   5.517
14843TIP3    H244471   4.766   1.170   5.372
14844TIP3   OH244472   8.082   3.788   4.486
14844TIP3    H144473   8.121   3.862   4.438
14844TIP3    H244474   8.125   3.790   4.571
14845TIP3   OH244475   0.634   4.289   2.017
14845TIP3    H144476   0.674   4.210   2.053
14845TIP3    H244477   0.702   4.326   1.959
14846TIP3   OH244478   0.932   4.222   0.236
14846TIP3    H144479   0.995   4.219   0.307
14846TIP3    H244480   0.920   4.130   0.210
14847TIP3   OH244481   6.590   2.718   2.249
14847TIP3    H144482   6.646   2.747   2.321
14847TIP3    H244483   6.501   2.740   2.277
14848TIP3   OH244484   3.934   7.305   5.564
14848TIP3    H144485   3.907   7.387   5.524
14848TIP3    H244486   3.880   7.298   5.643
14849TIP3   OH244487   0.054   6.128   1.346
14849TIP3    H144488   0.088   6.049   1.303
14849TIP3    H244489   0.075   6.198   1.284
14850TIP3   OH244490   7.286   3.969   4.580
14850TIP3    H144491   7.272   3.887   4.533
14850TIP3    H244492   7.286   3.944   4.673
14851TIP3   OH244493   1.864   2.780   0.783
14851TIP3    H144494   1.823   2.853   0.736
14851TIP3    H244495   1.904   2.821   0.860
14852TIP3   OH244496   4.283   1.114   2.903
14852TIP3    H144497   4.354   1.070   2.855
14852TIP3    H244498   4.316   1.202   2.918
14853TIP3   OH244499   3.342   3.265   5.712
14853TIP3    H144500   3.253   3.289   5.737
14853TIP3    H244501   3.392   3.269   5.793
14854TIP3   OH244502   0.627   7.827   0.774
14854TIP3    H144503   0.672   7.902   0.736
14854TIP3    H244504   0.696   7.761   0.785
14855TIP3   OH244505   3.894   5.621   2.343
14855TIP3    H144506   3.823   5.676   2.376
14855TIP3    H244507   3.949   5.680   2.292
14856TIP3   OH244508   4.926   5.789   0.489
14856TIP3    H144509   4.985   5.823   0.556
14856TIP3    H244510   4.971   5.713   0.453
14857TIP3   OH244511   8.267   3.930   6.746
14857TIP3    H144512   8.205   3.999   6.723
14857TIP3    H244513   8.337   3.938   6.681
14858TIP3   OH244514   8.056   0.794   2.349
14858TIP3    H144515   8.087   0.878   2.313
14858TIP3    H244516   7.981   0.771   2.294
14859TIP3   OH244517   3.181   6.922   0.976
14859TIP3    H144518   3.177   6.827   0.978
14859TIP3    H244519   3.143   6.945   0.891
14860TIP3   OH244520   6.473   4.382   4.876
14860TIP3    H144521   6.466   4.441   4.951
14860TIP3    H244522   6.502   4.439   4.804
14861TIP3   OH244523   3.829   4.146   1.701
14861TIP3    H144524   3.752   4.146   1.645
14861TIP3    H244525   3.903   4.150   1.640
14862TIP3   OH244526   7.264   6.504   5.113
14862TIP3    H144527   7.236   6.493   5.204
14862TIP3    H244528   7.186   6.535   5.067
14863TIP3   OH244529   2.852   0.879   2.035
14863TIP3    H144530   2.767   0.874   2.078
14863TIP3    H244531   2.847   0.958   1.982
14864TIP3   OH244532   1.481   2.307   4.615
14864TIP3    H144533   1.398   2.305   4.663
14864TIP3    H244534   1.456   2.339   4.528
14865TIP3   OH244535   7.522   1.018   6.413
14865TIP3    H144536   7.484   1.019   6.325
14865TIP3    H244537   7.487   0.937   6.452
14866TIP3   OH244538   3.178   2.471   4.861
14866TIP3    H144539   3.153   2.516   4.781
14866TIP3    H244540   3.206   2.384   4.832
14867TIP3   OH244541   5.613   0.861   5.412
14867TIP3    H144542   5.551   0.895   5.476
14867TIP3    H244543   5.570   0.871   5.328
14868TIP3   OH244544   6.455   0.039   3.743
14868TIP3    H144545   6.519   0.077   3.682
14868TIP3    H244546   6.383   0.010   3.686
14869TIP3   OH244547   3.685   7.563   1.291
14869TIP3    H144548   3.688   7.508   1.369
14869TIP3    H244549   3.600   7.607   1.297
14870TIP3   OH244550   5.195   2.385   0.034
14870TIP3    H144551   5.214   2.296   0.005
14870TIP3    H244552   5.103   2.399   0.009
14871TIP3   OH244553   7.064   5.599   5.109
14871TIP3    H144554   6.979   5.554   5.113
14871TIP3    H244555   7.044   5.682   5.066
14872TIP3   OH244556   2.061   1.744   1.071
14872TIP3    H144557   2.153   1.721   1.061
14872TIP3    H244558   2.027   1.677   1.131
14873TIP3   OH244559   5.480   5.150   0.824
14873TIP3    H144560   5.501   5.212   0.893
14873TIP3    H244561   5.535   5.074   0.841
14874TIP3   OH244562   0.581   5.832   3.839
14874TIP3    H144563   0.559   5.750   3.883
14874TIP3    H244564   0.537   5.826   3.755
14875TIP3   OH244565   7.284   1.920   3.969
14875TIP3    H144566   7.309   1.837   3.928
14875TIP3    H244567   7.317   1.914   4.058
14876TIP3   OH244568   2.886   6.936   1.456
14876TIP3    H144569   2.922   6.899   1.536
14876TIP3    H244570   2.793   6.949   1.475
14877TIP3   OH244571   1.268   3.305   3.265
14877TIP3    H144572   1.290   3.390   3.228
14877TIP3    H244573   1.231   3.255   3.192
14878TIP3   OH244574   6.773   2.109   4.307
14878TIP3    H144575   6.723   2.054   4.247
14878TIP3    H244576   6.855   2.062   4.321
14879TIP3   OH244577   6.554   4.438   0.441
14879TIP3    H144578   6.584   4.486   0.364
14879TIP3    H244579   6.463   4.415   0.422
14880TIP3   OH244580   1.779   7.512   0.330
14880TIP3    H144581   1.744   7.424   0.349
14880TIP3    H244582   1.746   7.531   0.242
14881TIP3   OH244583   6.235   0.333   6.696
14881TIP3    H144584   6.267   0.414   6.735
14881TIP3    H244585   6.303   0.307   6.634
14882TIP3   OH244586   2.878   7.773   5.996
14882TIP3    H144587   2.926   7.828   6.058
14882TIP3    H244588   2.786   7.792   6.015
14883TIP3   OH244589   7.180   0.553   0.647
14883TIP3    H144590   7.227   0.534   0.566
14883TIP3    H244591   7.134   0.471   0.667
14884TIP3   OH244592   6.750   1.128   2.737
14884TIP3    H144593   6.755   1.093   2.648
14884TIP3    H244594   6.739   1.222   2.726
14885TIP3   OH244595   8.369   6.453   4.607
14885TIP3    H144596   8.316   6.381   4.643
14885TIP3    H244597   8.308   6.526   4.602
14886TIP3   OH244598   6.032   1.478   3.244
14886TIP3    H144599   5.996   1.490   3.157
14886TIP3    H244600   6.122   1.447   3.229
14887TIP3   OH244601   1.481   4.652   2.114
14887TIP3    H144602   1.407   4.604   2.078
14887TIP3    H244603   1.526   4.588   2.171
14888TIP3   OH244604   1.110   1.008   5.194
14888TIP3    H144605   1.109   0.917   5.223
14888TIP3    H244606   1.033   1.016   5.137
14889TIP3   OH244607   2.245   5.355   4.282
14889TIP3    H144608   2.275   5.346   4.373
14889TIP3    H244609   2.173   5.418   4.286
14890TIP3   OH244610   3.476   4.333   3.844
14890TIP3    H144611   3.456   4.297   3.931
14890TIP3    H244612   3.394   4.324   3.795
14891TIP3   OH244613   2.627   3.612   6.527
14891TIP3    H144614   2.593   3.677   6.465
14891TIP3    H244615   2.559   3.545   6.531
14892TIP3   OH244616   7.407   5.163   1.986
14892TIP3    H144617   7.428   5.130   2.073
14892TIP3    H244618   7.450   5.103   1.925
14893TIP3   OH244619   6.238   5.391   4.495
14893TIP3    H144620   6.205   5.380   4.406
14893TIP3    H244621   6.193   5.470   4.527
14894TIP3   OH244622   4.687   4.656   6.792
14894TIP3    H144623   4.756   4.695   6.739
14894TIP3    H244624   4.710   4.563   6.796
14895TIP3   OH244625   4.678   2.376   6.740
14895TIP3    H144626   4.683   2.326   6.659
14895TIP3    H244627   4.585   2.377   6.762
14896TIP3   OH244628   6.545   0.352   6.828
14896TIP3    H144629   6.551   0.264   6.791
14896TIP3    H244630   6.550   0.338   6.922
14897TIP3   OH244631   2.728   1.210   5.242
14897TIP3    H144632   2.790   1.260   5.189
14897TIP3    H244633   2.724   1.124   5.198
14898TIP3   OH244634   6.648   7.231   4.610
14898TIP3    H144635   6.670   7.308   4.557
14898TIP3    H244636   6.673   7.256   4.700
14899TIP3   OH244637   2.948   3.808   3.133
14899TIP3    H144638   2.946   3.714   3.119
14899TIP3    H244639   2.856   3.834   3.138
14900TIP3   OH244640   2.721   6.503   1.777
14900TIP3    H144641   2.762   6.430   1.823
14900TIP3    H244642   2.628   6.495   1.799
14901TIP3   OH244643   2.026   1.723   6.088
14901TIP3    H144644   2.098   1.738   6.026
14901TIP3    H244645   2.008   1.809   6.125
14902TIP3   OH244646   2.385   2.156   1.884
14902TIP3    H144647   2.468   2.112   1.863
14902TIP3    H244648   2.336   2.154   1.802
14903TIP3   OH244649   5.756   5.719   2.039
14903TIP3    H144650   5.779   5.664   2.113
14903TIP3    H244651   5.829   5.710   1.978
14904TIP3   OH244652   2.224   5.081   0.168
14904TIP3    H144653   2.169   5.033   0.230
14904TIP3    H244654   2.163   5.111   0.100
14905TIP3   OH244655   6.559   5.572   2.774
14905TIP3    H144656   6.528   5.614   2.854
14905TIP3    H244657   6.554   5.640   2.707
14906TIP3   OH244658   4.491   6.716   4.665
14906TIP3    H144659   4.398   6.735   4.661
14906TIP3    H244660   4.531   6.777   4.603
14907TIP3   OH244661   0.090   5.582   0.122
14907TIP3    H144662   0.089   5.655   0.061
14907TIP3    H244663   0.011   5.532   0.102
14908TIP3   OH244664   5.312   5.023   6.686
14908TIP3    H144665   5.296   5.077   6.763
14908TIP3    H244666   5.396   5.054   6.652
14909TIP3   OH244667   1.374   7.385   3.402
14909TIP3    H144668   1.288   7.426   3.401
14909TIP3    H244669   1.362   7.305   3.453
14910TIP3   OH244670   0.733   3.577   4.060
14910TIP3    H144671   0.813   3.531   4.035
14910TIP3    H244672   0.662   3.518   4.034
14911TIP3   OH244673   3.115   2.583   6.659
14911TIP3    H144674   3.104   2.489   6.647
14911TIP3    H244675   3.099   2.597   6.752
14912TIP3   OH244676   8.019   4.612   4.470
14912TIP3    H144677   8.003   4.519   4.454
14912TIP3    H244678   8.099   4.615   4.522
14913TIP3   OH244679   4.331   0.724   6.538
14913TIP3    H144680   4.402   0.771   6.493
14913TIP3    H244681   4.252   0.772   6.515
14914TIP3   OH244682   7.141   2.087   1.404
14914TIP3    H144683   7.061   2.074   1.353
14914TIP3    H244684   7.210   2.048   1.351
14915TIP3   OH244685   5.423   5.364   6.287
14915TIP3    H144686   5.473   5.440   6.317
14915TIP3    H244687   5.333   5.396   6.278
14916TIP3   OH244688   0.268   0.538   6.059
14916TIP3    H144689   0.251   0.529   6.152
14916TIP3    H244690   0.228   0.622   6.035
14917TIP3   OH244691   2.269   0.487   6.447
14917TIP3    H144692   2.308   0.513   6.364
14917TIP3    H244693   2.340   0.442   6.493
14918TIP3   OH244694   0.525   2.960   1.113
14918TIP3    H144695   0.438   2.920   1.115
14918TIP3    H244696   0.509   3.049   1.083
14919TIP3   OH244697   8.348   0.085   6.339
14919TIP3    H144698   8.341  -0.010   6.325
14919TIP3    H244699   8.359   0.121   6.251
14920TIP3   OH244700   2.930   5.443   0.560
14920TIP3    H144701   2.925   5.521   0.615
14920TIP3    H244702   2.959   5.373   0.619
14921TIP3   OH244703   6.443   7.062   3.688
14921TIP3    H144704   6.442   7.150   3.727
14921TIP3    H244705   6.352   7.047   3.662
14922TIP3   OH244706   8.364   6.839   0.343
14922TIP3    H144707   8.383   6.755   0.386
14922TIP3    H244708   8.284   6.823   0.293
14923TIP3   OH244709   0.104   0.135   3.159
14923TIP3    H144710   0.021   0.087   3.165
14923TIP3    H244711   0.114   0.176   3.245
14924TIP3   OH244712   3.988   5.439   2.964
14924TIP3    H144713   3.957   5.499   2.896
14924TIP3    H244714   3.912   5.386   2.986
14925TIP3   OH244715   0.608   2.362   1.762
14925TIP3    H144716   0.650   2.348   1.677
14925TIP3    H244717   0.524   2.402   1.741
14926TIP3   OH244718   6.212   0.610   2.266
14926TIP3    H144719   6.164   0.676   2.215
14926TIP3    H244720   6.258   0.558   2.200
14927TIP3   OH244721   6.884   5.943   3.246
14927TIP3    H144722   6.945   6.017   3.245
14927TIP3    H244723   6.897   5.903   3.332
14928TIP3   OH244724   4.428   3.822   2.306
14928TIP3    H144725   4.435   3.779   2.392
14928TIP3    H244726   4.407   3.913   2.327
14929TIP3   OH244727   3.861   7.333   4.788
14929TIP3    H144728   3.893   7.354   4.700
14929TIP3    H244729   3.789   7.394   4.802
14930TIP3   OH244730   0.855   4.525   3.754
14930TIP3    H144731   0.893   4.442   3.785
14930TIP3    H244732   0.824   4.506   3.666
14931TIP3   OH244733   1.780   2.836   5.966
14931TIP3    H144734   1.711   2.770   5.958
14931TIP3    H244735   1.861   2.789   5.948
14932TIP3   OH244736   7.804   3.236   3.238
14932TIP3    H144737   7.768   3.292   3.306
14932TIP3    H244738   7.838   3.296   3.172
14933TIP3   OH244739   6.852   0.767   1.034
14933TIP3    H144740   6.769   0.795   1.073
14933TIP3    H244741   6.916   0.778   1.105
14934TIP3   OH244742   0.263   6.799   2.853
14934TIP3    H144743   0.194   6.798   2.786
14934TIP3    H244744   0.217   6.793   2.936
14935TIP3   OH244745   6.108   6.047   0.108
14935TIP3    H144746   6.041   5.981   0.124
14935TIP3    H244747   6.059   6.124   0.077
14936TIP3   OH244748   1.436   3.224   0.657
14936TIP3    H144749   1.354   3.208   0.704
14936TIP3    H244750   1.502   3.232   0.726
14937TIP3   OH244751   6.524   2.172   4.792
14937TIP3    H144752   6.565   2.257   4.803
14937TIP3    H244753   6.481   2.154   4.875
14938TIP3   OH244754   7.337   7.744   1.563
14938TIP3    H144755   7.344   7.658   1.606
14938TIP3    H244756   7.254   7.740   1.515
14939TIP3   OH244757   2.061   0.082   5.757
14939TIP3    H144758   2.033   0.174   5.756
14939TIP3    H244759   2.104   0.071   5.842
14940TIP3   OH244760   7.411   2.366   0.779
14940TIP3    H144761   7.375   2.429   0.716
14940TIP3    H244762   7.494   2.339   0.740
14941TIP3   OH244763   5.607   7.539   3.708
14941TIP3    H144764   5.689   7.514   3.751
14941TIP3    H244765   5.625   7.529   3.614
14942TIP3   OH244766   6.453   1.883   6.598
14942TIP3    H144767   6.380   1.929   6.639
14942TIP3    H244768   6.453   1.913   6.508
14943TIP3   OH244769   7.711   0.195   0.213
14943TIP3    H144770   7.762   0.132   0.163
14943TIP3    H244771   7.706   0.158   0.301
14944TIP3   OH244772   2.579   1.614   3.241
14944TIP3    H144773   2.554   1.705   3.226
14944TIP3    H244774   2.640   1.618   3.315
14945TIP3   OH244775   1.185   6.825   4.861
14945TIP3    H144776   1.149   6.780   4.936
14945TIP3    H244777   1.109   6.852   4.809
14946TIP3   OH244778   4.083   6.473   4.457
14946TIP3    H144779   4.095   6.437   4.369
14946TIP3    H244780   4.164   6.452   4.502
14947TIP3   OH244781   0.144   6.888   2.185
14947TIP3    H144782   0.160   6.864   2.094
14947TIP3    H244783   0.092   6.815   2.220
14948TIP3   OH244784   1.154   0.899   0.344
14948TIP3    H144785   1.213   0.966   0.311
14948TIP3    H244786   1.210   0.823   0.359
14949TIP3   OH244787   1.013   1.112   2.209
14949TIP3    H144788   1.099   1.084   2.238
14949TIP3    H244789   0.954   1.042   2.236
14950TIP3   OH244790   7.045   6.292   1.414
14950TIP3    H144791   6.968   6.255   1.457
14950TIP3    H244792   7.075   6.222   1.355
14951TIP3   OH244793   0.395   3.178   6.509
14951TIP3    H144794   0.362   3.225   6.585
14951TIP3    H244795   0.451   3.242   6.464
14952TIP3   OH244796   0.095   3.558   1.919
14952TIP3    H144797   0.141   3.556   2.003
14952TIP3    H244798   0.135   3.489   1.867
14953TIP3   OH244799   2.252   5.593   3.956
14953TIP3    H144800   2.293   5.669   3.916
14953TIP3    H244801   2.262   5.523   3.890
14954TIP3   OH244802   4.001   5.075   1.318
14954TIP3    H144803   4.086   5.104   1.352
14954TIP3    H244804   3.937   5.131   1.361
14955TIP3   OH244805   7.836   6.571   2.892
14955TIP3    H144806   7.746   6.575   2.859
14955TIP3    H244807   7.829   6.593   2.985
14956TIP3   OH244808   1.534   4.546   5.012
14956TIP3    H144809   1.439   4.551   5.025
14956TIP3    H244810   1.551   4.601   4.936
14957TIP3   OH244811   1.268   4.383   6.007
14957TIP3    H144812   1.178   4.383   6.040
14957TIP3    H244813   1.284   4.473   5.981
14958TIP3   OH244814   6.728   5.382   6.450
14958TIP3    H144815   6.737   5.354   6.359
14958TIP3    H244816   6.686   5.468   6.445
14959TIP3   OH244817   7.786   1.060   1.719
14959TIP3    H144818   7.871   1.085   1.683
14959TIP3    H244819   7.799   1.063   1.814
14960TIP3   OH244820   3.372   3.637   4.631
14960TIP3    H144821   3.436   3.707   4.630
14960TIP3    H244822   3.423   3.557   4.621
14961TIP3   OH244823   7.713   0.953   2.912
14961TIP3    H144824   7.697   1.041   2.947
14961TIP3    H244825   7.808   0.945   2.911
14962TIP3   OH244826   5.909   4.256   4.507
14962TIP3    H144827   5.888   4.189   4.571
14962TIP3    H244828   6.004   4.270   4.517
14963TIP3   OH244829   5.289   2.437   5.933
14963TIP3    H144830   5.353   2.496   5.893
14963TIP3    H244831   5.208   2.487   5.935
14964TIP3   OH244832   0.303   4.716   6.719
14964TIP3    H144833   0.278   4.777   6.649
14964TIP3    H244834   0.398   4.722   6.723
14965TIP3   OH244835   2.838   2.551   2.286
14965TIP3    H144836   2.797   2.581   2.205
14965TIP3    H244837   2.768   2.554   2.351
14966TIP3   OH244838   5.759   0.756   2.165
14966TIP3    H144839   5.687   0.738   2.104
14966TIP3    H244840   5.799   0.836   2.130
14967TIP3   OH244841   5.264   4.083   4.121
14967TIP3    H144842   5.189   4.090   4.062
14967TIP3    H244843   5.340   4.105   4.067
14968TIP3   OH244844   1.912   1.588   6.548
14968TIP3    H144845   1.859   1.545   6.614
14968TIP3    H244846   1.851   1.648   6.503
14969TIP3   OH244847   6.664   6.828   4.263
14969TIP3    H144848   6.682   6.904   4.319
14969TIP3    H244849   6.607   6.862   4.194
14970TIP3   OH244850   6.385   7.576   2.483
14970TIP3    H144851   6.389   7.657   2.535
14970TIP3    H244852   6.395   7.506   2.547
14971TIP3   OH244853   6.246   1.136   3.371
14971TIP3    H144854   6.179   1.078   3.407
14971TIP3    H244855   6.230   1.137   3.277
14972TIP3   OH244856   4.213   3.239   5.015
14972TIP3    H144857   4.244   3.155   4.981
14972TIP3    H244858   4.125   3.249   4.979
14973TIP3   OH244859   7.535   3.744   3.040
14973TIP3    H144860   7.593   3.683   3.084
14973TIP3    H244861   7.561   3.740   2.948
14974TIP3   OH244862   5.620   0.969   2.356
14974TIP3    H144863   5.595   1.005   2.271
14974TIP3    H244864   5.694   0.911   2.337
14975TIP3   OH244865   0.694   6.331   2.978
14975TIP3    H144866   0.616   6.331   3.034
14975TIP3    H244867   0.763   6.293   3.032
14976TIP3   OH244868   0.749   5.563   3.705
14976TIP3    H144869   0.679   5.528   3.761
14976TIP3    H244870   0.804   5.487   3.687
14977TIP3   OH244871   5.085   2.344   3.522
14977TIP3    H144872   5.013   2.406   3.506
14977TIP3    H244873   5.049   2.282   3.586
14978TIP3   OH244874   5.004   6.341   1.091
14978TIP3    H144875   5.036   6.381   1.172
14978TIP3    H244876   4.936   6.401   1.060
14979TIP3   OH244877   6.992   0.207   4.966
14979TIP3    H144878   6.924   0.235   5.028
14979TIP3    H244879   7.047   0.146   5.016
14980TIP3   OH244880   6.547   1.219   3.019
14980TIP3    H144881   6.615   1.181   3.076
14980TIP3    H244882   6.499   1.144   2.986
14981TIP3   OH244883   0.160   5.964   3.616
14981TIP3    H144884   0.173   5.973   3.521
14981TIP3    H244885   0.080   5.913   3.624
14982TIP3   OH244886   0.301   2.299   3.885
14982TIP3    H144887   0.258   2.276   3.803
14982TIP3    H244888   0.389   2.328   3.859
14983TIP3   OH244889   4.473   4.000   4.290
14983TIP3    H144890   4.422   3.944   4.349
14983TIP3    H244891   4.417   4.075   4.273
14984TIP3   OH244892   4.389   1.742   4.588
14984TIP3    H144893   4.396   1.673   4.654
14984TIP3    H244894   4.466   1.798   4.602
14985TIP3   OH244895   5.302   6.052   5.510
14985TIP3    H144896   5.336   5.974   5.468
14985TIP3    H244897   5.378   6.093   5.551
14986TIP3   OH244898   5.561   3.959   4.133
14986TIP3    H144899   5.638   4.016   4.136
14986TIP3    H244900   5.529   3.967   4.043
14987TIP3   OH244901   5.430   2.200   4.096
14987TIP3    H144902   5.358   2.261   4.116
14987TIP3    H244903   5.500   2.227   4.155
14988TIP3   OH244904   4.628   6.233   5.972
14988TIP3    H144905   4.684   6.155   5.974
14988TIP3    H244906   4.615   6.251   5.879
14989TIP3   OH244907   3.150   6.589   3.483
14989TIP3    H144908   3.082   6.563   3.545
14989TIP3    H244909   3.232   6.580   3.531
14990TIP3   OH244910   4.122   7.480   5.193
14990TIP3    H144911   4.060   7.424   5.146
14990TIP3    H244912   4.158   7.424   5.262
14991TIP3   OH244913   3.136   4.813   1.010
14991TIP3    H144914   3.184   4.818   1.093
14991TIP3    H244915   3.060   4.869   1.023
14992TIP3   OH244916   2.295   6.507   3.319
14992TIP3    H144917   2.276   6.571   3.388
14992TIP3    H244918   2.376   6.539   3.279
14993TIP3   OH244919   5.373   3.206   0.060
14993TIP3    H144920   5.308   3.274   0.041
14993TIP3    H244921   5.448   3.254   0.096
14994TIP3   OH244922   2.751   6.637   0.987
14994TIP3    H144923   2.755   6.642   1.082
14994TIP3    H244924   2.798   6.557   0.965
14995TIP3   OH244925   4.167   5.286   6.486
14995TIP3    H144926   4.088   5.297   6.539
14995TIP3    H244927   4.157   5.199   6.447
14996TIP3   OH244928   1.614   6.840   0.356
14996TIP3    H144929   1.674   6.777   0.394
14996TIP3    H244930   1.541   6.787   0.324
14997TIP3   OH244931   6.080   5.622   4.518
14997TIP3    H144932   6.023   5.670   4.458
14997TIP3    H244933   6.030   5.544   4.542
14998TIP3   OH244934   6.399   5.426   0.060
14998TIP3    H144935   6.348   5.494   0.104
14998TIP3    H244936   6.366   5.344   0.097
14999TIP3   OH244937   6.926   6.000   2.454
14999TIP3    H144938   6.917   5.923   2.510
14999TIP3    H244939   6.965   5.967   2.374
15000TIP3   OH244940   6.317   2.920   5.517
15000TIP3    H144941   6.407   2.885   5.518
15000TIP3    H244942   6.311   2.970   5.436
15001TIP3   OH244943   5.948   2.586   0.987
15001TIP3    H144944   6.040   2.610   0.981
15001TIP3    H244945   5.912   2.606   0.900
15002TIP3   OH244946   7.803   1.641   6.378
15002TIP3    H144947   7.796   1.733   6.402
15002TIP3    H244948   7.809   1.642   6.282
15003TIP3   OH244949   3.040   7.478   3.021
15003TIP3    H144950   3.133   7.484   2.996
15003TIP3    H244951   3.011   7.569   3.026
15004TIP3   OH244952   4.339   3.918   0.756
15004TIP3    H144953   4.353   3.839   0.809
15004TIP3    H244954   4.419   3.969   0.769
15005TIP3   OH244955   6.705   1.922   2.129
15005TIP3    H144956   6.687   1.995   2.189
15005TIP3    H244957   6.637   1.858   2.147
15006TIP3   OH244958   6.249   4.929   4.197
15006TIP3    H144959   6.304   4.952   4.273
15006TIP3    H244960   6.242   5.010   4.147
15007TIP3   OH244961   1.664   5.764   1.847
15007TIP3    H144962   1.746   5.812   1.848
15007TIP3    H244963   1.661   5.718   1.931
15008TIP3   OH244964   7.086   5.947   4.220
15008TIP3    H144965   7.116   5.866   4.180
15008TIP3    H244966   7.166   5.992   4.247
15009TIP3   OH244967   1.052   2.306   5.694
15009TIP3    H144968   1.059   2.397   5.665
15009TIP3    H244969   1.013   2.260   5.619
15010TIP3   OH244970   0.977   5.182   5.583
15010TIP3    H144971   0.933   5.251   5.534
15010TIP3    H244972   1.003   5.118   5.516
15011TIP3   OH244973   6.310   4.580   0.730
15011TIP3    H144974   6.237   4.518   0.739
15011TIP3    H244975   6.386   4.534   0.766
15012TIP3   OH244976   6.746   7.767   1.409
15012TIP3    H144977   6.834   7.767   1.373
15012TIP3    H244978   6.704   7.844   1.369
15013TIP3   OH244979   6.848   7.889   3.980
15013TIP3    H144980   6.845   7.942   4.060
15013TIP3    H244981   6.813   7.945   3.912
15014TIP3   OH244982   5.066   6.760   1.512
15014TIP3    H144983   5.139   6.822   1.521
15014TIP3    H244984   5.106   6.674   1.524
15015TIP3   OH244985   4.749   2.790   5.773
15015TIP3    H144986   4.837   2.794   5.810
15015TIP3    H244987   4.719   2.881   5.773
15016TIP3   OH244988   3.736   1.548   5.886
15016TIP3    H144989   3.795   1.623   5.891
15016TIP3    H244990   3.669   1.566   5.952
15017TIP3   OH244991   1.419   7.008   3.263
15017TIP3    H144992   1.410   7.083   3.205
15017TIP3    H244993   1.351   6.947   3.234
15018TIP3   OH244994   7.720   2.184   2.996
15018TIP3    H144995   7.678   2.161   2.914
15018TIP3    H244996   7.682   2.124   3.060
15019TIP3   OH244997   1.223   3.197   4.064
15019TIP3    H144998   1.189   3.166   3.980
15019TIP3    H244999   1.201   3.128   4.127
15020TIP3   OH245000   8.061   2.106   6.792
15020TIP3    H145001   8.020   2.100   6.878
15020TIP3    H245002   8.028   2.030   6.744
15021TIP3   OH245003   2.074   4.579   4.222
15021TIP3    H145004   1.990   4.535   4.238
15021TIP3    H245005   2.105   4.542   4.140
15022TIP3   OH245006   1.552   4.063   6.677
15022TIP3    H145007   1.536   4.003   6.604
15022TIP3    H245008   1.522   4.148   6.646
15023TIP3   OH245009   3.103   0.432   5.090
15023TIP3    H145010   3.067   0.451   5.003
15023TIP3    H245011   3.037   0.465   5.150
15024TIP3   OH245012   6.949   6.943   4.631
15024TIP3    H145013   6.865   6.910   4.661
15024TIP3    H245014   7.011   6.872   4.650
15025TIP3   OH245015   6.771   5.710   5.132
15025TIP3    H145016   6.690   5.753   5.159
15025TIP3    H245017   6.836   5.781   5.131
15026TIP3   OH245018   7.848   5.172   1.830
15026TIP3    H145019   7.844   5.121   1.749
15026TIP3    H245020   7.877   5.259   1.803
15027TIP3   OH245021   0.064   3.726   1.285
15027TIP3    H145022   0.019   3.648   1.254
15027TIP3    H245023   0.005   3.764   1.350
15028TIP3   OH245024   7.754   4.829   4.010
15028TIP3    H145025   7.693   4.811   3.939
15028TIP3    H245026   7.731   4.918   4.039
15029TIP3   OH245027   4.224   0.627   5.884
15029TIP3    H145028   4.273   0.580   5.951
15029TIP3    H245029   4.291   0.675   5.835
15030TIP3   OH245030   3.013   6.668   3.248
15030TIP3    H145031   2.983   6.754   3.280
15030TIP3    H245032   3.041   6.622   3.327
15031TIP3   OH245033   6.066   0.173   3.440
15031TIP3    H145034   5.973   0.194   3.446
15031TIP3    H245035   6.101   0.235   3.377
15032TIP3   OH245036   7.661   7.315   1.144
15032TIP3    H145037   7.738   7.292   1.091
15032TIP3    H245038   7.696   7.328   1.232
15033TIP3   OH245039   0.310   1.616   3.081
15033TIP3    H145040   0.329   1.709   3.090
15033TIP3    H245041   0.386   1.580   3.034
15034TIP3   OH245042   5.298   6.673   2.373
15034TIP3    H145043   5.363   6.731   2.413
15034TIP3    H245044   5.217   6.723   2.377
15035TIP3   OH245045   4.329   5.160   1.867
15035TIP3    H145046   4.365   5.210   1.794
15035TIP3    H245047   4.287   5.225   1.923
15036TIP3   OH245048   0.384   5.848   4.650
15036TIP3    H145049   0.389   5.764   4.606
15036TIP3    H245050   0.457   5.899   4.614
15037TIP3   OH245051   6.645   3.704   6.489
15037TIP3    H145052   6.563   3.683   6.444
15037TIP3    H245053   6.636   3.662   6.575
15038TIP3   OH245054   5.808   7.408   5.760
15038TIP3    H145055   5.844   7.341   5.818
15038TIP3    H245056   5.744   7.361   5.706
15039TIP3   OH245057   6.872   4.100   6.225
15039TIP3    H145058   6.877   4.192   6.249
15039TIP3    H245059   6.811   4.062   6.288
15040TIP3   OH245060   7.166   3.247   1.227
15040TIP3    H145061   7.227   3.186   1.185
15040TIP3    H245062   7.148   3.313   1.160
15041TIP3   OH245063   5.690   5.192   0.140
15041TIP3    H145064   5.687   5.286   0.154
15041TIP3    H245065   5.682   5.154   0.227
15042TIP3   OH245066   7.372   4.534   0.519
15042TIP3    H145067   7.305   4.518   0.453
15042TIP3    H245068   7.452   4.551   0.468
15043TIP3   OH245069   0.879   6.293   5.399
15043TIP3    H145070   0.855   6.385   5.386
15043TIP3    H245071   0.847   6.272   5.487
15044TIP3   OH245072   4.526   5.409   4.752
15044TIP3    H145073   4.563   5.353   4.683
15044TIP3    H245074   4.434   5.420   4.727
15045TIP3   OH245075   7.676   2.243   5.291
15045TIP3    H145076   7.768   2.242   5.268
15045TIP3    H245077   7.675   2.261   5.385
15046TIP3   OH245078   8.390   0.904   3.618
15046TIP3    H145079   8.328   0.855   3.672
15046TIP3    H245080   8.450   0.943   3.681
15047TIP3   OH245081   8.280   6.166   0.263
15047TIP3    H145082   8.204   6.198   0.311
15047TIP3    H245083   8.340   6.240   0.260
15048TIP3   OH245084   0.642   1.641   3.366
15048TIP3    H145085   0.659   1.731   3.393
15048TIP3    H245086   0.547   1.630   3.378
15049TIP3   OH245087   3.467   1.323   5.968
15049TIP3    H145088   3.495   1.353   5.881
15049TIP3    H245089   3.526   1.251   5.989
15050TIP3   OH245090   1.349   7.132   3.529
15050TIP3    H145091   1.352   7.062   3.464
15050TIP3    H245092   1.355   7.086   3.613
15051TIP3   OH245093   2.713   3.302   6.614
15051TIP3    H145094   2.646   3.266   6.556
15051TIP3    H245095   2.666   3.362   6.672
15052TIP3   OH245096   5.375   6.045   6.565
15052TIP3    H145097   5.355   6.018   6.475
15052TIP3    H245098   5.321   6.123   6.579
15053TIP3   OH245099   7.218   7.611   4.614
15053TIP3    H145100   7.192   7.530   4.572
15053TIP3    H245101   7.299   7.636   4.568
15054TIP3   OH245102   8.292   2.248   6.693
15054TIP3    H145103   8.223   2.195   6.733
15054TIP3    H245104   8.274   2.243   6.599
15055TIP3   OH245105   4.820   5.717   6.530
15055TIP3    H145106   4.787   5.637   6.570
15055TIP3    H245107   4.747   5.779   6.538
15056TIP3   OH245108   3.787   2.942   1.664
15056TIP3    H145109   3.866   2.995   1.675
15056TIP3    H245110   3.719   3.004   1.638
15057TIP3   OH245111   0.939   3.408   3.985
15057TIP3    H145112   0.943   3.339   4.051
15057TIP3    H245113   1.001   3.475   4.017
15058TIP3   OH245114   2.718   7.337   1.214
15058TIP3    H145115   2.623   7.331   1.221
15058TIP3    H245116   2.751   7.269   1.273
15059TIP3   OH245117   0.220   1.684   2.482
15059TIP3    H145118   0.292   1.651   2.427
15059TIP3    H245119   0.219   1.625   2.558
15060TIP3   OH245120   5.492   5.693   0.457
15060TIP3    H145121   5.479   5.787   0.442
15060TIP3    H245122   5.512   5.686   0.550
15061TIP3   OH245123   6.461   5.913   1.175
15061TIP3    H145124   6.375   5.874   1.191
15061TIP3    H245125   6.506   5.850   1.120
15062TIP3   OH245126   1.409   3.655   3.698
15062TIP3    H145127   1.360   3.630   3.776
15062TIP3    H245128   1.427   3.748   3.710
15063TIP3   OH245129   6.085   7.485   6.147
15063TIP3    H145130   6.106   7.578   6.131
15063TIP3    H245131   6.064   7.451   6.060
15064TIP3   OH245132   3.051   1.176   3.996
15064TIP3    H145133   3.113   1.169   3.924
15064TIP3    H245134   2.993   1.249   3.972
15065TIP3   OH245135   2.994   2.954   0.950
15065TIP3    H145136   3.031   2.952   1.038
15065TIP3    H245137   2.958   3.042   0.941
15066TIP3   OH245138   2.770   7.859   4.922
15066TIP3    H145139   2.822   7.778   4.916
15066TIP3    H245140   2.693   7.843   4.868
15067TIP3   OH245141   7.228   0.660   4.519
15067TIP3    H145142   7.235   0.742   4.469
15067TIP3    H245143   7.227   0.592   4.452
15068TIP3   OH245144   1.441   6.392   4.016
15068TIP3    H145145   1.354   6.353   4.018
15068TIP3    H245146   1.500   6.319   3.995
15069TIP3   OH245147   7.714   3.758   2.819
15069TIP3    H145148   7.784   3.794   2.872
15069TIP3    H245149   7.750   3.676   2.784
15070TIP3   OH245150   3.450   0.885   0.182
15070TIP3    H145151   3.471   0.810   0.127
15070TIP3    H245152   3.535   0.922   0.206
15071TIP3   OH245153   2.744   5.287   0.004
15071TIP3    H145154   2.666   5.341   0.016
15071TIP3    H245155   2.817   5.349   0.009
15072TIP3   OH245156   8.360   6.438   1.740
15072TIP3    H145157   8.436   6.391   1.706
15072TIP3    H245158   8.308   6.459   1.663
15073TIP3   OH245159   7.614   6.626   3.731
15073TIP3    H145160   7.607   6.719   3.710
15073TIP3    H245161   7.632   6.624   3.825
15074TIP3   OH245162   3.106   5.359   1.662
15074TIP3    H145163   3.024   5.352   1.710
15074TIP3    H245164   3.086   5.322   1.575
15075TIP3   OH245165   5.516   3.724   3.058
15075TIP3    H145166   5.446   3.668   3.027
15075TIP3    H245167   5.590   3.704   3.000
15076TIP3   OH245168   2.951   7.058   5.332
15076TIP3    H145169   2.874   7.062   5.275
15076TIP3    H245170   3.026   7.062   5.272
15077TIP3   OH245171   0.842   3.918   5.586
15077TIP3    H145172   0.811   3.925   5.496
15077TIP3    H245173   0.783   3.974   5.636
15078TIP3   OH245174   5.528   7.693   0.376
15078TIP3    H145175   5.607   7.674   0.426
15078TIP3    H245176   5.456   7.663   0.432
15079TIP3   OH245177   1.166   0.034   5.645
15079TIP3    H145178   1.255   0.050   5.613
15079TIP3    H245179   1.109   0.078   5.582
15080TIP3   OH245180   5.141   0.198   0.907
15080TIP3    H145181   5.093   0.280   0.899
15080TIP3    H245182   5.096   0.138   0.848
15081TIP3   OH245183   5.536   1.907   5.948
15081TIP3    H145184   5.461   1.879   6.001
15081TIP3    H245185   5.544   1.840   5.880
15082TIP3   OH245186   0.373   6.441   6.496
15082TIP3    H145187   0.414   6.526   6.480
15082TIP3    H245188   0.429   6.378   6.450
15083TIP3   OH245189   3.265   4.905   6.228
15083TIP3    H145190   3.321   4.982   6.222
15083TIP3    H245191   3.283   4.856   6.148
15084TIP3   OH245192   1.059   7.029   6.455
15084TIP3    H145193   1.008   7.082   6.393
15084TIP3    H245194   1.047   6.939   6.426
15085TIP3   OH245195   7.679   4.595   0.904
15085TIP3    H145196   7.713   4.511   0.934
15085TIP3    H245197   7.638   4.634   0.981
15086TIP3   OH245198   4.328   2.106   1.227
15086TIP3    H145199   4.364   2.018   1.233
15086TIP3    H245200   4.233   2.093   1.232
15087TIP3   OH245201   0.324   4.542   1.366
15087TIP3    H145202   0.407   4.524   1.411
15087TIP3    H245203   0.349   4.555   1.274
15088TIP3   OH245204   7.387   6.257   5.011
15088TIP3    H145205   7.350   6.343   5.030
15088TIP3    H245206   7.312   6.205   4.981
15089TIP3   OH245207   8.359   6.698   2.260
15089TIP3    H145208   8.337   6.607   2.278
15089TIP3    H245209   8.276   6.745   2.272
15090TIP3   OH245210   1.351   2.852   5.068
15090TIP3    H145211   1.357   2.928   5.010
15090TIP3    H245212   1.264   2.858   5.106
15091TIP3   OH245213   3.286   3.303   2.041
15091TIP3    H145214   3.313   3.394   2.050
15091TIP3    H245215   3.300   3.282   1.949
15092TIP3   OH245216   1.108   6.738   0.863
15092TIP3    H145217   1.056   6.816   0.883
15092TIP3    H245218   1.086   6.675   0.932
15093TIP3   OH245219   0.543   5.861   0.219
15093TIP3    H145220   0.550   5.867   0.314
15093TIP3    H245221   0.450   5.853   0.202
15094TIP3   OH245222   5.063   6.999   4.268
15094TIP3    H145223   5.091   7.075   4.217
15094TIP3    H245224   4.994   7.033   4.325
15095TIP3   OH245225   1.907   5.363   3.866
15095TIP3    H145226   1.923   5.340   3.775
15095TIP3    H245227   1.955   5.297   3.917
15096TIP3   OH245228   1.268   6.523   0.775
15096TIP3    H145229   1.275   6.484   0.862
15096TIP3    H245230   1.175   6.541   0.764
15097TIP3   OH245231   4.061   1.893   2.515
15097TIP3    H145232   3.973   1.854   2.520
15097TIP3    H245233   4.109   1.850   2.585
15098TIP3   OH245234   8.046   3.380   4.180
15098TIP3    H145235   8.070   3.433   4.255
15098TIP3    H245236   7.960   3.344   4.202
15099TIP3   OH245237   4.110   1.424   2.153
15099TIP3    H145238   4.140   1.515   2.153
15099TIP3    H245239   4.178   1.376   2.201
15100TIP3   OH245240   7.521   7.600   4.595
15100TIP3    H145241   7.570   7.676   4.562
15100TIP3    H245242   7.499   7.624   4.685
15101TIP3   OH245243   8.319   4.236   4.656
15101TIP3    H145244   8.224   4.225   4.655
15101TIP3    H245245   8.334   4.303   4.722
15102TIP3   OH245246   1.205   6.023   4.322
15102TIP3    H145247   1.266   6.030   4.249
15102TIP3    H245248   1.145   6.097   4.310
15103TIP3   OH245249   3.022   1.802   3.601
15103TIP3    H145250   2.936   1.773   3.632
15103TIP3    H245251   3.042   1.743   3.529
15104TIP3   OH245252   0.584   3.158   1.358
15104TIP3    H145253   0.572   3.218   1.284
15104TIP3    H245254   0.507   3.100   1.355
15105TIP3   OH245255   6.906   7.203   0.135
15105TIP3    H145256   6.812   7.187   0.148
15105TIP3    H245257   6.917   7.297   0.154
15106TIP3   OH245258   4.266   7.743   2.979
15106TIP3    H145259   4.292   7.769   2.891
15106TIP3    H245260   4.280   7.821   3.033
15107TIP3   OH245261   5.953   7.774   6.852
15107TIP3    H145262   5.859   7.776   6.871
15107TIP3    H245263   5.964   7.831   6.776
15108TIP3   OH245264   1.269   1.807   2.624
15108TIP3    H145265   1.328   1.734   2.642
15108TIP3    H245266   1.257   1.805   2.529
15109TIP3   OH245267   0.518   3.652   0.799
15109TIP3    H145268   0.504   3.744   0.823
15109TIP3    H245269   0.469   3.603   0.865
15110TIP3   OH245270   2.135   5.331   4.818
15110TIP3    H145271   2.080   5.400   4.780
15110TIP3    H245272   2.102   5.322   4.908
15111TIP3   OH245273   7.116   6.785   6.215
15111TIP3    H145274   7.074   6.870   6.230
15111TIP3    H245275   7.099   6.766   6.123
15112TIP3   OH245276   6.024   2.040   5.791
15112TIP3    H145277   6.068   2.106   5.846
15112TIP3    H245278   5.932   2.043   5.819
15113TIP3   OH245279   5.000   7.678   5.554
15113TIP3    H145280   5.017   7.586   5.575
15113TIP3    H245281   5.025   7.687   5.462
15114TIP3   OH245282   5.228   6.284   6.617
15114TIP3    H145283   5.278   6.366   6.621
15114TIP3    H245284   5.140   6.312   6.591
15115TIP3   OH245285   5.012   2.203   1.712
15115TIP3    H145286   4.993   2.275   1.651
15115TIP3    H245287   5.048   2.246   1.789
15116TIP3   OH245288   1.512   1.965   2.005
15116TIP3    H145289   1.513   1.930   1.916
15116TIP3    H245290   1.420   1.958   2.032
15117TIP3   OH245291   1.747   4.101   1.240
15117TIP3    H145292   1.651   4.093   1.242
15117TIP3    H245293   1.778   4.013   1.263
15118TIP3   OH245294   7.908   4.642   3.205
15118TIP3    H145295   7.859   4.682   3.133
15118TIP3    H245296   7.918   4.551   3.179
15119TIP3   OH245297   1.611   0.826   5.486
15119TIP3    H145298   1.619   0.759   5.418
15119TIP3    H245299   1.609   0.778   5.568
15120TIP3   OH245300   4.714   5.521   0.164
15120TIP3    H145301   4.790   5.480   0.204
15120TIP3    H245302   4.746   5.607   0.135
15121TIP3   OH245303   1.288   5.487   4.701
15121TIP3    H145304   1.281   5.582   4.710
15121TIP3    H245305   1.340   5.475   4.621
15122TIP3   OH245306   0.160   7.406   0.484
15122TIP3    H145307   0.066   7.420   0.477
15122TIP3    H245308   0.187   7.460   0.558
15123TIP3   OH245309   3.712   6.122   1.990
15123TIP3    H145310   3.734   6.081   2.074
15123TIP3    H245311   3.723   6.052   1.925
15124TIP3   OH245312   5.235   0.970   5.970
15124TIP3    H145313   5.202   0.890   5.930
15124TIP3    H245314   5.251   0.946   6.061
15125TIP3   OH245315   1.776   3.595   4.800
15125TIP3    H145316   1.767   3.678   4.848
15125TIP3    H245317   1.782   3.528   4.868
15126TIP3   OH245318   3.869   1.945   5.805
15126TIP3    H145319   3.923   2.022   5.826
15126TIP3    H245320   3.933   1.877   5.783
15127TIP3   OH245321   5.177   5.307   1.386
15127TIP3    H145322   5.128   5.234   1.349
15127TIP3    H245323   5.245   5.326   1.321
15128TIP3   OH245324   3.771   3.189   3.315
15128TIP3    H145325   3.699   3.147   3.361
15128TIP3    H245326   3.760   3.162   3.223
15129TIP3   OH245327   7.919   1.528   4.220
15129TIP3    H145328   7.976   1.452   4.214
15129TIP3    H245329   7.875   1.519   4.305
15130TIP3   OH245330   6.575   2.658   1.108
15130TIP3    H145331   6.574   2.563   1.121
15130TIP3    H245332   6.485   2.679   1.085
15131TIP3   OH245333   6.430   5.808   0.371
15131TIP3    H145334   6.520   5.825   0.400
15131TIP3    H245335   6.376   5.852   0.437
15132TIP3   OH245336   8.082   2.797   0.992
15132TIP3    H145337   8.046   2.756   1.071
15132TIP3    H245338   8.014   2.783   0.926
15133TIP3   OH245339   3.205   0.814   0.425
15133TIP3    H145340   3.264   0.887   0.447
15133TIP3    H245341   3.153   0.801   0.504
15134TIP3   OH245342   3.087   5.044   0.171
15134TIP3    H145343   3.004   5.093   0.174
15134TIP3    H245344   3.085   4.988   0.249
15135TIP3   OH245345   0.921   6.194   1.617
15135TIP3    H145346   0.943   6.286   1.606
15135TIP3    H245347   0.865   6.191   1.695
15136TIP3   OH245348   4.524   1.069   2.090
15136TIP3    H145349   4.481   1.021   2.019
15136TIP3    H245350   4.595   1.116   2.048
15137TIP3   OH245351   5.711   1.692   3.179
15137TIP3    H145352   5.722   1.698   3.274
15137TIP3    H245353   5.616   1.694   3.166
15138TIP3   OH245354   1.567   6.544   3.175
15138TIP3    H145355   1.523   6.559   3.091
15138TIP3    H245356   1.568   6.449   3.185
15139TIP3   OH245357   1.931   1.897   1.385
15139TIP3    H145358   2.020   1.901   1.420
15139TIP3    H245359   1.884   1.968   1.429
15140TIP3   OH245360   0.134   3.549   5.936
15140TIP3    H145361   0.159   3.610   5.867
15140TIP3    H245362   0.087   3.602   6.000
15141TIP3   OH245363   5.341   5.703   4.547
15141TIP3    H145364   5.246   5.707   4.531
15141TIP3    H245365   5.377   5.775   4.495
15142TIP3   OH245366   1.541   5.773   2.301
15142TIP3    H145367   1.474   5.793   2.236
15142TIP3    H245368   1.551   5.678   2.295
15143TIP3   OH245369   6.787   0.546   5.235
15143TIP3    H145370   6.858   0.505   5.186
15143TIP3    H245371   6.822   0.556   5.324
15144TIP3   OH245372   2.906   2.827   1.766
15144TIP3    H145373   2.916   2.731   1.761
15144TIP3    H245374   2.963   2.853   1.838
15145TIP3   OH245375   2.302   7.164   3.921
15145TIP3    H145376   2.277   7.221   3.848
15145TIP3    H245377   2.382   7.120   3.891
15146TIP3   OH245378   1.175   4.627   1.749
15146TIP3    H145379   1.220   4.543   1.748
15146TIP3    H245380   1.228   4.683   1.692
15147TIP3   OH245381   8.208   4.226   2.205
15147TIP3    H145382   8.263   4.160   2.163
15147TIP3    H245383   8.181   4.285   2.134
15148TIP3   OH245384   2.204   2.354   6.516
15148TIP3    H145385   2.150   2.361   6.594
15148TIP3    H245386   2.153   2.397   6.447
15149TIP3   OH245387   0.837   1.603   2.903
15149TIP3    H145388   0.804   1.688   2.935
15149TIP3    H245389   0.856   1.618   2.811
15150TIP3   OH245390   7.102   2.538   5.412
15150TIP3    H145391   7.026   2.483   5.393
15150TIP3    H245392   7.178   2.484   5.390
15151TIP3   OH245393   4.662   1.951   4.480
15151TIP3    H145394   4.738   2.008   4.471
15151TIP3    H245395   4.618   1.981   4.560
15152TIP3   OH245396   3.485   5.444   4.640
15152TIP3    H145397   3.541   5.473   4.567
15152TIP3    H245398   3.539   5.383   4.689
15153TIP3   OH245399   3.828   0.397   2.987
15153TIP3    H145400   3.828   0.490   3.007
15153TIP3    H245401   3.801   0.391   2.896
15154TIP3   OH245402   3.723   1.139   1.624
15154TIP3    H145403   3.743   1.048   1.644
15154TIP3    H245404   3.752   1.187   1.701
15155TIP3   OH245405   7.932   3.689   6.143
15155TIP3    H145406   8.025   3.697   6.123
15155TIP3    H245407   7.890   3.675   6.059
15156TIP3   OH245408   6.217   7.906   3.002
15156TIP3    H145409   6.138   7.951   2.973
15156TIP3    H245410   6.220   7.921   3.097
15157TIP3   OH245411   6.284   1.388   5.323
15157TIP3    H145412   6.304   1.430   5.406
15157TIP3    H245413   6.282   1.460   5.260
15158TIP3   OH245414   0.252   5.647   6.796
15158TIP3    H145415   0.254   5.556   6.766
15158TIP3    H245416   0.334   5.659   6.844
15159TIP3   OH245417   2.176   2.303   6.106
15159TIP3    H145418   2.144   2.212   6.106
15159TIP3    H245419   2.100   2.355   6.131
15160TIP3   OH245420   7.079   3.072   0.797
15160TIP3    H145421   7.053   3.075   0.889
15160TIP3    H245422   7.054   3.158   0.762
15161TIP3   OH245423   3.107   0.178   3.756
15161TIP3    H145424   3.198   0.159   3.779
15161TIP3    H245425   3.064   0.195   3.840
15162TIP3   OH245426   3.165   7.490   0.690
15162TIP3    H145427   3.071   7.484   0.703
15162TIP3    H245428   3.175   7.520   0.600
15163TIP3   OH245429   1.136   5.211   3.530
15163TIP3    H145430   1.141   5.175   3.619
15163TIP3    H245431   1.099   5.140   3.478
15164TIP3   OH245432   3.302   0.392   6.848
15164TIP3    H145433   3.294   0.477   6.804
15164TIP3    H245434   3.310   0.329   6.777
15165TIP3   OH245435   6.731   4.185   2.532
15165TIP3    H145436   6.642   4.210   2.558
15165TIP3    H245437   6.735   4.091   2.548
15166TIP3   OH245438   1.561   0.204   3.532
15166TIP3    H145439   1.618   0.267   3.488
15166TIP3    H245440   1.606   0.120   3.522
15167TIP3   OH245441   6.420   5.472   3.382
15167TIP3    H145442   6.421   5.464   3.477
15167TIP3    H245443   6.480   5.404   3.352
15168TIP3   OH245444   7.067   1.362   6.021
15168TIP3    H145445   7.022   1.388   6.101
15168TIP3    H245446   7.049   1.268   6.012
15169TIP3   OH245447   4.919   4.538   2.641
15169TIP3    H145448   4.988   4.538   2.574
15169TIP3    H245449   4.949   4.476   2.707
15170TIP3   OH245450   0.177   7.377   1.915
15170TIP3    H145451   0.184   7.449   1.977
15170TIP3    H245452   0.187   7.298   1.968
15171TIP3   OH245453   3.437   0.618   0.809
15171TIP3    H145454   3.371   0.641   0.875
15171TIP3    H245455   3.388   0.568   0.744
15172TIP3   OH245456   6.821   6.097   6.500
15172TIP3    H145457   6.865   6.018   6.532
15172TIP3    H245458   6.748   6.064   6.447
15173TIP3   OH245459   2.861   5.821   0.588
15173TIP3    H145460   2.820   5.818   0.674
15173TIP3    H245461   2.931   5.886   0.597
15174TIP3   OH245462   0.601   5.387   1.642
15174TIP3    H145463   0.681   5.426   1.607
15174TIP3    H245464   0.602   5.411   1.735
15175TIP3   OH245465   0.616   4.345   5.093
15175TIP3    H145466   0.629   4.401   5.016
15175TIP3    H245467   0.656   4.393   5.165
15176TIP3   OH245468   6.855   0.081   5.615
15176TIP3    H145469   6.862   0.160   5.562
15176TIP3    H245470   6.920   0.093   5.685
15177TIP3   OH245471   6.354   2.827   0.698
15177TIP3    H145472   6.380   2.911   0.734
15177TIP3    H245473   6.423   2.766   0.726
15178TIP3   OH245474   7.355   7.034   1.018
15178TIP3    H145475   7.420   6.982   0.971
15178TIP3    H245476   7.314   6.972   1.079
15179TIP3   OH245477   4.462   5.396   0.786
15179TIP3    H145478   4.475   5.472   0.843
15179TIP3    H245479   4.375   5.409   0.748
15180TIP3   OH245480   3.056   5.600   5.966
15180TIP3    H145481   3.040   5.655   5.889
15180TIP3    H245482   2.976   5.606   6.018
15181TIP3   OH245483   2.936   1.481   3.749
15181TIP3    H145484   2.885   1.409   3.786
15181TIP3    H245485   2.875   1.555   3.745
15182TIP3   OH245486   6.702   6.149   0.813
15182TIP3    H145487   6.728   6.108   0.730
15182TIP3    H245488   6.737   6.090   0.880
15183TIP3   OH245489   7.545   7.440   3.534
15183TIP3    H145490   7.485   7.478   3.469
15183TIP3    H245491   7.489   7.384   3.588
15184TIP3   OH245492   7.040   3.395   4.325
15184TIP3    H145493   6.993   3.319   4.289
15184TIP3    H245494   7.002   3.408   4.412
15185TIP3   OH245495   3.368   6.609   1.128
15185TIP3    H145496   3.439   6.634   1.187
15185TIP3    H245497   3.397   6.526   1.089
15186TIP3   OH245498   3.287   5.119   3.084
15186TIP3    H145499   3.371   5.081   3.060
15186TIP3    H245500   3.296   5.142   3.176
15187TIP3   OH245501   2.169   2.653   2.378
15187TIP3    H145502   2.154   2.584   2.313
15187TIP3    H245503   2.129   2.731   2.338
15188TIP3   OH245504   0.944   5.929   0.214
15188TIP3    H145505   1.022   5.930   0.270
15188TIP3    H245506   0.949   6.010   0.164
15189TIP3   OH245507   1.808   2.267   3.946
15189TIP3    H145508   1.785   2.281   4.038
15189TIP3    H245509   1.748   2.324   3.898
15190TIP3   OH245510   5.403   5.682   6.213
15190TIP3    H145511   5.379   5.716   6.299
15190TIP3    H245512   5.492   5.713   6.198
15191TIP3   OH245513   5.500   3.251   4.390
15191TIP3    H145514   5.483   3.158   4.406
15191TIP3    H245515   5.414   3.293   4.397
15192TIP3   OH245516   4.406   2.717   5.975
15192TIP3    H145517   4.416   2.794   5.920
15192TIP3    H245518   4.388   2.646   5.914
15193TIP3   OH245519   0.755   2.369   1.543
15193TIP3    H145520   0.844   2.403   1.531
15193TIP3    H245521   0.713   2.381   1.457
15194TIP3   OH245522   2.656   1.062   4.962
15194TIP3    H145523   2.613   1.146   4.944
15194TIP3    H245524   2.588   1.009   5.003
15195TIP3   OH245525   7.530   5.149   1.168
15195TIP3    H145526   7.525   5.231   1.219
15195TIP3    H245527   7.530   5.178   1.077
15196TIP3   OH245528   4.483   1.219   3.296
15196TIP3    H145529   4.442   1.282   3.237
15196TIP3    H245530   4.443   1.135   3.272
15197TIP3   OH245531   3.241   0.486   1.628
15197TIP3    H145532   3.164   0.540   1.611
15197TIP3    H245533   3.315   0.547   1.628
15198TIP3   OH245534   1.850   1.246   5.534
15198TIP3    H145535   1.896   1.221   5.454
15198TIP3    H245536   1.765   1.203   5.527
15199TIP3   OH245537   8.024   2.953   0.279
15199TIP3    H145538   8.076   3.028   0.308
15199TIP3    H245539   8.080   2.908   0.216
15200TIP3   OH245540   7.848   0.811   5.098
15200TIP3    H145541   7.894   0.865   5.034
15200TIP3    H245542   7.755   0.827   5.080
15201TIP3   OH245543   0.912   7.860   1.960
15201TIP3    H145544   0.834   7.833   1.911
15201TIP3    H245545   0.960   7.778   1.974
15202TIP3   OH245546   7.007   6.226   2.188
15202TIP3    H145547   6.962   6.225   2.103
15202TIP3    H245548   7.082   6.168   2.176
15203TIP3   OH245549   6.996   7.017   5.358
15203TIP3    H145550   7.068   7.034   5.419
15203TIP3    H245551   7.013   6.930   5.324
15204TIP3   OH245552   4.602   7.556   6.160
15204TIP3    H145553   4.565   7.469   6.174
15204TIP3    H245554   4.666   7.567   6.231
15205TIP3   OH245555   6.817   0.441   1.208
15205TIP3    H145556   6.765   0.515   1.240
15205TIP3    H245557   6.888   0.481   1.159
15206TIP3   OH245558   8.263   0.058   4.028
15206TIP3    H145559   8.359   0.050   4.021
15206TIP3    H245560   8.242   0.016   4.111
15207TIP3   OH245561   0.266   1.516   6.423
15207TIP3    H145562   0.170   1.519   6.429
15207TIP3    H245563   0.292   1.445   6.481
15208TIP3   OH245564   6.059   7.317   2.630
15208TIP3    H145565   6.062   7.404   2.589
15208TIP3    H245566   6.146   7.307   2.669
15209TIP3   OH245567   2.833   1.029   4.133
15209TIP3    H145568   2.893   1.103   4.128
15209TIP3    H245569   2.758   1.056   4.080
15210TIP3   OH245570   1.794   2.692   5.548
15210TIP3    H145571   1.752   2.623   5.599
15210TIP3    H245572   1.856   2.646   5.492
15211TIP3   OH245573   2.572   0.685   3.901
15211TIP3    H145574   2.550   0.640   3.983
15211TIP3    H245575   2.630   0.625   3.855
15212TIP3   OH245576   1.368   2.926   3.058
15212TIP3    H145577   1.454   2.952   3.022
15212TIP3    H245578   1.335   2.862   2.996
15213TIP3   OH245579   7.493   0.664   0.643
15213TIP3    H145580   7.495   0.744   0.696
15213TIP3    H245581   7.581   0.628   0.653
15214TIP3   OH245582   1.101   6.789   0.311
15214TIP3    H145583   1.090   6.776   0.405
15214TIP3    H245584   1.016   6.769   0.273
15215TIP3   OH245585   4.438   1.141   3.779
15215TIP3    H145586   4.442   1.232   3.752
15215TIP3    H245587   4.468   1.092   3.703
15216TIP3   OH245588   7.872   1.437   6.561
15216TIP3    H145589   7.845   1.498   6.492
15216TIP3    H245590   7.865   1.351   6.521
15217TIP3   OH245591   7.804   1.774   5.777
15217TIP3    H145592   7.799   1.852   5.832
15217TIP3    H245593   7.827   1.806   5.690
15218TIP3   OH245594   2.539   5.922   5.610
15218TIP3    H145595   2.520   5.830   5.593
15218TIP3    H245596   2.629   5.934   5.579
15219TIP3   OH245597   3.452   5.461   3.722
15219TIP3    H145598   3.538   5.445   3.682
15219TIP3    H245599   3.410   5.523   3.663
15220TIP3   OH245600   8.137   1.850   3.581
15220TIP3    H145601   8.098   1.837   3.495
15220TIP3    H245602   8.070   1.819   3.642
15221TIP3   OH245603   3.478   5.921   1.094
15221TIP3    H145604   3.539   5.849   1.080
15221TIP3    H245605   3.528   6.000   1.072
15222TIP3   OH245606   6.638   3.239   5.802
15222TIP3    H145607   6.732   3.219   5.798
15222TIP3    H245608   6.628   3.317   5.748
15223TIP3   OH245609   0.987   2.235   5.959
15223TIP3    H145610   0.992   2.325   5.991
15223TIP3    H245611   0.997   2.243   5.864
15224TIP3   OH245612   0.749   3.933   4.855
15224TIP3    H145613   0.666   3.904   4.818
15224TIP3    H245614   0.811   3.863   4.835
15225TIP3   OH245615   2.453   4.584   1.882
15225TIP3    H145616   2.430   4.651   1.818
15225TIP3    H245617   2.504   4.520   1.832
15226TIP3   OH245618   2.822   1.223   6.034
15226TIP3    H145619   2.918   1.232   6.032
15226TIP3    H245620   2.802   1.176   5.953
15227TIP3   OH245621   4.141   0.400   1.379
15227TIP3    H145622   4.100   0.459   1.442
15227TIP3    H245623   4.075   0.390   1.310
15228TIP3   OH245624   0.150   1.570   1.567
15228TIP3    H145625   0.110   1.488   1.594
15228TIP3    H245626   0.226   1.545   1.515
15229TIP3   OH245627   4.631   3.949   1.527
15229TIP3    H145628   4.539   3.923   1.535
15229TIP3    H245629   4.628   4.045   1.532
15230TIP3   OH245630   1.913   4.758   6.538
15230TIP3    H145631   2.005   4.755   6.564
15230TIP3    H245632   1.904   4.686   6.475
15231TIP3   OH245633   1.786   3.053   1.534
15231TIP3    H145634   1.799   2.966   1.496
15231TIP3    H245635   1.809   3.114   1.464
15232TIP3   OH245636   4.871   6.177   6.707
15232TIP3    H145637   4.775   6.171   6.708
15232TIP3    H245638   4.901   6.106   6.763
15233TIP3   OH245639   2.010   4.157   3.013
15233TIP3    H145640   1.927   4.203   3.022
15233TIP3    H245641   2.026   4.118   3.099
15234TIP3   OH245642   0.681   4.078   1.715
15234TIP3    H145643   0.672   4.130   1.636
15234TIP3    H245644   0.709   3.992   1.685
15235TIP3   OH245645   0.140   0.767   3.078
15235TIP3    H145646   0.188   0.761   3.161
15235TIP3    H245647   0.056   0.726   3.097
15236TIP3   OH245648   4.318   6.014   0.379
15236TIP3    H145649   4.244   6.058   0.422
15236TIP3    H245650   4.388   6.017   0.444
15237TIP3   OH245651   3.784   1.630   2.289
15237TIP3    H145652   3.784   1.684   2.368
15237TIP3    H245653   3.758   1.543   2.321
15238TIP3   OH245654   1.477   2.776   0.555
15238TIP3    H145655   1.543   2.842   0.580
15238TIP3    H245656   1.528   2.696   0.539
15239TIP3   OH245657   5.327   2.344   2.196
15239TIP3    H145658   5.324   2.262   2.145
15239TIP3    H245659   5.419   2.367   2.200
15240TIP3   OH245660   1.648   2.990   0.729
15240TIP3    H145661   1.599   2.918   0.770
15240TIP3    H245662   1.632   3.065   0.786
15241TIP3   OH245663   3.615   3.978   0.159
15241TIP3    H145664   3.670   3.937   0.225
15241TIP3    H245665   3.625   3.923   0.081
15242TIP3   OH245666   6.729   2.853   0.902
15242TIP3    H145667   6.717   2.931   0.849
15242TIP3    H245668   6.821   2.855   0.927
15243TIP3   OH245669   5.368   6.221   3.783
15243TIP3    H145670   5.421   6.299   3.768
15243TIP3    H245671   5.396   6.159   3.715
15244TIP3   OH245672   5.336   0.989   2.266
15244TIP3    H145673   5.369   0.984   2.176
15244TIP3    H245674   5.297   0.903   2.283
15245TIP3   OH245675   2.719   2.639   1.011
15245TIP3    H145676   2.751   2.562   1.059
15245TIP3    H245677   2.742   2.713   1.067
15246TIP3   OH245678   0.653   2.768   4.741
15246TIP3    H145679   0.738   2.724   4.744
15246TIP3    H245680   0.673   2.861   4.755
15247TIP3   OH245681   4.283   6.400   2.171
15247TIP3    H145682   4.333   6.352   2.106
15247TIP3    H245683   4.256   6.481   2.127
15248TIP3   OH245684   2.750   2.774   0.573
15248TIP3    H145685   2.775   2.787   0.664
15248TIP3    H245686   2.767   2.681   0.557
15249TIP3   OH245687   1.668   7.462   1.196
15249TIP3    H145688   1.639   7.457   1.105
15249TIP3    H245689   1.764   7.463   1.191
15250TIP3   OH245690   1.287   4.964   0.937
15250TIP3    H145691   1.317   5.055   0.938
15250TIP3    H245692   1.191   4.971   0.935
15251TIP3   OH245693   2.146   2.087   4.783
15251TIP3    H145694   2.115   2.165   4.737
15251TIP3    H245695   2.102   2.089   4.868
15252TIP3   OH245696   0.958   5.243   0.944
15252TIP3    H145697   0.977   5.182   1.015
15252TIP3    H245698   0.947   5.187   0.867
15253TIP3   OH245699   6.063   7.610   3.857
15253TIP3    H145700   6.152   7.573   3.862
15253TIP3    H245701   6.033   7.613   3.948
15254TIP3   OH245702   2.356   5.532   3.476
15254TIP3    H145703   2.311   5.614   3.496
15254TIP3    H245704   2.447   5.557   3.464
15255TIP3   OH245705   6.205   4.110   1.451
15255TIP3    H145706   6.124   4.066   1.427
15255TIP3    H245707   6.274   4.047   1.431
15256TIP3   OH245708   5.998   3.526   5.463
15256TIP3    H145709   6.061   3.584   5.506
15256TIP3    H245710   6.052   3.460   5.419
15257TIP3   OH245711   8.313   0.279   6.143
15257TIP3    H145712   8.265   0.338   6.085
15257TIP3    H245713   8.321   0.328   6.225
15258TIP3   OH245714   0.276   0.206   1.401
15258TIP3    H145715   0.188   0.238   1.422
15258TIP3    H245716   0.318   0.194   1.486
15259TIP3   OH245717   5.322   7.360   4.205
15259TIP3    H145718   5.323   7.276   4.252
15259TIP3    H245719   5.237   7.398   4.226
15260TIP3   OH245720   4.763   3.712   4.566
15260TIP3    H145721   4.745   3.729   4.658
15260TIP3    H245722   4.697   3.648   4.539
15261TIP3   OH245723   2.105   6.628   1.260
15261TIP3    H145724   2.148   6.713   1.258
15261TIP3    H245725   2.169   6.568   1.222
15262TIP3   OH245726   1.168   5.759   3.366
15262TIP3    H145727   1.175   5.699   3.441
15262TIP3    H245728   1.137   5.841   3.404
15263TIP3   OH245729   4.616   4.307   0.074
15263TIP3    H145730   4.698   4.256   0.078
15263TIP3    H245731   4.581   4.289  -0.013
15264TIP3   OH245732   0.909   1.610   0.779
15264TIP3    H145733   0.867   1.655   0.706
15264TIP3    H245734   0.967   1.676   0.818
15265TIP3   OH245735   5.153   6.919   4.931
15265TIP3    H145736   5.122   6.903   4.842
15265TIP3    H245737   5.227   6.979   4.920
15266TIP3   OH245738   2.208   3.552   1.535
15266TIP3    H145739   2.264   3.562   1.612
15266TIP3    H245740   2.260   3.497   1.475
15267TIP3   OH245741   3.930   7.242   4.237
15267TIP3    H145742   3.838   7.247   4.261
15267TIP3    H245743   3.930   7.230   4.142
15268TIP3   OH245744   0.935   2.081   5.539
15268TIP3    H145745   0.888   1.997   5.541
15268TIP3    H245746   0.868   2.145   5.515
15269TIP3   OH245747   4.676   1.519   1.936
15269TIP3    H145748   4.701   1.611   1.942
15269TIP3    H245749   4.592   1.519   1.890
15270TIP3   OH245750   0.936   4.482   6.535
15270TIP3    H145751   0.893   4.509   6.616
15270TIP3    H245752   1.029   4.492   6.552
15271TIP3   OH245753   1.837   6.504   4.733
15271TIP3    H145754   1.773   6.567   4.701
15271TIP3    H245755   1.888   6.479   4.656
15272TIP3   OH245756   0.596   7.323   3.243
15272TIP3    H145757   0.586   7.304   3.336
15272TIP3    H245758   0.506   7.331   3.211
15273TIP3   OH245759   2.827   6.317   5.408
15273TIP3    H145760   2.922   6.305   5.406
15273TIP3    H245761   2.795   6.265   5.334
15274TIP3   OH245762   5.878   1.106   2.558
15274TIP3    H145763   5.803   1.087   2.616
15274TIP3    H245764   5.870   1.199   2.538
15275TIP3   OH245765   0.913   2.329   0.564
15275TIP3    H145766   0.830   2.365   0.594
15275TIP3    H245767   0.972   2.339   0.639
15276TIP3   OH245768   2.211   7.789   3.217
15276TIP3    H145769   2.179   7.701   3.197
15276TIP3    H245770   2.172   7.844   3.149
15277TIP3   OH245771   8.059   1.875   0.881
15277TIP3    H145772   8.074   1.908   0.793
15277TIP3    H245773   7.978   1.824   0.874
15278TIP3   OH245774   2.684   3.086   1.029
15278TIP3    H145775   2.733   3.163   1.000
15278TIP3    H245776   2.620   3.070   0.960
15279TIP3   OH245777   4.527   2.838   6.645
15279TIP3    H145778   4.479   2.764   6.608
15279TIP3    H245779   4.609   2.841   6.596
15280TIP3   OH245780   7.036   3.313   0.685
15280TIP3    H145781   6.993   3.393   0.716
15280TIP3    H245782   7.065   3.335   0.596
15281TIP3   OH245783   7.670   2.990   1.723
15281TIP3    H145784   7.737   2.925   1.744
15281TIP3    H245785   7.719   3.067   1.693
15282TIP3   OH245786   2.713   0.192   0.831
15282TIP3    H145787   2.636   0.226   0.876
15282TIP3    H245788   2.681   0.166   0.744
15283TIP3   OH245789   6.454   3.700   1.494
15283TIP3    H145790   6.419   3.655   1.417
15283TIP3    H245791   6.454   3.634   1.563
15284TIP3   OH245792   4.980   1.839   6.277
15284TIP3    H145793   5.029   1.896   6.218
15284TIP3    H245794   4.928   1.900   6.330
15285TIP3   OH245795   4.285   1.645   6.522
15285TIP3    H145796   4.363   1.611   6.477
15285TIP3    H245797   4.319   1.717   6.576
15286TIP3   OH245798   5.340   4.549   5.452
15286TIP3    H145799   5.249   4.579   5.450
15286TIP3    H245800   5.346   4.500   5.535
15287TIP3   OH245801   1.901   7.833   4.674
15287TIP3    H145802   1.888   7.766   4.741
15287TIP3    H245803   1.841   7.809   4.603
15288TIP3   OH245804   0.947   2.845   4.270
15288TIP3    H145805   0.865   2.873   4.228
15288TIP3    H245806   0.986   2.783   4.208
15289TIP3   OH245807   6.493   3.072   3.350
15289TIP3    H145808   6.514   3.153   3.395
15289TIP3    H245809   6.397   3.072   3.343
15290TIP3   OH245810   5.515   6.174   2.637
15290TIP3    H145811   5.488   6.097   2.588
15290TIP3    H245812   5.601   6.150   2.673
15291TIP3   OH245813   8.210   1.051   4.912
15291TIP3    H145814   8.119   1.075   4.930
15291TIP3    H245815   8.260   1.084   4.987
15292TIP3   OH245816   0.131   2.170   6.799
15292TIP3    H145817   0.189   2.209   6.734
15292TIP3    H245818   0.044   2.202   6.777
15293TIP3   OH245819   6.325   6.676   3.540
15293TIP3    H145820   6.363   6.590   3.527
15293TIP3    H245821   6.233   6.659   3.561
15294TIP3   OH245822   1.662   3.582   5.858
15294TIP3    H145823   1.619   3.645   5.916
15294TIP3    H245824   1.594   3.518   5.838
15295TIP3   OH245825   4.752   7.863   4.885
15295TIP3    H145826   4.703   7.941   4.909
15295TIP3    H245827   4.692   7.813   4.830
15296TIP3   OH245828   0.186   6.256   2.846
15296TIP3    H145829   0.179   6.228   2.755
15296TIP3    H245830   0.238   6.337   2.843
15297TIP3   OH245831   2.103   2.903   2.635
15297TIP3    H145832   2.040   2.954   2.584
15297TIP3    H245833   2.135   2.837   2.574
15298TIP3   OH245834   2.337   6.362   3.856
15298TIP3    H145835   2.326   6.449   3.893
15298TIP3    H245836   2.256   6.316   3.879
15299TIP3   OH245837   4.384   7.378   5.124
15299TIP3    H145838   4.312   7.430   5.088
15299TIP3    H245839   4.356   7.357   5.213
15300TIP3   OH245840   3.915   4.371   1.920
15300TIP3    H145841   3.901   4.466   1.925
15300TIP3    H245842   4.009   4.361   1.909
15301TIP3   OH245843   1.359   7.866   4.450
15301TIP3    H145844   1.388   7.927   4.382
15301TIP3    H245845   1.357   7.920   4.530
15302TIP3   OH245846   1.086   2.906   5.102
15302TIP3    H145847   1.019   2.969   5.127
15302TIP3    H245848   1.090   2.844   5.175
15303TIP3   OH245849   1.502   5.834   5.310
15303TIP3    H145850   1.414   5.867   5.328
15303TIP3    H245851   1.496   5.793   5.224
15304TIP3   OH245852   0.318   4.588   4.747
15304TIP3    H145853   0.398   4.613   4.700
15304TIP3    H245854   0.301   4.662   4.805
15305TIP3   OH245855   4.446   2.785   4.418
15305TIP3    H145856   4.459   2.836   4.338
15305TIP3    H245857   4.528   2.736   4.429
15306TIP3   OH245858   0.826   7.059   5.035
15306TIP3    H145859   0.769   7.118   5.085
15306TIP3    H245860   0.896   7.115   5.002
15307TIP3   OH245861   2.893   7.311   6.814
15307TIP3    H145862   2.916   7.378   6.749
15307TIP3    H245863   2.930   7.343   6.896
15308TIP3   OH245864   3.641   3.560   2.162
15308TIP3    H145865   3.720   3.566   2.215
15308TIP3    H245866   3.629   3.466   2.146
15309TIP3   OH245867   3.855   2.564   4.667
15309TIP3    H145868   3.900   2.480   4.664
15309TIP3    H245869   3.887   2.605   4.748
15310TIP3   OH245870   5.970   7.502   6.389
15310TIP3    H145871   5.896   7.554   6.357
15310TIP3    H245872   6.025   7.487   6.312
15311TIP3   OH245873   3.521   1.281   3.982
15311TIP3    H145874   3.543   1.330   3.902
15311TIP3    H245875   3.470   1.342   4.035
15312TIP3   OH245876   7.047   0.453   5.160
15312TIP3    H145877   7.086   0.373   5.197
15312TIP3    H245878   7.110   0.522   5.181
15313TIP3   OH245879   4.722   2.591   5.491
15313TIP3    H145880   4.734   2.593   5.396
15313TIP3    H245881   4.810   2.580   5.526
15314TIP3   OH245882   6.592   4.598   1.812
15314TIP3    H145883   6.667   4.556   1.769
15314TIP3    H245884   6.562   4.663   1.749
15315TIP3   OH245885   2.887   1.848   2.163
15315TIP3    H145886   2.802   1.817   2.132
15315TIP3    H245887   2.950   1.785   2.127
15316TIP3   OH245888   1.541   6.438   5.507
15316TIP3    H145889   1.459   6.463   5.550
15316TIP3    H245890   1.556   6.507   5.443
15317TIP3   OH245891   6.477   1.281   6.094
15317TIP3    H145892   6.521   1.300   6.177
15317TIP3    H245893   6.388   1.314   6.106
15318TIP3   OH245894   2.370   7.168   0.097
15318TIP3    H145895   2.364   7.076   0.071
15318TIP3    H245896   2.284   7.204   0.077
15319TIP3   OH245897   8.086   1.222   1.347
15319TIP3    H145898   8.153   1.174   1.297
15319TIP3    H245899   8.003   1.186   1.317
15320TIP3   OH245900   3.018   5.820   2.788
15320TIP3    H145901   3.063   5.850   2.709
15320TIP3    H245902   3.053   5.732   2.803
15321TIP3   OH245903   5.595   1.197   6.247
15321TIP3    H145904   5.587   1.131   6.178
15321TIP3    H245905   5.518   1.253   6.235
15322TIP3   OH245906   1.525   6.121   4.313
15322TIP3    H145907   1.549   6.031   4.290
15322TIP3    H245908   1.459   6.145   4.248
15323TIP3   OH245909   5.729   1.167   0.199
15323TIP3    H145910   5.672   1.242   0.212
15323TIP3    H245911   5.728   1.151   0.105
15324TIP3   OH245912   7.583   4.278   1.707
15324TIP3    H145913   7.577   4.327   1.625
15324TIP3    H245914   7.579   4.345   1.775
15325TIP3   OH245915   2.221   3.920   4.253
15325TIP3    H145916   2.271   3.916   4.172
15325TIP3    H245917   2.251   3.845   4.303
15326TIP3   OH245918   3.569   5.770   4.221
15326TIP3    H145919   3.505   5.840   4.238
15326TIP3    H245920   3.541   5.698   4.277
15327TIP3   OH245921   4.261   0.290   6.499
15327TIP3    H145922   4.338   0.289   6.441
15327TIP3    H245923   4.248   0.199   6.523
15328TIP3   OH245924   3.610   4.289   1.888
15328TIP3    H145925   3.529   4.242   1.867
15328TIP3    H245926   3.595   4.377   1.852
15329TIP3   OH245927   5.862   2.033   4.825
15329TIP3    H145928   5.908   2.034   4.909
15329TIP3    H245929   5.809   1.954   4.827
15330TIP3   OH245930   1.242   7.156   5.421
15330TIP3    H145931   1.203   7.108   5.348
15330TIP3    H245932   1.191   7.237   5.427
15331TIP3   OH245933   2.179   7.313   4.672
15331TIP3    H145934   2.223   7.233   4.645
15331TIP3    H245935   2.230   7.383   4.631
15332TIP3   OH245936   3.712   2.322   2.939
15332TIP3    H145937   3.643   2.344   3.001
15332TIP3    H245938   3.707   2.227   2.929
15333TIP3   OH245939   5.581   6.799   4.356
15333TIP3    H145940   5.616   6.713   4.334
15333TIP3    H245941   5.659   6.854   4.365
15334TIP3   OH245942   4.127   0.976   4.081
15334TIP3    H145943   4.090   1.033   4.014
15334TIP3    H245944   4.206   1.021   4.111
15335TIP3   OH245945   1.018   7.011   4.719
15335TIP3    H145946   0.927   6.994   4.696
15335TIP3    H245947   1.014   7.075   4.789
15336TIP3   OH245948   0.536   2.059   1.546
15336TIP3    H145949   0.487   2.137   1.521
15336TIP3    H245950   0.527   2.053   1.641
15337TIP3   OH245951   6.528   1.243   3.955
15337TIP3    H145952   6.587   1.300   4.005
15337TIP3    H245953   6.443   1.253   3.999
15338TIP3   OH245954   4.216   0.309   4.309
15338TIP3    H145955   4.143   0.339   4.255
15338TIP3    H245956   4.293   0.314   4.252
15339TIP3   OH245957   3.069   4.450   6.269
15339TIP3    H145958   3.093   4.463   6.177
15339TIP3    H245959   3.001   4.515   6.285
15340TIP3   OH245960   1.106   3.105   4.734
15340TIP3    H145961   1.144   3.187   4.767
15340TIP3    H245962   1.153   3.089   4.652
15341TIP3   OH245963   6.504   1.394   4.351
15341TIP3    H145964   6.537   1.480   4.376
15341TIP3    H245965   6.475   1.354   4.434
15342TIP3   OH245966   1.041   5.716   4.453
15342TIP3    H145967   1.023   5.795   4.505
15342TIP3    H245968   0.999   5.733   4.369
15343TIP3   OH245969   5.326   1.456   0.283
15343TIP3    H145970   5.289   1.487   0.201
15343TIP3    H245971   5.354   1.366   0.264
15344TIP3   OH245972   7.823   7.704   4.374
15344TIP3    H145973   7.846   7.638   4.439
15344TIP3    H245974   7.752   7.753   4.413
15345TIP3   OH245975   1.847   2.105   3.373
15345TIP3    H145976   1.810   2.036   3.428
15345TIP3    H245977   1.888   2.165   3.435
15346TIP3   OH245978   1.733   7.729   0.515
15346TIP3    H145979   1.711   7.647   0.471
15346TIP3    H245980   1.820   7.713   0.552
15347TIP3   OH245981   6.149   3.492   0.598
15347TIP3    H145982   6.154   3.585   0.620
15347TIP3    H245983   6.056   3.471   0.606
15348TIP3   OH245984   3.448   0.291   0.868
15348TIP3    H145985   3.539   0.262   0.858
15348TIP3    H245986   3.418   0.307   0.779
15349TIP3   OH245987   0.424   7.141   2.925
15349TIP3    H145988   0.499   7.122   2.981
15349TIP3    H245989   0.456   7.127   2.836
15350TIP3   OH245990   2.635   2.635   5.364
15350TIP3    H145991   2.731   2.644   5.364
15350TIP3    H245992   2.603   2.723   5.343
15351TIP3   OH245993   4.933   6.982   2.848
15351TIP3    H145994   4.997   7.041   2.809
15351TIP3    H245995   4.963   6.895   2.822
15352TIP3   OH245996   2.823   6.185   6.438
15352TIP3    H145997   2.746   6.204   6.384
15352TIP3    H245998   2.854   6.270   6.467
15353TIP3   OH245999   0.496   2.453   6.769
15353TIP3    H146000   0.532   2.369   6.795
15353TIP3    H246001   0.537   2.516   6.828
15354TIP3   OH246002   7.106   3.165   6.586
15354TIP3    H146003   7.149   3.215   6.516
15354TIP3    H246004   7.035   3.222   6.617
15355TIP3   OH246005   4.078   6.583   3.548
15355TIP3    H146006   4.078   6.488   3.552
15355TIP3    H246007   4.055   6.611   3.637
15356TIP3   OH246008   5.704   0.512   6.026
15356TIP3    H146009   5.781   0.560   5.995
15356TIP3    H246010   5.657   0.488   5.946
15357TIP3   OH246011   5.105   6.690   0.385
15357TIP3    H146012   5.037   6.656   0.443
15357TIP3    H246013   5.166   6.617   0.373
15358TIP3   OH246014   6.522   6.527   6.405
15358TIP3    H146015   6.450   6.556   6.349
15358TIP3    H246016   6.601   6.541   6.353
15359TIP3   OH246017   0.818   5.487   5.542
15359TIP3    H146018   0.735   5.440   5.533
15359TIP3    H246019   0.794   5.570   5.584
15360TIP3   OH246020   6.456   4.697   5.946
15360TIP3    H146021   6.371   4.678   5.985
15360TIP3    H246022   6.491   4.611   5.921
15361TIP3   OH246023   8.127   1.377   3.923
15361TIP3    H146024   8.166   1.320   3.857
15361TIP3    H246025   8.121   1.463   3.880
15362TIP3   OH246026   6.349   3.688   2.277
15362TIP3    H146027   6.420   3.667   2.337
15362TIP3    H246028   6.370   3.776   2.244
15363TIP3   OH246029   3.306   7.568   5.558
15363TIP3    H146030   3.281   7.636   5.496
15363TIP3    H246031   3.231   7.561   5.617
15364TIP3   OH246032   4.535   0.097   3.008
15364TIP3    H146033   4.584   0.179   3.016
15364TIP3    H246034   4.570   0.042   3.079
15365TIP3   OH246035   2.129   5.174   3.744
15365TIP3    H146036   2.072   5.133   3.809
15365TIP3    H246037   2.166   5.100   3.696
15366TIP3   OH246038   0.854   7.590   3.756
15366TIP3    H146039   0.890   7.667   3.801
15366TIP3    H246040   0.807   7.543   3.824
15367TIP3   OH246041   4.381   4.607   2.367
15367TIP3    H146042   4.370   4.700   2.389
15367TIP3    H246043   4.416   4.567   2.446
15368TIP3   OH246044   1.899   1.608   1.488
15368TIP3    H146045   1.985   1.642   1.513
15368TIP3    H246046   1.875   1.549   1.560
15369TIP3   OH246047   0.491   6.496   3.760
15369TIP3    H146048   0.435   6.473   3.686
15369TIP3    H246049   0.580   6.490   3.725
15370TIP3   OH246050   4.246   6.834   6.174
15370TIP3    H146051   4.157   6.867   6.161
15370TIP3    H246052   4.269   6.863   6.263
15371TIP3   OH246053   2.531   5.507   6.016
15371TIP3    H146054   2.613   5.536   5.976
15371TIP3    H246055   2.548   5.512   6.111
   8.39886   7.91852   6.85764   0.00000   0.00000  -2.79962   0.00000  -2.79962  -3.95926
