Title
29212
    1ASP      N    1   3.636   2.902   3.859 -0.0145  0.6924  0.0673
    1ASP    HT1    2   3.553   2.883   3.799 -0.5123  0.9148  0.6734
    1ASP    HT2    3   3.674   2.810   3.889  1.0218  1.6413  1.8214
    1ASP    HT3    4   3.705   2.970   3.820  0.0552  3.1130  3.9266
    1ASP     CA    5   3.569   2.959   3.984 -0.2663 -0.3272 -1.0810
    1ASP     HA    6   3.487   2.894   4.009  0.7287 -1.4349 -0.5863
    1ASP     CB    7   3.667   2.956   4.106 -0.2424 -0.6424 -0.3229
    1ASP    HB1    8   3.610   2.986   4.197 -0.4083  2.5705 -1.3463
    1ASP    HB2    9   3.754   3.025   4.097  0.4321 -1.4337 -0.0054
    1ASP     CG   10   3.732   2.818   4.132  0.2968  0.4822  0.4220
    1ASP    OD1   11   3.782   2.786   4.241 -0.4228 -0.1712 -0.4835
    1ASP    OD2   12   3.742   2.737   4.038  0.0266  0.0415  0.5675
    1ASP      C   13   3.510   3.100   3.966 -0.2101 -0.0146 -0.6786
    1ASP      O   14   3.568   3.173   3.884  0.1416 -0.0473  0.2504
    2GLY      N   15   3.402   3.142   4.032  0.0799 -0.9261  0.0144
    2GLY     HN   16   3.361   3.085   4.103  0.2509  0.9563  1.7049
    2GLY     CA   17   3.322   3.254   3.989  0.7227  0.6295 -0.3514
    2GLY    HA1   18   3.389   3.339   3.982  0.4799  1.0870  1.9550
    2GLY    HA2   19   3.242   3.276   4.059  1.2812  2.4775 -0.2159
    2GLY      C   20   3.240   3.244   3.855  0.0282  0.4694  0.1820
    2GLY      O   21   3.206   3.137   3.806  0.5186  0.3008  0.1950
    3ASP      N   22   3.206   3.360   3.798  0.1403 -0.0122  0.0305
    3ASP     HN   23   3.224   3.447   3.842  1.0727 -0.7623  1.1898
    3ASP     CA   24   3.143   3.378   3.675 -0.1454 -0.9728  0.3493
    3ASP     HA   25   3.058   3.313   3.659  0.7733 -2.0618 -0.3405
    3ASP     CB   26   3.094   3.529   3.661  0.7149  0.0062 -0.0629
    3ASP    HB1   27   3.024   3.541   3.576  0.5354 -0.6422 -0.0174
    3ASP    HB2   28   3.171   3.608   3.652  0.3765  0.5657  1.5921
    3ASP     CG   29   3.024   3.576   3.789 -0.1494  0.4251 -0.6053
    3ASP    OD1   30   2.900   3.561   3.798  0.0897 -0.1129  0.1993
    3ASP    OD2   31   3.095   3.625   3.883 -0.1940  0.0565  0.4394
    3ASP      C   32   3.241   3.344   3.556 -0.2303  0.2290 -0.0831
    3ASP      O   33   3.364   3.352   3.568 -0.2158 -0.0055  0.0423
    4GLY      N   34   3.188   3.314   3.435 -0.1140  0.3637 -0.0313
    4GLY     HN   35   3.090   3.299   3.432 -0.7011  2.6743  2.9875
    4GLY     CA   36   3.258   3.299   3.304  1.2004  0.0043 -0.1271
    4GLY    HA1   37   3.180   3.267   3.236  0.9566  1.0365 -0.3594
    4GLY    HA2   38   3.337   3.229   3.325 -0.2359 -1.8000 -0.3998
    4GLY      C   39   3.320   3.431   3.252  0.6346  0.1447 -0.2365
    4GLY      O   40   3.328   3.531   3.317 -0.2682  0.2979 -0.3063
    5PRO      N   41   3.367   3.419   3.128 -0.1794  1.1775 -0.4501
    5PRO     CD   42   3.387   3.289   3.055  0.4319 -0.3920 -0.3475
    5PRO    HD1   43   3.288   3.281   3.005 -0.7099  0.6923  1.6006
    5PRO    HD2   44   3.420   3.210   3.126  0.0987  0.4288  0.7605
    5PRO     CA   45   3.407   3.535   3.047 -0.0786  0.0118 -0.1568
    5PRO     HA   46   3.494   3.572   3.100  1.3301 -2.9541 -0.2120
    5PRO     CB   47   3.448   3.465   2.922 -0.1614 -0.9454  0.3280
    5PRO    HB1   48   3.526   3.520   2.865 -0.7700 -1.2002 -0.7807
    5PRO    HB2   49   3.365   3.440   2.853 -0.2885 -2.2077  0.9136
    5PRO     CG   50   3.497   3.329   2.959 -0.0874  0.3759 -0.4276
    5PRO    HG1   51   3.503   3.263   2.870  0.1763 -0.1997  0.0048
    5PRO    HG2   52   3.597   3.332   3.008  0.3031  0.6722 -1.2260
    5PRO      C   53   3.296   3.639   3.024 -0.1516 -0.0234 -0.0921
    5PRO      O   54   3.192   3.610   2.963  0.9925 -0.1122  0.0883
    6GLY      N   55   3.313   3.770   3.060  0.5979  0.3350  0.2472
    6GLY     HN   56   3.402   3.806   3.088  0.3749  0.4505  0.8407
    6GLY     CA   57   3.202   3.872   3.051 -0.3903  0.4590  0.3651
    6GLY    HA1   58   3.171   3.884   2.948  0.6781  0.8185  0.0652
    6GLY    HA2   59   3.258   3.958   3.087  2.2026 -1.0197  0.1346
    6GLY      C   60   3.084   3.857   3.140  0.5059  0.0393  0.3412
    6GLY      O   61   3.102   3.854   3.260  0.6419  0.4673 -0.1906
    7ASP      N   62   2.963   3.860   3.087 -0.3430  0.0412 -0.2774
    7ASP     HN   63   2.950   3.855   2.988 -1.2408 -0.3360 -0.1507
    7ASP     CA   64   2.849   3.847   3.176 -0.1449  0.1463  0.2645
    7ASP     HA   65   2.855   3.933   3.242 -0.7720  1.1947 -0.9948
    7ASP     CB   66   2.716   3.862   3.101 -0.7658 -0.9424  0.3082
    7ASP    HB1   67   2.638   3.870   3.180 -0.6363 -0.1753  0.3683
    7ASP    HB2   68   2.688   3.770   3.046 -0.7554 -0.3129 -0.7768
    7ASP     CG   69   2.693   3.994   3.031  0.1470  0.3666 -0.1744
    7ASP    OD1   70   2.746   4.098   3.087 -0.2233  0.0024  0.4288
    7ASP    OD2   71   2.625   4.006   2.926  0.2930  0.6393 -0.1032
    7ASP      C   72   2.835   3.715   3.267  0.2535 -0.6014 -0.8082
    7ASP      O   73   2.873   3.606   3.231 -0.4576  0.4986 -0.4762
    8PRO      N   74   2.785   3.731   3.387  0.1671  0.5703  0.0013
    8PRO     CD   75   2.775   3.855   3.468  0.1273 -1.0064 -0.4294
    8PRO    HD1   76   2.687   3.910   3.429 -0.3502  0.3916  2.3582
    8PRO    HD2   77   2.865   3.920   3.473 -1.1614  0.7675  2.3167
    8PRO     CA   78   2.741   3.617   3.465  0.0865  0.1070 -0.4996
    8PRO     HA   79   2.827   3.566   3.508  0.2733 -1.8835 -3.0014
    8PRO     CB   80   2.651   3.688   3.578 -0.4073 -0.2586 -0.4649
    8PRO    HB1   81   2.640   3.631   3.673  0.1057  1.6440  0.8069
    8PRO    HB2   82   2.546   3.714   3.552 -0.8973 -0.8353  0.8143
    8PRO     CG   83   2.739   3.808   3.612  0.5098 -0.8204 -0.3840
    8PRO    HG1   84   2.687   3.887   3.670  0.1491 -1.7661  0.6085
    8PRO    HG2   85   2.835   3.780   3.660  1.7504  2.2581 -0.8519
    8PRO      C   86   2.657   3.513   3.397 -0.4326  1.0546 -0.2453
    8PRO      O   87   2.595   3.531   3.293  0.0559 -0.3223 -0.0309
    9GLY      N   88   2.653   3.390   3.457 -0.3944  0.5865  0.0104
    9GLY     HN   89   2.708   3.371   3.538  0.2514  0.2329 -0.4920
    9GLY     CA   90   2.553   3.290   3.417 -0.1094  0.0644  0.0437
    9GLY    HA1   91   2.598   3.193   3.431  0.1829  0.1894 -0.0305
    9GLY    HA2   92   2.515   3.303   3.316 -0.4233  1.6636  0.3415
    9GLY      C   93   2.434   3.290   3.509 -0.1082  0.3892  0.4585
    9GLY      O   94   2.319   3.269   3.472  0.2227  0.7797 -0.5837
   10ASP      N   95   2.469   3.334   3.630  0.1910  0.2013 -0.3837
   10ASP     HN   96   2.565   3.350   3.649 -0.1027  1.3464  0.2605
   10ASP     CA   97   2.372   3.362   3.728  0.0036 -0.2038 -0.3550
   10ASP     HA   98   2.316   3.271   3.739  1.9465 -1.4608 -0.5486
   10ASP     CB   99   2.439   3.382   3.866  0.6005  0.0519 -0.5403
   10ASP    HB1  100   2.492   3.479   3.860 -1.3143  1.0937 -1.5943
   10ASP    HB2  101   2.508   3.301   3.899  0.4141 -1.0693 -2.7402
   10ASP     CG  102   2.336   3.390   3.982 -0.0495 -0.0422  0.6859
   10ASP    OD1  103   2.230   3.326   3.964  0.0550  0.6876  0.0710
   10ASP    OD2  104   2.362   3.456   4.087  0.6761 -0.0939 -0.2544
   10ASP      C  105   2.267   3.471   3.683 -0.3554 -0.2289 -0.4464
   10ASP      O  106   2.303   3.554   3.598  0.1222 -0.0420  0.1053
   11GLY      N  107   2.142   3.467   3.733 -0.0446  0.2344 -0.3739
   11GLY     HN  108   2.130   3.403   3.809  1.5447 -2.1351 -1.9642
   11GLY     CA  109   2.045   3.571   3.723  0.0575 -1.0051  0.0338
   11GLY    HA1  110   1.977   3.548   3.642  0.2012  1.2726 -0.7979
   11GLY    HA2  111   2.102   3.661   3.705 -2.7413  0.5593 -1.6575
   11GLY      C  112   1.966   3.585   3.859 -0.4236  1.1428 -0.0989
   11GLY    OT1  113   1.998   3.679   3.939 -0.1647  0.2075 -0.0768
   11GLY    OT2  114   1.876   3.501   3.886  0.3041 -0.1688  0.1115
   12SOD    SOD  115   4.058   1.057   0.945 -0.0870  0.1156 -0.1139
   13SOD    SOD  116   0.895   1.676   2.077 -0.2846  0.2667  0.3415
   14SOD    SOD  117   4.395   3.466   4.639  0.4003 -0.3315 -0.0122
   15SOD    SOD  118   2.093   5.387   2.845 -0.1666  0.1168 -0.4876
   16SOD    SOD  119   1.076   3.690   4.506 -0.1050 -0.2653 -0.2680
   17SOD    SOD  120   3.418   5.541   1.379 -0.2120 -0.0534 -0.1744
   18SOD    SOD  121   5.591   1.660   5.842  0.2082  0.1979 -0.4993
   19SOD    SOD  122   2.212   2.788   0.434  0.1526  0.0386  0.5042
   20SOD    SOD  123   4.944   6.183   0.136 -0.0013  0.0272 -0.1279
   21SOD    SOD  124   2.055   6.273   0.128  0.1021 -0.2324  0.2855
   22SOD    SOD  125   0.605   2.331   2.621 -0.2514  0.5925 -0.2412
   23SOD    SOD  126   3.038   3.052   4.305 -0.2360 -0.1236 -0.2090
   24SOD    SOD  127   2.842   0.525   5.717 -0.3105 -0.2801  0.1385
   25SOD    SOD  128   0.270   2.192   4.801 -0.2402 -0.0243  0.1969
   26SOD    SOD  129   3.188   5.433   5.744  0.2840 -0.0397  0.2075
   27SOD    SOD  130   2.526   4.509   2.485 -0.1112  0.0637 -0.0402
   28SOD    SOD  131   5.250   2.866   2.696  0.2100  0.0537 -0.4395
   29SOD    SOD  132   2.629   6.684   2.334  0.0453  0.3599  0.1481
   30SOD    SOD  133   4.487   6.268   3.842 -0.0123  0.3382 -0.3349
   31SOD    SOD  134   0.170   0.616   1.929  0.2043 -0.0375  0.0142
   32SOD    SOD  135   2.387   0.453   3.282 -0.2310 -0.3215  0.3449
   33SOD    SOD  136   0.594   3.185   0.810  0.2382  0.2289 -0.4515
   34SOD    SOD  137   1.273   0.458   4.690  0.2934  0.2325  0.6147
   35SOD    SOD  138   1.746   5.824   4.021  0.3145  0.5427 -0.2663
   36SOD    SOD  139   2.079   2.227   0.220  0.4973  0.1070  0.0462
   37SOD    SOD  140   5.796   1.490   4.632 -0.5763 -0.0276  0.0542
   38SOD    SOD  141   2.245   5.710   5.612  0.6821  0.1547  0.2580
   39SOD    SOD  142   2.966   4.121   2.744  0.1500  0.1167 -0.3128
   40SOD    SOD  143   1.256   0.486   0.469 -0.0755 -0.3633  0.1251
   41SOD    SOD  144   6.457   6.593   5.600  0.6707 -0.5032  0.1412
   42SOD    SOD  145   7.170   1.094   4.447 -0.1992  0.3780  0.6600
   43CLA    CLA  146   1.327   5.363   3.588  0.1672  0.1602  0.3717
   44CLA    CLA  147   5.251   0.130   0.763  0.1216  0.0869 -0.0474
   45CLA    CLA  148   6.617   2.103   1.932 -0.3019 -0.1267 -0.4875
   46CLA    CLA  149   3.066   5.203   1.582  0.2821  0.2792 -0.2656
   47CLA    CLA  150   1.071   3.169   4.833  0.3048 -0.0098 -0.0775
   48CLA    CLA  151   4.436   1.241   5.156 -0.3119 -0.0700  0.4773
   49CLA    CLA  152   2.964   1.489   4.702 -0.1851  0.2076  0.1975
   50CLA    CLA  153   1.069   0.292   0.542 -0.1517 -0.0428 -0.2807
   51CLA    CLA  154   0.306   6.262   0.304  0.2144 -0.0558  0.2188
   52CLA    CLA  155   3.164   1.358   0.406 -0.1809 -0.1019 -0.1464
   53CLA    CLA  156   3.714   0.971   5.086  0.0178 -0.2798 -0.4402
   54CLA    CLA  157   2.968   5.848   4.637  0.2032 -0.3075  0.0643
   55CLA    CLA  158   1.382   3.314   0.889  0.0993  0.1853 -0.2252
   56CLA    CLA  159   2.493   4.866   1.155  0.2058 -0.3618  0.0006
   57CLA    CLA  160   0.446   1.131   2.005 -0.3046  0.3259  0.1242
   58CLA    CLA  161   6.902   1.093   1.140 -0.1719  0.2483 -0.0075
   59CLA    CLA  162   6.598   6.184   0.121 -0.2806 -0.1567 -0.0326
   60CLA    CLA  163   5.721   1.698   5.611 -0.2297  0.0734  0.5393
   61CLA    CLA  164   4.176   5.013   5.601  0.0633  0.1819  0.3384
   62CLA    CLA  165   3.519   3.968   1.447  0.1825  0.2597 -0.1160
   63CLA    CLA  166   0.759   1.129   4.332  0.1431 -0.3870  0.0820
   64CLA    CLA  167   0.594   1.979   4.867  0.1368 -0.1011 -0.3644
   65CLA    CLA  168   7.142   6.366   5.709 -0.0542  0.0970 -0.3698
   66CLA    CLA  169   6.645   3.678   4.515 -0.1775 -0.3734 -0.0678
   67CLA    CLA  170   0.325   0.024   3.083 -0.2560 -0.4740  0.2163
   68CLA    CLA  171   6.548   0.591   4.960 -0.0661  0.0026  0.1011
   69CLA    CLA  172   1.764   4.071   2.734 -0.2091 -0.2082 -0.2287
   70TIP3   OH2  173   6.604   0.251   0.181  0.5468  0.1568  0.0135
   70TIP3    H1  174   6.536   0.307   0.219  0.2802  0.3190 -0.6939
   70TIP3    H2  175   6.578   0.240   0.090  0.7731 -0.8487  0.0572
   71TIP3   OH2  176   6.048   0.710   3.772  0.1355  0.6420 -0.1391
   71TIP3    H1  177   6.079   0.621   3.753  0.6116  1.1473 -1.9469
   71TIP3    H2  178   5.982   0.727   3.705 -1.2016  1.0464  1.2417
   72TIP3   OH2  179   6.078   3.910   4.036 -0.2977 -0.0054 -0.1258
   72TIP3    H1  180   5.998   3.950   4.070 -0.8996 -0.8386 -0.5311
   72TIP3    H2  181   6.147   3.945   4.092 -0.9204  0.8176  0.1597
   73TIP3   OH2  182   3.726   5.309   3.276  0.1731  0.0372  0.0520
   73TIP3    H1  183   3.720   5.377   3.209 -0.9640 -1.0591 -0.9990
   73TIP3    H2  184   3.707   5.354   3.358  0.4642  1.1764 -0.4891
   74TIP3   OH2  185   1.937   5.072   4.933 -0.3362  0.4601 -0.0215
   74TIP3    H1  186   1.856   5.119   4.953  0.9944  2.1277  1.8969
   74TIP3    H2  187   1.941   5.002   4.998 -0.1886  0.4441 -0.0471
   75TIP3   OH2  188   0.062   6.213   5.163 -0.4063  0.3968  0.3026
   75TIP3    H1  189   0.031   6.207   5.253 -2.2090 -0.4645 -0.3191
   75TIP3    H2  190   0.127   6.143   5.155  0.3556  0.9914  1.1269
   76TIP3   OH2  191   2.112   0.012   0.223 -0.4177 -0.1121 -0.4537
   76TIP3    H1  192   2.119   0.098   0.181 -2.3102  0.0551 -0.4866
   76TIP3    H2  193   2.113   0.031   0.316 -2.2183  0.1256 -0.4476
   77TIP3   OH2  194   5.024   5.166   5.167  0.0526  0.6969  0.2586
   77TIP3    H1  195   5.003   5.244   5.219 -0.0476 -0.7075  2.4430
   77TIP3    H2  196   4.964   5.099   5.200 -0.2389 -0.1965 -1.9637
   78TIP3   OH2  197   2.416   6.626   2.729  0.6995  0.3329 -0.5648
   78TIP3    H1  198   2.345   6.656   2.786 -0.7083 -0.1678 -1.9934
   78TIP3    H2  199   2.496   6.655   2.774 -0.4092  1.6117  0.7012
   79TIP3   OH2  200   3.465   3.434   0.681  0.0824 -0.4192 -0.0192
   79TIP3    H1  201   3.500   3.418   0.593  1.4293  1.7621  0.0430
   79TIP3    H2  202   3.542   3.447   0.736 -0.7332  1.2750  0.8163
   80TIP3   OH2  203   6.151   4.612   1.215  0.1603 -0.1347  0.4891
   80TIP3    H1  204   6.160   4.706   1.200 -4.7203  0.3919 -0.9482
   80TIP3    H2  205   6.150   4.573   1.128  0.1785 -1.2527  0.9674
   81TIP3   OH2  206   7.112   0.244   1.030  0.3441  0.5527 -0.3125
   81TIP3    H1  207   7.128   0.171   1.089 -0.6577  1.1917  0.8121
   81TIP3    H2  208   7.024   0.275   1.054  0.5238  1.7711 -1.1386
   82TIP3   OH2  209   1.826   4.195   1.174  0.0200  0.0828  0.4068
   82TIP3    H1  210   1.752   4.168   1.118 -0.6677  0.7816  0.9603
   82TIP3    H2  211   1.898   4.138   1.147 -0.2141  0.5446 -1.3651
   83TIP3   OH2  212   1.450   2.069   1.480  0.7693 -0.0799  0.0512
   83TIP3    H1  213   1.470   1.976   1.483  0.1831 -0.2124 -0.0130
   83TIP3    H2  214   1.479   2.103   1.564 -1.9924 -0.9462  1.4928
   84TIP3   OH2  215   2.181   3.823   0.739  0.4858  0.5278  0.0967
   84TIP3    H1  216   2.243   3.806   0.810 -0.5442  1.3246  1.2294
   84TIP3    H2  217   2.096   3.797   0.775  0.1343 -0.6357 -1.4501
   85TIP3   OH2  218   3.738   2.199   1.128 -0.2386 -0.4927 -0.0527
   85TIP3    H1  219   3.699   2.267   1.183  2.0824  1.1314 -0.2696
   85TIP3    H2  220   3.804   2.157   1.184  0.2198 -0.7204 -0.7501
   86TIP3   OH2  221   2.616   0.275   3.634  0.1337  0.4980 -0.2093
   86TIP3    H1  222   2.699   0.235   3.661 -0.0279 -0.6212 -1.2911
   86TIP3    H2  223   2.585   0.320   3.713  1.9468  1.2751  0.1140
   87TIP3   OH2  224   4.492   3.841   3.546  0.7231  0.3146 -0.2782
   87TIP3    H1  225   4.463   3.919   3.499  2.7317  0.7658 -0.8607
   87TIP3    H2  226   4.506   3.776   3.477 -0.1006 -0.3089  0.1209
   88TIP3   OH2  227   0.282   5.912   4.842 -0.3623 -0.1132 -0.1799
   88TIP3    H1  228   0.351   5.860   4.799 -0.7966 -0.9676  0.1256
   88TIP3    H2  229   0.221   5.847   4.875 -0.5319  0.5705  0.8948
   89TIP3   OH2  230   3.930   1.592   2.960 -0.3818 -0.3572 -0.4074
   89TIP3    H1  231   3.872   1.519   2.983 -0.4800 -0.3681 -0.6854
   89TIP3    H2  232   3.940   1.585   2.865 -1.7230  0.9806 -0.6761
   90TIP3   OH2  233   3.047   4.481   2.931 -0.0031 -0.2050  0.0952
   90TIP3    H1  234   3.136   4.476   2.894  0.7124 -0.3822  1.7666
   90TIP3    H2  235   3.009   4.395   2.911  0.3689 -0.2964 -0.2401
   91TIP3   OH2  236   2.581   1.002   0.433  0.6449  0.6595 -0.9602
   91TIP3    H1  237   2.540   1.086   0.454  0.7876  0.7425 -1.0145
   91TIP3    H2  238   2.557   0.985   0.342 -1.2782 -0.4475 -0.3034
   92TIP3   OH2  239   7.100   4.661   2.519  0.4594  0.2917  0.1739
   92TIP3    H1  240   7.176   4.659   2.578 -0.2543 -1.4425  1.0993
   92TIP3    H2  241   7.029   4.697   2.572 -0.0088 -0.6068  0.1693
   93TIP3   OH2  242   4.161   1.270   2.545  0.4640  0.3849 -0.2855
   93TIP3    H1  243   4.223   1.343   2.551  0.0737  1.0673 -3.0351
   93TIP3    H2  244   4.214   1.195   2.521  0.5817  0.2547  0.3609
   94TIP3   OH2  245   5.869   1.134   0.926  0.0144 -0.7734  0.1910
   94TIP3    H1  246   5.827   1.166   1.006 -2.1560 -0.2215 -1.0968
   94TIP3    H2  247   5.826   1.182   0.855  0.5141 -2.6109 -1.4550
   95TIP3   OH2  248   1.555   1.400   1.156 -0.5349 -0.2928 -0.2275
   95TIP3    H1  249   1.545   1.306   1.139  0.9445 -0.1071 -2.4705
   95TIP3    H2  250   1.521   1.443   1.078  1.6707  0.8943 -0.5969
   96TIP3   OH2  251   1.316   1.254   2.565 -0.2155 -0.3466  0.1728
   96TIP3    H1  252   1.245   1.200   2.530 -0.9212  1.8742 -2.0592
   96TIP3    H2  253   1.286   1.344   2.555  2.2154  0.6180  0.7625
   97TIP3   OH2  254   0.871   0.136   0.328 -0.0482 -0.2722 -0.6620
   97TIP3    H1  255   0.919   0.167   0.404 -1.2536  0.1765 -0.0487
   97TIP3    H2  256   0.894   0.198   0.258 -1.0932  1.0348  0.1020
   98TIP3   OH2  257   0.161   5.200   2.491  0.4314 -0.1640 -0.9217
   98TIP3    H1  258   0.135   5.276   2.544  3.1639  1.3748 -1.5889
   98TIP3    H2  259   0.246   5.225   2.455  1.4499 -3.5860 -1.1777
   99TIP3   OH2  260   0.348   4.020   5.519 -0.4027 -0.0800 -0.2098
   99TIP3    H1  261   0.396   3.996   5.440  0.5419 -1.7392  0.7999
   99TIP3    H2  262   0.375   4.110   5.537  2.4459 -0.9391  0.3212
  100TIP3   OH2  263   6.570   5.378   3.991  0.1813  0.1943 -0.4180
  100TIP3    H1  264   6.635   5.427   3.940  0.7755 -0.8986 -0.7527
  100TIP3    H2  265   6.487   5.397   3.948  0.3154  1.3395 -0.1983
  101TIP3   OH2  266   2.895   3.894   2.774 -0.1437 -0.5449 -0.5563
  101TIP3    H1  267   2.911   3.806   2.739 -1.2396 -0.7475 -0.5705
  101TIP3    H2  268   2.803   3.911   2.755 -0.0379  0.4588 -0.2084
  102TIP3   OH2  269   4.805   4.567   5.707  0.0656  0.1913 -0.0283
  102TIP3    H1  270   4.795   4.474   5.683  0.0886  0.5109 -1.3424
  102TIP3    H2  271   4.867   4.566   5.780 -0.7450 -0.9121  0.6788
  103TIP3   OH2  272   3.455   5.962   5.774 -0.1361  0.0522  0.6887
  103TIP3    H1  273   3.519   5.993   5.837  0.0550 -0.1361  0.5885
  103TIP3    H2  274   3.465   5.867   5.773  0.8859  0.1411 -0.6916
  104TIP3   OH2  275   2.472   4.236   0.623  0.0266 -0.6450  0.7675
  104TIP3    H1  276   2.445   4.144   0.622 -0.9541 -0.3762  1.2021
  104TIP3    H2  277   2.417   4.277   0.690  0.9672  0.1133  1.1044
  105TIP3   OH2  278   2.418   0.300   2.441  0.3075 -0.5102 -0.1674
  105TIP3    H1  279   2.440   0.386   2.476 -1.1987 -0.0731 -0.2170
  105TIP3    H2  280   2.365   0.258   2.509 -0.9755 -0.4316 -1.0694
  106TIP3   OH2  281   6.138   1.548   2.093 -0.0436 -0.1792 -0.1409
  106TIP3    H1  282   6.052   1.505   2.092 -0.0274 -0.2513  0.7210
  106TIP3    H2  283   6.175   1.531   2.007 -0.9463 -0.0500 -0.5657
  107TIP3   OH2  284   3.314   6.010   1.050 -0.4990  0.0654  0.2868
  107TIP3    H1  285   3.311   6.103   1.028  1.1740  0.2525  0.7083
  107TIP3    H2  286   3.324   5.965   0.966  2.0783  0.5297  0.2722
  108TIP3   OH2  287   3.936   0.484   4.194 -0.0122 -0.2819 -0.2141
  108TIP3    H1  288   3.869   0.455   4.131  0.3240 -2.5377  0.3744
  108TIP3    H2  289   3.977   0.559   4.152 -0.6002 -0.9923 -2.1823
  109TIP3   OH2  290   3.381   5.319   5.372 -0.3138 -0.3482  0.3256
  109TIP3    H1  291   3.459   5.266   5.353  1.2238  0.3437  3.8932
  109TIP3    H2  292   3.393   5.398   5.317  0.3828 -1.1411 -0.7165
  110TIP3   OH2  293   4.491   5.996   3.317  0.1902 -0.2863  0.0666
  110TIP3    H1  294   4.585   5.989   3.303  0.3355 -0.0127  0.8706
  110TIP3    H2  295   4.458   5.907   3.303  0.8361 -0.7985  1.6356
  111TIP3   OH2  296   3.017   2.309   0.846 -0.0001  0.4347  0.8484
  111TIP3    H1  297   3.081   2.380   0.846 -0.4169  0.8471 -0.7527
  111TIP3    H2  298   3.071   2.230   0.837  0.3007  0.8296 -1.3263
  112TIP3   OH2  299   4.402   2.770   3.889  1.1189 -0.2822 -0.1399
  112TIP3    H1  300   4.422   2.850   3.937 -1.3746  1.0290 -1.0907
  112TIP3    H2  301   4.406   2.795   3.797  0.4826 -1.2782 -0.4610
  113TIP3   OH2  302   1.119   2.796   2.479 -0.9726 -0.0150 -0.0646
  113TIP3    H1  303   1.091   2.860   2.544  0.5500  0.5263  0.1063
  113TIP3    H2  304   1.147   2.720   2.530  0.2279  0.4119 -0.0557
  114TIP3   OH2  305   4.943   5.612   4.967  0.0883 -0.1714  0.2867
  114TIP3    H1  306   4.970   5.555   4.895  3.6001  0.1193  1.1915
  114TIP3    H2  307   4.958   5.559   5.046  1.9885  1.3856  1.0531
  115TIP3   OH2  308   2.414   4.020   4.575  0.6973  0.1231  0.8934
  115TIP3    H1  309   2.394   4.112   4.562 -0.1636 -0.2285 -0.5811
  115TIP3    H2  310   2.329   3.976   4.564  1.0398 -0.8203  1.8757
  116TIP3   OH2  311   7.225   1.160   2.237  0.0456  0.9067  0.3083
  116TIP3    H1  312   7.245   1.182   2.328  0.8425 -0.5485  0.5035
  116TIP3    H2  313   7.131   1.145   2.236  0.2788 -0.8370  1.3116
  117TIP3   OH2  314   6.925   2.130   5.578 -0.6342 -0.0785  0.0038
  117TIP3    H1  315   6.979   2.147   5.655 -0.4911  0.6655 -0.2542
  117TIP3    H2  316   6.979   2.074   5.522 -0.5533 -0.2239  0.2284
  118TIP3   OH2  317   2.123   0.470   3.326  0.5653  0.1948 -0.0820
  118TIP3    H1  318   2.068   0.421   3.386  0.3869  1.2331  0.6261
  118TIP3    H2  319   2.069   0.481   3.247  0.7208 -0.9718 -0.3756
  119TIP3   OH2  320   3.983   0.941   5.546  0.1118 -0.5424  0.1983
  119TIP3    H1  321   4.025   0.920   5.463 -0.4420  1.5586 -0.6606
  119TIP3    H2  322   4.047   0.914   5.612  1.8524  0.4455 -1.0012
  120TIP3   OH2  323   5.963   5.200   5.870 -0.3081  0.2284 -0.3238
  120TIP3    H1  324   5.951   5.123   5.815 -0.5002 -0.0728  0.1386
  120TIP3    H2  325   5.965   5.273   5.808  0.3391 -0.1819 -0.8056
  121TIP3   OH2  326   5.082   3.448   3.343 -0.2853 -0.0266  0.0956
  121TIP3    H1  327   5.115   3.528   3.384  0.2837 -0.3187  0.2102
  121TIP3    H2  328   5.007   3.477   3.291 -1.1688  0.3391  1.4961
  122TIP3   OH2  329   3.929   5.302   0.471 -0.3039  0.4831 -0.2362
  122TIP3    H1  330   3.894   5.217   0.498  0.1923  1.0169  2.3868
  122TIP3    H2  331   3.974   5.284   0.388  0.4299 -2.0199  0.5971
  123TIP3   OH2  332   4.260   5.338   3.581  0.2898 -0.2494  0.1949
  123TIP3    H1  333   4.346   5.367   3.552 -0.0797  1.4460  0.6775
  123TIP3    H2  334   4.217   5.308   3.501  2.0475 -3.3246  0.2485
  124TIP3   OH2  335   2.047   0.527   5.151 -0.1415 -0.1202  0.6551
  124TIP3    H1  336   2.139   0.515   5.128 -0.6089 -0.9535 -0.9400
  124TIP3    H2  337   2.043   0.612   5.193  1.2071  0.4079 -0.2410
  125TIP3   OH2  338   5.120   5.222   2.330  0.5392  0.1080  0.0056
  125TIP3    H1  339   5.186   5.235   2.262  0.8768  0.1505  0.3388
  125TIP3    H2  340   5.156   5.152   2.385  0.5911  0.5502  0.5370
  126TIP3   OH2  341   1.666   1.240  -0.018  0.0808 -0.1562  0.0119
  126TIP3    H1  342   1.678   1.152   0.017  3.7098  0.2395  0.1807
  126TIP3    H2  343   1.610   1.283   0.046 -0.2473 -1.8203  0.9048
  127TIP3   OH2  344   5.161   5.324   3.346  0.0343  0.3625  0.1296
  127TIP3    H1  345   5.188   5.291   3.261  0.7133  0.4349  0.3144
  127TIP3    H2  346   5.219   5.282   3.409 -0.2829  0.5159  0.5375
  128TIP3   OH2  347   4.738   4.078   4.115  0.2098  0.0641 -0.3783
  128TIP3    H1  348   4.822   4.065   4.158  0.3791  1.3702 -0.2747
  128TIP3    H2  349   4.682   4.115   4.183 -0.0169  0.5441 -0.8122
  129TIP3   OH2  350   5.548   2.040   4.990  0.2382 -0.3735  0.2742
  129TIP3    H1  351   5.529   2.065   4.900  2.6791 -0.5397 -0.3731
  129TIP3    H2  352   5.573   1.947   4.984 -2.2167 -1.2125  1.6042
  130TIP3   OH2  353   2.438   1.993   2.091  0.4887  0.0667  0.7973
  130TIP3    H1  354   2.392   2.050   2.029 -0.1261 -0.0980  1.0869
  130TIP3    H2  355   2.530   1.999   2.066  0.5731  1.8996  1.3915
  131TIP3   OH2  356   1.468   6.383   4.535  0.2881  0.1467  0.2013
  131TIP3    H1  357   1.384   6.418   4.507 -0.4318 -0.8156  1.0948
  131TIP3    H2  358   1.532   6.426   4.479 -0.7073  1.6024  0.1366
  132TIP3   OH2  359   1.951   2.141   4.511 -0.5737  0.5300 -0.2018
  132TIP3    H1  360   1.868   2.096   4.525 -2.1027  2.0727 -3.2837
  132TIP3    H2  361   1.974   2.176   4.597 -1.3449 -2.6107  1.4347
  133TIP3   OH2  362   2.203   2.777   3.320  0.3072 -0.4152 -0.3986
  133TIP3    H1  363   2.241   2.773   3.232 -0.9307  1.6532 -1.1008
  133TIP3    H2  364   2.204   2.870   3.342 -1.0290 -0.7027  1.0418
  134TIP3   OH2  365   5.136   2.303   3.953 -0.1457  0.0548 -0.0828
  134TIP3    H1  366   5.152   2.209   3.943 -1.4721 -0.1159 -0.8464
  134TIP3    H2  367   5.093   2.312   4.038 -0.3295 -0.0720 -0.1623
  135TIP3   OH2  368   5.480   2.851   3.831 -0.7642 -0.0922 -0.0841
  135TIP3    H1  369   5.555   2.853   3.771 -0.5763  1.9801  0.1724
  135TIP3    H2  370   5.414   2.799   3.784 -0.1936  0.4711 -1.5708
  136TIP3   OH2  371   4.681   1.054   1.446 -0.4636 -0.3030 -0.3816
  136TIP3    H1  372   4.692   1.121   1.513 -0.5882  0.4608 -1.1077
  136TIP3    H2  373   4.674   0.972   1.495 -0.3213  0.2107  0.5214
  137TIP3   OH2  374   1.501   4.348   5.879 -0.0666 -0.3446 -0.2810
  137TIP3    H1  375   1.522   4.403   5.804  0.8264  0.6680  0.6797
  137TIP3    H2  376   1.573   4.361   5.940  0.1019 -2.4703  0.0653
  138TIP3   OH2  377   0.167   4.551   2.158  0.3497 -0.2354 -0.2928
  138TIP3    H1  378   0.203   4.613   2.221 -2.7849  1.1577  0.3363
  138TIP3    H2  379   0.142   4.475   2.211 -0.7189  0.2257 -0.1203
  139TIP3   OH2  380   2.735   5.082   5.152  0.5488 -0.0136 -0.0982
  139TIP3    H1  381   2.753   4.989   5.162 -1.2234 -0.5182 -1.1918
  139TIP3    H2  382   2.803   5.112   5.091  3.2799  0.2638  2.8444
  140TIP3   OH2  383   4.684   6.632   3.191 -0.6362 -0.0365  0.3325
  140TIP3    H1  384   4.612   6.676   3.146 -0.0447  0.4279 -0.1668
  140TIP3    H2  385   4.753   6.626   3.126  0.7906  1.9792  1.5825
  141TIP3   OH2  386   1.600   1.678   0.468 -0.2235 -0.0301  0.2455
  141TIP3    H1  387   1.591   1.719   0.554 -2.1844  0.4705 -0.1614
  141TIP3    H2  388   1.521   1.626   0.458  0.1259 -0.3217 -1.1374
  142TIP3   OH2  389   1.293   2.196   3.310  0.2808 -0.1266 -0.1453
  142TIP3    H1  390   1.326   2.166   3.394  1.4448 -0.4670 -0.7141
  142TIP3    H2  391   1.309   2.291   3.310 -1.0847  0.1383  0.6017
  143TIP3   OH2  392   0.829   4.583   4.100  0.3417 -0.2809  0.0259
  143TIP3    H1  393   0.739   4.604   4.074  0.3937 -1.4404 -1.2030
  143TIP3    H2  394   0.831   4.600   4.194 -0.6845  1.3235 -0.2029
  144TIP3   OH2  395   3.382   1.457   2.595 -0.3018  0.3885 -0.3846
  144TIP3    H1  396   3.351   1.510   2.521 -1.8238 -2.4443 -1.9444
  144TIP3    H2  397   3.305   1.448   2.651 -1.0118 -2.5203 -1.6855
  145TIP3   OH2  398   0.309   3.722   5.351 -0.2585  0.0235  0.4216
  145TIP3    H1  399   0.293   3.771   5.270  1.3538  2.6535  1.5711
  145TIP3    H2  400   0.380   3.661   5.329  1.1082  1.6594  0.1361
  146TIP3   OH2  401   0.421   2.900   5.647 -0.4153 -0.2767 -0.1335
  146TIP3    H1  402   0.417   2.995   5.633  1.8087 -0.2589 -1.0839
  146TIP3    H2  403   0.332   2.869   5.629 -0.7563  1.4023 -1.6447
  147TIP3   OH2  404   3.814   3.437   5.241 -0.6861 -0.0281 -0.0309
  147TIP3    H1  405   3.789   3.369   5.177 -0.4299 -1.0481  0.9305
  147TIP3    H2  406   3.909   3.439   5.237 -0.7239  1.3200 -1.0848
  148TIP3   OH2  407   4.803   3.324   2.778 -0.4575  0.0352 -0.9604
  148TIP3    H1  408   4.856   3.403   2.769 -1.0116  0.3942 -1.1697
  148TIP3    H2  409   4.749   3.323   2.699 -0.5749 -0.4641 -0.8771
  149TIP3   OH2  410   2.576   2.946   4.133 -0.3805  0.2120 -0.8223
  149TIP3    H1  411   2.484   2.939   4.109 -0.4074  0.6653 -0.8689
  149TIP3    H2  412   2.623   2.926   4.052 -0.4170 -0.7723 -0.6096
  150TIP3   OH2  413   0.475   2.299   1.193 -0.1145  0.3582  0.2910
  150TIP3    H1  414   0.389   2.293   1.234 -0.1266 -1.2969  0.1015
  150TIP3    H2  415   0.520   2.368   1.241 -0.7628 -0.3020  1.9114
  151TIP3   OH2  416   1.571   3.241   0.262 -0.1385 -0.0150 -0.2957
  151TIP3    H1  417   1.502   3.180   0.235  0.6288 -0.3285 -1.6275
  151TIP3    H2  418   1.588   3.218   0.353 -2.3582  0.6375  0.3606
  152TIP3   OH2  419   7.125   3.556   3.427 -0.4079 -0.3680  0.1935
  152TIP3    H1  420   7.095   3.521   3.511  0.8522  0.2506  0.9299
  152TIP3    H2  421   7.215   3.584   3.443  0.1351 -0.9641 -1.5908
  153TIP3   OH2  422   0.423   5.926   0.660  0.0379  0.8910  0.0507
  153TIP3    H1  423   0.338   5.966   0.681 -0.0907  0.9491 -0.5798
  153TIP3    H2  424   0.471   5.928   0.743 -0.2806  1.5836  0.2262
  154TIP3   OH2  425   2.112   5.871   3.471  0.2223  0.0493 -0.3672
  154TIP3    H1  426   2.044   5.892   3.535  1.8191  1.5532  0.9295
  154TIP3    H2  427   2.065   5.828   3.400 -1.8812 -0.1251  1.0273
  155TIP3   OH2  428   5.225   1.496   3.327  0.0659  0.1300 -0.2085
  155TIP3    H1  429   5.222   1.470   3.419  0.4558  0.1602 -0.1894
  155TIP3    H2  430   5.241   1.591   3.329  0.0821  0.1300 -0.3097
  156TIP3   OH2  431   0.245   5.725   4.483  0.7342 -0.1876 -0.4804
  156TIP3    H1  432   0.321   5.758   4.532 -0.2109  0.3780  0.6556
  156TIP3    H2  433   0.266   5.633   4.467  0.9662 -0.4944  1.2802
  157TIP3   OH2  434   1.620   3.335   0.565 -0.6477  0.3654  0.5704
  157TIP3    H1  435   1.675   3.333   0.487 -1.1903 -0.2824  0.1973
  157TIP3    H2  436   1.624   3.245   0.598  1.3414  1.0640  2.5440
  158TIP3   OH2  437   0.723   3.675   3.421 -0.1991 -0.0867  0.0259
  158TIP3    H1  438   0.737   3.764   3.388 -0.6496 -0.3608 -0.8982
  158TIP3    H2  439   0.718   3.620   3.343  0.8041 -1.0448  0.6031
  159TIP3   OH2  440   1.539   5.957   1.323  0.0350 -0.0623  0.2793
  159TIP3    H1  441   1.481   5.962   1.247 -0.4042  1.0950  0.6656
  159TIP3    H2  442   1.624   5.986   1.290  0.6900 -2.6153 -0.5082
  160TIP3   OH2  443   3.375   4.903   4.457  0.1438  0.1522  0.0698
  160TIP3    H1  444   3.463   4.921   4.490 -0.1231  0.3372  0.6807
  160TIP3    H2  445   3.316   4.950   4.516 -0.3359  0.6376 -0.7657
  161TIP3   OH2  446   5.906   3.351   3.579 -0.8094 -0.1054 -0.1093
  161TIP3    H1  447   5.901   3.445   3.598  0.5415 -0.2432  1.0610
  161TIP3    H2  448   5.832   3.335   3.520 -1.7613  1.4562  0.5952
  162TIP3   OH2  449   1.813   0.135   0.336  0.1898 -0.2934  0.6256
  162TIP3    H1  450   1.802   0.065   0.272 -0.9713 -1.5306  2.0998
  162TIP3    H2  451   1.830   0.213   0.284 -1.4582 -1.0927 -1.2347
  163TIP3   OH2  452   4.981   1.303   4.374  0.0950 -0.2439 -0.2809
  163TIP3    H1  453   4.887   1.321   4.372 -0.0851 -1.1580 -0.4789
  163TIP3    H2  454   5.002   1.294   4.467 -0.1865 -0.8472 -0.2674
  164TIP3   OH2  455   1.170   4.054   5.845 -0.2155 -0.1980 -0.2184
  164TIP3    H1  456   1.150   3.971   5.802  0.3084  0.4013 -1.6809
  164TIP3    H2  457   1.263   4.070   5.826 -0.2032  0.5300  0.3865
  165TIP3   OH2  458   5.724   0.135   0.183 -0.1755  0.0479 -0.0698
  165TIP3    H1  459   5.717   0.190   0.105  1.7587  0.5924  0.0840
  165TIP3    H2  460   5.815   0.143   0.210 -0.5069 -1.0960  1.5599
  166TIP3   OH2  461   7.083   2.150   5.796 -0.5509 -0.6766  0.2284
  166TIP3    H1  462   7.175   2.131   5.812 -0.9028 -1.1668  1.7817
  166TIP3    H2  463   7.036   2.073   5.828 -1.5353 -0.2538 -0.1481
  167TIP3   OH2  464   0.746   4.440   1.292 -0.0989 -0.6276  0.1217
  167TIP3    H1  465   0.786   4.515   1.335 -1.1468 -0.1035  0.2013
  167TIP3    H2  466   0.808   4.368   1.307  0.5791  0.0480  0.6376
  168TIP3   OH2  467   1.153   2.924   0.233 -0.9949  0.3111  0.6100
  168TIP3    H1  468   1.226   2.976   0.265 -0.3185  0.2666 -0.8128
  168TIP3    H2  469   1.076   2.965   0.273 -0.3284  1.2746  0.9513
  169TIP3   OH2  470   1.499   6.307   2.989  0.4400  0.5938 -0.6576
  169TIP3    H1  471   1.441   6.232   3.003  1.0445  0.3745  0.9448
  169TIP3    H2  472   1.560   6.278   2.922 -0.6312  0.4387 -1.5864
  170TIP3   OH2  473   1.530   5.545   4.347  0.1640  0.2779 -0.1691
  170TIP3    H1  474   1.501   5.465   4.391 -0.4335  1.3396  1.4533
  170TIP3    H2  475   1.452   5.599   4.342  0.4073  0.5195 -1.8823
  171TIP3   OH2  476   0.339   0.900   2.195 -0.2702  0.4712 -0.0052
  171TIP3    H1  477   0.369   0.973   2.141  1.2091 -1.2257 -1.6104
  171TIP3    H2  478   0.337   0.825   2.136 -0.1743 -1.1438  1.9184
  172TIP3   OH2  479   4.730   1.793   2.783  0.0779 -0.3120 -0.0182
  172TIP3    H1  480   4.703   1.835   2.865 -0.1755 -2.1515  0.8945
  172TIP3    H2  481   4.664   1.821   2.720  0.6925  1.7401  0.1694
  173TIP3   OH2  482   2.626   3.845   4.639  0.7742 -0.1724 -0.2813
  173TIP3    H1  483   2.545   3.892   4.618  1.1808  0.0897 -1.2792
  173TIP3    H2  484   2.696   3.909   4.624  1.1465 -0.2008  1.1593
  174TIP3   OH2  485   5.067   4.013   3.725  0.1676 -0.1658 -0.2926
  174TIP3    H1  486   5.125   3.956   3.775  1.2666  0.8641 -0.3170
  174TIP3    H2  487   5.004   4.046   3.789 -0.6034 -1.5131 -0.3203
  175TIP3   OH2  488   0.402   0.366   3.669 -0.3650  0.2785 -0.5878
  175TIP3    H1  489   0.493   0.391   3.652  0.0454  0.7854  1.8868
  175TIP3    H2  490   0.389   0.388   3.762 -2.9698  0.0758 -0.8422
  176TIP3   OH2  491   3.641   4.504   0.828 -0.4682 -0.1948  0.3523
  176TIP3    H1  492   3.633   4.577   0.889 -4.7512 -0.9117  0.9563
  176TIP3    H2  493   3.648   4.427   0.884  0.0538 -0.5704 -0.2134
  177TIP3   OH2  494   5.633   3.095   4.882  0.1268  0.5593  0.1150
  177TIP3    H1  495   5.641   3.062   4.792 -0.1267  1.9742 -0.4568
  177TIP3    H2  496   5.719   3.079   4.921 -0.3933 -2.0693  0.3800
  178TIP3   OH2  497   1.599   6.372   3.649  0.0014 -0.1909 -0.2514
  178TIP3    H1  498   1.555   6.386   3.733  2.2293  1.4274  0.7270
  178TIP3    H2  499   1.619   6.278   3.648  1.4158  0.0327  1.8403
  179TIP3   OH2  500   3.870   4.453   3.945 -0.3779  0.0142  0.0065
  179TIP3    H1  501   3.817   4.423   3.871  3.6279  0.5505 -3.4593
  179TIP3    H2  502   3.858   4.548   3.946  0.6058  0.1722 -0.9820
  180TIP3   OH2  503   3.667   3.010   3.173  0.2062  0.4060 -0.3076
  180TIP3    H1  504   3.704   3.089   3.213  0.3442 -0.2676  0.9488
  180TIP3    H2  505   3.738   2.947   3.174  0.3237  0.4767 -2.0087
  181TIP3   OH2  506   0.724   3.036   2.299  0.3134 -0.1700  0.5915
  181TIP3    H1  507   0.802   2.981   2.288  0.9471  0.5512  1.2670
  181TIP3    H2  508   0.699   3.061   2.211  0.2355 -1.2397  0.3022
  182TIP3   OH2  509   5.361   0.392   0.418 -0.9292 -0.4607 -0.3197
  182TIP3    H1  510   5.429   0.456   0.395  1.0330 -2.2594  0.1652
  182TIP3    H2  511   5.342   0.409   0.510  0.2307 -1.1002  0.0519
  183TIP3   OH2  512   3.659   4.639   0.373  0.5410 -0.0550  0.5391
  183TIP3    H1  513   3.717   4.635   0.449  0.3989 -2.7891  0.6231
  183TIP3    H2  514   3.664   4.552   0.335 -1.1461  0.5664 -1.2748
  184TIP3   OH2  515   5.545   5.872   1.844 -0.0348  0.3570 -0.5151
  184TIP3    H1  516   5.628   5.909   1.815  0.2074  0.3130  0.1049
  184TIP3    H2  517   5.480   5.941   1.827  0.6991  2.0076  2.5317
  185TIP3   OH2  518   4.547   2.668   5.090  0.3806 -0.2083  0.1055
  185TIP3    H1  519   4.554   2.605   5.161 -0.3994 -0.4511 -0.0176
  185TIP3    H2  520   4.477   2.633   5.034  0.0635  0.6642 -0.0623
  186TIP3   OH2  521   5.458   4.445   4.430 -0.1455  0.3437 -0.0692
  186TIP3    H1  522   5.490   4.355   4.428  1.3652  0.8489  0.0671
  186TIP3    H2  523   5.478   4.480   4.343 -2.1319  0.1235 -0.6656
  187TIP3   OH2  524   5.494   2.306   4.068  0.0811 -0.1814 -0.8515
  187TIP3    H1  525   5.485   2.289   4.162  2.2922  0.5970 -0.4428
  187TIP3    H2  526   5.444   2.387   4.053 -0.1320 -0.2115 -0.3329
  188TIP3   OH2  527   3.671   3.686   0.976  0.6025  0.1081 -0.4998
  188TIP3    H1  528   3.692   3.779   0.965  0.1256  0.4047  0.9275
  188TIP3    H2  529   3.675   3.671   1.070 -0.2696 -1.1017 -0.6264
  189TIP3   OH2  530   4.293   3.009   1.027 -0.1643  0.1184 -0.2668
  189TIP3    H1  531   4.289   2.913   1.030 -1.3485  0.1533  1.8572
  189TIP3    H2  532   4.368   3.032   1.082  0.1359  0.4013 -0.7978
  190TIP3   OH2  533   1.400   4.911   2.407  0.0619 -0.1190 -0.1319
  190TIP3    H1  534   1.453   4.835   2.382 -0.1067  0.1297 -1.3192
  190TIP3    H2  535   1.311   4.877   2.416  0.3956 -0.5731  2.0400
  191TIP3   OH2  536   2.673   2.174   4.094  0.1538 -0.2664  0.6496
  191TIP3    H1  537   2.619   2.203   4.167  0.4232  1.3179  0.2671
  191TIP3    H2  538   2.670   2.247   4.032  1.8539 -0.5806  0.1469
  192TIP3   OH2  539   4.756   4.650   0.758  0.6890 -0.1410  0.4208
  192TIP3    H1  540   4.768   4.563   0.797  0.4979 -0.3904 -0.0743
  192TIP3    H2  541   4.671   4.679   0.792 -0.4049 -1.1699 -1.2867
  193TIP3   OH2  542   0.732   0.741   5.534 -0.0023  0.1314 -0.2783
  193TIP3    H1  543   0.716   0.647   5.527  0.8168 -0.0328  0.0203
  193TIP3    H2  544   0.818   0.748   5.575  0.2190  1.0070 -0.8742
  194TIP3   OH2  545   4.367   0.688   3.216 -0.0409 -0.2822  0.3880
  194TIP3    H1  546   4.341   0.689   3.308  1.6210  0.1784  0.9057
  194TIP3    H2  547   4.320   0.761   3.177 -0.7565 -0.4712  0.8851
  195TIP3   OH2  548   5.372   6.132   5.522  0.3781  0.1073 -0.1310
  195TIP3    H1  549   5.335   6.118   5.435  1.2361 -0.3514 -0.4275
  195TIP3    H2  550   5.448   6.187   5.508  0.2781  0.3867  0.3892
  196TIP3   OH2  551   7.013   5.491   2.056  0.5248 -0.9104 -0.6637
  196TIP3    H1  552   7.094   5.529   2.090 -1.1468  0.9628  1.5605
  196TIP3    H2  553   7.000   5.412   2.109 -0.1211 -0.0797  0.4452
  197TIP3   OH2  554   4.207   6.129   2.657 -0.4301 -0.0334 -0.1234
  197TIP3    H1  555   4.203   6.225   2.649 -0.0067  0.0322  0.4865
  197TIP3    H2  556   4.294   6.106   2.626 -1.1307 -0.3977 -1.9547
  198TIP3   OH2  557   3.410   0.341   3.333  0.6151 -0.1592  0.2232
  198TIP3    H1  558   3.353   0.346   3.256 -0.0952 -1.2559  0.6559
  198TIP3    H2  559   3.475   0.275   3.309  0.0841 -0.8888  0.7311
  199TIP3   OH2  560   3.823   1.239   3.480 -0.0392 -0.4235 -0.3739
  199TIP3    H1  561   3.768   1.165   3.504  0.5232 -0.1800  1.9199
  199TIP3    H2  562   3.770   1.290   3.420 -0.6796 -2.3206 -1.4896
  200TIP3   OH2  563   1.030   2.570   5.461 -0.1647  0.1886  0.0187
  200TIP3    H1  564   1.122   2.586   5.439  0.0429  0.4113  0.9852
  200TIP3    H2  565   0.993   2.529   5.383  1.3345 -2.0850  0.3856
  201TIP3   OH2  566   2.918   1.130   4.395  0.4952  0.0712  0.2249
  201TIP3    H1  567   2.876   1.164   4.316 -1.5729  2.7562  2.2893
  201TIP3    H2  568   3.009   1.157   4.387  0.4332 -0.1160 -1.4141
  202TIP3   OH2  569   6.840   2.161   1.562  0.3618  0.2320  0.1909
  202TIP3    H1  570   6.786   2.082   1.570 -0.2439  0.7087  0.9164
  202TIP3    H2  571   6.866   2.182   1.651  0.0017  1.2024  0.0774
  203TIP3   OH2  572   5.436   6.014   4.695 -0.3245  0.3862  0.6199
  203TIP3    H1  573   5.492   5.945   4.659  0.3422  1.0134  0.4398
  203TIP3    H2  574   5.389   6.048   4.620 -0.8515 -0.0429  0.7497
  204TIP3   OH2  575   4.206   5.215   0.620 -0.0760 -0.0884  0.1277
  204TIP3    H1  576   4.140   5.148   0.603  0.4373 -0.8886  1.1645
  204TIP3    H2  577   4.158   5.288   0.657 -0.6275  0.0738 -0.8852
  205TIP3   OH2  578   4.074   6.788   1.349 -0.4858  0.2554 -0.3448
  205TIP3    H1  579   4.133   6.746   1.411  1.2537  2.6411 -0.2412
  205TIP3    H2  580   4.059   6.722   1.281 -0.6206 -1.6257  1.4227
  206TIP3   OH2  581   3.429   5.303   0.651  0.3714 -0.0490 -0.3604
  206TIP3    H1  582   3.398   5.340   0.568 -0.3036  0.9155  0.3021
  206TIP3    H2  583   3.489   5.370   0.685  1.2120 -0.7649 -0.4090
  207TIP3   OH2  584   0.387   2.742   1.087 -0.2278  0.5626  0.6363
  207TIP3    H1  585   0.434   2.661   1.065  0.8926  0.5294  2.8053
  207TIP3    H2  586   0.326   2.755   1.015 -0.5997 -2.3307  0.3121
  208TIP3   OH2  587   6.320   3.091   5.268 -0.2603 -0.0631  0.3251
  208TIP3    H1  588   6.333   3.101   5.363  1.8985  0.8891 -0.0097
  208TIP3    H2  589   6.405   3.062   5.236 -0.9792 -0.4095 -1.3489
  209TIP3   OH2  590   4.671   6.648   4.903  0.3867  0.6218  0.0037
  209TIP3    H1  591   4.658   6.723   4.962  0.7743  1.5695 -1.0860
  209TIP3    H2  592   4.656   6.571   4.959 -2.1446  1.4997  0.6672
  210TIP3   OH2  593   5.842   6.257   4.753  0.2795 -0.4849 -0.4856
  210TIP3    H1  594   5.891   6.207   4.818  0.3933 -0.8702 -0.8654
  210TIP3    H2  595   5.906   6.277   4.685  0.6445  1.5478  0.3930
  211TIP3   OH2  596   2.517   3.369   1.906 -0.1108 -0.2676  0.0394
  211TIP3    H1  597   2.460   3.296   1.932 -1.5662  0.4927 -0.9049
  211TIP3    H2  598   2.489   3.390   1.817 -1.0630  2.6865  0.9384
  212TIP3   OH2  599   2.681   0.682   4.627 -0.1830 -0.1219  0.0480
  212TIP3    H1  600   2.758   0.719   4.585 -0.7153  1.5146  0.4428
  212TIP3    H2  601   2.608   0.708   4.572 -0.7949  1.3208  1.4687
  213TIP3   OH2  602   6.914   3.951   4.409 -0.5478  0.1644  0.4023
  213TIP3    H1  603   6.828   3.939   4.368 -0.8894  0.4919  1.0095
  213TIP3    H2  604   6.901   3.926   4.500 -0.0080  0.2723  0.5121
  214TIP3   OH2  605   4.822   3.862   2.869  0.3940 -0.3007  0.5087
  214TIP3    H1  606   4.774   3.909   2.937 -1.4224  0.1159 -1.0002
  214TIP3    H2  607   4.914   3.869   2.896  0.0844  2.7767  1.1541
  215TIP3   OH2  608   6.737   6.331   2.127 -0.5012  0.2655 -0.4119
  215TIP3    H1  609   6.738   6.426   2.125 -0.6664  0.2528 -1.6814
  215TIP3    H2  610   6.720   6.305   2.037  0.4408 -0.9779 -0.2624
  216TIP3   OH2  611   1.038   1.117   2.251 -0.3071  0.0431 -0.1074
  216TIP3    H1  612   1.025   1.139   2.343 -0.1409  1.8797 -0.4919
  216TIP3    H2  613   0.950   1.109   2.215 -0.4207  1.6459 -0.2740
  217TIP3   OH2  614   1.596   2.337   5.593  0.1933 -0.5456  0.5462
  217TIP3    H1  615   1.551   2.259   5.624  1.0231 -0.5075  1.9403
  217TIP3    H2  616   1.621   2.316   5.503  2.1520 -2.7252  1.4822
  218TIP3   OH2  617   0.983   4.026   0.524  0.0499 -0.1390  0.0094
  218TIP3    H1  618   1.017   3.939   0.501  0.6106  0.2374 -0.6087
  218TIP3    H2  619   0.893   4.009   0.555  0.6112 -1.1022  1.2429
  219TIP3   OH2  620   6.455   6.128   4.956  0.1616 -0.2487  0.1540
  219TIP3    H1  621   6.547   6.133   4.980 -0.1300  0.3659  1.2589
  219TIP3    H2  622   6.440   6.204   4.900  0.5780 -1.0098 -1.0165
  220TIP3   OH2  623   6.511   5.879   4.684  0.0660  0.1406  0.6818
  220TIP3    H1  624   6.435   5.936   4.672 -0.8122 -1.1057  0.1491
  220TIP3    H2  625   6.575   5.934   4.731 -0.9514  1.3709  0.6790
  221TIP3   OH2  626   0.710   3.123   0.636 -0.0432 -0.1002 -0.2666
  221TIP3    H1  627   0.701   3.125   0.541 -0.6629 -0.5531 -0.2277
  221TIP3    H2  628   0.804   3.128   0.652  0.1455 -1.1500 -0.9422
  222TIP3   OH2  629   2.897   6.296   0.614 -0.0319 -0.1771 -0.2602
  222TIP3    H1  630   2.903   6.234   0.687  0.2878 -1.0216 -0.9754
  222TIP3    H2  631   2.951   6.370   0.641 -1.3235  0.3185  1.0935
  223TIP3   OH2  632   6.810   1.515   4.980 -0.6992 -0.1561 -0.5179
  223TIP3    H1  633   6.744   1.523   4.910 -3.0137  0.0191  1.5601
  223TIP3    H2  634   6.777   1.571   5.050 -0.1615 -2.6964  1.9372
  224TIP3   OH2  635   2.153   5.315  -0.018  0.4056 -0.0157  0.4671
  224TIP3    H1  636   2.172   5.249   0.048 -0.6306  0.1080  0.9054
  224TIP3    H2  637   2.076   5.360   0.015  0.3796  0.6088 -0.4223
  225TIP3   OH2  638   0.814   5.576   4.773 -0.5580 -0.0462 -0.1627
  225TIP3    H1  639   0.804   5.584   4.678 -3.2753 -1.2027 -0.0966
  225TIP3    H2  640   0.784   5.487   4.791  0.6579 -0.1103  1.7373
  226TIP3   OH2  641   0.618   0.436   2.824 -0.7528  0.0902 -0.3066
  226TIP3    H1  642   0.642   0.522   2.790  0.5849 -0.3841 -0.6721
  226TIP3    H2  643   0.587   0.388   2.747  1.5123 -0.7237 -0.8231
  227TIP3   OH2  644   2.313   2.149   1.848 -0.5351  0.0598 -0.7763
  227TIP3    H1  645   2.300   2.222   1.787 -1.7309  1.4506  1.0454
  227TIP3    H2  646   2.233   2.098   1.843 -0.6502  0.1943 -0.3728
  228TIP3   OH2  647   4.309   2.652   2.319  0.0688 -0.7246  0.1147
  228TIP3    H1  648   4.307   2.660   2.224 -0.1460 -0.2475  0.1573
  228TIP3    H2  649   4.316   2.557   2.335 -0.0366 -0.8171 -0.3696
  229TIP3   OH2  650   0.517   3.377   3.470 -0.0486  0.4677  0.0509
  229TIP3    H1  651   0.543   3.444   3.533  0.7269  2.6280 -2.3999
  229TIP3    H2  652   0.444   3.416   3.422  0.8709 -0.1080 -1.8892
  230TIP3   OH2  653   2.455   2.527   4.254  0.2287 -0.0151  0.2277
  230TIP3    H1  654   2.479   2.557   4.166  0.3956  0.4873  0.4373
  230TIP3    H2  655   2.513   2.576   4.312  1.1445 -1.4320  0.5403
  231TIP3   OH2  656   6.027   4.417   5.106 -0.9417 -0.0580 -0.1858
  231TIP3    H1  657   6.051   4.383   5.193 -0.1795  1.1118  0.0891
  231TIP3    H2  658   5.958   4.359   5.076 -1.9833  0.1289  1.6798
  232TIP3   OH2  659   0.363   1.552   1.013  0.2014  0.7831  0.2223
  232TIP3    H1  660   0.379   1.460   1.033  0.0091  0.8575  0.7161
  232TIP3    H2  661   0.276   1.553   0.972  0.5278  0.6516 -0.4818
  233TIP3   OH2  662   5.814   1.670   0.164 -0.3881  0.1245 -0.0153
  233TIP3    H1  663   5.910   1.676   0.168 -0.4608  0.7779  1.4270
  233TIP3    H2  664   5.790   1.621   0.243 -1.2363 -0.2010 -0.4651
  234TIP3   OH2  665   4.369   1.553   4.180 -0.2276  0.4207  0.2928
  234TIP3    H1  666   4.358   1.646   4.163 -0.4323  0.9399  2.8567
  234TIP3    H2  667   4.456   1.533   4.147 -0.7080  1.1517 -1.5393
  235TIP3   OH2  668   4.203   5.894   0.665 -0.4002  0.2335 -0.4351
  235TIP3    H1  669   4.189   5.963   0.600 -0.0625  0.0969 -0.6536
  235TIP3    H2  670   4.212   5.941   0.748  1.9543  0.6394 -0.8650
  236TIP3   OH2  671   6.889   5.214   4.971  0.3109  0.1390  0.7423
  236TIP3    H1  672   6.810   5.160   4.967  0.5776 -0.4248  2.3377
  236TIP3    H2  673   6.862   5.291   5.022  0.1507  1.1809 -0.8340
  237TIP3   OH2  674   6.765   4.470   5.092  0.0936 -0.0617 -0.2043
  237TIP3    H1  675   6.788   4.528   5.019  0.4281 -1.0959 -0.9562
  237TIP3    H2  676   6.818   4.391   5.077  0.3420 -0.2198  1.2932
  238TIP3   OH2  677   2.928   0.160   1.633 -0.0263 -0.0793 -0.7334
  238TIP3    H1  678   3.005   0.109   1.658  0.2408  1.0261  0.8266
  238TIP3    H2  679   2.963   0.248   1.616 -0.7728  0.1079 -1.3495
  239TIP3   OH2  680   2.157   5.755   0.274 -0.3762 -0.1006 -0.4068
  239TIP3    H1  681   2.229   5.751   0.212 -0.9841  1.8474 -1.3382
  239TIP3    H2  682   2.194   5.796   0.352 -0.5110  1.2372 -1.0166
  240TIP3   OH2  683   0.496   3.819   1.374  0.0904  0.0687  0.0726
  240TIP3    H1  684   0.400   3.827   1.376 -0.0151 -0.8408  2.1563
  240TIP3    H2  685   0.514   3.739   1.423  1.9453  0.3926 -0.0022
  241TIP3   OH2  686   1.949   6.605   4.849 -0.3621 -0.1989  0.1605
  241TIP3    H1  687   1.912   6.686   4.886  0.6463  0.3051  0.0820
  241TIP3    H2  688   1.895   6.536   4.887 -0.1277  0.3896  1.6428
  242TIP3   OH2  689   0.545   3.409   5.266 -0.3793  0.1731  0.3178
  242TIP3    H1  690   0.624   3.356   5.254  0.6513  1.1877  2.1851
  242TIP3    H2  691   0.574   3.499   5.247 -1.4946  0.3908 -0.4445
  243TIP3   OH2  692   1.741   6.610   3.455 -0.3261  0.1879 -0.2589
  243TIP3    H1  693   1.682   6.681   3.433  0.0295  0.6295  0.2133
  243TIP3    H2  694   1.684   6.541   3.490 -0.4030  1.2775  1.8946
  244TIP3   OH2  695   3.134   3.690   0.719 -0.5762 -0.3203  0.0495
  244TIP3    H1  696   3.142   3.776   0.677  0.9156 -0.9928 -1.1424
  244TIP3    H2  697   3.149   3.707   0.812 -1.0522  0.7963 -0.0629
  245TIP3   OH2  698   3.332   2.711   5.178  0.7682 -0.3494 -0.4412
  245TIP3    H1  699   3.242   2.715   5.147  0.5351  1.0280  0.3449
  245TIP3    H2  700   3.383   2.688   5.100 -0.0763  0.4648 -1.2550
  246TIP3   OH2  701   2.057   2.402   3.886  0.3980  0.5336  0.0060
  246TIP3    H1  702   2.149   2.379   3.874 -0.1414 -1.5266 -0.7857
  246TIP3    H2  703   2.051   2.494   3.861  1.7418 -0.0789 -3.0896
  247TIP3   OH2  704   5.192   6.250   0.646  0.1147 -0.7982  0.2869
  247TIP3    H1  705   5.099   6.234   0.660  0.0794 -0.0938  0.8844
  247TIP3    H2  706   5.227   6.267   0.734  0.6391 -0.1770 -0.0377
  248TIP3   OH2  707   2.439   6.035   3.764 -0.2876 -0.0969 -0.1221
  248TIP3    H1  708   2.355   6.078   3.751 -0.4644 -0.9727 -2.2960
  248TIP3    H2  709   2.425   5.979   3.841 -2.0477 -0.9432 -0.9861
  249TIP3   OH2  710   5.863   5.559   1.984 -0.1430 -0.1552 -0.2128
  249TIP3    H1  711   5.892   5.640   1.942  0.4718 -1.0782 -1.6716
  249TIP3    H2  712   5.829   5.506   1.912 -0.3836 -1.2677  0.6888
  250TIP3   OH2  713   6.220   0.412   5.203  0.1489  0.3873  0.1219
  250TIP3    H1  714   6.185   0.351   5.268  2.5518 -0.5245  0.6720
  250TIP3    H2  715   6.257   0.483   5.255 -0.4944  1.1360 -0.4186
  251TIP3   OH2  716   4.932   0.222   0.081 -0.4281  0.0653  0.5056
  251TIP3    H1  717   4.879   0.282   0.135 -1.2636  0.7823 -1.0485
  251TIP3    H2  718   5.022   0.254   0.091 -0.8475  1.5890 -0.2319
  252TIP3   OH2  719   1.633   0.386   0.770  0.0640 -0.4371  0.2074
  252TIP3    H1  720   1.723   0.407   0.746 -0.4788  0.3258 -1.2929
  252TIP3    H2  721   1.623   0.294   0.748  0.2633 -0.3305 -0.3497
  253TIP3   OH2  722   0.915   0.681   0.540  0.2980 -0.2543 -0.4062
  253TIP3    H1  723   0.998   0.643   0.570 -0.2505 -0.7330  0.5410
  253TIP3    H2  724   0.939   0.768   0.510  1.0596 -0.1579  0.4243
  254TIP3   OH2  725   5.371   1.539   3.900 -0.4835  0.5804 -0.2125
  254TIP3    H1  726   5.424   1.531   3.821 -0.8701  0.7886 -0.4974
  254TIP3    H2  727   5.405   1.617   3.944 -0.9711  1.0815 -0.7180
  255TIP3   OH2  728   0.340   4.464   0.882 -0.0601 -0.4623 -0.4517
  255TIP3    H1  729   0.301   4.504   0.804 -0.5787 -0.9942 -0.4805
  255TIP3    H2  730   0.431   4.448   0.859  0.7518  2.5244  0.2594
  256TIP3   OH2  731   0.466   6.650   4.540  0.1728  0.0686  0.1552
  256TIP3    H1  732   0.514   6.717   4.491  0.6188  0.6098  1.3016
  256TIP3    H2  733   0.434   6.695   4.618 -2.0470 -0.3263 -0.4520
  257TIP3   OH2  734   2.067   5.620   2.215  0.6790 -0.5587  0.1611
  257TIP3    H1  735   2.044   5.558   2.145  3.5335  1.3317 -2.7755
  257TIP3    H2  736   2.116   5.568   2.278  3.4416 -1.4830 -2.4699
  258TIP3   OH2  737   3.441   5.785   2.562  0.1704  0.1153  0.1089
  258TIP3    H1  738   3.477   5.813   2.478 -1.7260  0.7185 -0.5355
  258TIP3    H2  739   3.480   5.845   2.626  1.5126 -0.2583 -0.3090
  259TIP3   OH2  740   7.192   1.903   2.223  0.3555  0.3216 -0.2399
  259TIP3    H1  741   7.140   1.826   2.248  0.9616 -0.0608 -0.1386
  259TIP3    H2  742   7.158   1.974   2.277 -0.8767  0.3605 -1.0330
  260TIP3   OH2  743   5.323   2.076   0.321  0.1266  0.5376  0.1238
  260TIP3    H1  744   5.358   2.151   0.370  1.0812  0.5379 -0.5342
  260TIP3    H2  745   5.244   2.051   0.369  0.4246  1.2434  1.0123
  261TIP3   OH2  746   5.739   3.483   1.615 -0.2062  0.6218  0.3114
  261TIP3    H1  747   5.652   3.468   1.652  0.3252  1.5146  2.0195
  261TIP3    H2  748   5.749   3.578   1.611  1.0718  0.5559  1.1649
  262TIP3   OH2  749   4.924   2.547   4.978 -0.3282  0.5811 -0.2501
  262TIP3    H1  750   4.867   2.475   4.952  0.3629  0.3321 -1.1596
  262TIP3    H2  751   4.866   2.622   4.987 -1.5169 -0.5619  3.3124
  263TIP3   OH2  752   3.533   2.997   0.037  0.4524 -0.6672  0.8477
  263TIP3    H1  753   3.465   3.026   0.097 -2.4204 -1.8302 -1.5708
  263TIP3    H2  754   3.532   3.062  -0.034  3.2254  0.2673  1.5165
  264TIP3   OH2  755   5.867   2.656   1.418  0.0466 -0.3244  0.2331
  264TIP3    H1  756   5.880   2.748   1.440  1.3061 -0.2387 -0.7697
  264TIP3    H2  757   5.938   2.610   1.463  2.0961 -0.2545 -2.6486
  265TIP3   OH2  758   0.482   1.796   0.095  0.3075 -0.0802  0.2499
  265TIP3    H1  759   0.525   1.711   0.081 -1.1479 -0.5375 -1.9101
  265TIP3    H2  760   0.456   1.824   0.008 -0.9262  1.7206  1.1392
  266TIP3   OH2  761   6.587   3.812   0.299  0.0378 -0.4293  0.2778
  266TIP3    H1  762   6.544   3.766   0.370 -0.1208  1.5340  1.5309
  266TIP3    H2  763   6.517   3.863   0.257  0.7450  1.3273  1.1385
  267TIP3   OH2  764   3.481   0.112   5.509  0.2887  0.1334 -0.1410
  267TIP3    H1  765   3.451   0.069   5.429 -1.5983 -0.6469  0.9170
  267TIP3    H2  766   3.439   0.198   5.506 -2.2239 -0.9430  1.3198
  268TIP3   OH2  767   4.891   1.976   4.099  0.4074  0.2854  0.6170
  268TIP3    H1  768   4.859   2.025   4.023  1.9860  1.9446  0.9468
  268TIP3    H2  769   4.867   1.886   4.081  0.4829  0.6730 -1.7338
  269TIP3   OH2  770   5.035   4.388   4.770  0.5322  0.5101 -0.0675
  269TIP3    H1  771   5.085   4.453   4.819 -0.3011  0.1563  1.3067
  269TIP3    H2  772   4.952   4.433   4.749  0.1479  0.0592  0.4637
  270TIP3   OH2  773   6.263   2.886   2.027  0.5107  0.4354  0.8338
  270TIP3    H1  774   6.231   2.960   2.079 -0.5794 -0.6441  1.7506
  270TIP3    H2  775   6.256   2.811   2.085  1.3176 -0.4501 -0.1829
  271TIP3   OH2  776   0.912   5.524   1.044 -0.8310 -0.7952 -0.7981
  271TIP3    H1  777   0.984   5.539   0.984 -0.2246 -1.8362 -0.3546
  271TIP3    H2  778   0.873   5.611   1.058  2.2091  0.3823  1.3570
  272TIP3   OH2  779   0.203   4.071   2.006  0.2004 -0.0914 -0.4708
  272TIP3    H1  780   0.179   3.979   1.994  1.2941 -0.4200 -0.2761
  272TIP3    H2  781   0.224   4.102   1.918  0.7876 -0.3123 -0.4102
  273TIP3   OH2  782   6.331   0.078   5.210  0.1699 -0.0178  0.1870
  273TIP3    H1  783   6.264   0.127   5.259 -1.2709 -0.8081 -0.9238
  273TIP3    H2  784   6.405   0.138   5.206 -1.1849  1.7205 -0.3005
  274TIP3   OH2  785   1.940   0.147   3.004 -0.2283  0.5721 -0.2774
  274TIP3    H1  786   1.876   0.078   3.019 -1.8411  1.8124 -1.1509
  274TIP3    H2  787   2.023   0.109   3.033 -0.8876 -2.0172 -1.5173
  275TIP3   OH2  788   4.929   3.156   0.143 -0.1063 -0.3037  0.0834
  275TIP3    H1  789   4.869   3.088   0.112 -1.1050 -0.1567  1.5923
  275TIP3    H2  790   5.013   3.135   0.102 -1.3315  0.0489 -2.9345
  276TIP3   OH2  791   5.499   6.494   1.278 -0.2125  0.0208 -0.5414
  276TIP3    H1  792   5.574   6.524   1.226  0.0672  1.4343  0.6159
  276TIP3    H2  793   5.517   6.402   1.295  0.7982  0.1089 -1.0447
  277TIP3   OH2  794   2.410   0.397   1.299 -0.2277 -0.3025 -0.0234
  277TIP3    H1  795   2.478   0.463   1.315  0.1166 -0.3780 -1.1265
  277TIP3    H2  796   2.427   0.366   1.211 -1.9654 -0.0299 -0.4863
  278TIP3   OH2  797   2.497   5.669   1.228  0.7665 -0.4212  0.3026
  278TIP3    H1  798   2.453   5.591   1.194  1.1901 -0.8823  0.7778
  278TIP3    H2  799   2.500   5.654   1.323 -0.0807  0.6654  0.5219
  279TIP3   OH2  800   0.693   3.116   0.361  0.1557 -0.3786 -0.7137
  279TIP3    H1  801   0.711   3.053   0.292 -1.1099  0.6187 -2.0419
  279TIP3    H2  802   0.666   3.196   0.314 -1.0233  0.2537  0.9186
  280TIP3   OH2  803   4.805   5.414   1.260  0.4683  0.1736 -0.4470
  280TIP3    H1  804   4.833   5.429   1.351 -0.5957  0.2691 -0.1228
  280TIP3    H2  805   4.790   5.320   1.255 -2.9349  0.5187  0.5712
  281TIP3   OH2  806   3.485   2.147   4.760 -0.1580  0.3588 -0.2105
  281TIP3    H1  807   3.563   2.092   4.750  1.7133  1.8504  3.8190
  281TIP3    H2  808   3.508   2.229   4.717 -0.2052  0.2513 -0.4440
  282TIP3   OH2  809   6.175   1.633   1.149 -0.2774 -0.0891  0.2964
  282TIP3    H1  810   6.083   1.619   1.171 -0.5782  0.8627 -0.2994
  282TIP3    H2  811   6.192   1.724   1.174  1.0155 -0.7658  2.0708
  283TIP3   OH2  812   3.311   4.502   5.446  0.6067  0.4924  0.3041
  283TIP3    H1  813   3.365   4.424   5.442 -2.1476 -1.6251  1.2347
  283TIP3    H2  814   3.263   4.494   5.529 -1.0911  2.2045 -0.4355
  284TIP3   OH2  815   5.643   0.116   5.709  0.7058  0.0339 -0.2543
  284TIP3    H1  816   5.674   0.062   5.636  0.9060 -2.1427  1.3761
  284TIP3    H2  817   5.718   0.122   5.768  0.1600  0.7210  0.3856
  285TIP3   OH2  818   3.701   4.652   2.803 -0.0651  0.0493 -0.6377
  285TIP3    H1  819   3.678   4.580   2.861  0.9425 -1.1264 -1.6565
  285TIP3    H2  820   3.653   4.727   2.839 -0.4515 -0.9056  0.9628
  286TIP3   OH2  821   3.948   4.731   2.700  0.3002 -0.0806 -0.0021
  286TIP3    H1  822   3.878   4.756   2.760 -0.6616 -0.7656 -0.8048
  286TIP3    H2  823   4.011   4.684   2.754 -0.5416 -0.6717  0.4831
  287TIP3   OH2  824   2.415   4.271   4.460 -0.2579 -0.1667  0.4369
  287TIP3    H1  825   2.448   4.279   4.370  0.5365 -1.5503  0.5771
  287TIP3    H2  826   2.494   4.267   4.514 -0.7019 -0.7313  1.0608
  288TIP3   OH2  827   1.546   5.637   4.642  0.6688 -0.2695 -0.3611
  288TIP3    H1  828   1.486   5.678   4.580  0.6649  0.3715  0.0562
  288TIP3    H2  829   1.501   5.644   4.727  0.3360 -1.8129 -0.3909
  289TIP3   OH2  830   5.158   1.667   4.841  0.0319  0.0901 -0.0756
  289TIP3    H1  831   5.187   1.577   4.859 -0.7766 -0.1589  0.0499
  289TIP3    H2  832   5.138   1.703   4.928 -0.1319  0.2170 -0.1653
  290TIP3   OH2  833   3.427   0.970   2.100  0.3695 -0.3617  0.1245
  290TIP3    H1  834   3.473   1.037   2.152  0.1119 -0.0592 -0.0307
  290TIP3    H2  835   3.404   1.016   2.019 -0.3498 -0.4630  0.2691
  291TIP3   OH2  836   6.479   3.070   0.653  0.6116 -0.2305 -0.3752
  291TIP3    H1  837   6.403   3.111   0.694  1.1081 -0.4226  0.7781
  291TIP3    H2  838   6.443   3.008   0.591 -0.2157 -1.1529  0.9744
  292TIP3   OH2  839   5.004   1.349   0.037 -0.1293  0.3359  0.1219
  292TIP3    H1  840   4.992   1.346  -0.058 -1.2864 -0.1205  0.2632
  292TIP3    H2  841   5.094   1.380   0.049 -0.3296  1.4879 -1.1003
  293TIP3   OH2  842   0.559   0.981   4.644 -0.0358  0.0908  0.2784
  293TIP3    H1  843   0.474   0.969   4.686  0.7117 -1.5291  1.4450
  293TIP3    H2  844   0.599   1.053   4.692 -0.6098  0.6533 -0.0723
  294TIP3   OH2  845   1.184   4.724   3.279  0.2678  0.6994 -0.5083
  294TIP3    H1  846   1.136   4.737   3.197  0.1445  1.0453 -0.3805
  294TIP3    H2  847   1.219   4.635   3.272 -2.2191 -0.4453  0.3319
  295TIP3   OH2  848   5.310   2.195   1.081 -0.6518  0.4479  0.1295
  295TIP3    H1  849   5.402   2.179   1.059 -0.6377 -0.1378  0.5806
  295TIP3    H2  850   5.261   2.149   1.012 -0.6248  2.0629 -1.0099
  296TIP3   OH2  851   5.661   4.582   3.843  0.0569 -0.4939  0.1142
  296TIP3    H1  852   5.573   4.591   3.808  0.9822 -1.4903 -2.7119
  296TIP3    H2  853   5.650   4.535   3.925 -1.8363 -3.6508 -1.7681
  297TIP3   OH2  854   2.670   4.426   5.765  0.8937 -0.3347  0.7314
  297TIP3    H1  855   2.651   4.334   5.779 -0.3945 -0.0517  0.9539
  297TIP3    H2  856   2.727   4.450   5.838  0.9164 -0.8557  0.8882
  298TIP3   OH2  857   5.580   1.975   3.005  0.2371 -0.0204 -0.2640
  298TIP3    H1  858   5.621   1.890   2.990  3.7014  1.2460  0.9174
  298TIP3    H2  859   5.591   1.990   3.098 -0.7200  1.5329 -0.3777
  299TIP3   OH2  860   6.218   4.817   4.699  0.6644 -0.0109 -0.0141
  299TIP3    H1  861   6.157   4.806   4.771  0.8579  1.0559  0.3247
  299TIP3    H2  862   6.168   4.860   4.630  0.3762 -1.3574 -0.6855
  300TIP3   OH2  863   2.553   5.249   3.371  0.3663 -0.3334  0.3292
  300TIP3    H1  864   2.579   5.340   3.382 -1.5418  0.5526 -1.6415
  300TIP3    H2  865   2.621   5.211   3.315  0.4505  0.2805  0.0040
  301TIP3   OH2  866   3.375   1.205   0.217  0.6481  0.4242 -0.9129
  301TIP3    H1  867   3.304   1.233   0.274  1.2802 -2.2527  1.4062
  301TIP3    H2  868   3.342   1.219   0.128 -1.4414  2.2835  0.0782
  302TIP3   OH2  869   2.561   2.477   3.108  0.7458  0.2130  0.1940
  302TIP3    H1  870   2.603   2.399   3.143  1.9683  0.1884 -1.2031
  302TIP3    H2  871   2.634   2.538   3.093 -0.0789  1.2737  0.4097
  303TIP3   OH2  872   1.692   6.024   0.200 -0.1673  0.3049 -0.0218
  303TIP3    H1  873   1.615   5.972   0.223  0.1378 -0.4330 -0.6353
  303TIP3    H2  874   1.766   5.975   0.236  0.0044  1.2607  1.0026
  304TIP3   OH2  875   0.625   4.446   3.208 -0.1176  0.0964  0.2412
  304TIP3    H1  876   0.672   4.461   3.290  0.2684  0.0252  0.0339
  304TIP3    H2  877   0.535   4.427   3.236  0.5063 -2.4661  0.8337
  305TIP3   OH2  878   6.258   5.810   3.866 -0.1606  0.0060  0.2523
  305TIP3    H1  879   6.315   5.850   3.932 -0.4327 -0.7585  0.9588
  305TIP3    H2  880   6.185   5.872   3.858  0.7650  1.0151 -0.6945
  306TIP3   OH2  881   4.041   3.031   2.587  0.0566  0.4529  0.3299
  306TIP3    H1  882   4.015   3.059   2.675 -0.4243  2.0383 -0.2846
  306TIP3    H2  883   4.017   3.105   2.531 -1.6375 -1.3477 -1.4633
  307TIP3   OH2  884   1.334   5.073   3.723 -0.4539  0.2618  0.1293
  307TIP3    H1  885   1.414   5.022   3.734 -0.6508 -0.2149 -0.5595
  307TIP3    H2  886   1.363   5.153   3.679 -0.3576  0.0641 -0.1729
  308TIP3   OH2  887   5.395   1.223   4.542 -0.3505  0.3141  0.0408
  308TIP3    H1  888   5.372   1.185   4.458  1.5396 -1.1712  0.1272
  308TIP3    H2  889   5.390   1.318   4.528  0.3180  0.0990 -1.8664
  309TIP3   OH2  890   7.044   2.967   4.283  0.4266  0.0359 -1.0745
  309TIP3    H1  891   7.130   3.005   4.299  0.2899 -0.2968  0.6679
  309TIP3    H2  892   6.986   3.042   4.269  0.8861  0.2755 -1.7599
  310TIP3   OH2  893   3.450   0.514   3.546  0.1919 -0.5122 -0.0867
  310TIP3    H1  894   3.449   0.444   3.481 -1.5247 -1.2568  0.6920
  310TIP3    H2  895   3.529   0.564   3.525  0.9290 -2.0774 -1.2869
  311TIP3   OH2  896   2.777   1.437   2.426  0.5068  0.0438  0.4693
  311TIP3    H1  897   2.869   1.411   2.433  0.6315  0.7214  1.5464
  311TIP3    H2  898   2.780   1.528   2.398  0.1485 -0.0007  0.2828
  312TIP3   OH2  899   3.802   5.422   3.724 -0.2845 -0.7577  0.3533
  312TIP3    H1  900   3.894   5.407   3.742 -0.3601 -0.8132  0.7101
  312TIP3    H2  901   3.798   5.442   3.631  0.0378 -1.1512  0.2531
  313TIP3   OH2  902   0.654   0.512   1.840 -0.1656 -0.1345 -0.3688
  313TIP3    H1  903   0.746   0.497   1.821 -0.3956 -2.6553  0.0587
  313TIP3    H2  904   0.653   0.549   1.928  0.4444 -0.3089 -0.2840
  314TIP3   OH2  905   5.761   2.467   5.345 -0.2138  0.7991 -0.2116
  314TIP3    H1  906   5.686   2.507   5.301 -0.7277  0.2278  0.1338
  314TIP3    H2  907   5.726   2.389   5.388  0.6938  0.1751 -0.5584
  315TIP3   OH2  908   1.623   6.635   1.412  0.0344  0.7273  0.4837
  315TIP3    H1  909   1.689   6.597   1.356 -1.7718 -0.4602 -0.9538
  315TIP3    H2  910   1.540   6.600   1.380 -1.1692  0.3331  3.6222
  316TIP3   OH2  911   4.008   6.712   4.544  0.3585 -0.2543 -0.6580
  316TIP3    H1  912   3.997   6.805   4.522 -0.4312 -0.2461 -0.2718
  316TIP3    H2  913   4.098   6.705   4.575  0.4040  0.4043 -0.6268
  317TIP3   OH2  914   6.453   1.087   2.147  0.2615 -0.4121 -0.1957
  317TIP3    H1  915   6.372   1.135   2.162  0.5728  0.5131 -1.3474
  317TIP3    H2  916   6.428   0.995   2.156 -0.9840 -0.1581 -0.7907
  318TIP3   OH2  917   6.333   0.112   2.540 -0.1843 -0.0417  0.0096
  318TIP3    H1  918   6.322   0.109   2.635  1.2661  1.0875  0.2436
  318TIP3    H2  919   6.308   0.202   2.516  0.9629  0.1777 -0.4349
  319TIP3   OH2  920   2.453   6.792   5.256 -0.0564  0.6488 -0.1569
  319TIP3    H1  921   2.526   6.731   5.249 -2.1911 -2.1247  0.1971
  319TIP3    H2  922   2.404   6.763   5.332 -2.6283  1.1038 -1.5260
  320TIP3   OH2  923   3.839   3.402   1.722  0.0064 -0.3299  0.1192
  320TIP3    H1  924   3.930   3.395   1.692  0.3446  0.8829  0.8082
  320TIP3    H2  925   3.835   3.486   1.767 -1.9662  0.6057 -1.6485
  321TIP3   OH2  926   0.518   2.873   5.149  0.3941 -0.1877  0.0629
  321TIP3    H1  927   0.614   2.871   5.147  0.3858 -1.5883 -0.2334
  321TIP3    H2  928   0.492   2.798   5.095 -0.8632  0.0123  0.3708
  322TIP3   OH2  929   6.208   3.871   1.423  0.2092  0.4883 -0.4193
  322TIP3    H1  930   6.115   3.884   1.404  0.6942  2.1483 -1.9451
  322TIP3    H2  931   6.227   3.934   1.492  0.5549  1.3964 -1.3250
  323TIP3   OH2  932   2.312   5.131   5.320 -0.0996 -0.2847  0.4887
  323TIP3    H1  933   2.349   5.211   5.359  3.3751 -0.5307 -1.8366
  323TIP3    H2  934   2.278   5.160   5.236  0.4481 -1.1022 -0.0230
  324TIP3   OH2  935   3.498   5.218   3.991 -0.1530 -0.3380 -0.1809
  324TIP3    H1  936   3.433   5.148   3.984 -0.1115 -0.2163 -2.3823
  324TIP3    H2  937   3.452   5.289   4.037 -1.4137 -0.4721 -1.1687
  325TIP3   OH2  938   6.932   1.383   1.482 -0.3845  0.3298 -0.0541
  325TIP3    H1  939   6.927   1.294   1.518 -2.2303  0.5431  0.3057
  325TIP3    H2  940   6.900   1.374   1.393  1.1820  0.3520 -0.6474
  326TIP3   OH2  941   3.071   6.723   2.907 -0.2784 -0.1429  0.2580
  326TIP3    H1  942   3.164   6.742   2.912 -0.3040  1.3094 -2.6876
  326TIP3    H2  943   3.035   6.758   2.989  1.5749  0.4296  0.8658
  327TIP3   OH2  944   2.300   6.482   4.717 -0.4486 -0.0473 -0.2224
  327TIP3    H1  945   2.342   6.483   4.631 -0.9401 -0.6996 -0.4859
  327TIP3    H2  946   2.270   6.572   4.730 -1.5999 -0.2250 -1.3768
  328TIP3   OH2  947   0.043   5.525   2.491  0.4617  0.0208  0.4071
  328TIP3    H1  948   0.064   5.483   2.575  2.1451 -0.5221 -0.2454
  328TIP3    H2  949  -0.026   5.472   2.453 -0.3833  0.3238  1.4761
  329TIP3   OH2  950   3.740   3.718   2.977 -0.2224  0.3201  0.4177
  329TIP3    H1  951   3.797   3.648   2.945 -0.4180  0.1336  0.4818
  329TIP3    H2  952   3.778   3.743   3.061  0.2317  0.7389  0.0956
  330TIP3   OH2  953   3.162   2.149   2.810 -0.1429  0.1672  0.4549
  330TIP3    H1  954   3.114   2.100   2.877  0.9267 -0.6171  0.6733
  330TIP3    H2  955   3.249   2.110   2.810  0.8261  2.2435  0.7750
  331TIP3   OH2  956   1.468   3.425   5.483  0.0025 -0.2810 -0.2941
  331TIP3    H1  957   1.461   3.462   5.395 -1.6092 -2.5328 -1.1941
  331TIP3    H2  958   1.519   3.345   5.472  0.1484 -0.3794  0.9187
  332TIP3   OH2  959   2.440   0.166   4.150  0.1923  0.4838 -0.4090
  332TIP3    H1  960   2.513   0.182   4.211 -0.0533  1.4520 -0.3589
  332TIP3    H2  961   2.480   0.119   4.077  1.1508  2.1362 -0.9851
  333TIP3   OH2  962   1.772   3.811   2.445 -0.4099  0.3265  0.0699
  333TIP3    H1  963   1.728   3.734   2.408  0.5443  0.1821 -0.8287
  333TIP3    H2  964   1.852   3.775   2.485 -1.0286  0.5878  1.6290
  334TIP3   OH2  965   1.241   1.347   2.284 -0.2520  0.1606  0.8314
  334TIP3    H1  966   1.286   1.310   2.207  0.1696  0.5824  0.8736
  334TIP3    H2  967   1.151   1.313   2.278 -0.0510 -0.3161  0.4953
  335TIP3   OH2  968   4.655   6.160   3.038  0.1761  0.9169  0.5445
  335TIP3    H1  969   4.631   6.073   3.069  1.4964  0.4833  0.3976
  335TIP3    H2  970   4.636   6.218   3.112  1.8142  0.1250  1.6354
  336TIP3   OH2  971   2.764   0.663   2.715  0.2150  0.4636 -0.1706
  336TIP3    H1  972   2.767   0.710   2.632 -0.9098 -1.1782 -1.2085
  336TIP3    H2  973   2.682   0.692   2.756 -0.4312 -0.4493 -0.7676
  337TIP3   OH2  974   6.719   4.707   5.466  0.1059 -0.0075  0.0667
  337TIP3    H1  975   6.717   4.619   5.504 -2.5089 -0.2623 -0.4990
  337TIP3    H2  976   6.737   4.765   5.540  3.6195 -1.0098  0.2079
  338TIP3   OH2  977   3.439   5.232   3.279 -0.1334 -1.0699  0.0191
  338TIP3    H1  978   3.411   5.323   3.288 -0.5239 -1.3043  1.2308
  338TIP3    H2  979   3.523   5.238   3.234  0.3021 -0.0511  0.9352
  339TIP3   OH2  980   1.983   0.673   1.761 -0.3849  0.1035 -0.4734
  339TIP3    H1  981   2.050   0.717   1.814 -0.0645  1.3563 -1.8335
  339TIP3    H2  982   1.961   0.594   1.810  1.5923  0.0094  0.3484
  340TIP3   OH2  983   5.124   4.241   3.088  0.6984 -0.1396  0.7042
  340TIP3    H1  984   5.141   4.151   3.060  1.1534 -0.4675  1.9521
  340TIP3    H2  985   5.209   4.274   3.117  0.4073  0.4445  0.9143
  341TIP3   OH2  986   6.502   0.917   0.176 -0.0078  0.5275 -0.1973
  341TIP3    H1  987   6.567   0.978   0.211  0.1654 -0.1921  0.7619
  341TIP3    H2  988   6.550   0.836   0.163 -0.3917  0.3982 -0.8419
  342TIP3   OH2  989   5.201   4.752   5.116  0.1180  0.6034  0.4499
  342TIP3    H1  990   5.266   4.688   5.144 -1.0215 -0.5295  0.5905
  342TIP3    H2  991   5.205   4.821   5.183  0.4745  0.0644  0.9921
  343TIP3   OH2  992   5.879   0.106   0.433  0.5894  0.4575 -0.0660
  343TIP3    H1  993   5.904   0.145   0.516 -1.8821  1.6399  0.2306
  343TIP3    H2  994   5.800   0.056   0.453  0.2404  0.3506 -1.5939
  344TIP3   OH2  995   0.122   6.566   0.783  0.0622 -0.2813 -0.1323
  344TIP3    H1  996   0.176   6.497   0.822  0.7334  0.1352 -0.3167
  344TIP3    H2  997   0.043   6.520   0.754  1.6369 -1.5642 -2.8347
  345TIP3   OH2  998   5.486   1.907   2.458 -0.1631  0.4311 -0.1357
  345TIP3    H1  999   5.491   1.995   2.422  1.6765 -0.4615 -2.2910
  345TIP3    H2 1000   5.546   1.907   2.532  1.5356  0.4896 -1.4492
  346TIP3   OH2 1001   4.678   2.388   5.617  0.0786 -0.2721 -0.5130
  346TIP3    H1 1002   4.733   2.322   5.575  0.1963 -0.5950  0.1478
  346TIP3    H2 1003   4.735   2.431   5.680 -0.2588 -0.1997 -0.2534
  347TIP3   OH2 1004   4.458   5.284   0.684  0.1520 -0.1561 -0.1170
  347TIP3    H1 1005   4.370   5.275   0.647 -0.0464 -1.0710  0.5633
  347TIP3    H2 1006   4.508   5.326   0.614 -0.2782 -1.6167 -1.3548
  348TIP3   OH2 1007   6.365   1.170   0.357 -0.4484  0.3497  0.4417
  348TIP3    H1 1008   6.393   1.183   0.447  1.7198  1.8567 -0.3554
  348TIP3    H2 1009   6.392   1.080   0.336 -0.9291  0.0083  1.2626
  349TIP3   OH2 1010   1.217   0.593   0.987 -0.0702 -0.5493 -0.4537
  349TIP3    H1 1011   1.161   0.664   1.017  1.8621  0.7079  0.3900
  349TIP3    H2 1012   1.282   0.636   0.931  0.3595 -1.8669 -1.0095
  350TIP3   OH2 1013   2.190   0.094   3.494 -0.7535 -0.0806 -0.1047
  350TIP3    H1 1014   2.144   0.033   3.437 -2.6741  0.1514  1.0897
  350TIP3    H2 1015   2.210   0.169   3.437 -4.3115  0.9840 -0.2079
  351TIP3   OH2 1016   1.244   5.899   2.733  0.1094  0.2129 -0.3540
  351TIP3    H1 1017   1.326   5.860   2.700 -0.0890 -0.0219 -0.5728
  351TIP3    H2 1018   1.178   5.874   2.669  0.0401  1.2038 -0.6740
  352TIP3   OH2 1019   3.736   4.997   4.749 -0.2518 -0.6080  0.1609
  352TIP3    H1 1020   3.730   5.089   4.773 -0.0052 -0.5003 -0.1809
  352TIP3    H2 1021   3.729   4.950   4.832 -0.7440 -0.2968  0.3005
  353TIP3   OH2 1022   5.760   5.193   5.437  0.0731  0.6210  0.2772
  353TIP3    H1 1023   5.738   5.192   5.343 -0.2248 -1.0512  0.3394
  353TIP3    H2 1024   5.855   5.204   5.438  0.2227 -0.4778 -0.2774
  354TIP3   OH2 1025   0.975   1.694   0.640 -0.1445  0.1798  0.2975
  354TIP3    H1 1026   0.883   1.686   0.666 -0.3996 -0.5168 -0.7374
  354TIP3    H2 1027   1.014   1.610   0.664 -0.1859 -0.1533 -0.7528
  355TIP3   OH2 1028   0.636   3.114   5.000 -0.3605 -0.1852 -0.0322
  355TIP3    H1 1029   0.635   3.079   4.911 -1.8632  0.2965 -0.2338
  355TIP3    H2 1030   0.552   3.085   5.038  0.1055 -0.0919  1.1072
  356TIP3   OH2 1031   7.069   5.039   5.104 -0.1893  0.2378  0.3708
  356TIP3    H1 1032   7.082   5.065   5.195 -0.4909  0.8239  0.2491
  356TIP3    H2 1033   7.006   5.102   5.070 -0.1748 -0.0588 -0.2086
  357TIP3   OH2 1034   2.959   2.834   4.715 -0.1211 -0.1838 -0.4324
  357TIP3    H1 1035   2.976   2.921   4.679  1.0280 -0.5106 -0.7015
  357TIP3    H2 1036   2.879   2.845   4.767 -0.2500  0.9200 -0.8409
  358TIP3   OH2 1037   1.474   5.334   3.279 -0.4692  0.4812  0.3185
  358TIP3    H1 1038   1.456   5.311   3.370  0.7458 -0.1769  0.4161
  358TIP3    H2 1039   1.394   5.310   3.231 -0.5983 -0.4911  1.0013
  359TIP3   OH2 1040   3.705   0.342   1.495  0.0806  0.0577 -0.3348
  359TIP3    H1 1041   3.754   0.319   1.416  0.5081  0.7491 -0.2830
  359TIP3    H2 1042   3.669   0.429   1.476 -2.1206 -0.9008 -0.8195
  360TIP3   OH2 1043   2.130   3.402   5.271 -0.1415  0.1013  0.1080
  360TIP3    H1 1044   2.196   3.337   5.247 -0.4485  0.0722 -0.6891
  360TIP3    H2 1045   2.161   3.438   5.354  1.3823  0.7578 -0.7003
  361TIP3   OH2 1046   2.643   0.188   5.107 -0.1698 -0.2450 -0.5994
  361TIP3    H1 1047   2.703   0.222   5.173 -1.2531 -0.3503  0.4893
  361TIP3    H2 1048   2.656   0.245   5.031  1.7304 -0.6607 -0.6353
  362TIP3   OH2 1049   0.033   2.556   0.644 -0.6910 -0.3108 -0.4022
  362TIP3    H1 1050   0.008   2.629   0.701 -0.2253 -1.8118  1.8602
  362TIP3    H2 1051  -0.040   2.494   0.652 -1.6041  0.2696 -3.1616
  363TIP3   OH2 1052   6.137   3.701   3.854  0.0266  0.4113  0.0350
  363TIP3    H1 1053   6.102   3.767   3.913  1.3187  0.8552  0.3431
  363TIP3    H2 1054   6.187   3.642   3.911  0.2043  0.0915 -0.4428
  364TIP3   OH2 1055   4.700   0.975   3.159 -0.0969 -0.1608 -0.2321
  364TIP3    H1 1056   4.656   0.983   3.244 -1.8239  0.8809 -1.1845
  364TIP3    H2 1057   4.789   1.008   3.175 -1.0704  2.2662  0.6635
  365TIP3   OH2 1058   0.358   6.715   0.280  0.2780  0.1098  0.8235
  365TIP3    H1 1059   0.291   6.650   0.257  0.3229  0.1082  0.6964
  365TIP3    H2 1060   0.308   6.788   0.317  0.1428  0.3920  0.0963
  366TIP3   OH2 1061   2.878   0.303   5.656 -0.6144  0.0651  0.2082
  366TIP3    H1 1062   2.818   0.235   5.625  2.0336 -1.8437 -1.0959
  366TIP3    H2 1063   2.918   0.266   5.735 -0.3785  0.8407  0.4606
  367TIP3   OH2 1064   2.881   0.768   3.420 -0.3158  0.8801  0.5624
  367TIP3    H1 1065   2.898   0.758   3.514 -1.2748  2.0764  0.8971
  367TIP3    H2 1066   2.945   0.833   3.392  0.6215 -0.1943  0.1536
  368TIP3   OH2 1067   0.974   3.045   0.398  0.3971 -0.0317  0.3887
  368TIP3    H1 1068   0.983   3.065   0.491 -0.5082  0.5581  0.3636
  368TIP3    H2 1069   0.928   2.961   0.396  0.0463  0.1544  0.4808
  369TIP3   OH2 1070   1.879   2.563   3.210  0.0696 -0.4301  0.2795
  369TIP3    H1 1071   1.912   2.585   3.297 -0.7274 -1.6511  0.9132
  369TIP3    H2 1072   1.896   2.470   3.200  1.6104 -0.0204 -1.5488
  370TIP3   OH2 1073   5.429   3.271   1.939  0.1071 -0.3624  0.3546
  370TIP3    H1 1074   5.500   3.263   2.003  0.4113  0.1211  0.0821
  370TIP3    H2 1075   5.430   3.188   1.892  2.4892  0.6734 -1.6864
  371TIP3   OH2 1076   2.164   0.513   1.449  0.4135  0.3756 -0.1265
  371TIP3    H1 1077   2.237   0.461   1.416  0.2726 -0.7384  1.2392
  371TIP3    H2 1078   2.206   0.583   1.500  0.5463 -0.3175  0.7349
  372TIP3   OH2 1079   4.354   0.290   2.308  0.4493  0.1285 -0.4043
  372TIP3    H1 1080   4.347   0.262   2.217  0.9254 -0.0125 -0.3992
  372TIP3    H2 1081   4.264   0.306   2.336  0.2998  0.1066 -0.8799
  373TIP3   OH2 1082   2.340   4.926   4.525  0.7506  0.3808  0.4711
  373TIP3    H1 1083   2.321   4.836   4.550  0.9707  0.3002  0.3482
  373TIP3    H2 1084   2.272   4.978   4.568  0.0869  0.0692 -0.1837
  374TIP3   OH2 1085   2.009   3.660   2.579  0.2589  0.3637 -0.4225
  374TIP3    H1 1086   2.060   3.734   2.545  0.6341  0.4841  0.3870
  374TIP3    H2 1087   2.053   3.582   2.545  1.5187  0.4387  0.9902
  375TIP3   OH2 1088   1.318   4.065   4.820 -0.4260 -0.4175  0.0529
  375TIP3    H1 1089   1.273   4.071   4.735  1.5288 -1.2289 -1.1040
  375TIP3    H2 1090   1.266   4.003   4.870 -0.3317 -1.7795 -1.4535
  376TIP3   OH2 1091   2.156   0.848   3.971 -0.3139 -0.1607 -0.3468
  376TIP3    H1 1092   2.074   0.856   4.020 -0.9666  0.5565 -1.4970
  376TIP3    H2 1093   2.136   0.887   3.886  1.2348  0.0070 -0.6525
  377TIP3   OH2 1094   0.563   0.276   5.359 -0.0199 -0.3405  0.2299
  377TIP3    H1 1095   0.559   0.185   5.388 -2.6532 -0.4309 -0.2068
  377TIP3    H2 1096   0.607   0.272   5.274  0.0272 -1.1842  0.2885
  378TIP3   OH2 1097   6.781   4.169   2.717  0.8546 -0.2444 -0.1301
  378TIP3    H1 1098   6.875   4.155   2.702  0.8416 -0.6072  0.1191
  378TIP3    H2 1099   6.741   4.084   2.702  0.4647  0.0805 -0.9777
  379TIP3   OH2 1100   3.966   6.310   1.249  0.1562 -0.1189  0.5073
  379TIP3    H1 1101   4.012   6.274   1.173 -1.0460  1.1720 -0.9000
  379TIP3    H2 1102   4.003   6.262   1.323  2.5094 -0.3537 -0.6891
  380TIP3   OH2 1103   1.914   0.548   3.795  0.1770  0.2739  0.0606
  380TIP3    H1 1104   1.978   0.492   3.840  1.7482  1.8078 -0.2079
  380TIP3    H2 1105   1.890   0.498   3.717  2.9058  0.6691 -1.1192
  381TIP3   OH2 1106   1.915   6.640   0.886  0.3198 -0.3763 -0.8309
  381TIP3    H1 1107   1.958   6.724   0.897 -1.4700  0.5877 -0.8361
  381TIP3    H2 1108   1.951   6.605   0.805  0.1104  1.0229 -1.5523
  382TIP3   OH2 1109   1.287   0.361   2.664  0.3450 -0.2017  0.6240
  382TIP3    H1 1110   1.333   0.434   2.622 -0.4248  0.0562  0.2180
  382TIP3    H2 1111   1.289   0.292   2.597 -0.2053 -0.0544  0.4560
  383TIP3   OH2 1112   4.679   5.870   1.533 -0.1296  0.2395  0.1415
  383TIP3    H1 1113   4.735   5.879   1.457 -1.2262  1.5297 -0.5493
  383TIP3    H2 1114   4.613   5.806   1.506  0.9193 -1.2550  0.9423
  384TIP3   OH2 1115   5.303   0.100   4.714 -0.0239  0.1634  0.1645
  384TIP3    H1 1116   5.211   0.121   4.730 -0.6554 -1.8425 -0.4953
  384TIP3    H2 1117   5.326   0.151   4.637 -0.6583  0.4901  0.1834
  385TIP3   OH2 1118   0.889   5.018   3.123  0.5846  0.0820  0.3930
  385TIP3    H1 1119   0.814   5.019   3.182  1.2433  1.0627  1.2433
  385TIP3    H2 1120   0.942   5.093   3.150  1.9623 -0.6870 -0.0720
  386TIP3   OH2 1121   6.903   4.921   2.229 -0.1176  0.2494  0.0134
  386TIP3    H1 1122   6.973   4.984   2.210  2.4516 -2.3673  0.1986
  386TIP3    H2 1123   6.890   4.874   2.147 -0.8309 -0.1085  0.3230
  387TIP3   OH2 1124   5.144   6.459   4.410 -0.5956 -1.0889 -0.1901
  387TIP3    H1 1125   5.087   6.425   4.479 -0.1268 -2.3269 -0.3722
  387TIP3    H2 1126   5.095   6.531   4.371 -1.6841 -1.6063  0.1798
  388TIP3   OH2 1127   6.647   5.330   3.684  0.1870  0.0346 -0.2161
  388TIP3    H1 1128   6.715   5.283   3.732  0.6623  2.5234  1.7456
  388TIP3    H2 1129   6.567   5.281   3.701  0.8366 -0.7221  0.7414
  389TIP3   OH2 1130   3.488   5.247   2.678  0.0811 -0.2051  0.2257
  389TIP3    H1 1131   3.423   5.229   2.746 -0.4522  0.6395 -0.0338
  389TIP3    H2 1132   3.507   5.162   2.639 -0.2855 -0.5712  0.8278
  390TIP3   OH2 1133   3.210   1.413   5.146  0.6123  0.2917 -0.0240
  390TIP3    H1 1134   3.146   1.353   5.108  1.6297 -0.5174 -0.5326
  390TIP3    H2 1135   3.160   1.466   5.208 -1.0618  1.4944 -2.2777
  391TIP3   OH2 1136   5.554   5.775   2.110  0.3434  0.3806 -0.4704
  391TIP3    H1 1137   5.623   5.829   2.149  0.9305 -1.7990  1.6927
  391TIP3    H2 1138   5.565   5.788   2.015  2.2202  1.8565 -0.1061
  392TIP3   OH2 1139   2.838   3.057   5.898  0.4917 -0.4909  0.9152
  392TIP3    H1 1140   2.805   3.003   5.827  1.3917  0.3842 -0.2096
  392TIP3    H2 1141   2.925   3.023   5.917 -0.0439 -1.2417  2.2060
  393TIP3   OH2 1142   1.219   5.743   0.363 -0.0349  0.5791  0.6448
  393TIP3    H1 1143   1.302   5.723   0.406 -0.0202 -3.1699 -0.7090
  393TIP3    H2 1144   1.244   5.765   0.273 -0.4579 -1.6304 -0.0658
  394TIP3   OH2 1145   4.240   0.079   4.922 -0.0950 -0.1452 -0.2413
  394TIP3    H1 1146   4.180   0.077   4.996  0.0116 -1.2628 -0.1709
  394TIP3    H2 1147   4.322   0.112   4.958  0.5399 -2.4408  0.6246
  395TIP3   OH2 1148   1.062   1.364   3.129 -0.0669 -0.3215  0.2474
  395TIP3    H1 1149   1.143   1.323   3.157  0.1531  0.7565  1.2706
  395TIP3    H2 1150   0.995   1.296   3.139  0.3229 -0.5128  1.6817
  396TIP3   OH2 1151   5.156   3.340   1.781  0.0378  0.3120 -0.0832
  396TIP3    H1 1152   5.129   3.322   1.871  0.9380 -0.0157  0.1257
  396TIP3    H2 1153   5.198   3.260   1.751  0.4703  0.6941 -0.5187
  397TIP3   OH2 1154   5.432   1.593   0.347 -0.1657 -0.4398 -1.1935
  397TIP3    H1 1155   5.416   1.684   0.371 -1.0286 -1.1362  1.2415
  397TIP3    H2 1156   5.527   1.584   0.349 -0.1109 -0.3546  2.2318
  398TIP3   OH2 1157   0.091   2.392   1.542 -0.3081  0.5649  0.4201
  398TIP3    H1 1158   0.018   2.332   1.532 -0.0828  0.4033 -0.3773
  398TIP3    H2 1159   0.078   2.433   1.627 -0.5376 -0.5146  0.9179
  399TIP3   OH2 1160   6.945   1.459   4.131 -0.3300 -0.0327  0.1637
  399TIP3    H1 1161   6.983   1.474   4.218 -2.0826 -0.3430  1.0347
  399TIP3    H2 1162   7.015   1.478   4.070  0.6162  1.3056  1.6131
  400TIP3   OH2 1163   4.671   1.759   5.536 -0.1747  0.0188  0.3222
  400TIP3    H1 1164   4.597   1.794   5.585 -0.0053 -0.6283  1.0665
  400TIP3    H2 1165   4.656   1.787   5.446 -1.1228  0.2163  0.5306
  401TIP3   OH2 1166   3.682   1.036   2.700  0.1141  0.0702  0.4553
  401TIP3    H1 1167   3.680   1.110   2.761 -0.9743  0.6823 -0.2795
  401TIP3    H2 1168   3.740   0.972   2.740  0.5356  1.0543  1.4376
  402TIP3   OH2 1169   0.392   3.931   4.431  0.3172  0.3535 -0.1420
  402TIP3    H1 1170   0.447   3.999   4.471  0.5458 -0.8161  1.6948
  402TIP3    H2 1171   0.412   3.936   4.338  2.9456  0.5512  0.3328
  403TIP3   OH2 1172   4.587   3.650   3.743  0.0671 -0.1175  0.2780
  403TIP3    H1 1173   4.498   3.625   3.766 -0.2687 -0.3540 -1.1774
  403TIP3    H2 1174   4.577   3.733   3.697  0.2282 -1.5261 -2.4888
  404TIP3   OH2 1175   6.935   5.809   5.664 -0.3269  0.0883 -0.8145
  404TIP3    H1 1176   6.872   5.803   5.593 -1.3097  1.3548 -0.0782
  404TIP3    H2 1177   6.882   5.822   5.743  0.8580  2.6365 -0.3450
  405TIP3   OH2 1178   5.757   3.669   4.103  0.4872  0.1318 -0.3021
  405TIP3    H1 1179   5.820   3.693   4.172  1.7107 -0.2112 -1.2568
  405TIP3    H2 1180   5.771   3.575   4.091 -0.7529 -0.0979 -0.0251
  406TIP3   OH2 1181   6.069   3.203   2.950  0.3186  0.3649  0.7328
  406TIP3    H1 1182   6.073   3.115   2.988  1.4994  0.4150  0.7713
  406TIP3    H2 1183   6.141   3.204   2.887  0.0218  1.1564  0.4046
  407TIP3   OH2 1184   0.642   0.918   1.233  0.0011 -0.0936 -0.0774
  407TIP3    H1 1185   0.617   0.998   1.188  0.6047  0.0145 -0.2323
  407TIP3    H2 1186   0.638   0.941   1.326 -1.8720 -0.5038 -0.0202
  408TIP3   OH2 1187   5.988   4.691   4.425 -0.6181  0.0417 -0.4527
  408TIP3    H1 1188   5.931   4.748   4.373 -0.5922  0.9265  0.4475
  408TIP3    H2 1189   6.075   4.705   4.389 -0.4024  1.6023  0.5673
  409TIP3   OH2 1190   6.850   4.785   3.579 -0.2803  0.1937 -0.0724
  409TIP3    H1 1191   6.841   4.860   3.638 -2.0401 -0.5354  0.6544
  409TIP3    H2 1192   6.836   4.820   3.492  1.0676  1.0627  0.0308
  410TIP3   OH2 1193   0.998   6.013   0.906 -0.1863  0.0446  0.3089
  410TIP3    H1 1194   1.091   6.033   0.898  0.3364 -1.8966  0.9093
  410TIP3    H2 1195   0.984   5.941   0.844 -1.7885  1.6309 -1.2955
  411TIP3   OH2 1196   2.074   1.957   1.535 -0.2290 -0.0080 -0.4727
  411TIP3    H1 1197   2.000   1.903   1.508  1.2804 -2.2941 -0.2818
  411TIP3    H2 1198   2.043   2.002   1.614 -0.9338 -2.2992  0.6721
  412TIP3   OH2 1199   2.575   3.835   5.288  0.1263 -0.2272  0.3509
  412TIP3    H1 1200   2.654   3.879   5.317 -0.0947  0.0056  0.6055
  412TIP3    H2 1201   2.519   3.831   5.365 -1.0694  1.7041 -0.3222
  413TIP3   OH2 1202   1.195   1.751   4.997  0.0092 -0.5343  0.2538
  413TIP3    H1 1203   1.158   1.749   4.909 -1.9092  1.7907  0.9070
  413TIP3    H2 1204   1.126   1.715   5.053  0.2102  0.3004  1.0660
  414TIP3   OH2 1205   6.040   0.776   1.892  0.1400  0.4282  0.9558
  414TIP3    H1 1206   6.124   0.814   1.866  0.4793  1.2327  3.0171
  414TIP3    H2 1207   5.986   0.780   1.814  1.7740  0.5592 -0.2286
  415TIP3   OH2 1208   4.898   4.129   4.757 -0.6041  0.4355 -0.4014
  415TIP3    H1 1209   4.921   4.217   4.787  1.4615 -0.6076  1.3342
  415TIP3    H2 1210   4.978   4.095   4.717 -0.8510 -1.1986  0.3922
  416TIP3   OH2 1211   3.552   4.981   2.644  0.0699  0.3958  0.0148
  416TIP3    H1 1212   3.617   4.977   2.715  1.0090  1.0108 -0.7908
  416TIP3    H2 1213   3.576   4.909   2.585 -0.3734  0.2335  0.0255
  417TIP3   OH2 1214   5.024   0.916   2.707  0.2014 -0.6101 -0.1534
  417TIP3    H1 1215   5.103   0.870   2.735  1.3709 -0.6664 -3.2282
  417TIP3    H2 1216   5.023   0.908   2.612 -1.4793  2.6264 -0.5738
  418TIP3   OH2 1217   3.046   3.079   0.326  0.2695 -0.0353  0.1614
  418TIP3    H1 1218   2.970   3.069   0.269  0.4945 -1.0656  0.0139
  418TIP3    H2 1219   3.040   3.168   0.360 -0.1628  0.4240 -1.0588
  419TIP3   OH2 1220   3.654   0.582   4.899 -0.2065  0.2993  0.2631
  419TIP3    H1 1221   3.704   0.521   4.845 -2.4827 -0.3533 -1.2683
  419TIP3    H2 1222   3.692   0.667   4.880 -0.0954 -0.0865 -1.4084
  420TIP3   OH2 1223   6.699   1.921   5.875  0.1300  0.4793 -0.6248
  420TIP3    H1 1224   6.673   1.919   5.782 -0.2935  1.6180 -0.5490
  420TIP3    H2 1225   6.677   1.834   5.908 -0.6912  0.3988 -1.3452
  421TIP3   OH2 1226   4.133   3.984   1.462 -0.0947 -0.9728 -0.1852
  421TIP3    H1 1227   4.067   3.989   1.532 -0.3793  2.7016 -0.5139
  421TIP3    H2 1228   4.083   3.984   1.381  0.2635 -0.6969 -0.4114
  422TIP3   OH2 1229   4.583   3.688   0.520 -0.0695  0.1005 -0.0223
  422TIP3    H1 1230   4.627   3.755   0.467  0.1285  0.7859  0.9826
  422TIP3    H2 1231   4.587   3.721   0.610 -0.9996 -0.7117  0.3461
  423TIP3   OH2 1232   2.995   5.004   4.292 -0.1363  0.3750 -0.2820
  423TIP3    H1 1233   3.078   4.976   4.254  0.4846 -1.1160  1.9461
  423TIP3    H2 1234   2.931   4.994   4.221  1.0624 -1.4509 -1.1847
  424TIP3   OH2 1235   6.290   4.274   1.961 -0.1136  0.5297 -0.1150
  424TIP3    H1 1236   6.378   4.286   1.924  0.6787  0.9739  1.7933
  424TIP3    H2 1237   6.252   4.361   1.961 -0.9204  0.2093 -1.7087
  425TIP3   OH2 1238   0.613   1.741   0.439  0.0632 -0.3972  0.5986
  425TIP3    H1 1239   0.596   1.814   0.499 -0.2647  1.4301 -1.5668
  425TIP3    H2 1240   0.538   1.741   0.379  0.1814 -2.3956  0.3838
  426TIP3   OH2 1241   4.960   3.116   2.931 -0.1051  0.1439 -0.0749
  426TIP3    H1 1242   4.910   3.183   2.885 -0.6816 -1.2546 -1.5745
  426TIP3    H2 1243   4.939   3.034   2.885  0.8274 -1.0262  1.4773
  427TIP3   OH2 1244   7.174   5.775   1.286  0.0127  0.0297 -0.3921
  427TIP3    H1 1245   7.135   5.729   1.361  0.4262 -0.1548 -0.2915
  427TIP3    H2 1246   7.099   5.801   1.233 -0.2815  0.1017  0.0529
  428TIP3   OH2 1247   1.084   5.364   4.904  0.7360  0.0713 -0.1200
  428TIP3    H1 1248   1.076   5.452   4.868 -0.8029 -0.6207 -1.6161
  428TIP3    H2 1249   1.175   5.358   4.934  1.5686  1.3656 -2.1909
  429TIP3   OH2 1250   0.057   2.940   0.715  0.5222 -0.0030 -0.1389
  429TIP3    H1 1251   0.073   2.937   0.621  1.1160  0.9549 -0.0804
  429TIP3    H2 1252  -0.014   2.877   0.729 -0.6271  0.9097 -1.4567
  430TIP3   OH2 1253   0.196   3.314   2.163  0.3168  0.4448 -0.9246
  430TIP3    H1 1254   0.107   3.328   2.132  0.2665 -0.2382 -1.1073
  430TIP3    H2 1255   0.226   3.237   2.114  0.3035 -0.5592  0.5882
  431TIP3   OH2 1256   7.116   5.525   3.525 -0.1598  0.4548 -0.3034
  431TIP3    H1 1257   7.205   5.551   3.549 -0.1180  1.8542 -1.7712
  431TIP3    H2 1258   7.127   5.477   3.442 -0.8054  1.0955 -0.7665
  432TIP3   OH2 1259   1.717   6.314   1.932 -0.1292 -0.1059  0.1638
  432TIP3    H1 1260   1.652   6.282   1.870  0.2046 -0.2207 -0.1332
  432TIP3    H2 1261   1.680   6.396   1.966  0.5212  1.0081 -1.6336
  433TIP3   OH2 1262   5.569   1.608   3.342 -0.0982 -0.3686  0.0988
  433TIP3    H1 1263   5.497   1.670   3.351 -1.5202 -2.0202  0.5971
  433TIP3    H2 1264   5.647   1.659   3.365 -1.0803  1.4564 -0.4114
  434TIP3   OH2 1265   2.108   1.083   1.734  0.3201  0.4012  0.2169
  434TIP3    H1 1266   2.035   1.140   1.758  0.6407  1.0480 -0.3411
  434TIP3    H2 1267   2.158   1.073   1.816 -0.8032 -0.6938  0.8109
  435TIP3   OH2 1268   5.992   2.387   2.783 -0.0156 -0.4506  0.1635
  435TIP3    H1 1269   6.045   2.307   2.780 -0.4496 -0.7267 -0.1417
  435TIP3    H2 1270   5.959   2.390   2.873  2.1771  0.8178  1.0231
  436TIP3   OH2 1271   6.681   4.127   0.679  0.4769  0.2761  0.4922
  436TIP3    H1 1272   6.586   4.124   0.670  0.0405  3.4754  2.5108
  436TIP3    H2 1273   6.698   4.085   0.764  0.8172  0.1561  0.3662
  437TIP3   OH2 1274   6.970   0.936   0.328 -0.1302 -0.8543  0.5072
  437TIP3    H1 1275   6.989   0.848   0.360 -1.3552 -0.7883  1.4804
  437TIP3    H2 1276   6.960   0.989   0.407  0.6318  0.1824 -0.0678
  438TIP3   OH2 1277   2.233   5.435   4.449 -0.9074  0.1086  0.5517
  438TIP3    H1 1278   2.264   5.345   4.436 -0.8378  0.3156 -0.8035
  438TIP3    H2 1279   2.303   5.478   4.498 -0.3977 -0.2459  0.1392
  439TIP3   OH2 1280   3.908   3.971   1.654  0.2791  0.0399 -0.7360
  439TIP3    H1 1281   3.944   4.034   1.716  1.3774 -2.5754  1.5201
  439TIP3    H2 1282   3.816   3.963   1.678  0.4606 -0.1991 -0.0972
  440TIP3   OH2 1283   1.503   6.776   3.563  0.2782 -0.3599  0.6765
  440TIP3    H1 1284   1.411   6.791   3.585  0.0772  1.8611 -1.2217
  440TIP3    H2 1285   1.549   6.789   3.645 -0.9336  0.9228  1.2026
  441TIP3   OH2 1286   5.674   6.608   1.099  0.4487 -0.3206  0.2105
  441TIP3    H1 1287   5.627   6.672   1.045  0.4228 -1.0983 -0.7066
  441TIP3    H2 1288   5.766   6.630   1.085  0.4171  0.6719  1.3561
  442TIP3   OH2 1289   6.360   0.397   2.771  0.2010 -0.5334 -0.2687
  442TIP3    H1 1290   6.283   0.410   2.715  0.5960  1.8729 -0.3597
  442TIP3    H2 1291   6.432   0.439   2.723  1.3581 -1.7340  0.3490
  443TIP3   OH2 1292   1.285   5.019   4.588 -0.1416 -0.0545  0.1520
  443TIP3    H1 1293   1.321   4.940   4.549 -2.1948 -1.9938  1.8683
  443TIP3    H2 1294   1.349   5.045   4.654  0.8911  0.1891 -0.9202
  444TIP3   OH2 1295   3.378   4.422   0.032  0.1057 -0.5628 -0.3197
  444TIP3    H1 1296   3.355   4.465   0.114  2.2347  1.2385 -0.5921
  444TIP3    H2 1297   3.295   4.417  -0.016 -1.3397 -2.2561  2.1083
  445TIP3   OH2 1298   4.860   4.428   1.297  0.1783 -0.2405  0.0626
  445TIP3    H1 1299   4.932   4.487   1.322 -0.4861  0.7049 -0.1851
  445TIP3    H2 1300   4.894   4.379   1.223  1.3745 -1.4678  1.3751
  446TIP3   OH2 1301   2.278   0.937   4.718 -0.4436 -0.3411 -0.0978
  446TIP3    H1 1302   2.311   0.995   4.649 -0.5251 -0.5289 -0.2968
  446TIP3    H2 1303   2.291   0.849   4.683 -1.6118 -0.4103 -0.4033
  447TIP3   OH2 1304   4.052   3.375   0.210  0.4517  0.6782  0.3846
  447TIP3    H1 1305   4.132   3.323   0.216  0.0029  0.1255  1.8092
  447TIP3    H2 1306   4.081   3.458   0.171  1.4198 -0.0847 -0.5820
  448TIP3   OH2 1307   0.981   6.723   4.765 -0.2796 -0.0284 -0.0818
  448TIP3    H1 1308   1.067   6.693   4.796  0.5824  1.3751 -1.0443
  448TIP3    H2 1309   0.971   6.681   4.680 -0.7820 -0.5588  0.2289
  449TIP3   OH2 1310   2.416   6.419   5.534  0.1633  0.1498 -0.1591
  449TIP3    H1 1311   2.479   6.475   5.580  2.0814  0.2875 -2.6754
  449TIP3    H2 1312   2.357   6.480   5.490  0.0769  0.1073 -0.1011
  450TIP3   OH2 1313   4.748   1.194   1.034 -0.5002 -0.2905  0.8397
  450TIP3    H1 1314   4.742   1.106   1.072  1.0636 -1.4625 -1.3570
  450TIP3    H2 1315   4.708   1.185   0.948 -1.1969  1.4580  0.9399
  451TIP3   OH2 1316   2.690   0.315   2.669 -0.2753  0.0954  0.3103
  451TIP3    H1 1317   2.667   0.396   2.623  0.5161  0.6502  0.8803
  451TIP3    H2 1318   2.783   0.304   2.654 -0.7240 -1.8634 -1.5287
  452TIP3   OH2 1319   7.075   5.789   2.277  0.1104 -0.8508  1.0904
  452TIP3    H1 1320   7.101   5.876   2.309  2.2791 -0.4462 -1.4091
  452TIP3    H2 1321   6.994   5.805   2.230  0.3447 -0.2119  0.8844
  453TIP3   OH2 1322   4.758   0.905   2.554  0.2732  0.6027 -0.0482
  453TIP3    H1 1323   4.828   0.953   2.597  0.4364 -0.1963  0.6100
  453TIP3    H2 1324   4.678   0.935   2.598  0.2295  1.2416 -0.5483
  454TIP3   OH2 1325   1.078   3.016   2.654 -0.3126 -0.2831  0.2633
  454TIP3    H1 1326   1.158   3.050   2.613 -0.7729  0.4827 -0.0075
  454TIP3    H2 1327   1.078   3.052   2.742 -0.9775  0.7311 -0.1361
  455TIP3   OH2 1328   1.326   4.521   3.564 -0.3068  0.3314 -0.0966
  455TIP3    H1 1329   1.404   4.501   3.512 -0.6122  0.2079 -0.5104
  455TIP3    H2 1330   1.349   4.601   3.611 -0.2024  0.7237 -0.8002
  456TIP3   OH2 1331   2.370   2.396   1.977 -0.1957 -0.0140 -0.6169
  456TIP3    H1 1332   2.390   2.364   2.065 -1.3531 -0.0990 -0.3790
  456TIP3    H2 1333   2.392   2.322   1.920  2.5888  0.7300 -0.6710
  457TIP3   OH2 1334   1.183   4.234   2.459 -0.1899 -0.5784 -0.0437
  457TIP3    H1 1335   1.126   4.235   2.536 -1.1993 -1.0711 -0.7604
  457TIP3    H2 1336   1.261   4.187   2.488  0.6807  1.6205  1.4730
  458TIP3   OH2 1337   1.273   3.812   2.307  0.6049 -0.1774  0.4375
  458TIP3    H1 1338   1.197   3.822   2.364 -0.3291  0.1972 -0.8534
  458TIP3    H2 1339   1.264   3.725   2.269  1.1006 -0.3319  0.6594
  459TIP3   OH2 1340   0.848   2.453   2.881  0.1455  0.4299 -0.2190
  459TIP3    H1 1341   0.778   2.397   2.850  0.0627 -0.2437  1.1062
  459TIP3    H2 1342   0.812   2.495   2.959  0.4377  1.8409 -0.8150
  460TIP3   OH2 1343   6.247   0.501   4.932 -0.4754  0.2794 -0.2030
  460TIP3    H1 1344   6.343   0.506   4.924 -0.2335 -1.4151  1.1115
  460TIP3    H2 1345   6.232   0.467   5.020 -2.2393 -0.5666 -0.7832
  461TIP3   OH2 1346   7.052   1.908   3.275 -0.0767  0.1161  0.0188
  461TIP3    H1 1347   7.067   1.986   3.222 -1.3175 -0.6828 -1.5866
  461TIP3    H2 1348   6.993   1.938   3.345 -1.9784  0.3081 -1.5846
  462TIP3   OH2 1349   2.539   5.943   1.414 -0.0934 -0.5297  0.1986
  462TIP3    H1 1350   2.445   5.940   1.395 -0.2220 -1.1172  0.8976
  462TIP3    H2 1351   2.559   5.857   1.449  0.8767 -0.6593 -0.6548
  463TIP3   OH2 1352   4.642   2.870   1.406  0.2152  0.1195 -0.7577
  463TIP3    H1 1353   4.695   2.791   1.414  0.2308  0.2458  0.5715
  463TIP3    H2 1354   4.566   2.855   1.462  0.0184  0.8790 -0.8045
  464TIP3   OH2 1355   3.612   2.239   2.312  0.1205  0.7492 -0.4338
  464TIP3    H1 1356   3.617   2.181   2.237  0.7400  0.6373 -0.3127
  464TIP3    H2 1357   3.520   2.237   2.338  0.1562 -0.3224 -0.3226
  465TIP3   OH2 1358   1.195   2.541   2.186 -0.2911  0.8316  0.0068
  465TIP3    H1 1359   1.133   2.522   2.257  1.8364 -2.4680  1.2359
  465TIP3    H2 1360   1.160   2.494   2.111  0.5438 -0.9213  0.6628
  466TIP3   OH2 1361   6.753   2.899   5.286  0.3108  0.4918 -0.1701
  466TIP3    H1 1362   6.808   2.904   5.207  0.2742 -0.7422 -0.3021
  466TIP3    H2 1363   6.716   2.811   5.282 -1.4897  1.2166  0.0654
  467TIP3   OH2 1364   0.078   2.905   1.792  0.1199 -0.2984 -0.6129
  467TIP3    H1 1365   0.022   2.869   1.724  0.3779 -0.7213 -0.6076
  467TIP3    H2 1366   0.020   2.919   1.867 -0.2335  0.4857 -1.0163
  468TIP3   OH2 1367   6.420   5.989   5.682  0.5922 -0.0213  0.2859
  468TIP3    H1 1368   6.377   6.031   5.756 -2.3704  0.1395 -1.3926
  468TIP3    H2 1369   6.438   6.060   5.620 -1.2461 -0.6716 -1.0725
  469TIP3   OH2 1370   2.098   3.856   3.415  0.3374  0.1746  0.3384
  469TIP3    H1 1371   2.065   3.915   3.482 -0.2577  0.6993 -0.3946
  469TIP3    H2 1372   2.183   3.892   3.390 -0.2805  1.0918 -0.5232
  470TIP3   OH2 1373   1.011   2.698   3.741  0.6202  0.1383  0.0749
  470TIP3    H1 1374   1.065   2.621   3.722  0.2411 -0.2249  0.4205
  470TIP3    H2 1375   0.924   2.675   3.706  0.5043  0.4007  0.1897
  471TIP3   OH2 1376   6.885   1.775   5.209 -0.1095  0.4163 -0.9001
  471TIP3    H1 1377   6.979   1.786   5.221  0.1518 -2.1065  0.1326
  471TIP3    H2 1378   6.852   1.758   5.297 -1.2191 -0.3904 -1.4470
  472TIP3   OH2 1379   6.550   6.350   3.236  0.1545  0.0433  0.1334
  472TIP3    H1 1380   6.521   6.274   3.287 -1.0052  0.3107 -0.1152
  472TIP3    H2 1381   6.576   6.313   3.151  1.1863 -0.2791  0.5767
  473TIP3   OH2 1382   1.202   2.934   3.415 -0.0116  0.2905  0.0594
  473TIP3    H1 1383   1.204   2.925   3.510 -0.6205 -0.6464 -0.0021
  473TIP3    H2 1384   1.276   2.991   3.395  1.0020 -0.6549  0.9762
  474TIP3   OH2 1385   1.131   1.922   1.622  0.5725 -0.0354 -0.3047
  474TIP3    H1 1386   1.127   1.915   1.527  0.8251  1.8692 -0.5016
  474TIP3    H2 1387   1.075   1.852   1.654 -2.3293  1.3373 -1.9606
  475TIP3   OH2 1388   6.310   4.342   0.921 -0.0066 -0.4471 -0.0461
  475TIP3    H1 1389   6.272   4.426   0.947 -0.8001 -0.9526  0.4637
  475TIP3    H2 1390   6.331   4.299   1.004 -0.6546 -1.2171 -0.2640
  476TIP3   OH2 1391   1.526   2.662   4.620 -0.1408  0.1497  0.4550
  476TIP3    H1 1392   1.470   2.595   4.659  0.1769 -0.3111  0.1319
  476TIP3    H2 1393   1.614   2.623   4.621  0.0809  0.6428  0.4495
  477TIP3   OH2 1394   6.864   5.100   3.730 -0.3307 -0.0772  0.1562
  477TIP3    H1 1395   6.895   5.118   3.819  1.0769 -0.6695 -0.1854
  477TIP3    H2 1396   6.915   5.160   3.675 -1.0002  0.0968 -0.2793
  478TIP3   OH2 1397   3.584   1.885   0.761  0.8506 -0.5546  0.0783
  478TIP3    H1 1398   3.507   1.830   0.743  0.2440  0.0794  0.6411
  478TIP3    H2 1399   3.641   1.830   0.814  2.1267 -2.0365 -2.5897
  479TIP3   OH2 1400   3.824   3.283   1.996  0.1160  0.6149  0.1302
  479TIP3    H1 1401   3.813   3.305   1.903 -1.0309  0.7968  0.2912
  479TIP3    H2 1402   3.828   3.367   2.041 -0.3372  0.5240  0.3449
  480TIP3   OH2 1403   6.716   2.456   1.539  0.2535 -0.1300 -0.1167
  480TIP3    H1 1404   6.729   2.381   1.481 -1.8979  0.0091 -0.8763
  480TIP3    H2 1405   6.785   2.517   1.514  0.7812 -1.0184 -0.9302
  481TIP3   OH2 1406   4.834   6.743   1.985  0.0121 -0.1001  0.1566
  481TIP3    H1 1407   4.766   6.730   2.051  0.3993 -0.4375  0.4956
  481TIP3    H2 1408   4.819   6.673   1.922 -1.3965  1.2107 -1.0216
  482TIP3   OH2 1409   2.251   1.055   3.264  0.0657  0.2160 -0.4389
  482TIP3    H1 1410   2.174   1.112   3.267 -1.6706 -1.9841 -0.8860
  482TIP3    H2 1411   2.279   1.048   3.355 -0.5394  0.6635 -0.2130
  483TIP3   OH2 1412   6.983   4.622   2.288 -0.1282 -0.2016  0.4541
  483TIP3    H1 1413   7.041   4.639   2.362 -0.4646  0.5695  0.5530
  483TIP3    H2 1414   6.976   4.706   2.243 -0.8202 -0.3887  0.1985
  484TIP3   OH2 1415   2.074   4.049   0.575 -0.9428  0.5604 -0.4373
  484TIP3    H1 1416   2.072   4.115   0.645 -0.2282  0.3285 -0.1951
  484TIP3    H2 1417   2.088   3.966   0.621 -2.3336  0.1556 -0.6936
  485TIP3   OH2 1418   1.620   6.528   5.692  0.1805  0.2038  0.3864
  485TIP3    H1 1419   1.692   6.591   5.704  2.4875 -1.6588 -2.3015
  485TIP3    H2 1420   1.648   6.452   5.742 -1.7136  0.5856  2.1306
  486TIP3   OH2 1421   4.676   6.139   1.605  0.1033 -0.0085  0.1368
  486TIP3    H1 1422   4.650   6.047   1.592  1.6612 -0.4369 -0.1855
  486TIP3    H2 1423   4.701   6.169   1.518  0.5343  0.4153  0.4032
  487TIP3   OH2 1424   1.997   0.528   1.225 -0.3657  0.8485 -0.8831
  487TIP3    H1 1425   2.051   0.513   1.302  0.6758  0.0847 -1.7400
  487TIP3    H2 1426   1.976   0.622   1.228 -0.0441  0.8921  0.1280
  488TIP3   OH2 1427   5.091   0.706   0.865 -0.3867  0.3483  0.3355
  488TIP3    H1 1428   5.164   0.751   0.822 -0.0200 -2.0573 -1.7835
  488TIP3    H2 1429   5.132   0.648   0.929 -0.6182  0.6879  0.7939
  489TIP3   OH2 1430   0.294   2.478   3.273  0.1772 -0.0831 -0.2004
  489TIP3    H1 1431   0.222   2.459   3.213 -0.6097  0.4984  0.5286
  489TIP3    H2 1432   0.327   2.564   3.246 -0.1568  0.1650  0.1629
  490TIP3   OH2 1433   3.040   1.300   0.719  0.2134 -0.0289  0.1482
  490TIP3    H1 1434   3.115   1.345   0.758  0.1099 -0.7545  1.2192
  490TIP3    H2 1435   3.033   1.337   0.631  0.6586  1.4029  0.6955
  491TIP3   OH2 1436   4.802   4.846   1.068 -0.6259  0.0636  0.2503
  491TIP3    H1 1437   4.846   4.897   1.136 -1.1931  1.7734 -0.6090
  491TIP3    H2 1438   4.776   4.765   1.112  0.5057  0.4007  1.6090
  492TIP3   OH2 1439   4.680   0.524   3.451 -0.1445  0.3802  0.1148
  492TIP3    H1 1440   4.679   0.445   3.397  0.0674  0.7060 -0.3666
  492TIP3    H2 1441   4.690   0.491   3.541  0.7412 -0.1030 -0.1523
  493TIP3   OH2 1442   6.566   5.088   1.364 -0.8167 -0.1057  0.2785
  493TIP3    H1 1443   6.496   5.057   1.307 -1.0393 -0.3160  0.6625
  493TIP3    H2 1444   6.535   5.171   1.398  0.3631  1.2802 -1.8375
  494TIP3   OH2 1445   2.751   3.495   1.753  0.8056  0.2843  0.7636
  494TIP3    H1 1446   2.717   3.459   1.671 -2.6273  1.9924  1.2453
  494TIP3    H2 1447   2.732   3.427   1.818  0.4233  0.2879  0.6578
  495TIP3   OH2 1448   5.575   5.036   3.911 -0.6210  0.1407  0.0094
  495TIP3    H1 1449   5.536   5.104   3.966  0.8935  0.5244  0.6518
  495TIP3    H2 1450   5.623   5.084   3.844 -2.2047 -0.3250 -1.5319
  496TIP3   OH2 1451   4.578   1.281   3.285 -0.0607  0.0542 -0.5502
  496TIP3    H1 1452   4.616   1.341   3.349  1.0410 -1.2674  0.0769
  496TIP3    H2 1453   4.486   1.273   3.312  0.2679 -0.1012  0.5791
  497TIP3   OH2 1454   6.935   0.998   4.137  0.0806  0.3041  0.7242
  497TIP3    H1 1455   6.978   1.039   4.212  0.8066  0.4581  0.2335
  497TIP3    H2 1456   6.848   0.974   4.170 -0.3506  2.1656  1.0518
  498TIP3   OH2 1457   0.920   5.536   4.454  0.0814 -0.5579  0.1458
  498TIP3    H1 1458   1.009   5.500   4.461 -0.4685 -1.6700  2.4610
  498TIP3    H2 1459   0.866   5.462   4.430 -0.3999 -0.1916  0.0859
  499TIP3   OH2 1460   4.777   2.113   3.892 -0.6962 -0.0908  0.2996
  499TIP3    H1 1461   4.703   2.172   3.880  0.3927  1.3903  0.5469
  499TIP3    H2 1462   4.804   2.089   3.803 -0.1678  1.0872  0.1300
  500TIP3   OH2 1463   3.279   5.283   1.108  0.4159 -0.2897 -0.0409
  500TIP3    H1 1464   3.238   5.237   1.182 -0.3045  1.0658  0.4409
  500TIP3    H2 1465   3.364   5.311   1.141 -0.1291  0.8060  0.5173
  501TIP3   OH2 1466   0.489   0.687   3.126 -0.3740 -0.2282  0.3365
  501TIP3    H1 1467   0.439   0.627   3.071  0.0151 -0.5852  0.3653
  501TIP3    H2 1468   0.486   0.771   3.080  2.2095 -1.1075 -1.7088
  502TIP3   OH2 1469   2.431   0.363   2.792  0.4083  0.1354 -0.0169
  502TIP3    H1 1470   2.409   0.445   2.747 -2.1448 -1.2438 -1.5173
  502TIP3    H2 1471   2.525   0.352   2.777  0.2691  1.3703 -2.2967
  503TIP3   OH2 1472   3.014   0.269   1.932 -0.2671 -0.0246 -0.6877
  503TIP3    H1 1473   2.926   0.293   1.904 -0.0408 -0.6893 -2.0906
  503TIP3    H2 1474   3.004   0.234   2.020 -1.7221 -1.8454 -1.5069
  504TIP3   OH2 1475   1.208   0.954   4.292 -0.1161 -0.1772  0.5935
  504TIP3    H1 1476   1.175   0.985   4.377  0.8270 -0.8369  1.2292
  504TIP3    H2 1477   1.272   0.887   4.315 -2.4565 -3.0969 -0.6847
  505TIP3   OH2 1478   4.935   3.071   3.991 -0.5021 -0.0822  0.2213
  505TIP3    H1 1479   4.921   3.142   3.928  2.6247  0.6285  0.1541
  505TIP3    H2 1480   4.966   3.115   4.070 -0.0558 -1.2639  0.7281
  506TIP3   OH2 1481   3.311   5.527   1.749  0.1429  0.1632  0.0562
  506TIP3    H1 1482   3.228   5.566   1.724  0.2144  0.5840  0.4686
  506TIP3    H2 1483   3.375   5.598   1.744  0.9613 -0.6308 -2.5010
  507TIP3   OH2 1484   1.794   3.975   1.558 -0.6524 -0.0269 -0.1885
  507TIP3    H1 1485   1.884   3.994   1.583 -1.1303  1.1126  0.7468
  507TIP3    H2 1486   1.767   4.049   1.504 -1.3818  0.2487  0.5154
  508TIP3   OH2 1487   0.895   3.332   3.289 -0.8365  0.3665 -0.5422
  508TIP3    H1 1488   0.892   3.335   3.385  0.2100 -0.7799 -0.4574
  508TIP3    H2 1489   0.988   3.331   3.268 -1.0432 -0.7200 -1.5183
  509TIP3   OH2 1490   2.807   1.835   5.358 -0.0869  0.1896  0.3476
  509TIP3    H1 1491   2.822   1.916   5.407 -0.6716  1.3782 -1.3417
  509TIP3    H2 1492   2.862   1.844   5.280 -1.0309 -0.5139 -0.4225
  510TIP3   OH2 1493   7.237   0.635   3.891  0.0260 -0.4179 -0.0047
  510TIP3    H1 1494   7.192   0.646   3.807  2.4016  1.5732 -1.1457
  510TIP3    H2 1495   7.175   0.667   3.956 -1.3185 -0.5894 -1.1500
  511TIP3   OH2 1496   3.310   5.497   4.823 -0.2838 -1.0237  0.2667
  511TIP3    H1 1497   3.281   5.587   4.805 -0.8550 -1.4232 -0.9461
  511TIP3    H2 1498   3.253   5.467   4.894 -1.1367 -0.9314 -0.3628
  512TIP3   OH2 1499   2.817   4.679   4.117  0.8092  0.5182  0.3997
  512TIP3    H1 1500   2.760   4.747   4.079  1.1452  1.0297  0.7927
  512TIP3    H2 1501   2.772   4.597   4.098  0.4823  0.8367 -0.2491
  513TIP3   OH2 1502   5.576   6.224   4.247 -0.0617  0.0954  0.5005
  513TIP3    H1 1503   5.600   6.163   4.316  1.4658 -0.1877 -0.2404
  513TIP3    H2 1504   5.510   6.281   4.287  1.0795  0.2196  2.3219
  514TIP3   OH2 1505   2.506   5.144   1.595 -0.1029  0.4996 -0.6015
  514TIP3    H1 1506   2.538   5.217   1.647  0.4189  0.8006 -1.3360
  514TIP3    H2 1507   2.583   5.090   1.578 -0.5994 -0.6232  0.5444
  515TIP3   OH2 1508   2.115   5.317   4.913  0.0875  0.3699  0.0990
  515TIP3    H1 1509   2.044   5.253   4.916  1.1412 -1.0333 -2.1206
  515TIP3    H2 1510   2.168   5.297   4.990 -1.6691  1.2374  1.6177
  516TIP3   OH2 1511   5.439   4.526   1.465  0.1155 -0.2708 -0.0354
  516TIP3    H1 1512   5.386   4.585   1.518 -1.6369 -0.6871 -1.2696
  516TIP3    H2 1513   5.459   4.453   1.524 -2.5459 -1.1535 -0.1035
  517TIP3   OH2 1514   3.123   3.943   0.585 -0.3612  0.4253 -0.5144
  517TIP3    H1 1515   3.091   4.000   0.655 -1.4806 -0.0491 -0.6185
  517TIP3    H2 1516   3.047   3.930   0.528 -0.1530 -1.1985 -0.4662
  518TIP3   OH2 1517   6.149   2.715   0.322 -0.1894 -0.2849  0.2802
  518TIP3    H1 1518   6.146   2.632   0.369  0.0278  0.8290  2.4100
  518TIP3    H2 1519   6.217   2.703   0.256 -1.3493 -2.3160 -0.6400
  519TIP3   OH2 1520   3.874   6.764   2.229  0.3425  0.4348 -0.0065
  519TIP3    H1 1521   3.946   6.801   2.279 -0.1015  0.2994  0.7651
  519TIP3    H2 1522   3.915   6.718   2.156  0.9721  1.1747 -0.1265
  520TIP3   OH2 1523   0.487   5.824   1.979 -0.2118 -0.1540 -0.1608
  520TIP3    H1 1524   0.456   5.915   1.969  0.2558  0.0131 -0.1222
  520TIP3    H2 1525   0.454   5.779   1.901 -2.5641 -0.5683  0.9892
  521TIP3   OH2 1526   3.317   3.593   0.046  0.1248 -0.1980 -0.1686
  521TIP3    H1 1527   3.360   3.679   0.041 -0.2990 -0.0019 -0.5575
  521TIP3    H2 1528   3.225   3.614   0.061 -0.2078 -0.5418 -1.5822
  522TIP3   OH2 1529   3.794   1.513   1.018 -0.4667 -0.0228  0.4944
  522TIP3    H1 1530   3.837   1.506   1.103 -2.4572 -0.9580  1.4862
  522TIP3    H2 1531   3.785   1.423   0.987  0.5462  0.3201 -0.9220
  523TIP3   OH2 1532   1.089   6.387   2.946 -0.3727 -0.2654  1.0165
  523TIP3    H1 1533   1.009   6.425   2.984 -2.9476 -2.9534 -1.2955
  523TIP3    H2 1534   1.089   6.297   2.977  1.1191 -0.6434 -0.0225
  524TIP3   OH2 1535   2.619   5.060   3.730 -0.0071  0.1736  0.2642
  524TIP3    H1 1536   2.686   4.995   3.707 -1.4959 -1.0192 -0.8965
  524TIP3    H2 1537   2.544   5.039   3.674 -0.6484  2.7785  0.0183
  525TIP3   OH2 1538   6.392   6.039   0.366  0.0079 -0.4870 -0.4606
  525TIP3    H1 1539   6.486   6.024   0.361  0.0838 -0.1792  0.0330
  525TIP3    H2 1540   6.358   6.003   0.284  0.7800  1.0518 -1.5101
  526TIP3   OH2 1541   0.540   2.264   1.907 -0.4877  0.2209  0.6857
  526TIP3    H1 1542   0.450   2.242   1.881 -0.6363  0.4653  0.9935
  526TIP3    H2 1543   0.594   2.197   1.864 -1.0175 -1.4398  2.4678
  527TIP3   OH2 1544   6.969   3.427   4.705 -0.1292 -0.3487 -0.0221
  527TIP3    H1 1545   6.936   3.451   4.791  0.3574  0.2560  0.0045
  527TIP3    H2 1546   7.015   3.505   4.674  0.0184 -0.6825 -0.6712
  528TIP3   OH2 1547   2.329   1.823   4.676 -0.4852 -0.1307  0.8319
  528TIP3    H1 1548   2.389   1.826   4.602 -1.9428 -0.8111 -0.4244
  528TIP3    H2 1549   2.384   1.799   4.751  1.1399  1.3251  0.1496
  529TIP3   OH2 1550   4.876   0.774   2.060 -0.3240 -0.3108  0.3039
  529TIP3    H1 1551   4.890   0.680   2.068 -0.9658 -0.4723 -0.3027
  529TIP3    H2 1552   4.837   0.800   2.144 -0.8442 -0.7299  0.1968
  530TIP3   OH2 1553   2.155   3.872   2.504 -0.4049 -0.1434  0.1385
  530TIP3    H1 1554   2.113   3.957   2.490 -0.5131 -0.1154  0.6246
  530TIP3    H2 1555   2.203   3.855   2.422 -0.6316  0.2398 -0.0764
  531TIP3   OH2 1556   7.016   0.835   5.637  0.0657 -0.3987 -0.5542
  531TIP3    H1 1557   6.932   0.882   5.637  0.6502  0.7650  1.1552
  531TIP3    H2 1558   7.021   0.796   5.725  1.7719  0.5113 -0.2100
  532TIP3   OH2 1559   5.026   1.305   3.183  0.5359 -0.2708  0.0555
  532TIP3    H1 1560   5.082   1.380   3.201 -0.2603  0.2198  0.5890
  532TIP3    H2 1561   5.031   1.251   3.262  1.3256 -0.9378 -0.4349
  533TIP3   OH2 1562   6.839   3.948   5.062  0.0312  0.3969  0.0587
  533TIP3    H1 1563   6.863   3.883   4.997 -1.7418  0.1313 -0.3824
  533TIP3    H2 1564   6.745   3.934   5.077 -0.0159  1.7105  1.2451
  534TIP3   OH2 1565   7.050   2.669   0.368  0.0890 -0.0914  0.1764
  534TIP3    H1 1566   7.006   2.624   0.440 -0.2692 -1.3042 -0.7606
  534TIP3    H2 1567   7.012   2.757   0.367 -0.1198 -0.1582  1.2616
  535TIP3   OH2 1568   3.694   6.297   3.352  0.4952  0.0707 -0.2817
  535TIP3    H1 1569   3.777   6.332   3.318  0.4904  2.5449  1.9265
  535TIP3    H2 1570   3.675   6.222   3.296  3.7994 -0.1072 -1.3863
  536TIP3   OH2 1571   2.475   4.456   5.297 -0.2125  0.7890  0.3122
  536TIP3    H1 1572   2.435   4.372   5.321  0.7619  0.3071  0.2703
  536TIP3    H2 1573   2.402   4.519   5.301 -0.4289  0.4672  3.0288
  537TIP3   OH2 1574   7.156   3.330   3.140  0.2812  0.4009  0.0664
  537TIP3    H1 1575   7.164   3.274   3.217 -2.2232 -0.8441 -0.4551
  537TIP3    H2 1576   7.131   3.270   3.069 -3.5491  2.1140 -0.3098
  538TIP3   OH2 1577   6.765   4.981   1.805  0.1229 -0.3053 -0.0655
  538TIP3    H1 1578   6.805   5.043   1.866 -1.6327 -0.3687  1.2361
  538TIP3    H2 1579   6.705   4.930   1.859  0.0979 -1.8518 -1.4784
  539TIP3   OH2 1580   6.805   4.952   2.720  0.1356  0.3749 -0.2641
  539TIP3    H1 1581   6.841   4.913   2.640  0.4517 -0.1524  0.1332
  539TIP3    H2 1582   6.734   4.893   2.746 -0.5300  0.9965 -0.6132
  540TIP3   OH2 1583   6.075   3.514   5.761 -0.8199 -0.5674 -0.0124
  540TIP3    H1 1584   6.135   3.440   5.749 -1.0192 -0.7499  0.1252
  540TIP3    H2 1585   6.032   3.524   5.676  0.0997  0.1768 -0.4113
  541TIP3   OH2 1586   1.297   2.583   5.381 -0.3159  0.3124  0.2584
  541TIP3    H1 1587   1.300   2.663   5.434 -0.3330 -0.0198  0.7741
  541TIP3    H2 1588   1.366   2.594   5.316 -0.7978  1.0649 -0.1361
  542TIP3   OH2 1589   2.474   0.625   0.972 -0.3485 -0.0623 -0.5185
  542TIP3    H1 1590   2.389   0.582   0.987 -0.6119  0.6908  0.2232
  542TIP3    H2 1591   2.536   0.571   1.020 -0.7330  0.5485  0.7106
  543TIP3   OH2 1592   7.121   3.474   2.067 -0.6153 -0.4172 -0.2581
  543TIP3    H1 1593   7.042   3.527   2.056 -0.6862 -0.6482 -0.9446
  543TIP3    H2 1594   7.127   3.458   2.161  0.5191  2.4742  0.2368
  544TIP3   OH2 1595   0.751   1.576   3.166  0.4698  0.1719 -0.2930
  544TIP3    H1 1596   0.721   1.650   3.113 -2.0638  1.0727  2.1956
  544TIP3    H2 1597   0.718   1.499   3.120 -0.7020  0.8478 -0.6279
  545TIP3   OH2 1598   4.385   5.327   4.211  0.4538  0.4737 -0.2597
  545TIP3    H1 1599   4.403   5.243   4.254  2.5942  1.2166  0.4191
  545TIP3    H2 1600   4.299   5.352   4.244  0.1861 -1.0056  0.2604
  546TIP3   OH2 1601   5.313   4.170   4.999 -0.4005  0.3280 -0.2696
  546TIP3    H1 1602   5.390   4.222   4.975 -0.1150  0.1633  0.2830
  546TIP3    H2 1603   5.291   4.199   5.087 -0.2990 -0.4079  0.0076
  547TIP3   OH2 1604   3.590   5.127   3.060  0.2040  0.2545  0.2327
  547TIP3    H1 1605   3.513   5.131   3.003  1.6800 -0.2550 -1.9116
  547TIP3    H2 1606   3.565   5.066   3.130 -1.2443 -0.1056 -0.5591
  548TIP3   OH2 1607   2.508   3.565   1.441 -0.0581 -0.0248 -0.3154
  548TIP3    H1 1608   2.603   3.551   1.436 -0.2162 -1.5754  0.4209
  548TIP3    H2 1609   2.474   3.485   1.481 -1.2934  1.8720  2.8565
  549TIP3   OH2 1610   4.652   0.583   3.929 -0.2418 -0.4603 -0.1315
  549TIP3    H1 1611   4.729   0.607   3.981 -0.3538 -0.9001  0.2465
  549TIP3    H2 1612   4.619   0.666   3.896  0.2953 -0.2499 -0.1570
  550TIP3   OH2 1613   3.607   1.598   2.983  0.2907  0.2631  0.5453
  550TIP3    H1 1614   3.627   1.669   3.043 -0.3794  2.0366 -1.2108
  550TIP3    H2 1615   3.574   1.641   2.904  2.2008 -1.8206 -1.5724
  551TIP3   OH2 1616   2.228   1.333   5.377 -0.1516 -0.1529  0.1358
  551TIP3    H1 1617   2.296   1.270   5.400  2.8922  1.7130 -2.8973
  551TIP3    H2 1618   2.199   1.307   5.290 -0.4086  1.4094 -0.2659
  552TIP3   OH2 1619   3.312   5.286   2.453  1.0422 -0.6173 -0.3320
  552TIP3    H1 1620   3.372   5.277   2.527  0.7456  2.3896  0.4062
  552TIP3    H2 1621   3.226   5.269   2.489  0.7853  1.7893  0.3742
  553TIP3   OH2 1622   4.607   6.756   2.164  0.3417  0.0948  0.2893
  553TIP3    H1 1623   4.539   6.801   2.214 -0.7019 -1.5221  0.4015
  553TIP3    H2 1624   4.565   6.674   2.136  1.0224  0.7007 -2.8308
  554TIP3   OH2 1625   6.933   3.771   1.174 -0.2235  0.1519 -0.2754
  554TIP3    H1 1626   6.882   3.764   1.255  2.4533 -0.3914  1.5008
  554TIP3    H2 1627   7.017   3.809   1.202  0.9799 -0.5181 -2.7098
  555TIP3   OH2 1628   0.246   4.910   3.598  0.2448 -0.1853  0.0977
  555TIP3    H1 1629   0.312   4.904   3.529  1.2598  0.3018  0.9995
  555TIP3    H2 1630   0.296   4.923   3.678 -0.8956 -0.9660  0.9731
  556TIP3   OH2 1631   2.487   5.478   5.021  0.0445 -0.1224  0.1416
  556TIP3    H1 1632   2.533   5.407   5.065 -0.2841 -0.8338 -0.6299
  556TIP3    H2 1633   2.521   5.557   5.062  1.9049 -0.6134 -0.3243
  557TIP3   OH2 1634   5.847   2.668   1.950  0.4647  0.0828 -0.1090
  557TIP3    H1 1635   5.822   2.606   1.881 -1.8503 -1.3128  1.8096
  557TIP3    H2 1636   5.811   2.752   1.921  0.5209 -0.2135 -1.0861
  558TIP3   OH2 1637   7.176   3.620   5.072  0.0699 -0.0478  0.1987
  558TIP3    H1 1638   7.201   3.542   5.120 -0.1025 -1.1991 -1.4714
  558TIP3    H2 1639   7.255   3.645   5.024  0.0195  0.5980  0.4427
  559TIP3   OH2 1640   4.976   5.051   5.913 -0.3898 -0.2150  0.0786
  559TIP3    H1 1641   4.953   5.100   5.834 -0.6103 -0.0328  0.2553
  559TIP3    H2 1642   5.034   4.981   5.882 -1.8226 -1.1854 -0.5030
  560TIP3   OH2 1643   0.357   6.405   3.948  0.5944  0.2133  0.3497
  560TIP3    H1 1644   0.296   6.438   4.014  1.1846  0.6807  0.6762
  560TIP3    H2 1645   0.308   6.337   3.901 -0.6485  1.5018 -0.3023
  561TIP3   OH2 1646   5.806   0.134   2.918  0.1002  0.3831 -0.0594
  561TIP3    H1 1647   5.877   0.181   2.962  0.0637  0.7502 -0.3907
  561TIP3    H2 1648   5.807   0.047   2.959  2.6422 -0.6323 -1.9869
  562TIP3   OH2 1649   3.809   3.088   2.307 -0.1190  0.2096  0.0636
  562TIP3    H1 1650   3.859   3.080   2.226 -0.9607 -0.3128 -0.4128
  562TIP3    H2 1651   3.754   3.165   2.293  0.5280  0.7883  0.5908
  563TIP3   OH2 1652   3.875   3.598   3.545 -0.1839  1.1289  0.0117
  563TIP3    H1 1653   3.822   3.643   3.611 -0.4137  2.1805 -0.8649
  563TIP3    H2 1654   3.944   3.661   3.523  1.3662 -0.1486  1.0058
  564TIP3   OH2 1655   7.027   2.015   3.673  0.3073 -0.1779 -0.4066
  564TIP3    H1 1656   7.063   2.103   3.665  0.1439 -0.1962 -1.5442
  564TIP3    H2 1657   7.101   1.962   3.703  0.6501  0.1842 -0.5998
  565TIP3   OH2 1658   0.636   5.069   0.135  0.1322 -0.0790 -0.2551
  565TIP3    H1 1659   0.646   5.091   0.227  1.5999 -0.5722 -0.2609
  565TIP3    H2 1660   0.554   5.110   0.108 -0.8936 -0.8382  1.5364
  566TIP3   OH2 1661   3.694   5.781   3.757  0.1044  0.3771 -0.0336
  566TIP3    H1 1662   3.735   5.859   3.718  1.4556 -0.2788  0.0085
  566TIP3    H2 1663   3.761   5.746   3.816 -0.4965 -0.7859 -0.0154
  567TIP3   OH2 1664   6.617   5.152   2.863  0.0938 -0.3270  0.1059
  567TIP3    H1 1665   6.634   5.230   2.810 -0.7149 -0.3397 -0.1733
  567TIP3    H2 1666   6.681   5.088   2.832  0.9052  0.2726  0.4739
  568TIP3   OH2 1667   3.492   3.696   5.630  0.0999  0.4011  0.5937
  568TIP3    H1 1668   3.404   3.688   5.668 -0.2594  2.4346  0.3153
  568TIP3    H2 1669   3.548   3.646   5.689 -0.4872  3.1206  3.7752
  569TIP3   OH2 1670   4.978   2.932   0.485 -0.5945 -0.0229 -0.0162
  569TIP3    H1 1671   4.948   2.971   0.567 -0.5673 -2.0025  0.9958
  569TIP3    H2 1672   4.898   2.903   0.442 -0.5224 -0.1432 -0.0695
  570TIP3   OH2 1673   2.385   5.764   0.132  0.0274  0.0039  0.4213
  570TIP3    H1 1674   2.441   5.842   0.134  2.1843 -1.4601  1.6698
  570TIP3    H2 1675   2.419   5.713   0.058  1.2710 -1.4548  1.9127
  571TIP3   OH2 1676   3.647   1.310   3.254 -0.1488  0.0342  0.1625
  571TIP3    H1 1677   3.581   1.245   3.232  0.2768 -0.5138  0.4887
  571TIP3    H2 1678   3.707   1.308   3.180 -0.4137  0.4292 -0.0668
  572TIP3   OH2 1679   5.358   4.940   3.102 -0.0367  0.3501  0.1628
  572TIP3    H1 1680   5.337   4.950   3.195  0.4982  1.0422  0.2196
  572TIP3    H2 1681   5.423   4.869   3.100  0.3274  0.6710  0.3781
  573TIP3   OH2 1682   6.792   0.978   5.119  0.1101 -0.7062  0.3279
  573TIP3    H1 1683   6.799   0.910   5.052  1.4784 -0.1164 -0.1590
  573TIP3    H2 1684   6.821   1.058   5.076 -0.0405 -0.1013  1.3170
  574TIP3   OH2 1685   1.897   1.509   4.714  0.1986  0.3636  0.4998
  574TIP3    H1 1686   1.938   1.596   4.708  0.1439  0.5386  2.2880
  574TIP3    H2 1687   1.969   1.449   4.729  0.5096 -0.2736 -2.7923
  575TIP3   OH2 1688   4.305   3.344   0.944 -0.0164 -0.3959 -0.1908
  575TIP3    H1 1689   4.375   3.310   0.999 -0.0362  0.8963  0.6838
  575TIP3    H2 1690   4.350   3.390   0.873  0.1429  2.2782  1.5096
  576TIP3   OH2 1691   2.047   4.845   2.566 -0.4864 -0.1655 -0.2666
  576TIP3    H1 1692   1.998   4.775   2.608 -0.8308  0.4678  0.4021
  576TIP3    H2 1693   2.080   4.898   2.638 -0.9408  0.8403 -0.7836
  577TIP3   OH2 1694   2.871   4.787   1.602 -0.3228 -0.4355  0.2950
  577TIP3    H1 1695   2.844   4.726   1.670  0.3900 -0.5572  0.4750
  577TIP3    H2 1696   2.877   4.733   1.523  1.4506 -0.8781  0.6884
  578TIP3   OH2 1697   0.099   3.707   2.010  0.0701 -0.0064 -0.3500
  578TIP3    H1 1698   0.131   3.689   1.921 -0.3755  1.4870 -0.8386
  578TIP3    H2 1699   0.053   3.627   2.035 -0.0236 -0.3574 -1.5775
  579TIP3   OH2 1700   0.830   2.162   0.398 -0.4374 -0.0278  0.1410
  579TIP3    H1 1701   0.881   2.112   0.334 -0.1552 -0.2783  0.5552
  579TIP3    H2 1702   0.895   2.212   0.448 -0.5595 -0.5096  0.8099
  580TIP3   OH2 1703   5.063   3.502   5.401 -0.0515 -0.6734 -0.7221
  580TIP3    H1 1704   5.132   3.491   5.335 -1.3506  1.8490 -2.6910
  580TIP3    H2 1705   4.981   3.491   5.352 -1.0652 -0.1138  0.7736
  581TIP3   OH2 1706   1.300   5.075   1.399  0.1565  0.2902 -0.0559
  581TIP3    H1 1707   1.357   5.147   1.424  1.6646 -1.2297  1.0773
  581TIP3    H2 1708   1.222   5.086   1.453 -0.4833  2.0975 -1.2521
  582TIP3   OH2 1709   2.988   0.313   0.726 -0.1883  0.2256  0.1589
  582TIP3    H1 1710   3.053   0.268   0.780  0.3405  0.5238 -0.2278
  582TIP3    H2 1711   2.905   0.299   0.772  0.7650  4.8373  4.0702
  583TIP3   OH2 1712   6.738   6.637   1.261  0.0896  0.0523 -0.3444
  583TIP3    H1 1713   6.746   6.616   1.354 -1.4843  0.1006 -0.1760
  583TIP3    H2 1714   6.826   6.666   1.236  1.2429 -2.5224  0.4465
  584TIP3   OH2 1715   3.332   4.346   5.800 -0.2005 -0.0762 -0.4810
  584TIP3    H1 1716   3.379   4.422   5.835 -1.6018  0.2989  0.7011
  584TIP3    H2 1717   3.283   4.380   5.726 -0.2101 -0.0115 -0.4446
  585TIP3   OH2 1718   1.256   6.331   3.601  0.7884  0.2910 -0.2603
  585TIP3    H1 1719   1.225   6.314   3.512  0.6458 -2.6946  0.2336
  585TIP3    H2 1720   1.350   6.342   3.592  0.8599 -0.6042 -0.7643
  586TIP3   OH2 1721   5.086   0.482   2.274  0.0688 -0.1420 -0.2099
  586TIP3    H1 1722   5.069   0.465   2.367  1.8056 -0.7078  0.0435
  586TIP3    H2 1723   5.119   0.572   2.272 -0.7080  0.1423 -0.3890
  587TIP3   OH2 1724   0.167   3.359   4.075 -0.6781 -0.0830  0.5329
  587TIP3    H1 1725   0.165   3.307   3.994 -0.6204 -1.5301  1.4228
  587TIP3    H2 1726   0.075   3.367   4.101 -0.6052 -0.9101  1.0923
  588TIP3   OH2 1727   4.228   5.632   2.362 -0.1728  0.0492 -0.2821
  588TIP3    H1 1728   4.181   5.650   2.444  0.8261 -0.8812  0.5288
  588TIP3    H2 1729   4.183   5.685   2.296  0.0706  2.2522  1.1918
  589TIP3   OH2 1730   2.056   4.854   2.856  0.0162  0.8187  0.2742
  589TIP3    H1 1731   1.965   4.842   2.886  0.2975 -2.4743  0.2557
  589TIP3    H2 1732   2.108   4.845   2.936  0.3974  1.2660  0.0762
  590TIP3   OH2 1733   2.266   2.941   5.462  0.4150  0.0145 -0.2551
  590TIP3    H1 1734   2.214   2.951   5.542 -0.8989  0.1083 -1.0969
  590TIP3    H2 1735   2.221   2.995   5.397 -0.9793 -3.2180 -2.1808
  591TIP3   OH2 1736   5.945   1.795   3.356 -0.0385  0.4385  0.1155
  591TIP3    H1 1737   6.016   1.774   3.416 -0.1229 -0.6011 -0.1241
  591TIP3    H2 1738   5.898   1.867   3.397  1.0760  1.0533  0.3392
  592TIP3   OH2 1739   1.262   1.942   5.731  0.4162  0.5906  0.1268
  592TIP3    H1 1740   1.302   1.865   5.771 -0.9655  0.4285  1.3179
  592TIP3    H2 1741   1.168   1.929   5.745  0.0830  1.9020 -0.7639
  593TIP3   OH2 1742   5.888   4.707   4.686 -0.4834  0.1930 -0.6888
  593TIP3    H1 1743   5.916   4.797   4.701  0.1103 -0.0998  0.0346
  593TIP3    H2 1744   5.915   4.689   4.596  4.5445 -0.9994  0.7347
  594TIP3   OH2 1745   5.142   2.850   3.884  0.1344  0.4009  0.0575
  594TIP3    H1 1746   5.173   2.777   3.937  0.0507  1.3336  1.4320
  594TIP3    H2 1747   5.055   2.870   3.919 -0.5962  0.0553 -1.4672
  595TIP3   OH2 1748   4.425   3.678   4.522 -0.0069 -0.5128  0.5024
  595TIP3    H1 1749   4.412   3.693   4.428  1.7368  1.6236  0.5222
  595TIP3    H2 1750   4.484   3.748   4.549 -0.8803 -0.7649  3.3315
  596TIP3   OH2 1751   6.487   1.469   5.122  0.7213 -0.4041 -0.4296
  596TIP3    H1 1752   6.532   1.552   5.106 -0.2164  0.0166 -0.9961
  596TIP3    H2 1753   6.524   1.436   5.203  0.2457  1.1796  0.4690
  597TIP3   OH2 1754   2.323   1.690   1.964 -0.7816  0.4022  0.1307
  597TIP3    H1 1755   2.276   1.609   1.985  1.6433 -0.3818  3.2378
  597TIP3    H2 1756   2.259   1.760   1.978 -1.6275 -0.7303  2.3749
  598TIP3   OH2 1757   0.992   1.036   3.779 -0.6768 -0.0220 -0.1178
  598TIP3    H1 1758   1.073   0.999   3.746 -0.2579 -0.1581  1.0213
  598TIP3    H2 1759   0.962   1.095   3.710  1.7139  2.0147  0.4353
  599TIP3   OH2 1760   5.436   3.455   0.880 -0.1972 -0.3696  0.0260
  599TIP3    H1 1761   5.430   3.479   0.788  1.9583  1.2262  0.2165
  599TIP3    H2 1762   5.500   3.384   0.882 -1.0364 -1.1286  0.1991
  600TIP3   OH2 1763   0.081   3.306   3.829 -0.1710 -0.3102 -0.2071
  600TIP3    H1 1764   0.158   3.283   3.776 -0.5789 -1.4352 -0.3211
  600TIP3    H2 1765   0.089   3.401   3.842  2.4169 -0.6599  1.5998
  601TIP3   OH2 1766   7.071   6.025   3.203  0.3048 -0.1352 -0.1396
  601TIP3    H1 1767   7.084   6.008   3.296  0.2189  0.1459 -0.0750
  601TIP3    H2 1768   7.006   5.961   3.175  1.6860 -1.4893 -0.4407
  602TIP3   OH2 1769   6.257   6.751   0.293 -0.2345 -0.5735 -0.1405
  602TIP3    H1 1770   6.173   6.789   0.320 -0.2965 -0.4067 -0.5693
  602TIP3    H2 1771   6.250   6.659   0.319  0.0483 -0.2403  1.2100
  603TIP3   OH2 1772   5.857   5.267   0.191  0.3320  0.0235  0.1581
  603TIP3    H1 1773   5.848   5.187   0.242  0.7920 -0.7686 -0.9547
  603TIP3    H2 1774   5.770   5.284   0.156  0.2443 -0.0040  0.3610
  604TIP3   OH2 1775   4.667   2.010   1.898 -0.1718 -0.3336  0.7140
  604TIP3    H1 1776   4.613   2.087   1.914 -1.7144 -1.4917  1.3121
  604TIP3    H2 1777   4.613   1.937   1.926  0.7034 -1.7735 -1.1595
  605TIP3   OH2 1778   1.854   3.284   1.438 -0.0186 -0.7112  0.2513
  605TIP3    H1 1779   1.824   3.369   1.472 -1.3726 -0.2497 -1.9452
  605TIP3    H2 1780   1.776   3.228   1.441  0.4703 -1.4038  0.2066
  606TIP3   OH2 1781   2.179   3.006   0.359 -0.3965  0.4144  0.0701
  606TIP3    H1 1782   2.196   3.015   0.265 -1.3353 -0.7303 -0.2386
  606TIP3    H2 1783   2.232   3.074   0.400  0.1012  0.8720 -1.2828
  607TIP3   OH2 1784   5.080   1.352   2.369  0.0990  0.2636 -0.1431
  607TIP3    H1 1785   5.109   1.395   2.449 -0.6171  1.0444 -0.2819
  607TIP3    H2 1786   5.078   1.259   2.391 -0.4099  0.4950  0.8572
  608TIP3   OH2 1787   2.275   0.362   4.709  0.1083  0.0732 -0.0354
  608TIP3    H1 1788   2.320   0.310   4.643 -1.2472 -0.3693 -0.6399
  608TIP3    H2 1789   2.273   0.306   4.787  0.0090 -0.1707 -0.2145
  609TIP3   OH2 1790   5.469   0.796   2.138 -0.7741  0.2089 -0.0313
  609TIP3    H1 1791   5.498   0.872   2.187 -0.8335 -0.0213  0.3655
  609TIP3    H2 1792   5.505   0.809   2.050  1.0606 -0.3504  0.5885
  610TIP3   OH2 1793   2.162   0.682   2.578 -0.2105 -0.8636  0.3738
  610TIP3    H1 1794   2.219   0.703   2.503  2.1122  0.3775  2.3393
  610TIP3    H2 1795   2.114   0.763   2.593 -0.1909 -0.8988  0.6191
  611TIP3   OH2 1796   6.881   3.449   4.965 -0.1947 -0.2924  0.1656
  611TIP3    H1 1797   6.937   3.400   5.026  0.3618 -1.3653 -1.1600
  611TIP3    H2 1798   6.795   3.448   5.007  0.2957 -0.4891  1.2166
  612TIP3   OH2 1799   6.020   1.589   4.613 -0.2497 -1.0229  0.0129
  612TIP3    H1 1800   6.019   1.581   4.517 -3.0548  0.8534 -0.2332
  612TIP3    H2 1801   6.061   1.675   4.628  0.7010 -1.5594  0.5750
  613TIP3   OH2 1802   0.282   5.297   4.164  0.2464  0.3895  0.0226
  613TIP3    H1 1803   0.342   5.224   4.151 -1.3142 -0.8447 -0.7475
  613TIP3    H2 1804   0.252   5.319   4.076 -2.6822 -1.1246  0.5020
  614TIP3   OH2 1805   1.660   3.443   0.981 -0.0295  0.6613  0.3519
  614TIP3    H1 1806   1.573   3.427   0.945 -0.1657 -0.0672  0.9683
  614TIP3    H2 1807   1.689   3.357   1.013 -0.0094  1.2969  2.1322
  615TIP3   OH2 1808   2.428   3.166   4.686  0.7534  0.1745 -0.0290
  615TIP3    H1 1809   2.350   3.176   4.632 -0.4570 -3.2919  0.8361
  615TIP3    H2 1810   2.411   3.224   4.761 -1.4576 -1.0469  0.5218
  616TIP3   OH2 1811   0.971   6.028   0.216  0.3878 -0.8824 -0.8725
  616TIP3    H1 1812   0.900   6.085   0.244 -0.4636 -1.9421 -0.8021
  616TIP3    H2 1813   1.047   6.086   0.207  0.2120 -0.1450  1.6373
  617TIP3   OH2 1814   6.015   6.692   3.253  1.0087 -0.4491  0.1949
  617TIP3    H1 1815   6.060   6.775   3.267  0.6137 -0.2978  0.5936
  617TIP3    H2 1816   6.022   6.676   3.159 -1.6877  1.6588 -0.4921
  618TIP3   OH2 1817   4.729   3.778   3.316  0.0825 -0.6143 -0.3066
  618TIP3    H1 1818   4.791   3.851   3.320  0.1838 -0.7192  0.1549
  618TIP3    H2 1819   4.749   3.726   3.395  0.3803 -1.4286 -0.9015
  619TIP3   OH2 1820   4.789   4.423   0.935 -0.1134 -0.2830 -0.3177
  619TIP3    H1 1821   4.868   4.395   0.980  0.1335 -2.0871 -1.7489
  619TIP3    H2 1822   4.728   4.350   0.943 -0.6323 -0.0194 -1.5201
  620TIP3   OH2 1823   6.239   5.200   4.285 -0.4071  0.5446 -0.4030
  620TIP3    H1 1824   6.215   5.111   4.260 -1.8911  0.7420  0.2590
  620TIP3    H2 1825   6.176   5.225   4.352 -0.1945  2.2056 -0.7647
  621TIP3   OH2 1826   6.806   4.395   3.496 -0.6581 -0.1527  0.6034
  621TIP3    H1 1827   6.722   4.438   3.477 -0.4883  0.4814  1.2706
  621TIP3    H2 1828   6.836   4.364   3.411 -2.2971 -1.7551  0.5421
  622TIP3   OH2 1829   5.143   2.649   4.658  0.0032 -0.7013 -0.3709
  622TIP3    H1 1830   5.137   2.695   4.742 -0.7303  0.5048 -1.0471
  622TIP3    H2 1831   5.237   2.642   4.641  0.1437  0.6188 -0.2613
  623TIP3   OH2 1832   4.348   1.288   5.726 -0.3992  0.2109  0.0883
  623TIP3    H1 1833   4.278   1.347   5.755 -0.0995  0.9020 -0.5585
  623TIP3    H2 1834   4.429   1.330   5.756 -0.0038  1.4531 -2.4559
  624TIP3   OH2 1835   6.053   2.649   3.594  0.4770 -0.8163 -0.2154
  624TIP3    H1 1836   6.044   2.641   3.499  1.7204 -0.7058 -0.3652
  624TIP3    H2 1837   5.965   2.668   3.625  0.1496 -0.2475 -1.4120
  625TIP3   OH2 1838   4.791   1.912   5.264  0.2868  0.1261  0.5658
  625TIP3    H1 1839   4.739   1.928   5.185 -0.5616  0.3037  1.1440
  625TIP3    H2 1840   4.838   1.993   5.279  0.4798  0.0796  0.2273
  626TIP3   OH2 1841   2.029   2.756   0.292 -0.0572  0.2127  0.7277
  626TIP3    H1 1842   2.022   2.837   0.242 -0.7112 -0.4633 -0.3186
  626TIP3    H2 1843   1.941   2.739   0.325 -0.1982 -0.6593 -0.0455
  627TIP3   OH2 1844   6.433   5.223   1.132 -0.1576 -0.1169 -0.4413
  627TIP3    H1 1845   6.521   5.194   1.109 -0.1867  0.2891 -1.0884
  627TIP3    H2 1846   6.386   5.226   1.048  0.1517  2.8442 -0.6251
  628TIP3   OH2 1847   6.390   3.787   0.982 -1.0618  0.1132  0.2465
  628TIP3    H1 1848   6.328   3.715   0.993  1.5774 -2.0789  2.6860
  628TIP3    H2 1849   6.465   3.762   1.037  0.8101  3.8992 -0.2424
  629TIP3   OH2 1850   5.819   2.826   4.942 -0.3338  0.4128 -0.4098
  629TIP3    H1 1851   5.901   2.831   4.894  0.2719 -1.9041  0.2364
  629TIP3    H2 1852   5.817   2.905   4.995  2.2477 -0.1629  0.6920
  630TIP3   OH2 1853   4.679   2.742   0.050 -0.0851 -0.0801  0.2309
  630TIP3    H1 1854   4.703   2.802  -0.021 -2.5117  0.1071 -0.5176
  630TIP3    H2 1855   4.663   2.799   0.125 -1.2228  0.1256 -0.1512
  631TIP3   OH2 1856   7.068   3.669   5.342  0.3169 -0.5945  0.4649
  631TIP3    H1 1857   6.975   3.677   5.319  0.8890 -0.3992 -2.0085
  631TIP3    H2 1858   7.104   3.609   5.277  2.5135  1.6329 -0.5395
  632TIP3   OH2 1859   5.907   1.615   1.953 -0.2141  0.3176 -0.4821
  632TIP3    H1 1860   5.964   1.689   1.931 -1.4548  1.0315 -1.4147
  632TIP3    H2 1861   5.836   1.620   1.890 -1.9390  0.1676  1.3380
  633TIP3   OH2 1862   3.782   5.753   1.428 -0.4380 -0.1392  0.4420
  633TIP3    H1 1863   3.838   5.818   1.469 -0.4495  1.6408 -2.1275
  633TIP3    H2 1864   3.696   5.795   1.424 -0.4477 -0.2505 -1.2624
  634TIP3   OH2 1865   4.471   5.028   0.068  0.5474  0.1346 -0.0474
  634TIP3    H1 1866   4.435   5.075   0.143  3.2070 -0.9259  2.0550
  634TIP3    H2 1867   4.412   4.954   0.056  0.4549 -0.0655  1.4728
  635TIP3   OH2 1868   7.004   1.807   5.595  0.1224 -0.2497 -0.2794
  635TIP3    H1 1869   6.992   1.842   5.683 -1.1320  0.7409 -0.8103
  635TIP3    H2 1870   7.096   1.823   5.576  0.7311 -1.5934  1.2843
  636TIP3   OH2 1871   5.600   4.029   4.882 -0.7107  0.1686 -0.2450
  636TIP3    H1 1872   5.660   3.981   4.824 -0.2358  1.6110 -1.0072
  636TIP3    H2 1873   5.598   4.117   4.846 -1.7213  0.6808  0.9907
  637TIP3   OH2 1874   3.722   0.022   1.408 -0.2149 -0.4920  0.3056
  637TIP3    H1 1875   3.748   0.068   1.328  0.3707  0.3561  0.9717
  637TIP3    H2 1876   3.707  -0.069   1.379  0.0507 -0.2172 -0.7461
  638TIP3   OH2 1877   3.428   1.443   4.324  0.2858  0.3161  0.3967
  638TIP3    H1 1878   3.463   1.376   4.382 -0.7932 -0.2470  0.4163
  638TIP3    H2 1879   3.505   1.492   4.295  0.8414  0.6427  2.3211
  639TIP3   OH2 1880   7.093   2.757   1.659  0.4671 -0.1381 -0.2015
  639TIP3    H1 1881   7.090   2.771   1.564  1.8120  2.6833  0.0638
  639TIP3    H2 1882   7.004   2.730   1.682 -0.9870  2.7381 -1.8457
  640TIP3   OH2 1883   4.065   1.351   4.912  0.4067  0.2538 -0.1204
  640TIP3    H1 1884   4.137   1.292   4.931  0.5445  0.2596 -0.6108
  640TIP3    H2 1885   3.999   1.330   4.978  0.3526 -0.6290 -0.4391
  641TIP3   OH2 1886   5.741   4.626   0.954 -0.6439 -0.0591 -0.0929
  641TIP3    H1 1887   5.751   4.531   0.957  1.0599  0.0893 -0.4651
  641TIP3    H2 1888   5.756   4.655   1.044 -0.4300 -0.0836 -0.1199
  642TIP3   OH2 1889   3.024   4.617   2.440 -0.5866  0.1047  0.1723
  642TIP3    H1 1890   3.070   4.617   2.523 -0.9640 -0.7520  0.3925
  642TIP3    H2 1891   2.989   4.705   2.432  0.2877  0.4814  0.4476
  643TIP3   OH2 1892   3.308   5.087   2.203 -0.1347  0.1714 -1.0760
  643TIP3    H1 1893   3.371   5.034   2.252 -1.1350 -0.5876 -0.5687
  643TIP3    H2 1894   3.306   5.171   2.249  0.4381  0.1808 -1.0562
  644TIP3   OH2 1895   1.023   0.710   5.594 -0.1031 -0.4388  0.4067
  644TIP3    H1 1896   1.096   0.654   5.567 -0.3086 -0.7534  0.5059
  644TIP3    H2 1897   1.021   0.702   5.689 -1.2137 -1.6153  0.3027
  645TIP3   OH2 1898   3.577   5.505   0.789  0.1772 -0.4009 -0.1618
  645TIP3    H1 1899   3.574   5.487   0.883 -1.0550 -0.3115 -0.1695
  645TIP3    H2 1900   3.669   5.495   0.766  0.8008  1.3273  1.3852
  646TIP3   OH2 1901   6.695   5.576   5.603  0.0072  0.2029  0.0190
  646TIP3    H1 1902   6.610   5.545   5.571  1.6424 -1.8073 -2.7874
  646TIP3    H2 1903   6.697   5.668   5.579 -1.5873  0.4492  0.6862
  647TIP3   OH2 1904   3.454   3.123   1.851 -0.4186  0.0508  0.4424
  647TIP3    H1 1905   3.455   3.216   1.875 -0.7194 -0.0036  0.6622
  647TIP3    H2 1906   3.370   3.090   1.883 -0.4172 -0.2428  0.1523
  648TIP3   OH2 1907   6.381   3.585   1.271 -0.2276 -0.1116  0.2089
  648TIP3    H1 1908   6.384   3.495   1.303  1.6828 -0.8002 -1.6944
  648TIP3    H2 1909   6.468   3.601   1.235 -0.0657  2.9760  1.6172
  649TIP3   OH2 1910   2.757   1.615   0.705  0.2971  0.5581  0.2645
  649TIP3    H1 1911   2.818   1.665   0.758 -0.0860  1.0035  0.2851
  649TIP3    H2 1912   2.676   1.665   0.707  0.0217  0.1328 -0.0245
  650TIP3   OH2 1913   2.525   4.849   2.849 -0.1426 -0.0205  0.0210
  650TIP3    H1 1914   2.509   4.781   2.784  3.6145 -0.4191 -0.6780
  650TIP3    H2 1915   2.483   4.927   2.813  1.7268 -0.2450 -2.9588
  651TIP3   OH2 1916   3.292   3.966   5.750 -0.2625  0.2072 -0.2744
  651TIP3    H1 1917   3.228   4.033   5.773  0.3983 -0.1689  3.0305
  651TIP3    H2 1918   3.293   3.966   5.654 -2.9782  2.2844 -0.4054
  652TIP3   OH2 1919   3.943   6.059   3.881  0.3240  0.1607  0.3070
  652TIP3    H1 1920   3.938   5.969   3.914 -0.4444 -0.3819 -1.1924
  652TIP3    H2 1921   3.943   6.114   3.959  1.1349 -1.1488  1.2643
  653TIP3   OH2 1922   5.428   0.746   1.343  0.1242  0.2306 -0.4679
  653TIP3    H1 1923   5.346   0.758   1.294  2.0833  0.7818 -3.9940
  653TIP3    H2 1924   5.480   0.688   1.288  1.8337 -0.7897  2.0787
  654TIP3   OH2 1925   2.353   5.713   3.240 -0.8563 -0.1527 -0.0424
  654TIP3    H1 1926   2.414   5.643   3.220 -3.9393 -2.6538 -1.6098
  654TIP3    H2 1927   2.363   5.729   3.333  1.5957 -0.9219 -0.1055
  655TIP3   OH2 1928   6.392   2.689   2.375 -0.1749 -0.2854  0.1485
  655TIP3    H1 1929   6.329   2.701   2.447  0.5431 -2.3778  1.2194
  655TIP3    H2 1930   6.440   2.772   2.371 -1.0404  0.3058  1.2742
  656TIP3   OH2 1931   4.656   3.131   4.620 -0.2372  0.3549  0.1443
  656TIP3    H1 1932   4.612   3.109   4.537 -0.7076 -1.6812  0.8857
  656TIP3    H2 1933   4.594   3.188   4.665  0.8590  3.2459 -1.6695
  657TIP3   OH2 1934   1.908   4.939   1.039 -0.6370  0.1605 -0.9936
  657TIP3    H1 1935   1.823   4.982   1.053 -0.2457  0.8017 -0.5488
  657TIP3    H2 1936   1.955   4.998   0.980  0.9677  1.8370  1.7723
  658TIP3   OH2 1937   1.842   4.999   3.517 -0.2211 -0.3622 -0.3694
  658TIP3    H1 1938   1.893   4.983   3.596  0.3807  0.9691 -0.4528
  658TIP3    H2 1939   1.829   5.094   3.516 -0.0790 -0.3344 -1.9499
  659TIP3   OH2 1940   2.321   3.556   0.598  0.0818  0.2450 -0.6376
  659TIP3    H1 1941   2.229   3.575   0.579 -0.2047  0.0084  0.4650
  659TIP3    H2 1942   2.330   3.463   0.580  0.5102  0.5646 -2.2384
  660TIP3   OH2 1943   0.003   3.586   3.951  0.1146  0.0135 -0.0499
  660TIP3    H1 1944   0.088   3.593   3.995  0.5257 -1.6486 -0.5202
  660TIP3    H2 1945  -0.024   3.677   3.938  0.8069  0.5782  2.0158
  661TIP3   OH2 1946   2.427   1.335   1.711 -0.2669  0.3713  0.2347
  661TIP3    H1 1947   2.445   1.385   1.791 -0.0101  0.3101  0.2146
  661TIP3    H2 1948   2.501   1.274   1.703 -0.6430 -0.1048  0.3298
  662TIP3   OH2 1949   4.306   5.949   4.700 -0.5306  0.0676 -0.3838
  662TIP3    H1 1950   4.361   6.028   4.702 -0.9136  0.3208  0.1858
  662TIP3    H2 1951   4.216   5.982   4.697 -0.7162 -0.3407  0.4913
  663TIP3   OH2 1952   5.663   1.423   5.403 -0.1392  0.4284  0.2258
  663TIP3    H1 1953   5.665   1.506   5.451 -0.5367  0.3841  0.3213
  663TIP3    H2 1954   5.749   1.417   5.363 -0.6037  1.5990 -1.0109
  664TIP3   OH2 1955   4.978   2.437   3.196 -0.2151  0.1069  0.6266
  664TIP3    H1 1956   5.036   2.366   3.224 -0.3410  0.1680  1.0602
  664TIP3    H2 1957   4.933   2.402   3.119  0.2970  0.0123  0.3698
  665TIP3   OH2 1958   4.992   4.226   1.686 -0.7152 -0.2478  0.1287
  665TIP3    H1 1959   4.946   4.147   1.715  2.2893 -1.4840  1.8772
  665TIP3    H2 1960   5.046   4.196   1.613  0.2827  0.2182  0.6682
  666TIP3   OH2 1961   6.885   4.274   4.041  0.0838 -0.5243 -0.0539
  666TIP3    H1 1962   6.830   4.352   4.037 -0.1645 -0.6962 -0.0051
  666TIP3    H2 1963   6.937   4.285   4.121  1.0215  0.2317 -0.7383
  667TIP3   OH2 1964   2.738   1.057   1.687 -0.4163  0.3302 -0.2436
  667TIP3    H1 1965   2.824   1.099   1.683  0.0460 -0.5145  0.4482
  667TIP3    H2 1966   2.688   1.098   1.617 -0.1561  2.3858  0.7180
  668TIP3   OH2 1967   4.235   5.776   1.957  0.3975 -0.0461 -0.1822
  668TIP3    H1 1968   4.220   5.682   1.952  0.5480 -0.0180 -1.4701
  668TIP3    H2 1969   4.219   5.808   1.868  0.8616  1.0675  0.1155
  669TIP3   OH2 1970   4.608   6.585   2.542 -0.2070 -0.1277 -0.0475
  669TIP3    H1 1971   4.647   6.526   2.477  1.4213 -0.9067  1.5475
  669TIP3    H2 1972   4.576   6.526   2.610  1.2397  0.7690  1.4722
  670TIP3   OH2 1973   7.114   0.548   2.811 -0.0707 -0.1064 -0.6720
  670TIP3    H1 1974   7.138   0.498   2.889  0.0710 -0.3146 -0.8475
  670TIP3    H2 1975   7.154   0.634   2.824 -1.7521  0.5540  0.4345
  671TIP3   OH2 1976   5.703   5.544   3.317  0.0985  0.1526 -0.3718
  671TIP3    H1 1977   5.682   5.594   3.238 -2.0394  1.9950  1.2225
  671TIP3    H2 1978   5.624   5.550   3.371  0.7380 -2.7845  1.0745
  672TIP3   OH2 1979   3.058   4.726   3.046 -0.2501  0.2236  0.0548
  672TIP3    H1 1980   3.071   4.636   3.017  0.9613  0.2040  0.6014
  672TIP3    H2 1981   3.107   4.732   3.128 -1.3718  1.0275  0.6944
  673TIP3   OH2 1982   5.298   4.064   5.690  0.2744 -0.0156 -0.0667
  673TIP3    H1 1983   5.348   4.146   5.698  0.0909  0.0565  0.3729
  673TIP3    H2 1984   5.348   4.012   5.627  0.2536  0.5407 -0.5561
  674TIP3   OH2 1985   1.522   5.821   3.939  0.1021  0.2740 -0.5337
  674TIP3    H1 1986   1.497   5.739   3.897  2.3372 -0.1170 -1.2073
  674TIP3    H2 1987   1.456   5.884   3.910 -1.3873 -1.1345 -0.3746
  675TIP3   OH2 1988   6.405   2.752   3.923  0.1531 -0.2165  0.0936
  675TIP3    H1 1989   6.494   2.786   3.935  0.1053 -0.1137  0.1532
  675TIP3    H2 1990   6.398   2.737   3.828  0.1851 -0.0918  0.0715
  676TIP3   OH2 1991   6.745   4.630   0.311  0.3514  0.4513  0.6170
  676TIP3    H1 1992   6.756   4.625   0.406 -0.5554 -2.5571  0.6794
  676TIP3    H2 1993   6.681   4.562   0.291 -1.5758  2.7829 -1.9173
  677TIP3   OH2 1994   5.267   2.741   5.467  0.2591 -0.4379  0.2028
  677TIP3    H1 1995   5.293   2.830   5.446  2.2456 -1.2269 -0.9898
  677TIP3    H2 1996   5.339   2.707   5.520 -1.0300 -0.9809  1.6608
  678TIP3   OH2 1997   3.472   5.299   1.819 -0.1935  0.1896 -0.3441
  678TIP3    H1 1998   3.429   5.375   1.778 -0.3325 -0.8280 -2.1804
  678TIP3    H2 1999   3.565   5.313   1.803  0.0010  1.1601  1.4679
  679TIP3   OH2 2000   5.123   2.216   3.285 -0.2868 -0.1201  0.2444
  679TIP3    H1 2001   5.147   2.123   3.278  1.4330  0.3593 -0.8567
  679TIP3    H2 2002   5.170   2.246   3.363 -0.8824 -0.1709  0.6276
  680TIP3   OH2 2003   2.467   4.127   1.387  0.0718 -0.2412  0.3713
  680TIP3    H1 2004   2.533   4.060   1.407  0.4591  0.8742  3.3208
  680TIP3    H2 2005   2.385   4.090   1.419  0.3349  0.6990  2.2908
  681TIP3   OH2 2006   2.529   6.673   5.798 -0.0550  0.1978  0.4808
  681TIP3    H1 2007   2.583   6.601   5.765 -0.6809 -0.3588  0.6431
  681TIP3    H2 2008   2.494   6.640   5.881 -1.3005  0.2230 -0.0268
  682TIP3   OH2 2009   6.553   4.153   1.438 -0.6385 -0.0095 -0.2943
  682TIP3    H1 2010   6.501   4.099   1.378  0.3543 -2.0469  0.5700
  682TIP3    H2 2011   6.508   4.146   1.522 -0.7813  0.9660 -0.2816
  683TIP3   OH2 2012   3.347   6.673   4.643  0.6761 -0.2781  0.2063
  683TIP3    H1 2013   3.395   6.740   4.594  0.3905  0.2367  0.6203
  683TIP3    H2 2014   3.254   6.696   4.631  0.4781 -1.6074 -1.0843
  684TIP3   OH2 2015   5.651   3.551   1.122  0.5014 -0.6905 -0.4929
  684TIP3    H1 2016   5.636   3.459   1.143 -1.2122 -1.1673 -3.2694
  684TIP3    H2 2017   5.695   3.550   1.037  0.4308  1.0521 -0.6049
  685TIP3   OH2 2018   3.230   5.192   4.339  0.1967 -0.8413 -0.1408
  685TIP3    H1 2019   3.259   5.112   4.296 -0.9230 -1.0692 -0.4846
  685TIP3    H2 2020   3.137   5.178   4.358 -0.2913  0.7786 -1.1504
  686TIP3   OH2 2021   1.986   5.691   5.623  0.1963  0.4715 -0.1862
  686TIP3    H1 2022   1.952   5.756   5.684 -0.7950 -0.7697  0.6316
  686TIP3    H2 2023   1.908   5.656   5.579  0.8141  0.6876 -1.5082
  687TIP3   OH2 2024   3.354   4.629   1.693  0.1249  0.2479 -0.0609
  687TIP3    H1 2025   3.379   4.574   1.619 -0.5804 -3.1424  1.9983
  687TIP3    H2 2026   3.296   4.695   1.656  1.0629 -0.3006 -2.7204
  688TIP3   OH2 2027   4.689   0.263   1.511  0.0825  0.0290 -1.0525
  688TIP3    H1 2028   4.736   0.180   1.520 -0.4165 -0.1433  0.1981
  688TIP3    H2 2029   4.597   0.240   1.526 -0.1547  0.6893 -1.4508
  689TIP3   OH2 2030   4.030   3.744   5.117  0.5081  0.1202  0.0665
  689TIP3    H1 2031   3.945   3.777   5.144  1.6679  2.4577  1.0439
  689TIP3    H2 2032   4.014   3.708   5.029 -1.5245  0.1977  0.3556
  690TIP3   OH2 2033   6.000   4.522   3.736 -0.1724 -0.2927 -0.0495
  690TIP3    H1 2034   5.935   4.453   3.746 -0.4197  0.0845  1.0513
  690TIP3    H2 2035   5.972   4.569   3.657 -1.7848  0.4222  0.8965
  691TIP3   OH2 2036   3.341   4.291   3.111  0.7055  0.0489  0.2250
  691TIP3    H1 2037   3.248   4.304   3.124  0.6810 -0.1460  0.2533
  691TIP3    H2 2038   3.357   4.201   3.142  0.2851 -1.2008 -2.8199
  692TIP3   OH2 2039   5.344   4.148   3.383  0.3050 -0.8850  0.4420
  692TIP3    H1 2040   5.341   4.159   3.479 -1.7779  0.3327  0.3117
  692TIP3    H2 2041   5.398   4.221   3.353  1.1937 -1.4259  0.6717
  693TIP3   OH2 2042   6.977   4.552   3.626  0.2366 -0.2322  0.0565
  693TIP3    H1 2043   6.921   4.481   3.594 -0.5301  0.8778 -1.1670
  693TIP3    H2 2044   6.930   4.632   3.604  1.2703  0.6882  1.0365
  694TIP3   OH2 2045   3.733   5.253   0.210  0.8719 -0.3266  0.0851
  694TIP3    H1 2046   3.765   5.191   0.144  0.0129  0.7206 -1.3716
  694TIP3    H2 2047   3.805   5.316   0.219  0.3255  0.4956 -1.1573
  695TIP3   OH2 2048   1.532   4.433   2.499  0.0961 -0.0962 -1.1665
  695TIP3    H1 2049   1.457   4.454   2.442 -2.3417 -2.2383  0.9732
  695TIP3    H2 2050   1.550   4.514   2.546  0.0475  0.8244 -2.6795
  696TIP3   OH2 2051   4.524   0.927   4.034 -0.4369 -0.0380 -0.3533
  696TIP3    H1 2052   4.466   0.994   4.070 -1.8644 -1.2396 -0.3225
  696TIP3    H2 2053   4.544   0.957   3.945 -3.6032 -1.0267 -1.5028
  697TIP3   OH2 2054   4.899   2.445   0.890 -0.1823 -0.3449 -0.3711
  697TIP3    H1 2055   4.924   2.363   0.847  0.3176  1.5336 -4.1001
  697TIP3    H2 2056   4.803   2.445   0.886 -0.2758 -1.4559  1.2459
  698TIP3   OH2 2057   5.117   4.650   3.446  0.0086  0.6016 -0.2298
  698TIP3    H1 2058   5.025   4.641   3.420 -0.3903  1.8795  0.6249
  698TIP3    H2 2059   5.123   4.606   3.531 -0.0771  1.4327  0.2149
  699TIP3   OH2 2060   1.389   3.383   2.825  0.2684 -0.7008 -0.7000
  699TIP3    H1 2061   1.467   3.334   2.851 -0.0324 -0.3582  0.9496
  699TIP3    H2 2062   1.423   3.451   2.767  0.9918 -1.4212 -1.1571
  700TIP3   OH2 2063   3.853   1.690   1.833 -0.9250  0.5310 -0.3764
  700TIP3    H1 2064   3.896   1.605   1.843  2.6337  2.1393 -0.4829
  700TIP3    H2 2065   3.841   1.700   1.739 -2.4414 -0.2758 -0.2956
  701TIP3   OH2 2066   3.606   6.222   2.382 -0.5178  0.0701 -0.6203
  701TIP3    H1 2067   3.626   6.280   2.455 -1.1535  0.6185 -0.8770
  701TIP3    H2 2068   3.510   6.221   2.377 -0.4755  0.7249 -1.9790
  702TIP3   OH2 2069   2.218   6.715   2.423  0.1899 -0.5349 -0.3999
  702TIP3    H1 2070   2.288   6.664   2.462  0.8811 -0.8278 -1.9339
  702TIP3    H2 2071   2.214   6.685   2.332 -0.7506  0.7098 -0.8055
  703TIP3   OH2 2072   0.611   6.438   1.776  0.1955  0.0063  1.1483
  703TIP3    H1 2073   0.676   6.508   1.785  0.5819 -0.0215 -0.8595
  703TIP3    H2 2074   0.527   6.483   1.767  0.0503  0.0805  2.7272
  704TIP3   OH2 2075   4.266   4.836   0.163 -0.4748  0.0681  0.0751
  704TIP3    H1 2076   4.341   4.848   0.220  2.3500 -0.9322 -3.1065
  704TIP3    H2 2077   4.239   4.745   0.177 -0.2923  0.0579  0.3420
  705TIP3   OH2 2078   5.971   2.751   2.380  0.2801 -0.0975  0.1284
  705TIP3    H1 2079   5.913   2.699   2.436  0.0745 -0.1250 -0.1054
  705TIP3    H2 2080   5.985   2.833   2.428  0.0239 -0.0794  0.1707
  706TIP3   OH2 2081   3.038   2.498   1.696 -0.1270 -0.1449 -0.0956
  706TIP3    H1 2082   3.008   2.514   1.786  0.6411  0.0603  0.1369
  706TIP3    H2 2083   3.062   2.406   1.695 -0.8164 -0.3271 -0.3024
  707TIP3   OH2 2084   3.643   3.673   3.801  0.3557 -0.4269  0.2350
  707TIP3    H1 2085   3.613   3.586   3.825  0.6920 -0.8704 -0.8749
  707TIP3    H2 2086   3.566   3.729   3.810 -0.3971 -1.2282 -0.9256
  708TIP3   OH2 2087   0.435   0.883   1.809 -0.2005 -0.0943  0.6992
  708TIP3    H1 2088   0.459   0.949   1.874 -0.9049  1.1764 -0.2986
  708TIP3    H2 2089   0.342   0.868   1.824 -0.3325  0.1023  0.0839
  709TIP3   OH2 2090   6.566   1.276   1.393  0.4574 -0.6641 -0.1966
  709TIP3    H1 2091   6.588   1.205   1.454 -0.5105 -1.9862 -1.3173
  709TIP3    H2 2092   6.506   1.236   1.331 -0.6378  1.3198 -0.5090
  710TIP3   OH2 2093   4.695   5.588   3.930 -0.1815  0.7277  0.1160
  710TIP3    H1 2094   4.650   5.617   4.009 -0.3221 -0.2727  0.4141
  710TIP3    H2 2095   4.625   5.566   3.869 -0.0728  1.4275 -0.2650
  711TIP3   OH2 2096   4.694   5.957   1.952 -0.0000  0.7367 -0.4931
  711TIP3    H1 2097   4.635   5.885   1.930  1.4778 -0.7180  0.0593
  711TIP3    H2 2098   4.757   5.918   2.013  0.4650  2.6864  0.3437
  712TIP3   OH2 2099   1.887   0.031   2.042  0.4137  0.0664  0.0766
  712TIP3    H1 2100   1.853   0.120   2.050 -0.0000 -0.1235  0.5188
  712TIP3    H2 2101   1.966   0.039   1.989 -0.2857  0.5302 -0.9106
  713TIP3   OH2 2102   7.041   4.776   5.118 -0.2649  0.0635 -0.1255
  713TIP3    H1 2103   7.080   4.784   5.205 -1.0492  1.9279  0.1072
  713TIP3    H2 2104   7.030   4.866   5.088 -2.1722 -0.4413 -1.1524
  714TIP3   OH2 2105   1.727   2.116   3.947  0.9376 -0.6126  0.0720
  714TIP3    H1 2106   1.777   2.052   3.998  1.4399 -0.1239  0.2006
  714TIP3    H2 2107   1.697   2.180   4.011  2.4973  0.6127 -0.3596
  715TIP3   OH2 2108   5.088   1.916   1.460  0.0907 -0.1614  0.6225
  715TIP3    H1 2109   5.147   1.988   1.482  0.5320 -0.8941  2.0141
  715TIP3    H2 2110   5.102   1.901   1.367  1.1612  0.5260  0.6476
  716TIP3   OH2 2111   0.757   6.108   5.495 -0.0516  0.0838  0.3652
  716TIP3    H1 2112   0.789   6.070   5.413 -2.2819 -1.2770  0.0602
  716TIP3    H2 2113   0.803   6.059   5.563 -0.6374 -1.1214 -0.0694
  717TIP3   OH2 2114   6.012   3.351   3.909 -0.6440  0.8471  0.2779
  717TIP3    H1 2115   6.094   3.313   3.877 -1.6735 -1.7205  0.4795
  717TIP3    H2 2116   5.967   3.381   3.830 -0.0879  1.0744  0.0417
  718TIP3   OH2 2117   1.258   2.930   1.882 -0.2588  0.2720  0.0141
  718TIP3    H1 2118   1.163   2.941   1.888 -0.1873  0.6429  0.6459
  718TIP3    H2 2119   1.270   2.864   1.815 -1.0043 -0.3196  0.4422
  719TIP3   OH2 2120   6.860   0.808   2.078  0.4366  0.3131 -0.3991
  719TIP3    H1 2121   6.898   0.844   1.998 -0.1456  0.9060 -0.4220
  719TIP3    H2 2122   6.799   0.876   2.108 -0.3451 -0.4590 -0.1867
  720TIP3   OH2 2123   6.742   0.687   0.050  0.3920 -0.1452  0.0733
  720TIP3    H1 2124   6.789   0.733  -0.020 -0.8955 -1.9700 -2.1200
  720TIP3    H2 2125   6.809   0.636   0.094  1.2046  0.9165  0.1114
  721TIP3   OH2 2126   5.083   4.014   5.540 -0.0668 -0.0375  0.6453
  721TIP3    H1 2127   5.159   4.038   5.593  0.8678  0.6811 -0.9278
  721TIP3    H2 2128   5.088   3.919   5.532  1.3987  0.0847 -0.4008
  722TIP3   OH2 2129   4.185   4.117   5.765  0.1957 -0.7799  0.4820
  722TIP3    H1 2130   4.127   4.064   5.710  0.8531 -0.0462 -0.9534
  722TIP3    H2 2131   4.260   4.138   5.709  2.1409 -2.1128  2.4317
  723TIP3   OH2 2132   4.634   2.092   2.271 -0.4756 -0.6820  0.1927
  723TIP3    H1 2133   4.710   2.041   2.242 -1.0619 -0.7564 -1.3329
  723TIP3    H2 2134   4.650   2.180   2.236 -1.6070 -0.9860 -1.1916
  724TIP3   OH2 2135   6.057   6.520   2.931  0.2660  0.4109  0.1333
  724TIP3    H1 2136   6.105   6.447   2.891  0.2611 -0.4493  1.6204
  724TIP3    H2 2137   6.125   6.576   2.968  0.2035  0.1488  0.6525
  725TIP3   OH2 2138   5.437   6.811   5.379 -0.1267 -0.6341  0.2515
  725TIP3    H1 2139   5.373   6.741   5.395  0.1718 -0.9166  0.2055
  725TIP3    H2 2140   5.500   6.773   5.317  0.6049 -0.6649  1.0046
  726TIP3   OH2 2141   0.144   2.343   4.912  0.2025  0.5404  1.0062
  726TIP3    H1 2142   0.174   2.433   4.906 -1.2392  0.9972  0.2729
  726TIP3    H2 2143   0.114   2.334   5.003 -0.7920  1.1905  0.7539
  727TIP3   OH2 2144   5.542   2.627   5.293 -0.1793 -0.1205  0.1527
  727TIP3    H1 2145   5.527   2.659   5.382 -1.0653 -0.3275  0.0880
  727TIP3    H2 2146   5.485   2.549   5.285  0.6121 -0.6708 -0.2741
  728TIP3   OH2 2147   1.950   3.331   4.882  0.6243  0.0810 -0.5557
  728TIP3    H1 2148   1.958   3.392   4.809 -0.4998  0.8819 -0.0585
  728TIP3    H2 2149   1.882   3.370   4.937 -0.2850 -1.7316 -0.3176
  729TIP3   OH2 2150   7.146   4.162   5.804  0.0081 -0.2720  0.6451
  729TIP3    H1 2151   7.068   4.111   5.780 -1.5022  2.0115  0.3431
  729TIP3    H2 2152   7.135   4.179   5.898 -0.0125  0.3216  0.5341
  730TIP3   OH2 2153   4.766   3.316   2.134 -0.5453 -0.3029 -0.4115
  730TIP3    H1 2154   4.675   3.340   2.116 -0.3324  0.0558 -1.0581
  730TIP3    H2 2155   4.793   3.373   2.206 -0.6066  0.1253 -0.7229
  731TIP3   OH2 2156   6.465   4.460   0.743  0.8007  1.1708  0.7896
  731TIP3    H1 2157   6.452   4.403   0.667  3.6659  2.0858 -0.5447
  731TIP3    H2 2158   6.401   4.431   0.807 -0.9871 -0.3982 -1.5634
  732TIP3   OH2 2159   2.479   4.365   4.842  0.0824 -0.2349  0.2299
  732TIP3    H1 2160   2.510   4.275   4.832  3.4152  0.3393  3.0430
  732TIP3    H2 2161   2.519   4.413   4.770  0.7774 -0.5706  0.3827
  733TIP3   OH2 2162   7.095   2.587   5.786  0.2032  0.2643  0.2192
  733TIP3    H1 2163   7.084   2.492   5.795  1.3927  0.1346  0.4501
  733TIP3    H2 2164   7.159   2.597   5.716  1.3017  0.8211  1.2533
  734TIP3   OH2 2165   0.514   2.913   3.972  0.5696 -0.0777 -0.0665
  734TIP3    H1 2166   0.538   2.882   4.060  0.8058 -1.1361 -0.4843
  734TIP3    H2 2167   0.597   2.912   3.924  0.4452  0.5240 -0.2959
  735TIP3   OH2 2168   6.487   2.992   1.888  0.5426  0.0575 -0.0419
  735TIP3    H1 2169   6.403   2.976   1.931 -0.1584  0.0223 -1.3686
  735TIP3    H2 2170   6.552   2.954   1.948 -0.4054 -0.2280  0.8390
  736TIP3   OH2 2171   2.663   4.451   4.074  0.2422 -0.1344  0.9207
  736TIP3    H1 2172   2.667   4.397   3.995  1.8952  1.1137  0.0852
  736TIP3    H2 2173   2.711   4.401   4.140  2.1254  0.4198  0.0403
  737TIP3   OH2 2174   6.084   1.411   3.205 -0.4164  0.1213 -0.6136
  737TIP3    H1 2175   6.048   1.500   3.199 -0.5938  0.0905 -0.1054
  737TIP3    H2 2176   6.138   1.402   3.127 -0.8827  0.4565 -0.9867
  738TIP3   OH2 2177   5.378   1.526   5.189 -0.0726 -0.5513 -0.8119
  738TIP3    H1 2178   5.451   1.588   5.192 -1.0041  0.5558  0.5411
  738TIP3    H2 2179   5.415   1.447   5.149  2.2922 -0.6054  1.2233
  739TIP3   OH2 2180   2.644   2.913   2.934  0.4843 -0.1318  0.5439
  739TIP3    H1 2181   2.731   2.953   2.943  0.2278  0.8603 -1.0699
  739TIP3    H2 2182   2.603   2.961   2.863  0.4147 -3.7299 -2.1343
  740TIP3   OH2 2183   4.144   6.284   1.054 -0.1501 -0.2150 -0.1964
  740TIP3    H1 2184   4.154   6.377   1.031  0.6990 -0.1568  0.3383
  740TIP3    H2 2185   4.233   6.250   1.052 -0.2639 -0.6429  1.1093
  741TIP3   OH2 2186   1.532   2.308   0.050  0.2724 -0.0529 -0.1529
  741TIP3    H1 2187   1.562   2.244  -0.015  0.4333  0.4977 -0.6325
  741TIP3    H2 2188   1.533   2.392   0.003  1.3005  0.5139  0.8373
  742TIP3   OH2 2189   1.163   2.357   4.008  0.0108  0.1605  0.3665
  742TIP3    H1 2190   1.137   2.366   3.916 -0.7259 -1.0775  0.4210
  742TIP3    H2 2191   1.081   2.338   4.054  0.5162 -0.2595  1.1089
  743TIP3   OH2 2192   0.555   2.663   4.562 -0.6765  0.3678 -0.0231
  743TIP3    H1 2193   0.510   2.594   4.514 -1.6538  1.4455 -0.7246
  743TIP3    H2 2194   0.647   2.636   4.562 -0.8586 -0.3367 -1.3360
  744TIP3   OH2 2195   2.652   0.426   5.856 -0.0961 -0.2627  0.1824
  744TIP3    H1 2196   2.565   0.461   5.879  0.6971  0.8463  1.6678
  744TIP3    H2 2197   2.649   0.335   5.884 -0.6320 -0.0993  0.6841
  745TIP3   OH2 2198   3.763   3.743   5.508 -0.6813 -0.0698  0.4910
  745TIP3    H1 2199   3.759   3.785   5.594  0.4858 -2.0088  1.5806
  745TIP3    H2 2200   3.750   3.650   5.527 -1.1255 -0.4605 -1.5418
  746TIP3   OH2 2201   1.831   0.729   4.584 -0.2653  0.1995  0.4452
  746TIP3    H1 2202   1.918   0.767   4.569 -1.2338  1.4487 -3.3375
  746TIP3    H2 2203   1.844   0.666   4.655  3.2094  1.8360  1.5235
  747TIP3   OH2 2204   5.146   5.399   2.923 -0.3401  0.0769 -0.0687
  747TIP3    H1 2205   5.183   5.318   2.956  1.3195  1.5199  1.8579
  747TIP3    H2 2206   5.052   5.392   2.941 -0.0630 -0.9885  1.0587
  748TIP3   OH2 2207   6.545   4.858   3.186 -0.0048  0.4146 -0.4406
  748TIP3    H1 2208   6.462   4.864   3.138  0.5697 -1.2355 -1.7207
  748TIP3    H2 2209   6.542   4.773   3.229 -0.7773  2.0680  3.1793
  749TIP3   OH2 2210   2.477   4.496   3.779  0.7456 -0.2012  0.4522
  749TIP3    H1 2211   2.489   4.401   3.779  0.6381 -0.2593 -1.5041
  749TIP3    H2 2212   2.463   4.519   3.871  1.3881 -1.9873  1.0335
  750TIP3   OH2 2213   6.674   6.672   0.938 -0.3600 -0.4657 -0.4694
  750TIP3    H1 2214   6.644   6.602   0.995  0.9092 -0.9599 -0.3580
  750TIP3    H2 2215   6.691   6.746   0.996  1.1611 -1.0419 -0.1158
  751TIP3   OH2 2216   6.486   0.571   2.575 -0.2088  0.2463 -1.0014
  751TIP3    H1 2217   6.486   0.650   2.629  2.1518 -0.9810  1.0000
  751TIP3    H2 2218   6.574   0.567   2.537 -0.1485 -1.5609 -0.7925
  752TIP3   OH2 2219   2.507   2.690   2.793  0.1771 -0.0785 -0.7620
  752TIP3    H1 2220   2.426   2.735   2.818 -0.0324 -0.2540 -1.1153
  752TIP3    H2 2221   2.575   2.757   2.802 -0.1306  0.3154 -1.2716
  753TIP3   OH2 2222   5.042   5.092   4.220  0.0507  0.4653 -0.0143
  753TIP3    H1 2223   5.023   5.097   4.313  1.5092  1.6205  0.2578
  753TIP3    H2 2224   5.032   5.181   4.188  1.2426  0.4083 -0.5923
  754TIP3   OH2 2225   4.524   0.904   5.395  0.1901  0.3569  0.1657
  754TIP3    H1 2226   4.521   0.896   5.491  1.5260  0.9596  0.2834
  754TIP3    H2 2227   4.438   0.872   5.366  0.5440 -2.0110  1.3980
  755TIP3   OH2 2228   2.908   4.728   1.137 -0.3768 -0.6382 -0.4006
  755TIP3    H1 2229   2.814   4.712   1.144 -1.3372  2.0842 -3.9810
  755TIP3    H2 2230   2.944   4.646   1.105 -1.8225 -1.2081 -0.6459
  756TIP3   OH2 2231   5.251   3.602   1.822  0.4604 -0.3103 -0.0159
  756TIP3    H1 2232   5.230   3.509   1.824 -1.2815 -0.1163 -3.3026
  756TIP3    H2 2233   5.169   3.645   1.846  0.4276  0.3731 -1.3041
  757TIP3   OH2 2234   2.985   3.437   4.617  0.2697  0.3348  0.4806
  757TIP3    H1 2235   2.986   3.448   4.522  2.9943  1.5819  0.5599
  757TIP3    H2 2236   2.989   3.526   4.651 -0.5357 -0.1060  1.8014
  758TIP3   OH2 2237   0.554   1.356   4.069  0.2575 -0.1652 -0.0387
  758TIP3    H1 2238   0.587   1.378   4.157 -0.8465  0.8748  0.1383
  758TIP3    H2 2239   0.617   1.293   4.035 -0.3445 -2.1216  2.2588
  759TIP3   OH2 2240   1.139   5.807   4.026 -0.3623 -0.4893 -0.1032
  759TIP3    H1 2241   1.056   5.761   4.013  0.3920 -1.9398  0.0105
  759TIP3    H2 2242   1.172   5.774   4.110 -0.0027  0.6132  0.2068
  760TIP3   OH2 2243   6.922   2.497   2.182  0.5359 -0.1214  0.3629
  760TIP3    H1 2244   6.848   2.439   2.164  0.1208  0.5882 -0.2498
  760TIP3    H2 2245   6.931   2.550   2.103  1.3599  0.1747  0.6396
  761TIP3   OH2 2246   5.488   2.697   3.034 -0.5152  0.1129 -0.7969
  761TIP3    H1 2247   5.445   2.662   3.112  0.1277  1.4493  0.2173
  761TIP3    H2 2248   5.580   2.705   3.060 -0.1931  0.0727 -1.8917
  762TIP3   OH2 2249   4.538   3.351   1.456 -0.9465 -0.0405  0.3556
  762TIP3    H1 2250   4.473   3.422   1.453  0.5751  1.4581  0.9489
  762TIP3    H2 2251   4.605   3.378   1.394  0.7743  0.2625  2.2460
  763TIP3   OH2 2252   2.437   3.326   1.596  0.6291  0.3423 -0.4725
  763TIP3    H1 2253   2.504   3.263   1.570  0.8436  0.3912 -0.0444
  763TIP3    H2 2254   2.359   3.299   1.548  0.4575 -0.8404  0.4467
  764TIP3   OH2 2255   2.596   4.377   3.442  0.7738  0.5198 -0.2263
  764TIP3    H1 2256   2.665   4.318   3.412  0.1430  0.2367 -1.1782
  764TIP3    H2 2257   2.516   4.339   3.406  0.2723  1.5553 -0.2320
  765TIP3   OH2 2258   4.324   0.439   0.031  0.6932  0.3013 -0.1268
  765TIP3    H1 2259   4.327   0.411  -0.061 -1.8812 -0.2243 -0.1140
  765TIP3    H2 2260   4.329   0.357   0.081  0.9365  0.5049  0.1890
  766TIP3   OH2 2261   6.774   5.054   4.243  0.2107  0.4064  0.3763
  766TIP3    H1 2262   6.679   5.044   4.241  0.2890 -0.7787  1.5086
  766TIP3    H2 2263   6.788   5.149   4.251 -0.9456  0.4453  2.5639
  767TIP3   OH2 2264   1.193   4.837   4.928 -0.1261  0.0480  1.1584
  767TIP3    H1 2265   1.159   4.860   4.842  0.7096  1.7397  1.2419
  767TIP3    H2 2266   1.170   4.744   4.939 -0.7097 -0.0588 -0.6372
  768TIP3   OH2 2267   2.553   2.617   3.692  0.1702  0.5771 -0.2627
  768TIP3    H1 2268   2.538   2.625   3.598 -0.3498  0.8571 -0.1585
  768TIP3    H2 2269   2.567   2.707   3.722  1.9599  0.3556 -0.3294
  769TIP3   OH2 2270   6.343   4.914   2.180 -0.1008  0.5921  0.2722
  769TIP3    H1 2271   6.408   4.979   2.208  1.6819 -0.5700 -0.9920
  769TIP3    H2 2272   6.325   4.863   2.259  2.3063 -0.4952  0.2274
  770TIP3   OH2 2273   6.826   5.354   5.248  0.1258  0.1162  0.3885
  770TIP3    H1 2274   6.749   5.400   5.283 -0.3644 -0.3501 -0.0500
  770TIP3    H2 2275   6.801   5.261   5.251  0.6012 -0.0256  0.0673
  771TIP3   OH2 2276   5.489   3.420   5.021  0.2312  0.1349 -0.0191
  771TIP3    H1 2277   5.466   3.332   4.993  0.3563 -0.2837  1.1544
  771TIP3    H2 2278   5.449   3.477   4.955  0.1615 -0.7815 -0.7959
  772TIP3   OH2 2279   4.312   0.089   3.925 -0.1483 -0.2059  0.4170
  772TIP3    H1 2280   4.291   0.098   4.018 -0.4816  0.1018  0.3172
  772TIP3    H2 2281   4.228   0.071   3.883 -0.3894  1.8299 -0.0957
  773TIP3   OH2 2282   3.311   6.061   3.351 -0.4623 -0.1990  0.2493
  773TIP3    H1 2283   3.331   6.146   3.391  0.6144  0.7522 -2.0885
  773TIP3    H2 2284   3.224   6.072   3.312 -0.3668 -0.1862  0.0357
  774TIP3   OH2 2285   6.511   4.149   5.409  0.1531 -0.1477 -0.0386
  774TIP3    H1 2286   6.606   4.137   5.408  0.3638  1.3271 -0.1655
  774TIP3    H2 2287   6.488   4.161   5.317  0.0513  0.8165  0.1028
  775TIP3   OH2 2288   5.673   5.188   5.178 -0.2601 -0.2688 -0.1494
  775TIP3    H1 2289   5.601   5.144   5.133 -0.3883  0.3179 -0.5261
  775TIP3    H2 2290   5.752   5.141   5.149 -0.2897  0.3922 -1.3723
  776TIP3   OH2 2291   4.048   4.519   0.545 -0.0772 -0.1723 -0.0819
  776TIP3    H1 2292   3.984   4.568   0.597  0.6763 -0.2920  0.9890
  776TIP3    H2 2293   4.018   4.529   0.455  0.5376  3.0369 -0.0560
  777TIP3   OH2 2294   3.538   5.930   2.765 -0.0975 -0.2655 -0.2149
  777TIP3    H1 2295   3.501   5.972   2.843  1.5763  2.2881 -0.6536
  777TIP3    H2 2296   3.600   5.995   2.730 -0.4058 -1.4945 -3.4069
  778TIP3   OH2 2297   2.930   0.791   0.827 -0.3634  0.2583 -0.8846
  778TIP3    H1 2298   2.964   0.818   0.741  1.0141 -0.7676 -0.7070
  778TIP3    H2 2299   2.838   0.768   0.810  0.3534 -1.7191 -2.5428
  779TIP3   OH2 2300   3.852   1.960   1.016  0.1795  0.2534 -0.0980
  779TIP3    H1 2301   3.767   1.987   1.052 -0.7993 -0.1346 -2.0197
  779TIP3    H2 2302   3.838   1.871   0.985  1.5956 -0.1878  0.4393
  780TIP3   OH2 2303   3.020   4.875   4.914 -0.3969 -0.1524 -0.0501
  780TIP3    H1 2304   2.933   4.879   4.954 -1.0917  2.1324 -1.5638
  780TIP3    H2 2305   3.060   4.959   4.934  0.6787 -0.3888 -1.0552
  781TIP3   OH2 2306   0.653   6.147   3.750  0.0360  0.0508  0.6325
  781TIP3    H1 2307   0.747   6.143   3.733 -0.1445  1.7280 -1.1335
  781TIP3    H2 2308   0.621   6.059   3.730  0.8441  0.2226 -1.7323
  782TIP3   OH2 2309   3.045   1.327   0.082  0.0178 -0.2219  0.1586
  782TIP3    H1 2310   2.994   1.407   0.093  0.7525  0.3262 -0.3298
  782TIP3    H2 2311   3.068   1.301   0.171  1.7126  1.4057  0.2638
  783TIP3   OH2 2312   2.385   2.676   0.933 -0.3592 -0.0212  0.2449
  783TIP3    H1 2313   2.392   2.770   0.918 -1.4257 -0.2182 -2.0308
  783TIP3    H2 2314   2.421   2.662   1.020 -0.8770  2.5794  0.9495
  784TIP3   OH2 2315   1.971   3.684   4.209  0.0974  0.2737 -0.1501
  784TIP3    H1 2316   1.972   3.680   4.114 -1.3286  1.1328 -0.2287
  784TIP3    H2 2317   2.016   3.766   4.230 -2.9481  2.1189 -0.3219
  785TIP3   OH2 2318   6.092   2.765   1.839  0.1503  0.9452  0.6068
  785TIP3    H1 2319   6.133   2.792   1.921 -1.7652  0.5038  1.7684
  785TIP3    H2 2320   6.026   2.700   1.864 -0.0246  0.2735 -1.3660
  786TIP3   OH2 2321   0.717   1.622   4.204 -0.1071 -0.1822  0.4394
  786TIP3    H1 2322   0.653   1.687   4.176  1.9600  2.8554  2.1788
  786TIP3    H2 2323   0.667   1.563   4.261 -1.8816  0.4379 -0.3956
  787TIP3   OH2 2324   5.927   2.623   3.065 -0.0319 -0.2727 -0.0950
  787TIP3    H1 2325   5.898   2.532   3.075  0.1975 -0.3808 -0.3998
  787TIP3    H2 2326   5.991   2.620   2.994  0.6462 -0.0236  0.4971
  788TIP3   OH2 2327   1.053   4.969   4.208  0.6122 -0.2465  0.2867
  788TIP3    H1 2328   1.134   5.014   4.231 -0.0093  1.1348 -0.1711
  788TIP3    H2 2329   1.060   4.954   4.114  0.2907 -0.0614  0.2351
  789TIP3   OH2 2330   6.017   4.338   1.643 -1.1403 -0.8874 -0.2266
  789TIP3    H1 2331   5.975   4.410   1.597  0.6439 -0.0498 -0.6030
  789TIP3    H2 2332   6.064   4.379   1.715 -0.8752 -1.7872  0.1293
  790TIP3   OH2 2333   1.363   6.770   4.476  0.1286  0.1351 -0.2335
  790TIP3    H1 2334   1.398   6.701   4.420  1.4164  0.6613 -0.1065
  790TIP3    H2 2335   1.417   6.847   4.457 -1.2783  1.1356 -0.3848
  791TIP3   OH2 2336   1.029   0.359   3.866  0.6019 -0.3305  0.5712
  791TIP3    H1 2337   0.997   0.275   3.899 -1.3594 -0.8151 -2.2447
  791TIP3    H2 2338   0.951   0.405   3.835  1.8744  1.6468  0.0784
  792TIP3   OH2 2339   0.919   3.809   1.651 -0.2684  0.4979 -0.1172
  792TIP3    H1 2340   0.841   3.754   1.649  0.1325 -0.0784 -0.3393
  792TIP3    H2 2341   0.983   3.762   1.597 -0.3351  1.8317 -1.4327
  793TIP3   OH2 2342   2.340   0.056   3.723 -1.0248  0.2042  0.4996
  793TIP3    H1 2343   2.316   0.082   3.635  1.5038 -1.0886 -0.6900
  793TIP3    H2 2344   2.286  -0.022   3.741 -0.4544 -0.4624 -0.5819
  794TIP3   OH2 2345   2.497   4.239   3.702 -0.7384 -0.0869  0.0626
  794TIP3    H1 2346   2.530   4.278   3.621 -0.9633  1.8041  0.8334
  794TIP3    H2 2347   2.436   4.171   3.672 -0.1408 -0.0414 -1.3370
  795TIP3   OH2 2348   2.256   1.846   5.167  0.3577 -0.2202 -0.0956
  795TIP3    H1 2349   2.236   1.880   5.080 -1.4219  0.1712  0.4148
  795TIP3    H2 2350   2.170   1.836   5.209  1.1736 -0.0772  1.7274
  796TIP3   OH2 2351   7.035   6.375   3.685  0.4605 -0.2753 -1.6602
  796TIP3    H1 2352   6.957   6.334   3.722 -0.2100  1.5531 -0.9600
  796TIP3    H2 2353   7.090   6.301   3.659 -0.5543 -1.6259 -0.1832
  797TIP3   OH2 2354   6.474   4.585   1.725 -0.3681 -0.1465 -0.0712
  797TIP3    H1 2355   6.381   4.583   1.749 -0.3183 -0.0603  0.1273
  797TIP3    H2 2356   6.514   4.646   1.788 -0.1895 -0.1314 -0.1990
  798TIP3   OH2 2357   0.529   3.466   1.733 -0.3217  0.3497 -0.4356
  798TIP3    H1 2358   0.580   3.514   1.798  0.7511 -0.0192 -0.9923
  798TIP3    H2 2359   0.492   3.392   1.781  1.9816 -0.9874 -0.6035
  799TIP3   OH2 2360   5.931   5.885   2.650  1.0094 -0.0753  0.2195
  799TIP3    H1 2361   5.970   5.826   2.584  2.4395  0.3363  0.6485
  799TIP3    H2 2362   5.915   5.966   2.602 -0.3391 -0.5688 -0.2102
  800TIP3   OH2 2363   3.362   6.216   4.018  0.0133  0.5742 -0.6878
  800TIP3    H1 2364   3.316   6.133   4.012  0.1343  0.4240  0.2431
  800TIP3    H2 2365   3.427   6.213   3.948 -0.8621  0.4642 -1.5176
  801TIP3   OH2 2366   6.463   4.361   3.491 -0.2189 -0.1018  0.4655
  801TIP3    H1 2367   6.440   4.346   3.583  0.1129  0.6809  0.6842
  801TIP3    H2 2368   6.530   4.295   3.473 -0.6926 -0.6317  0.6130
  802TIP3   OH2 2369   5.482   5.426   2.285  0.2065  0.5354  0.2168
  802TIP3    H1 2370   5.569   5.443   2.248  0.2566  0.1597  0.1574
  802TIP3    H2 2371   5.444   5.359   2.227 -0.4172  1.2318 -0.1957
  803TIP3   OH2 2372   5.739   4.540   4.811 -0.3423 -0.0236  0.2066
  803TIP3    H1 2373   5.728   4.596   4.888  0.2138  0.2711  0.0824
  803TIP3    H2 2374   5.802   4.587   4.757  0.3045 -0.8729  0.1957
  804TIP3   OH2 2375   6.975   4.515   5.315 -0.0137  0.6905 -0.0763
  804TIP3    H1 2376   6.912   4.468   5.369  0.1147 -1.9556 -2.0459
  804TIP3    H2 2377   6.923   4.578   5.267 -0.9435 -0.3882 -0.5251
  805TIP3   OH2 2378   3.504   2.546   3.007  0.0725 -0.1450  0.5016
  805TIP3    H1 2379   3.586   2.556   2.958  1.9267 -0.4814  3.2561
  805TIP3    H2 2380   3.471   2.460   2.981 -0.4312  0.7005 -1.9427
  806TIP3   OH2 2381   2.142   0.949   4.304 -0.0856  0.0372 -0.5788
  806TIP3    H1 2382   2.194   0.869   4.298 -0.4395 -0.4637  1.8963
  806TIP3    H2 2383   2.051   0.918   4.301 -0.2328  0.2049  1.3149
  807TIP3   OH2 2384   7.038   4.076   3.002 -0.3615  0.0492 -0.3976
  807TIP3    H1 2385   7.072   4.166   3.010  2.0650 -0.9632  2.7231
  807TIP3    H2 2386   6.966   4.072   3.066  0.3969 -0.5296  0.4409
  808TIP3   OH2 2387   0.626   0.736   3.785  0.3064 -0.0796  0.1663
  808TIP3    H1 2388   0.569   0.712   3.712  0.0028 -1.7699  0.9247
  808TIP3    H2 2389   0.642   0.830   3.773 -2.2852  0.3706 -0.2990
  809TIP3   OH2 2390   4.145   3.327   0.569 -0.0454 -0.1093  0.0097
  809TIP3    H1 2391   4.158   3.272   0.492  0.1169 -0.4925  0.3078
  809TIP3    H2 2392   4.215   3.393   0.564  0.3550 -0.5166  0.1638
  810TIP3   OH2 2393   1.898   2.120   0.656  0.0677  0.6316  0.1646
  810TIP3    H1 2394   1.984   2.161   0.668 -0.1508  0.9850  0.5776
  810TIP3    H2 2395   1.904   2.076   0.571  0.4561  1.1619 -0.0913
  811TIP3   OH2 2396   5.449   2.910   2.581 -0.5196 -0.1822  0.3455
  811TIP3    H1 2397   5.507   2.846   2.623  0.7504  0.3041 -0.6186
  811TIP3    H2 2398   5.468   2.903   2.488 -0.9445  1.0404  0.1446
  812TIP3   OH2 2399   6.275   6.350   1.117  0.4498  0.1785  0.6947
  812TIP3    H1 2400   6.275   6.285   1.047  2.6848  1.6710 -0.8619
  812TIP3    H2 2401   6.327   6.311   1.187  1.7996  0.2327 -0.2404
  813TIP3   OH2 2402   2.592   1.611   3.398  0.7047 -0.3879  0.2584
  813TIP3    H1 2403   2.530   1.683   3.406  0.0033 -0.8519 -0.7368
  813TIP3    H2 2404   2.547   1.536   3.436 -0.6732 -1.4486 -3.0776
  814TIP3   OH2 2405   3.274   2.580   2.315  0.2065  0.0976  0.1381
  814TIP3    H1 2406   3.237   2.556   2.230 -1.4638  0.4880  0.7348
  814TIP3    H2 2407   3.358   2.620   2.293  0.5102 -1.1627 -1.2205
  815TIP3   OH2 2408   2.809   0.137   2.446 -0.4908 -0.4375  0.2018
  815TIP3    H1 2409   2.863   0.072   2.492 -0.2053 -0.2824  0.0846
  815TIP3    H2 2410   2.867   0.212   2.435 -0.9310 -0.0292  0.6530
  816TIP3   OH2 2411   0.752   2.982   3.406 -0.4175  0.1517 -0.6424
  816TIP3    H1 2412   0.813   3.039   3.453 -0.1540 -0.3087 -0.4088
  816TIP3    H2 2413   0.669   3.029   3.407 -0.4012  0.1797  0.2496
  817TIP3   OH2 2414   2.474   0.874   0.220 -0.4110 -0.4417 -0.3666
  817TIP3    H1 2415   2.401   0.816   0.242 -1.3195  1.4621  2.0890
  817TIP3    H2 2416   2.432   0.955   0.189  0.6413  0.3862  0.2835
  818TIP3   OH2 2417   4.428   1.315   0.571 -0.6054 -0.3374 -0.0458
  818TIP3    H1 2418   4.482   1.285   0.498  0.0337  0.2519  0.1685
  818TIP3    H2 2419   4.382   1.391   0.537 -1.7626 -1.1724 -0.4038
  819TIP3   OH2 2420   1.180   5.511   3.831  0.2359 -0.1169  0.0137
  819TIP3    H1 2421   1.238   5.587   3.818  2.2451 -1.2843  1.5731
  819TIP3    H2 2422   1.211   5.446   3.769 -0.0379 -0.4410  0.2126
  820TIP3   OH2 2423   4.627   6.393   1.264 -0.2295 -0.7096 -0.1471
  820TIP3    H1 2424   4.718   6.395   1.293  0.0358 -1.9387 -0.7947
  820TIP3    H2 2425   4.605   6.484   1.247  0.2595 -0.1878  1.8435
  821TIP3   OH2 2426   1.560   2.899   2.324 -0.0333 -0.0304  0.2581
  821TIP3    H1 2427   1.503   2.846   2.269  1.1648  0.1738 -1.2325
  821TIP3    H2 2428   1.509   2.977   2.344 -1.1846 -0.9617  1.0641
  822TIP3   OH2 2429   6.909   5.866   3.867  0.2617  0.2141  0.2077
  822TIP3    H1 2430   6.994   5.903   3.890 -0.1767  2.0952 -0.9198
  822TIP3    H2 2431   6.925   5.812   3.790  0.4364  0.6526 -0.0676
  823TIP3   OH2 2432   2.246   3.452   1.769  0.4566  0.6645 -0.0982
  823TIP3    H1 2433   2.288   3.448   1.855  0.8384  1.1958 -0.2640
  823TIP3    H2 2434   2.294   3.390   1.715  1.4579  1.7404 -0.4723
  824TIP3   OH2 2435   2.916   0.285   4.785  0.2236 -0.1636 -0.8095
  824TIP3    H1 2436   2.834   0.265   4.831  0.6058 -1.2539 -0.5622
  824TIP3    H2 2437   2.981   0.227   4.825  1.1934  0.8962 -0.7965
  825TIP3   OH2 2438   4.734   5.311   4.256  0.0803  0.7013  0.5148
  825TIP3    H1 2439   4.676   5.350   4.321  2.6624  1.0146  2.7836
  825TIP3    H2 2440   4.810   5.369   4.253  1.6964 -1.3150  0.0328
  826TIP3   OH2 2441   5.438   0.830   2.574  0.0468 -0.1630  0.2679
  826TIP3    H1 2442   5.480   0.914   2.554 -0.6042 -0.2049 -1.4186
  826TIP3    H2 2443   5.428   0.831   2.669  1.0966  1.1643  0.4024
  827TIP3   OH2 2444   7.146   3.214   1.908  0.5239  0.6245 -0.1418
  827TIP3    H1 2445   7.114   3.210   1.817 -0.1903 -1.6683  0.1274
  827TIP3    H2 2446   7.116   3.298   1.941  0.1518  1.1825 -1.8195
  828TIP3   OH2 2447   6.464   2.721   5.474 -0.0692  0.6743 -0.0433
  828TIP3    H1 2448   6.539   2.695   5.527 -0.4479  0.8919  0.6185
  828TIP3    H2 2449   6.465   2.661   5.399 -0.5480 -0.8407  1.1041
  829TIP3   OH2 2450   5.671   4.525   5.262  0.2261 -0.5064 -0.2352
  829TIP3    H1 2451   5.686   4.441   5.305  1.3799 -0.7725 -1.1169
  829TIP3    H2 2452   5.744   4.580   5.290  0.6895 -0.5073 -1.4149
  830TIP3   OH2 2453   1.350   2.459   0.242  0.0512  0.2992  0.3655
  830TIP3    H1 2454   1.408   2.401   0.192  0.3242  1.1161 -0.2862
  830TIP3    H2 2455   1.390   2.464   0.329  0.8714  0.7138 -0.0249
  831TIP3   OH2 2456   0.092   1.296   2.954 -0.2723 -0.1288  0.0443
  831TIP3    H1 2457   0.086   1.272   3.046 -0.5293  0.0039  0.0634
  831TIP3    H2 2458   0.077   1.391   2.953 -0.6023 -0.1807 -0.1654
  832TIP3   OH2 2459   4.210   5.882   2.736  0.4281 -0.1433  0.0464
  832TIP3    H1 2460   4.289   5.872   2.684  0.7638  0.2276  0.4704
  832TIP3    H2 2461   4.175   5.968   2.711 -0.7451 -0.9818 -1.3266
  833TIP3   OH2 2462   4.014   0.274   5.576  0.4415 -0.4590 -0.0235
  833TIP3    H1 2463   4.078   0.310   5.515  0.7410 -0.3880  0.3213
  833TIP3    H2 2464   3.989   0.190   5.538 -0.0468 -0.0144 -0.6853
  834TIP3   OH2 2465   1.702   3.199   1.148  0.3861  0.0416  0.1183
  834TIP3    H1 2466   1.643   3.127   1.126  0.3389  0.0122  0.3420
  834TIP3    H2 2467   1.724   3.185   1.240 -0.5111  0.9362  0.4821
  835TIP3   OH2 2468   1.521   1.342   2.120  0.7034  0.0894  0.5341
  835TIP3    H1 2469   1.518   1.426   2.167 -2.0737 -0.6060  1.7551
  835TIP3    H2 2470   1.579   1.287   2.174 -1.0642 -0.1436  2.3291
  836TIP3   OH2 2471   5.881   2.476   0.559 -0.4709 -0.0231 -0.4252
  836TIP3    H1 2472   5.867   2.388   0.525  0.0502 -0.7543  1.1401
  836TIP3    H2 2473   5.809   2.528   0.523 -0.7912 -1.0840 -1.3625
  837TIP3   OH2 2474   7.196   4.489   0.044  0.2299 -0.4505  0.4011
  837TIP3    H1 2475   7.251   4.549  -0.007  0.6897  0.0384  1.4361
  837TIP3    H2 2476   7.112   4.534   0.052 -0.0653 -0.8310 -0.4851
  838TIP3   OH2 2477   6.923   2.917   0.533 -0.2936 -0.4342 -0.2135
  838TIP3    H1 2478   6.897   2.976   0.603  1.0189 -2.4519  2.1285
  838TIP3    H2 2479   6.999   2.959   0.493  0.1535 -0.1423  0.9023
  839TIP3   OH2 2480   0.327   5.112   3.152  0.3063 -0.1166  0.0479
  839TIP3    H1 2481   0.261   5.043   3.150 -0.1806  0.3522 -0.3652
  839TIP3    H2 2482   0.409   5.068   3.128 -0.0928 -0.4537 -0.7159
  840TIP3   OH2 2483   5.389   2.606   4.251 -0.4322  0.0170 -0.1217
  840TIP3    H1 2484   5.447   2.607   4.326 -2.2403  0.8556  1.3473
  840TIP3    H2 2485   5.304   2.579   4.287 -1.2802  0.1499 -1.9211
  841TIP3   OH2 2486   2.546   5.088   5.681  0.6226 -0.0846  1.0329
  841TIP3    H1 2487   2.604   5.023   5.721  0.2301 -0.8731  0.3590
  841TIP3    H2 2488   2.551   5.070   5.587 -1.3707 -0.7676  1.0142
  842TIP3   OH2 2489   4.835   4.865   2.908  0.1391 -0.4851  0.3327
  842TIP3    H1 2490   4.822   4.779   2.947 -0.1485 -0.2195  0.8224
  842TIP3    H2 2491   4.924   4.890   2.934  0.3569 -0.7822 -0.1065
  843TIP3   OH2 2492   1.644   4.124   0.156 -0.2495 -0.4302 -0.3797
  843TIP3    H1 2493   1.611   4.151   0.070 -0.0337  0.2135 -0.2676
  843TIP3    H2 2494   1.644   4.029   0.153  1.2051 -0.4263 -1.6418
  844TIP3   OH2 2495   6.686   5.787   0.214  0.9788  0.1300 -0.2804
  844TIP3    H1 2496   6.613   5.783   0.152  0.7928 -1.7154 -0.0230
  844TIP3    H2 2497   6.727   5.701   0.207  2.2250  0.6199  0.6716
  845TIP3   OH2 2498   3.033   4.127   5.174 -0.1289 -0.1691  0.2997
  845TIP3    H1 2499   3.094   4.122   5.101 -0.4580 -2.8782  0.0869
  845TIP3    H2 2500   3.073   4.073   5.242  0.2941  2.5007  2.3155
  846TIP3   OH2 2501   0.059   0.879   3.473  0.4318  0.1046  0.6538
  846TIP3    H1 2502   0.019   0.834   3.547 -0.2831 -0.3478  0.0072
  846TIP3    H2 2503   0.144   0.837   3.462  1.1289  1.0668  2.0334
  847TIP3   OH2 2504   6.258   5.935   4.865  0.2244  0.1271 -0.0713
  847TIP3    H1 2505   6.323   5.982   4.917 -0.3493  0.3938  0.4148
  847TIP3    H2 2506   6.256   5.846   4.902 -2.7714  1.2259  2.8871
  848TIP3   OH2 2507   0.570   0.467   1.521 -0.5352  0.0081  0.1634
  848TIP3    H1 2508   0.504   0.530   1.491  0.5905  1.2066  0.1240
  848TIP3    H2 2509   0.589   0.494   1.611  2.2161  1.7429 -0.8384
  849TIP3   OH2 2510   4.518   3.533   2.544  0.2955  0.0544  0.1555
  849TIP3    H1 2511   4.585   3.497   2.603  1.5155  0.9951 -0.6028
  849TIP3    H2 2512   4.470   3.456   2.514 -0.2903 -0.4628  2.2330
  850TIP3   OH2 2513   0.091   0.891   1.381  0.3891  0.1559  0.3436
  850TIP3    H1 2514   0.007   0.868   1.421  0.9156  0.8658  1.9229
  850TIP3    H2 2515   0.119   0.971   1.426  2.3022 -0.5077  0.4302
  851TIP3   OH2 2516   4.890   5.617   0.145 -0.3311  0.0604 -0.0618
  851TIP3    H1 2517   4.940   5.666   0.080 -0.9766  0.3852 -0.3236
  851TIP3    H2 2518   4.880   5.677   0.219  0.1457 -0.2022  0.2163
  852TIP3   OH2 2519   6.642   4.518   3.196  0.0919 -0.3493  0.1034
  852TIP3    H1 2520   6.628   4.423   3.202  3.3951 -0.8858  2.5152
  852TIP3    H2 2521   6.596   4.554   3.273 -1.1080  0.0545 -0.7754
  853TIP3   OH2 2522   1.366   3.548   5.744 -0.4182 -0.2917 -0.1715
  853TIP3    H1 2523   1.451   3.546   5.789 -0.6032 -0.3326  0.1789
  853TIP3    H2 2524   1.371   3.474   5.683  0.5189  0.8247 -1.5044
  854TIP3   OH2 2525   7.165   1.520   3.954 -0.1620  0.6161 -0.2900
  854TIP3    H1 2526   7.226   1.455   3.918 -1.4302  0.1036 -1.6035
  854TIP3    H2 2527   7.174   1.596   3.896  0.6593  1.3192  0.7118
  855TIP3   OH2 2528   3.265   1.635   2.423  0.2653  0.0968 -0.0252
  855TIP3    H1 2529   3.243   1.699   2.492 -1.8488 -1.3245  0.7149
  855TIP3    H2 2530   3.318   1.685   2.361 -0.5877  2.3484  0.9380
  856TIP3   OH2 2531   2.769   1.389   4.908  0.8908 -0.3191 -0.0307
  856TIP3    H1 2532   2.831   1.410   4.837  1.6122 -1.1621  0.3368
  856TIP3    H2 2533   2.772   1.466   4.965  0.8716  0.0521 -0.5243
  857TIP3   OH2 2534   6.097   5.455   1.426 -0.6661 -0.5040 -0.4072
  857TIP3    H1 2535   6.129   5.523   1.367 -1.3408 -1.0432 -1.4138
  857TIP3    H2 2536   6.146   5.376   1.402 -0.3867 -0.5513  0.2831
  858TIP3   OH2 2537   4.457   4.517   2.406  0.4275 -0.0441 -0.4667
  858TIP3    H1 2538   4.482   4.570   2.330  1.3754 -0.0506 -0.1735
  858TIP3    H2 2539   4.416   4.439   2.369  1.7364 -0.4890 -1.0225
  859TIP3   OH2 2540   0.312   6.011   4.311  0.3246  0.1048  0.2422
  859TIP3    H1 2541   0.263   5.929   4.304 -0.6083  0.7663 -1.3362
  859TIP3    H2 2542   0.403   5.983   4.322 -0.0625 -1.1279  0.5477
  860TIP3   OH2 2543   4.477   3.743   5.022  0.1236  0.0578 -0.3323
  860TIP3    H1 2544   4.500   3.830   5.056  0.8721  0.2807 -1.3690
  860TIP3    H2 2545   4.458   3.758   4.929 -0.0823 -0.8327 -0.4417
  861TIP3   OH2 2546   5.386   5.388   1.626  0.1539 -0.1062  0.3873
  861TIP3    H1 2547   5.440   5.337   1.565 -0.7563 -1.0994  0.3970
  861TIP3    H2 2548   5.396   5.478   1.596 -1.8143 -0.7251 -2.5525
  862TIP3   OH2 2549   4.645   4.344   4.321 -0.3073  0.1041 -0.5092
  862TIP3    H1 2550   4.558   4.305   4.327 -0.5785  0.5924 -1.1293
  862TIP3    H2 2551   4.703   4.281   4.364 -1.0931  0.2185  0.7950
  863TIP3   OH2 2552   4.860   5.785   0.396 -0.0171  0.3024  0.0148
  863TIP3    H1 2553   4.954   5.796   0.409  0.2979 -0.3841 -1.4262
  863TIP3    H2 2554   4.822   5.804   0.481  1.5481 -0.8809  1.0480
  864TIP3   OH2 2555   5.252   2.558   2.112  0.5906 -0.2739  0.3906
  864TIP3    H1 2556   5.157   2.570   2.101  0.5719 -2.3633 -3.6416
  864TIP3    H2 2557   5.262   2.463   2.117  2.5324 -0.1449 -0.4604
  865TIP3   OH2 2558   3.655   0.785   1.830  0.0596  0.4210  0.4217
  865TIP3    H1 2559   3.747   0.777   1.804 -0.4449 -0.0948 -1.3153
  865TIP3    H2 2560   3.616   0.700   1.809 -0.8868  0.7353  0.8431
  866TIP3   OH2 2561   2.810   1.374   3.977  0.4511  0.0544 -0.1300
  866TIP3    H1 2562   2.869   1.412   3.912  0.3180  1.7182  0.6757
  866TIP3    H2 2563   2.794   1.444   4.040 -2.2565 -0.3713 -0.2010
  867TIP3   OH2 2564   6.634   2.314   5.489  0.2142 -0.6645  0.1720
  867TIP3    H1 2565   6.727   2.294   5.477  0.2419 -1.0202  0.8886
  867TIP3    H2 2566   6.609   2.361   5.410  1.7212  1.9783  1.1436
  868TIP3   OH2 2567   6.620   1.550   4.774  0.1199 -0.2189 -0.3427
  868TIP3    H1 2568   6.568   1.474   4.799 -0.9545  0.8870  0.9057
  868TIP3    H2 2569   6.585   1.576   4.689 -0.8993  0.0960  0.1692
  869TIP3   OH2 2570   3.376   2.996   0.486 -0.6552  0.1529 -0.1274
  869TIP3    H1 2571   3.358   3.088   0.504 -3.5486 -0.4350  0.6023
  869TIP3    H2 2572   3.427   2.966   0.562 -0.2705  0.9786 -0.0509
  870TIP3   OH2 2573   2.803   6.217   2.756 -0.3801 -0.7332  0.1582
  870TIP3    H1 2574   2.777   6.232   2.665 -2.1718 -0.8337  0.6188
  870TIP3    H2 2575   2.748   6.276   2.807  0.6387 -0.6366  1.1914
  871TIP3   OH2 2576   6.641   2.648   5.220 -0.4333  0.3344 -0.0548
  871TIP3    H1 2577   6.713   2.608   5.172  0.9412 -1.0547  2.9175
  871TIP3    H2 2578   6.562   2.607   5.184  0.5510 -0.9336 -0.8468
  872TIP3   OH2 2579   5.816   0.057   4.456  0.0855  0.1492 -0.9931
  872TIP3    H1 2580   5.724   0.081   4.448 -0.0438  0.8190  1.5935
  872TIP3    H2 2581   5.863   0.140   4.456  0.4656 -0.0502 -0.2617
  873TIP3   OH2 2582   4.897   3.177   5.265  0.0858 -0.0131 -0.1776
  873TIP3    H1 2583   4.858   3.264   5.271  0.4709  0.0686  2.1221
  873TIP3    H2 2584   4.828   3.118   5.296  0.0734 -0.4708 -1.0453
  874TIP3   OH2 2585   2.512   2.562   2.262  0.0596 -0.2333 -0.6247
  874TIP3    H1 2586   2.572   2.626   2.224  1.4317 -1.1220 -0.0317
  874TIP3    H2 2587   2.569   2.494   2.299 -1.3250 -1.3928 -0.5190
  875TIP3   OH2 2588   2.774   1.060   3.345  0.0098  0.0449  0.0376
  875TIP3    H1 2589   2.867   1.084   3.357  0.1544 -0.0680 -0.8482
  875TIP3    H2 2590   2.726   1.132   3.387  0.4659  1.1108 -1.2140
  876TIP3   OH2 2591   6.652   5.217   1.667 -0.0119  0.5400 -0.3389
  876TIP3    H1 2592   6.705   5.147   1.705 -1.7318 -0.3776  0.5531
  876TIP3    H2 2593   6.697   5.298   1.690  0.8873 -0.1839  0.5124
  877TIP3   OH2 2594   1.732   1.588   1.983 -0.2844  0.8895  0.2622
  877TIP3    H1 2595   1.711   1.626   2.068 -2.4369 -1.6704  0.9881
  877TIP3    H2 2596   1.821   1.552   1.994 -1.0678 -0.6815  1.9903
  878TIP3   OH2 2597   5.071   0.085   0.475  0.6860 -1.3293 -0.6006
  878TIP3    H1 2598   4.981   0.053   0.477  0.0232  0.4414  2.1510
  878TIP3    H2 2599   5.104   0.071   0.564  2.0512  0.8676 -0.6904
  879TIP3   OH2 2600   1.771   5.936   4.597  0.6899  0.3061  0.0374
  879TIP3    H1 2601   1.677   5.952   4.602  0.8245  1.0693  0.3128
  879TIP3    H2 2602   1.780   5.859   4.541 -0.2106 -1.0464  1.6665
  880TIP3   OH2 2603   5.143   3.423   3.653 -0.3975 -0.1823  0.1244
  880TIP3    H1 2604   5.081   3.380   3.713 -0.7049  0.2660  0.1322
  880TIP3    H2 2605   5.160   3.357   3.586 -0.2481 -0.5989  0.5633
  881TIP3   OH2 2606   1.355   6.665   1.622  0.2506  0.3898 -0.2112
  881TIP3    H1 2607   1.293   6.677   1.694  2.0036  0.4141  1.3426
  881TIP3    H2 2608   1.344   6.744   1.568  0.5509  1.5164  1.3116
  882TIP3   OH2 2609   6.792   0.207   3.836  0.3233 -0.1624 -0.5637
  882TIP3    H1 2610   6.771   0.114   3.827  0.5343 -0.1696 -0.9933
  882TIP3    H2 2611   6.870   0.208   3.891 -0.1288 -0.1923  0.1015
  883TIP3   OH2 2612   4.393   3.389   4.195  0.2839  0.6851 -0.5383
  883TIP3    H1 2613   4.313   3.338   4.184  0.7124 -0.2470  0.5046
  883TIP3    H2 2614   4.452   3.356   4.127  0.1483  0.6222 -0.6238
  884TIP3   OH2 2615   2.312   3.262   0.480 -0.1935 -0.3378  0.2157
  884TIP3    H1 2616   2.390   3.292   0.434 -0.6375 -0.0177 -0.3471
  884TIP3    H2 2617   2.345   3.204   0.548  0.5018 -0.5482 -0.2892
  885TIP3   OH2 2618   1.985   0.059   5.258  0.0085 -0.3225  0.3179
  885TIP3    H1 2619   2.042   0.135   5.257  0.6720 -0.7850 -1.7227
  885TIP3    H2 2620   1.903   0.091   5.295 -0.6658  2.1579 -2.9086
  886TIP3   OH2 2621   0.774   0.691   2.705 -0.0348  0.4838 -0.0004
  886TIP3    H1 2622   0.854   0.653   2.670 -0.0923 -1.3879  1.7131
  886TIP3    H2 2623   0.803   0.758   2.767  0.0945  1.8353 -1.4464
  887TIP3   OH2 2624   5.752   4.720   5.031 -0.5183  0.1082 -0.1349
  887TIP3    H1 2625   5.740   4.812   5.054 -1.9312 -0.5898  2.2113
  887TIP3    H2 2626   5.775   4.677   5.113  0.1116 -1.6639 -1.1772
  888TIP3   OH2 2627   5.101   0.615   2.632  0.5134 -0.4835  0.0409
  888TIP3    H1 2628   5.138   0.662   2.558 -0.2799 -0.4963 -0.3787
  888TIP3    H2 2629   5.043   0.679   2.674 -0.3425 -0.9726 -0.3570
  889TIP3   OH2 2630   6.098   5.137   2.922 -0.1479 -0.0165 -0.0678
  889TIP3    H1 2631   6.179   5.139   2.871  0.0642  1.1945  0.2816
  889TIP3    H2 2632   6.112   5.200   2.992 -0.3325 -1.8052  1.6741
  890TIP3   OH2 2633   1.742   5.461   3.925 -0.3552  0.2676  0.2262
  890TIP3    H1 2634   1.820   5.406   3.913  0.7887  1.3817  2.0799
  890TIP3    H2 2635   1.671   5.399   3.940  0.3701 -0.7467 -0.3706
  891TIP3   OH2 2636   7.092   6.114   1.364 -0.3229 -0.3242 -0.0292
  891TIP3    H1 2637   7.087   6.027   1.325 -0.8946 -0.7126  0.8729
  891TIP3    H2 2638   7.009   6.125   1.410  0.5316 -0.1384  1.5509
  892TIP3   OH2 2639   6.430   1.113   1.861  0.0918 -0.6242  0.1339
  892TIP3    H1 2640   6.354   1.170   1.875 -0.1623 -1.2037  1.1607
  892TIP3    H2 2641   6.477   1.114   1.944  1.5113  0.1176 -0.6251
  893TIP3   OH2 2642   5.754   5.419   1.739 -0.2625  0.4825 -0.1647
  893TIP3    H1 2643   5.692   5.491   1.752  0.4710  1.2380 -0.7423
  893TIP3    H2 2644   5.771   5.419   1.645  0.9486  0.5894  0.0378
  894TIP3   OH2 2645   1.104   5.228   4.673 -0.8525 -0.1605  0.2610
  894TIP3    H1 2646   1.091   5.264   4.761  2.4757  1.4039  0.2303
  894TIP3    H2 2647   1.138   5.140   4.688  0.1719  0.2792  0.5904
  895TIP3   OH2 2648   1.331   4.620   1.073  0.1113 -0.2051  0.2153
  895TIP3    H1 2649   1.407   4.576   1.111  2.6613  3.2713 -0.3370
  895TIP3    H2 2650   1.311   4.690   1.136 -0.4967  0.9327 -1.1983
  896TIP3   OH2 2651   1.108   2.511   2.965 -0.2707 -0.1198 -0.0276
  896TIP3    H1 2652   1.109   2.568   3.042 -0.8635  2.5164 -1.8603
  896TIP3    H2 2653   1.016   2.503   2.942 -0.1208 -1.1109 -0.3393
  897TIP3   OH2 2654   6.714   1.053   0.264 -0.2731  0.4297  0.3306
  897TIP3    H1 2655   6.751   1.128   0.217  0.0346 -1.0073 -1.8992
  897TIP3    H2 2656   6.789   0.997   0.282 -0.8866 -1.0889 -1.5059
  898TIP3   OH2 2657   4.884   3.650   0.543  0.2234 -0.3500 -0.1753
  898TIP3    H1 2658   4.935   3.596   0.482  1.1972 -0.4517  0.7039
  898TIP3    H2 2659   4.822   3.697   0.487  0.9541 -0.5927 -1.2197
  899TIP3   OH2 2660   2.151   2.066   2.366 -0.1693  0.5287 -0.4230
  899TIP3    H1 2661   2.078   2.096   2.420 -1.1666 -1.0554 -0.8209
  899TIP3    H2 2662   2.130   1.975   2.346  1.7328  0.1559 -0.8889
  900TIP3   OH2 2663   0.146   5.791   3.383 -0.4749  0.2301 -0.2828
  900TIP3    H1 2664   0.056   5.774   3.356 -1.2032 -0.2301  2.1751
  900TIP3    H2 2665   0.147   5.884   3.407  0.3623  0.8365 -2.4123
  901TIP3   OH2 2666   3.628   1.097   4.795 -0.0798  0.0144  0.2212
  901TIP3    H1 2667   3.639   1.057   4.882 -2.4678  0.4510  0.7881
  901TIP3    H2 2668   3.534   1.095   4.780  0.2940 -0.1987 -2.4823
  902TIP3   OH2 2669   6.331   3.582   3.978 -0.1017  0.0269 -0.4361
  902TIP3    H1 2670   6.373   3.500   4.005 -1.5523 -1.1139 -1.4811
  902TIP3    H2 2671   6.390   3.618   3.912  1.0210  0.3462  0.6959
  903TIP3   OH2 2672   0.845   4.253   1.769 -0.2631 -0.4861 -0.7550
  903TIP3    H1 2673   0.929   4.230   1.807  0.1580 -0.4004 -1.6178
  903TIP3    H2 2674   0.839   4.348   1.780 -0.2622 -0.4946 -0.6762
  904TIP3   OH2 2675   6.021   4.452   4.703  0.2641 -0.0438  0.2119
  904TIP3    H1 2676   5.974   4.534   4.722 -0.3381 -0.3165 -0.0554
  904TIP3    H2 2677   5.973   4.414   4.629 -0.3226 -1.3149  1.2165
  905TIP3   OH2 2678   3.677   4.700   1.053  0.1634 -0.0830 -0.6085
  905TIP3    H1 2679   3.704   4.721   1.143 -0.0977 -0.6598 -0.3883
  905TIP3    H2 2680   3.699   4.779   1.003  1.7951 -0.3380 -0.3583
  906TIP3   OH2 2681   7.005   6.657   2.695  0.6277  0.0324  0.2542
  906TIP3    H1 2682   6.980   6.564   2.700  1.5919 -0.1713  2.5347
  906TIP3    H2 2683   7.098   6.655   2.674  0.7871  0.4343  0.8925
  907TIP3   OH2 2684   4.651   1.618   0.438 -0.2777 -0.0383  0.3253
  907TIP3    H1 2685   4.745   1.623   0.424 -0.1163 -1.5688  0.7593
  907TIP3    H2 2686   4.641   1.586   0.528 -1.1694 -1.5760 -0.2767
  908TIP3   OH2 2687   5.821   3.949   4.501 -0.4501  0.2253  0.1005
  908TIP3    H1 2688   5.750   3.943   4.565 -1.1389 -1.6130 -0.7588
  908TIP3    H2 2689   5.887   3.888   4.534 -0.6346 -0.4212 -0.6892
  909TIP3   OH2 2690   5.975   2.025   4.545  0.7158  0.0673 -0.4744
  909TIP3    H1 2691   5.917   2.047   4.617  0.7049  0.1111 -0.4963
  909TIP3    H2 2692   5.932   2.063   4.467  0.8641  0.2590 -0.4647
  910TIP3   OH2 2693   1.032   5.177   2.613  0.3180 -0.8278 -0.0165
  910TIP3    H1 2694   1.088   5.236   2.663  0.0213 -1.1536  0.7228
  910TIP3    H2 2695   1.045   5.202   2.522 -1.3299  1.7758  0.3559
  911TIP3   OH2 2696   6.520   6.668   4.083 -0.0300  0.2258 -0.3035
  911TIP3    H1 2697   6.424   6.669   4.076 -0.1724 -0.0990  1.2890
  911TIP3    H2 2698   6.546   6.760   4.080 -0.6638  0.5547  1.9914
  912TIP3   OH2 2699   2.845   3.927   4.850  0.3642 -0.0203  0.4762
  912TIP3    H1 2700   2.920   3.984   4.836  0.8054 -0.3815  1.3474
  912TIP3    H2 2701   2.875   3.862   4.913  0.4667 -2.3494 -1.8018
  913TIP3   OH2 2702   5.242   2.057   0.592  0.6928 -0.2137 -0.1944
  913TIP3    H1 2703   5.328   2.085   0.561  1.1738 -1.3811  0.0451
  913TIP3    H2 2704   5.194   2.139   0.606  1.6282  0.4394 -0.6873
  914TIP3   OH2 2705   0.101   0.899   2.357  0.3020 -0.3021 -0.4650
  914TIP3    H1 2706   0.059   0.970   2.307  0.0216  0.7607  1.1850
  914TIP3    H2 2707   0.168   0.865   2.299 -1.4092 -0.5948 -2.3835
  915TIP3   OH2 2708   4.746   0.298   0.277  0.5273 -0.3498 -0.2710
  915TIP3    H1 2709   4.684   0.370   0.283 -1.0055 -1.6189 -0.3152
  915TIP3    H2 2710   4.792   0.299   0.361 -0.8909 -0.5465  0.5347
  916TIP3   OH2 2711   1.107   6.045   1.680 -0.5807 -0.2405 -0.5053
  916TIP3    H1 2712   1.110   5.998   1.764 -1.4451 -1.9662 -1.3731
  916TIP3    H2 2713   1.196   6.042   1.647  0.3492  2.6454  1.4124
  917TIP3   OH2 2714   4.998   2.298   4.694 -0.0858  0.0532 -0.2156
  917TIP3    H1 2715   5.023   2.377   4.741  0.0026 -0.1274  0.0405
  917TIP3    H2 2716   5.063   2.233   4.719  0.2287  0.0806 -0.9428
  918TIP3   OH2 2717   1.016   6.495   5.845 -0.2609 -0.0032 -0.2160
  918TIP3    H1 2718   0.958   6.483   5.920  0.9089  0.3560  0.7946
  918TIP3    H2 2719   1.068   6.573   5.867 -0.8091  0.9390 -2.0316
  919TIP3   OH2 2720   4.103   3.741   4.341 -0.7691 -0.0652 -0.5059
  919TIP3    H1 2721   4.066   3.673   4.285  1.3250 -0.3223 -1.6884
  919TIP3    H2 2722   4.188   3.761   4.301  0.0267  1.0255  1.5887
  920TIP3   OH2 2723   0.495   6.785   3.390  0.2081  0.3816  0.4658
  920TIP3    H1 2724   0.550   6.718   3.348 -0.7246 -0.3401  0.3640
  920TIP3    H2 2725   0.517   6.866   3.345  2.4962  0.4733  1.6148
  921TIP3   OH2 2726   0.804   3.973   4.020 -0.3134 -0.0992 -0.1828
  921TIP3    H1 2727   0.726   3.927   4.051 -0.5043 -1.1547 -2.0521
  921TIP3    H2 2728   0.859   3.904   3.984 -0.2132  0.9763 -2.2992
  922TIP3   OH2 2729   0.542   3.408   2.703  0.5369 -0.6676  0.4629
  922TIP3    H1 2730   0.481   3.470   2.742 -0.7660 -1.1923 -0.6555
  922TIP3    H2 2731   0.576   3.453   2.625  1.4458 -0.4606  0.9625
  923TIP3   OH2 2732   6.412   6.707   5.216  0.5991  0.2710 -0.4331
  923TIP3    H1 2733   6.506   6.697   5.205  1.0503  2.4101  0.8753
  923TIP3    H2 2734   6.392   6.657   5.296  0.7149  0.2345 -0.4263
  924TIP3   OH2 2735   6.361   0.482   1.355  0.3587 -0.3607 -0.0046
  924TIP3    H1 2736   6.453   0.489   1.330  0.4042 -0.4220  0.1422
  924TIP3    H2 2737   6.346   0.388   1.367  0.9211 -0.2213  2.3102
  925TIP3   OH2 2738   5.609   1.639   4.066 -0.3823 -0.2468  0.0721
  925TIP3    H1 2739   5.580   1.677   4.150 -1.8727 -0.1413 -0.4587
  925TIP3    H2 2740   5.648   1.555   4.090  1.7005  0.9347  1.1259
  926TIP3   OH2 2741   2.280   1.437   4.234  0.1842 -0.4945 -0.1934
  926TIP3    H1 2742   2.236   1.491   4.300 -0.7773 -0.1155 -1.1055
  926TIP3    H2 2743   2.373   1.455   4.245 -0.1122  1.4842 -0.5495
  927TIP3   OH2 2744   4.415   3.316   3.271 -0.3283  0.0548 -0.2390
  927TIP3    H1 2745   4.354   3.379   3.310 -1.9471 -0.7745 -1.3149
  927TIP3    H2 2746   4.361   3.240   3.250  1.0094 -0.5670 -1.6167
  928TIP3   OH2 2747   0.592   5.479   1.880 -0.1084 -0.1829 -0.2689
  928TIP3    H1 2748   0.643   5.452   1.803  0.7810  1.4337 -0.2825
  928TIP3    H2 2749   0.534   5.548   1.847  1.7853  2.0977  0.8428
  929TIP3   OH2 2750   3.652   2.033   4.342  0.0020 -0.0872  0.0007
  929TIP3    H1 2751   3.699   2.005   4.419  0.6215 -0.2195 -0.4208
  929TIP3    H2 2752   3.573   1.979   4.341  1.4423 -2.3203 -1.1367
  930TIP3   OH2 2753   2.309   0.434   0.331  0.2513 -0.0543  0.4397
  930TIP3    H1 2754   2.353   0.519   0.329 -1.6885  1.0163  0.3712
  930TIP3    H2 2755   2.348   0.384   0.259  1.7360  0.5928  0.7664
  931TIP3   OH2 2756   6.086  -0.010   0.675  0.4596 -0.2880 -0.2045
  931TIP3    H1 2757   6.170  -0.010   0.628  0.5032 -0.8392 -0.1323
  931TIP3    H2 2758   6.060   0.082   0.677  0.3422 -0.2745 -1.5236
  932TIP3   OH2 2759   3.807   3.111   4.516  0.1551  0.0345  0.7141
  932TIP3    H1 2760   3.828   3.048   4.585  0.8578  0.2683  0.7181
  932TIP3    H2 2761   3.834   3.068   4.435 -0.6315 -0.2227  0.5806
  933TIP3   OH2 2762   0.195   2.746   5.660 -0.1257 -0.5279 -0.4389
  933TIP3    H1 2763   0.214   2.790   5.743  1.5410 -0.6545 -0.7305
  933TIP3    H2 2764   0.205   2.653   5.679 -0.8657 -0.6300 -0.5165
  934TIP3   OH2 2765   1.851   3.766   1.296  0.1209  0.3770 -0.5305
  934TIP3    H1 2766   1.762   3.788   1.326 -0.6403 -0.4884 -2.0877
  934TIP3    H2 2767   1.841   3.685   1.247  1.8549  0.0654 -0.4245
  935TIP3   OH2 2768   6.406   1.834   4.134 -0.7137  0.1053 -0.4457
  935TIP3    H1 2769   6.310   1.829   4.126 -1.0099 -0.7361  2.3141
  935TIP3    H2 2770   6.420   1.893   4.208  1.0320  1.3683 -1.7000
  936TIP3   OH2 2771   6.886   3.226   1.359  0.6648  0.3533 -0.0924
  936TIP3    H1 2772   6.921   3.294   1.302 -0.7899  1.0320 -0.2174
  936TIP3    H2 2773   6.816   3.269   1.409  1.3745 -0.4111  1.6698
  937TIP3   OH2 2774   5.842   0.404   3.472 -0.0754 -0.5166  0.4757
  937TIP3    H1 2775   5.849   0.464   3.398 -1.6644 -0.0187  0.6961
  937TIP3    H2 2776   5.788   0.450   3.536  1.4288 -0.8415  2.0809
  938TIP3   OH2 2777   3.405   5.431   0.415  0.1639 -0.1654  0.1467
  938TIP3    H1 2778   3.420   5.525   0.402 -1.3096  0.1407  0.4290
  938TIP3    H2 2779   3.430   5.390   0.332  1.5298  0.3733  0.2723
  939TIP3   OH2 2780   3.213   5.982   4.071 -0.3795 -0.5537 -0.0195
  939TIP3    H1 2781   3.138   5.994   4.129 -0.3257  0.4489 -0.1382
  939TIP3    H2 2782   3.251   5.898   4.098 -0.9245 -0.5708  0.7307
  940TIP3   OH2 2783   0.196   2.057   3.618 -0.2177 -0.2813  0.2154
  940TIP3    H1 2784   0.158   2.143   3.596  1.6039  0.7542  0.9064
  940TIP3    H2 2785   0.181   2.049   3.712  0.7852 -0.0805  0.4038
  941TIP3   OH2 2786   0.796   4.269   4.168  0.2691 -0.3171 -0.0795
  941TIP3    H1 2787   0.862   4.251   4.100  0.2160 -0.6568 -0.0420
  941TIP3    H2 2788   0.747   4.344   4.135  0.4466 -0.2848 -0.2719
  942TIP3   OH2 2789   0.029   3.990   2.494 -0.5490  0.1113  0.0470
  942TIP3    H1 2790   0.005   3.947   2.412 -0.5997  2.3825 -1.2153
  942TIP3    H2 2791   0.123   3.976   2.502 -0.3857  0.5740 -0.8835
  943TIP3   OH2 2792   6.915   4.593   3.270  0.1383 -0.0188 -0.2174
  943TIP3    H1 2793   6.914   4.680   3.230 -0.7553  0.5692  1.0185
  943TIP3    H2 2794   6.829   4.556   3.250  0.2921 -0.3769 -0.2243
  944TIP3   OH2 2795   1.640   2.305   3.548 -0.1374  0.5335 -0.0466
  944TIP3    H1 2796   1.563   2.342   3.590  0.1011  0.9495  0.0340
  944TIP3    H2 2797   1.701   2.289   3.620  0.3450  1.4274 -0.2309
  945TIP3   OH2 2798   3.168   2.779   1.756 -0.3663  0.0639 -0.2586
  945TIP3    H1 2799   3.193   2.860   1.712  0.2201 -0.2214 -0.4722
  945TIP3    H2 2800   3.158   2.715   1.685 -1.3104  0.0668 -0.1341
  946TIP3   OH2 2801   4.217   5.445   3.327 -0.1655  0.2465 -0.1222
  946TIP3    H1 2802   4.151   5.492   3.274 -0.1836 -0.0419 -0.3592
  946TIP3    H2 2803   4.238   5.367   3.275 -1.8715 -1.2580  1.3199
  947TIP3   OH2 2804   4.160   5.415   2.037 -0.0964 -0.0754 -0.5229
  947TIP3    H1 2805   4.076   5.423   2.083 -0.0370  2.1312 -0.6821
  947TIP3    H2 2806   4.218   5.372   2.099 -0.3344  1.7799  1.0651
  948TIP3   OH2 2807   3.135   6.354   1.749 -0.5760 -0.0859  0.3651
  948TIP3    H1 2808   3.156   6.390   1.835  1.5370 -1.0591  0.3264
  948TIP3    H2 2809   3.218   6.352   1.703 -1.3773 -1.0989 -1.1215
  949TIP3   OH2 2810   3.844   6.247   1.693 -1.0859  1.0212  0.0144
  949TIP3    H1 2811   3.907   6.241   1.764 -1.8286 -0.8742  0.5707
  949TIP3    H2 2812   3.805   6.334   1.703 -0.1815  1.3219  1.0503
  950TIP3   OH2 2813   1.491   5.797   0.924  0.2429 -0.0406  0.2005
  950TIP3    H1 2814   1.534   5.828   1.004 -1.3582 -1.0292  1.4939
  950TIP3    H2 2815   1.433   5.726   0.953  0.3557 -1.1209 -1.9917
  951TIP3   OH2 2816   3.096   2.213   0.379  0.4022 -0.0391 -0.3629
  951TIP3    H1 2817   3.047   2.219   0.297 -1.2093 -0.1895  0.5550
  951TIP3    H2 2818   3.143   2.130   0.373  1.2160  0.4824 -1.5971
  952TIP3   OH2 2819   0.837   0.964   1.599 -0.0667  0.0376 -0.2606
  952TIP3    H1 2820   0.768   0.907   1.564 -0.7567  0.8683 -0.2773
  952TIP3    H2 2821   0.834   0.950   1.693 -0.0197 -0.1905 -0.2920
  953TIP3   OH2 2822   6.705   6.699   3.790  0.0918 -0.1959 -0.0121
  953TIP3    H1 2823   6.648   6.676   3.715 -0.5031 -0.1143  0.4058
  953TIP3    H2 2824   6.648   6.751   3.847  1.2622  1.9611 -0.7081
  954TIP3   OH2 2825   1.883   4.036   0.804  0.0392 -0.0751  0.6232
  954TIP3    H1 2826   1.956   4.095   0.821  1.5320 -1.5691 -0.2101
  954TIP3    H2 2827   1.845   4.066   0.722  0.9367 -0.3653  0.0851
  955TIP3   OH2 2828   6.619   1.478   3.176 -0.5484 -0.1306  0.0673
  955TIP3    H1 2829   6.673   1.483   3.255 -1.0362  0.6299  0.3616
  955TIP3    H2 2830   6.529   1.484   3.208 -0.7709 -0.3997 -0.5017
  956TIP3   OH2 2831   6.194   4.509   2.074 -0.0980 -0.0785  0.2638
  956TIP3    H1 2832   6.145   4.499   2.156  0.9951 -1.2764  0.8034
  956TIP3    H2 2833   6.280   4.542   2.101  0.1488 -0.1252 -0.4395
  957TIP3   OH2 2834   2.706   5.486   1.222  0.0817  0.0664  0.4071
  957TIP3    H1 2835   2.623   5.531   1.240 -0.3938  0.5008 -2.3996
  957TIP3    H2 2836   2.691   5.396   1.251 -0.9069  0.4259  1.0749
  958TIP3   OH2 2837   5.339   0.042   5.176  0.3453  0.4095  0.5186
  958TIP3    H1 2838   5.315   0.134   5.186  0.5753  0.3769  1.4412
  958TIP3    H2 2839   5.296   0.015   5.095 -2.0137  0.5793  1.6279
  959TIP3   OH2 2840   3.072   0.052   2.270  0.7495  0.2085  0.0841
  959TIP3    H1 2841   3.072   0.003   2.353  0.9625 -0.5925 -0.3741
  959TIP3    H2 2842   3.011   0.124   2.284 -0.8243 -1.1197  0.2449
  960TIP3   OH2 2843   2.673   1.339   1.121  0.1464  0.2958 -0.5872
  960TIP3    H1 2844   2.600   1.317   1.063 -0.0689  1.8597 -0.9306
  960TIP3    H2 2845   2.751   1.327   1.067 -0.0004  0.9222 -0.9394
  961TIP3   OH2 2846   5.150   5.145   2.774 -0.9328 -0.2153  0.1998
  961TIP3    H1 2847   5.195   5.080   2.720 -2.1748 -0.6515 -0.3693
  961TIP3    H2 2848   5.075   5.173   2.721  0.1031  2.4721  0.0077
  962TIP3   OH2 2849   2.224   0.506   0.973  0.2482  0.1016  0.4451
  962TIP3    H1 2850   2.165   0.555   1.030 -0.1726  0.0789  0.0279
  962TIP3    H2 2851   2.168   0.444   0.927  0.4909  0.5090 -0.4203
  963TIP3   OH2 2852   3.753   4.990   0.417  0.4534 -0.2720 -0.0391
  963TIP3    H1 2853   3.710   5.051   0.356 -1.1067 -0.2456  1.0264
  963TIP3    H2 2854   3.731   5.025   0.503  2.1739 -0.6155  0.5729
  964TIP3   OH2 2855   0.580   3.641   5.462 -0.2806 -0.0729 -0.4450
  964TIP3    H1 2856   0.603   3.570   5.521  0.0951 -0.5671 -1.1714
  964TIP3    H2 2857   0.489   3.662   5.484  0.1649  0.4809  1.0149
  965TIP3   OH2 2858   5.835   0.068   1.303  0.4069  0.0807  0.1166
  965TIP3    H1 2859   5.792   0.026   1.377 -2.4589 -1.1645 -2.0439
  965TIP3    H2 2860   5.814   0.161   1.311  2.8379  0.5621  2.4133
  966TIP3   OH2 2861   0.899   4.799   2.717 -0.3505 -0.1461  0.1619
  966TIP3    H1 2862   0.852   4.782   2.636  1.1230 -0.5517 -0.6409
  966TIP3    H2 2863   0.836   4.847   2.772 -2.3464 -2.2843 -0.1014
  967TIP3   OH2 2864   0.554   1.378   3.560 -0.2320 -0.2963 -0.0847
  967TIP3    H1 2865   0.582   1.418   3.642 -2.1191  0.7958  0.0815
  967TIP3    H2 2866   0.529   1.451   3.504 -3.2959 -1.0891  0.0469
  968TIP3   OH2 2867   2.853   5.016   5.543  0.9079 -0.2982  0.0532
  968TIP3    H1 2868   2.866   4.931   5.585 -0.1857 -0.4966  0.0254
  968TIP3    H2 2869   2.927   5.025   5.483  0.5390 -1.6691 -0.6388
  969TIP3   OH2 2870   6.984   5.453   2.898  0.8648  0.2220  0.2618
  969TIP3    H1 2871   6.971   5.372   2.849  1.9070 -0.4507  1.0551
  969TIP3    H2 2872   7.002   5.519   2.832  2.2505 -0.6645 -0.2781
  970TIP3   OH2 2873   4.910   1.666   3.330  0.2513 -0.1437  0.0602
  970TIP3    H1 2874   4.920   1.680   3.235  1.1667 -0.4376  0.1058
  970TIP3    H2 2875   4.842   1.600   3.337 -1.4393  1.4742 -0.3009
  971TIP3   OH2 2876   1.354   6.397   1.538  0.3310 -0.1490  0.1332
  971TIP3    H1 2877   1.383   6.389   1.447 -1.6098 -0.9711 -0.4671
  971TIP3    H2 2878   1.351   6.492   1.554  0.8281 -0.0006 -0.6032
  972TIP3   OH2 2879   5.421   3.989   3.930  0.3354  0.5141  0.6771
  972TIP3    H1 2880   5.508   3.950   3.929  0.4772  0.8150  1.2524
  972TIP3    H2 2881   5.433   4.074   3.886  0.1556  0.1991 -0.0006
  973TIP3   OH2 2882   7.000   4.486   1.689 -0.2694 -0.4901 -0.3560
  973TIP3    H1 2883   7.027   4.519   1.604 -1.1492  0.5904 -0.2393
  973TIP3    H2 2884   6.953   4.559   1.729 -2.3053 -1.8619 -0.0789
  974TIP3   OH2 2885   6.501   6.301   0.394  0.2201 -0.4758  0.3371
  974TIP3    H1 2886   6.534   6.276   0.307  1.2786 -0.0428  0.6054
  974TIP3    H2 2887   6.448   6.226   0.421  0.9670 -1.1935 -0.1212
  975TIP3   OH2 2888   1.375   0.440   0.681 -0.6864  0.6250  0.3185
  975TIP3    H1 2889   1.320   0.381   0.733 -0.5267 -0.2505 -0.4787
  975TIP3    H2 2890   1.460   0.437   0.725 -0.5591 -0.0900  0.0406
  976TIP3   OH2 2891   6.287   6.048   0.636 -0.4450 -0.3129 -0.6976
  976TIP3    H1 2892   6.312   6.049   0.544  0.3728 -0.4589 -0.4866
  976TIP3    H2 2893   6.352   5.992   0.678  0.0828  0.9052  0.1924
  977TIP3   OH2 2894   3.182   2.141   3.712  0.1566  0.2773  0.0001
  977TIP3    H1 2895   3.129   2.220   3.705 -3.4099 -1.8232  0.8055
  977TIP3    H2 2896   3.171   2.112   3.803  2.0886 -0.7116 -0.0270
  978TIP3   OH2 2897   1.004   6.175   4.350 -0.3356 -0.2267  0.4218
  978TIP3    H1 2898   0.950   6.242   4.307 -0.0384  0.9027  1.7517
  978TIP3    H2 2899   0.994   6.193   4.444 -1.1688 -2.7632  0.9076
  979TIP3   OH2 2900   7.016   1.885   4.978  0.1673  0.6045 -0.6028
  979TIP3    H1 2901   6.945   1.876   4.914 -0.2216 -3.1542  0.1097
  979TIP3    H2 2902   6.999   1.816   5.042  1.9674  2.5705  2.1996
  980TIP3   OH2 2903   6.835   2.485   3.090  0.2966  0.2359 -0.0556
  980TIP3    H1 2904   6.740   2.496   3.085 -0.0040 -0.1157  2.9239
  980TIP3    H2 2905   6.870   2.573   3.073 -0.7369  0.9145  1.1104
  981TIP3   OH2 2906   5.283   5.003   1.303  0.4346 -0.4462  0.1286
  981TIP3    H1 2907   5.322   4.915   1.299 -2.2598 -1.8075  1.2585
  981TIP3    H2 2908   5.227   5.008   1.226 -2.0182 -1.1631  1.7503
  982TIP3   OH2 2909   5.721   0.165   3.506 -0.2496  0.1199 -0.3732
  982TIP3    H1 2910   5.769   0.136   3.583 -0.1015 -0.5749 -0.7209
  982TIP3    H2 2911   5.745   0.258   3.496  0.8524 -0.1517 -0.4119
  983TIP3   OH2 2912   4.670   6.105   3.825 -0.7282  0.3125 -0.0249
  983TIP3    H1 2913   4.754   6.130   3.864 -0.3434 -3.2845  1.8179
  983TIP3    H2 2914   4.694   6.067   3.740 -0.6807  0.5904 -0.1385
  984TIP3   OH2 2915   4.531   2.643   3.385  0.3732  0.1732  0.7258
  984TIP3    H1 2916   4.463   2.643   3.318  0.1056 -0.1126  0.9945
  984TIP3    H2 2917   4.565   2.733   3.386  0.3996  0.1746  0.1922
  985TIP3   OH2 2918   3.605   6.021   5.067 -0.3016 -0.1149  0.3088
  985TIP3    H1 2919   3.607   6.092   5.002  1.6478 -1.1863 -0.8995
  985TIP3    H2 2920   3.550   5.954   5.028 -0.0318 -0.3083  0.2542
  986TIP3   OH2 2921   1.651   6.300   5.833 -0.0074 -0.3130  0.2380
  986TIP3    H1 2922   1.574   6.246   5.853  0.5378 -0.7179  1.3592
  986TIP3    H2 2923   1.726   6.243   5.853  0.6490 -0.6285 -2.7017
  987TIP3   OH2 2924   1.655   3.226   5.374 -0.3914  1.0970  0.4419
  987TIP3    H1 2925   1.621   3.221   5.285 -0.3258  1.7215  0.3753
  987TIP3    H2 2926   1.733   3.281   5.366  0.8780 -0.6096  0.5171
  988TIP3   OH2 2927   2.197   0.640   3.576 -0.5621  0.0372  0.1450
  988TIP3    H1 2928   2.175   0.606   3.489 -0.9618  0.9505 -0.1243
  988TIP3    H2 2929   2.177   0.568   3.636  2.6832 -1.7849 -0.7364
  989TIP3   OH2 2930   3.428   2.098   2.603  0.2938 -0.0863  0.1591
  989TIP3    H1 2931   3.481   2.167   2.642 -0.6721  1.3441 -0.9508
  989TIP3    H2 2932   3.340   2.135   2.596  0.0690 -0.8189 -1.8716
  990TIP3   OH2 2933   1.757   2.036   5.149  0.5782 -0.0159 -0.1481
  990TIP3    H1 2934   1.698   2.104   5.118  1.4394  1.8351  1.9338
  990TIP3    H2 2935   1.712   1.997   5.224  0.6743 -0.8096 -0.4938
  991TIP3   OH2 2936   2.473   5.515   0.230  0.9399 -0.5033 -0.7511
  991TIP3    H1 2937   2.458   5.607   0.207 -0.6255 -0.3864  0.5072
  991TIP3    H2 2938   2.558   5.515   0.275 -0.1270  0.8304  1.4679
  992TIP3   OH2 2939   1.513   3.876   4.736 -1.0016 -0.2948 -0.5151
  992TIP3    H1 2940   1.463   3.955   4.755 -1.3557 -0.4537 -0.7760
  992TIP3    H2 2941   1.599   3.892   4.774 -2.0397 -1.1219  2.4367
  993TIP3   OH2 2942   4.155   0.869   3.400 -0.0450 -0.1640  0.1283
  993TIP3    H1 2943   4.212   0.936   3.360 -1.4708  0.9438 -0.1304
  993TIP3    H2 2944   4.132   0.905   3.485  1.9999 -1.9808  1.5604
  994TIP3   OH2 2945   0.268   0.143   5.552 -0.4007  0.4778 -0.1370
  994TIP3    H1 2946   0.214   0.077   5.596  0.4311  1.8210  3.2306
  994TIP3    H2 2947   0.352   0.099   5.537 -0.5410  0.1305  0.0823
  995TIP3   OH2 2948   4.625   5.401   0.902  0.6465  0.4038 -0.6155
  995TIP3    H1 2949   4.627   5.467   0.833  2.3672 -0.6538 -1.6545
  995TIP3    H2 2950   4.587   5.324   0.860 -1.2697  0.6547  0.5630
  996TIP3   OH2 2951   3.497   4.952   3.737 -0.6494 -0.0713 -0.4135
  996TIP3    H1 2952   3.442   5.012   3.786  0.1797  0.5336 -0.2040
  996TIP3    H2 2953   3.486   4.977   3.645 -1.9552 -0.9989 -0.5390
  997TIP3   OH2 2954   4.497   2.147   0.623  0.0858 -0.0654 -0.1508
  997TIP3    H1 2955   4.450   2.073   0.587 -0.4374  0.3416 -0.3181
  997TIP3    H2 2956   4.589   2.119   0.624 -0.0698 -0.6062 -0.4649
  998TIP3   OH2 2957   6.071   1.086   4.211  0.5846 -0.0441 -0.4285
  998TIP3    H1 2958   6.126   1.164   4.207  0.1015  0.3087 -0.1927
  998TIP3    H2 2959   6.090   1.039   4.130 -0.7171  1.3898 -1.6115
  999TIP3   OH2 2960   1.183   6.744   5.210 -0.6082 -0.2684  0.4164
  999TIP3    H1 2961   1.098   6.746   5.252 -1.2655 -0.3341 -0.8508
  999TIP3    H2 2962   1.235   6.682   5.261 -1.0827  0.3072  1.6120
 1000TIP3   OH2 2963   5.374   2.293   4.361  0.3285 -0.1527 -0.2250
 1000TIP3    H1 2964   5.288   2.259   4.338 -0.3801  1.0913  0.5079
 1000TIP3    H2 2965   5.424   2.216   4.388 -0.1327 -1.0614 -1.8280
 1001TIP3   OH2 2966   5.583   4.037   1.512 -0.4870 -0.4119 -0.0169
 1001TIP3    H1 2967   5.612   4.121   1.549  1.3510  0.1941 -2.5622
 1001TIP3    H2 2968   5.498   4.056   1.473  1.0116  1.1558 -2.8917
 1002TIP3   OH2 2969   5.529   4.074   3.641 -0.3048 -0.7116  0.4107
 1002TIP3    H1 2970   5.440   4.098   3.667 -0.0174  0.6319  0.2072
 1002TIP3    H2 2971   5.582   4.089   3.719  0.3272  2.0325 -0.4341
 1003TIP3   OH2 2972   0.735   3.609   1.563 -0.5417  0.1656 -0.1740
 1003TIP3    H1 2973   0.649   3.589   1.600 -0.4875 -0.6164 -0.4472
 1003TIP3    H2 2974   0.734   3.566   1.477 -0.8384  2.3180 -1.3171
 1004TIP3   OH2 2975   2.363   1.137   0.235  0.2296 -0.5563 -0.5648
 1004TIP3    H1 2976   2.304   1.157   0.308 -0.2188 -0.8427 -0.8476
 1004TIP3    H2 2977   2.340   1.201   0.167 -0.0374 -0.9261 -0.8266
 1005TIP3   OH2 2978   3.706   4.495   1.320  0.1298  0.5337  0.1004
 1005TIP3    H1 2979   3.693   4.542   1.402  0.8339  1.7696 -0.4590
 1005TIP3    H2 2980   3.627   4.442   1.309  0.3769 -0.2658  1.9482
 1006TIP3   OH2 2981   3.705   5.177   0.645  0.1036  0.5693 -0.1633
 1006TIP3    H1 2982   3.619   5.194   0.682 -0.0379 -0.8476  0.2251
 1006TIP3    H2 2983   3.766   5.184   0.718 -0.3138 -3.4632  0.8069
 1007TIP3   OH2 2984   0.187   4.260   4.816 -0.1513  0.4607  0.0943
 1007TIP3    H1 2985   0.108   4.242   4.867  0.4521  0.2282  0.9626
 1007TIP3    H2 2986   0.160   4.328   4.754 -0.3611  2.3499  2.1515
 1008TIP3   OH2 2987   3.900   3.691   2.487 -0.3654  0.4141  0.0165
 1008TIP3    H1 2988   3.979   3.673   2.537 -0.8858 -1.2912  0.2716
 1008TIP3    H2 2989   3.893   3.618   2.425 -0.9579  1.3114 -1.0179
 1009TIP3   OH2 2990   5.516   0.432   3.117 -0.1525  0.2169 -0.2627
 1009TIP3    H1 2991   5.469   0.434   3.033 -0.7017  0.9143  0.0610
 1009TIP3    H2 2992   5.462   0.376   3.173  0.6530 -0.9571 -0.6189
 1010TIP3   OH2 2993   0.484   3.949   4.176 -0.0521 -0.8271 -0.1809
 1010TIP3    H1 2994   0.513   3.877   4.120 -1.1526 -0.5114 -1.2104
 1010TIP3    H2 2995   0.497   4.028   4.123 -0.7960 -0.4885  0.1207
 1011TIP3   OH2 2996   0.227   3.439   4.477 -0.0672  0.4209 -0.1587
 1011TIP3    H1 2997   0.246   3.489   4.557 -3.4557  1.1024  0.3760
 1011TIP3    H2 2998   0.184   3.502   4.419  2.7342  0.0679 -2.8916
 1012TIP3   OH2 2999   2.655   2.512   4.851  0.6862 -0.1585  0.3328
 1012TIP3    H1 3000   2.614   2.428   4.870 -0.3636  0.1912 -0.2946
 1012TIP3    H2 3001   2.640   2.525   4.757  2.8164 -0.3035 -0.0943
 1013TIP3   OH2 3002   5.933   6.280   4.339 -0.4775 -0.3832 -0.3765
 1013TIP3    H1 3003   5.898   6.279   4.250  0.7383  1.8048 -0.9645
 1013TIP3    H2 3004   6.025   6.259   4.329  0.1702  2.0175  0.0218
 1014TIP3   OH2 3005   5.687   1.309   4.544 -0.1741 -0.1961 -0.5111
 1014TIP3    H1 3006   5.709   1.272   4.458  1.8764 -1.5854  0.5290
 1014TIP3    H2 3007   5.595   1.288   4.556 -0.3064 -0.6206 -2.0474
 1015TIP3   OH2 3008   7.167   0.815   4.130 -0.3131 -0.0124  0.3477
 1015TIP3    H1 3009   7.135   0.898   4.166 -1.0864  0.5763 -1.5847
 1015TIP3    H2 3010   7.096   0.784   4.074  0.8820 -0.7740 -0.8154
 1016TIP3   OH2 3011   2.404   2.553   5.354  0.1110 -0.2021 -0.3761
 1016TIP3    H1 3012   2.333   2.617   5.354  1.9996  2.0448  0.8836
 1016TIP3    H2 3013   2.455   2.575   5.276 -0.5081 -1.8067 -1.2817
 1017TIP3   OH2 3014   5.089   2.008   2.516  0.1579 -1.4185  0.4519
 1017TIP3    H1 3015   5.133   1.950   2.578  0.9597  0.7851  2.1024
 1017TIP3    H2 3016   5.027   2.058   2.570 -0.2384 -0.4943 -0.8063
 1018TIP3   OH2 3017   6.437   4.893   0.775 -0.0160  0.0021  0.0918
 1018TIP3    H1 3018   6.464   4.841   0.851 -1.1261  0.2772  0.6926
 1018TIP3    H2 3019   6.375   4.838   0.728  1.7779 -0.7708 -1.4876
 1019TIP3   OH2 3020   5.719   3.204   5.452 -0.2504 -0.5208 -0.2934
 1019TIP3    H1 3021   5.697   3.193   5.360  1.4024  0.5440 -0.8745
 1019TIP3    H2 3022   5.808   3.170   5.459 -0.7582 -1.6409  1.1823
 1020TIP3   OH2 3023   4.740   0.813   4.166  0.2191 -0.6218  0.1927
 1020TIP3    H1 3024   4.764   0.878   4.232 -0.0756 -1.7313  1.4247
 1020TIP3    H2 3025   4.658   0.846   4.129 -0.0618 -0.4128  0.9830
 1021TIP3   OH2 3026   6.991   0.393   1.798 -0.1252 -0.3473 -0.0823
 1021TIP3    H1 3027   6.981   0.309   1.842 -0.4587 -0.2186  0.0913
 1021TIP3    H2 3028   6.902   0.421   1.777 -0.1027  0.4282  0.7625
 1022TIP3   OH2 3029   3.791   5.788   3.448  0.2168  0.1372 -0.0566
 1022TIP3    H1 3030   3.733   5.712   3.451  0.8058 -0.3073  0.3884
 1022TIP3    H2 3031   3.743   5.857   3.493  0.0629 -0.2486  0.3762
 1023TIP3   OH2 3032   3.310   1.049   4.289 -0.4481 -0.1622 -0.3477
 1023TIP3    H1 3033   3.349   1.000   4.362 -1.3625  0.5140  0.6128
 1023TIP3    H2 3034   3.384   1.067   4.230  1.0237  2.1620  2.0014
 1024TIP3   OH2 3035   7.025   5.993   0.767 -0.2140  0.5556 -0.6486
 1024TIP3    H1 3036   7.098   5.985   0.828  0.6725  0.7201 -1.6465
 1024TIP3    H2 3037   7.060   6.045   0.694 -0.1015 -2.4995 -2.9519
 1025TIP3   OH2 3038   6.969   3.563   2.559  0.0877  0.3886 -0.6063
 1025TIP3    H1 3039   7.005   3.594   2.476  0.6336  2.9704  0.4904
 1025TIP3    H2 3040   7.044   3.524   2.604  0.0225 -0.0891 -0.9080
 1026TIP3   OH2 3041   6.090   1.762   3.604  0.3614  0.1760 -0.4458
 1026TIP3    H1 3042   6.008   1.759   3.652  0.3761  0.7157 -0.3786
 1026TIP3    H2 3043   6.135   1.840   3.637  0.3177  0.6245 -1.4094
 1027TIP3   OH2 3044   3.724   3.376   3.458 -0.4995 -0.2885  0.4543
 1027TIP3    H1 3045   3.666   3.447   3.430  2.1870  1.2660 -1.7764
 1027TIP3    H2 3046   3.788   3.419   3.515  0.3116 -1.1934  0.2540
 1028TIP3   OH2 3047   1.578   3.197   2.791 -0.2021 -0.3681  0.2036
 1028TIP3    H1 3048   1.602   3.105   2.791  0.2511 -0.2513  0.2665
 1028TIP3    H2 3049   1.637   3.238   2.728  1.4241  0.3417  2.0803
 1029TIP3   OH2 3050   3.413   4.505   0.648  0.8313  0.3707 -0.6569
 1029TIP3    H1 3051   3.367   4.422   0.661 -0.9059  1.0521 -1.9613
 1029TIP3    H2 3052   3.479   4.507   0.717 -1.3193 -0.5694  1.6165
 1030TIP3   OH2 3053   5.676   0.726   1.120 -0.8051 -0.0825  0.0246
 1030TIP3    H1 3054   5.721   0.672   1.184 -0.6012  1.6554  1.3991
 1030TIP3    H2 3055   5.745   0.777   1.078 -1.2672  1.3648  0.9542
 1031TIP3   OH2 3056   7.187   6.272   2.972 -0.2331  0.0054  0.4125
 1031TIP3    H1 3057   7.149   6.357   2.993 -0.8050  0.0165 -0.5986
 1031TIP3    H2 3058   7.154   6.213   3.040  0.1258  0.5646  1.0899
 1032TIP3   OH2 3059   2.261   3.179   1.858 -0.8882  0.2891 -0.5795
 1032TIP3    H1 3060   2.170   3.207   1.858 -1.4029 -1.2661  0.5394
 1032TIP3    H2 3061   2.263   3.102   1.802 -0.8241 -1.2071  1.3742
 1033TIP3   OH2 3062   5.602   1.117   3.550  0.3564 -0.3538 -0.6051
 1033TIP3    H1 3063   5.589   1.198   3.500 -0.6277 -0.3332 -0.3362
 1033TIP3    H2 3064   5.697   1.106   3.553  0.6582  1.9156  1.1157
 1034TIP3   OH2 3065   2.562   0.077   1.317 -0.0652 -0.0184 -0.6364
 1034TIP3    H1 3066   2.478   0.099   1.276 -0.9425  0.0665  1.1171
 1034TIP3    H2 3067   2.553   0.106   1.408  2.8583  2.4830 -0.9783
 1035TIP3   OH2 3068   2.860   5.513   3.763 -0.0809  0.0882  0.2018
 1035TIP3    H1 3069   2.884   5.528   3.672  1.2663 -1.9487  0.1425
 1035TIP3    H2 3070   2.943   5.516   3.811 -0.3177 -1.8881  0.8373
 1036TIP3   OH2 3071   6.350   1.076   3.409 -0.3552  0.2160 -0.2855
 1036TIP3    H1 3072   6.319   0.987   3.427  1.2810 -0.4005 -0.3862
 1036TIP3    H2 3073   6.272   1.131   3.420 -1.3304 -1.1840  0.0694
 1037TIP3   OH2 3074   5.686   5.167   4.828 -0.7007  0.3261 -0.3721
 1037TIP3    H1 3075   5.631   5.120   4.891  0.7281  1.8156  2.1208
 1037TIP3    H2 3076   5.632   5.241   4.800 -0.5427  0.9315  0.8901
 1038TIP3   OH2 3077   4.280   5.260   3.048 -0.1698 -0.5679 -0.0269
 1038TIP3    H1 3078   4.313   5.182   3.004 -0.2271  0.0563 -1.2341
 1038TIP3    H2 3079   4.344   5.328   3.026 -1.6874  0.4362 -1.5786
 1039TIP3   OH2 3080   4.030   1.284   2.777  0.5888 -0.6566  0.0142
 1039TIP3    H1 3081   4.074   1.253   2.697  0.2510 -0.1520 -0.3674
 1039TIP3    H2 3082   3.958   1.338   2.746  0.4223 -0.4972  0.6647
 1040TIP3   OH2 3083   2.554   0.541   4.992  0.3464  0.0799 -0.7263
 1040TIP3    H1 3084   2.510   0.456   4.985 -0.5331  0.4079  0.4758
 1040TIP3    H2 3085   2.646   0.521   4.977  0.2183 -1.1885 -0.0191
 1041TIP3   OH2 3086   5.843   6.255   0.111  0.0122  0.6515  0.2741
 1041TIP3    H1 3087   5.916   6.216   0.160 -0.2503 -0.1317  0.0650
 1041TIP3    H2 3088   5.816   6.186   0.051 -0.5323  1.1427 -0.0503
 1042TIP3   OH2 3089   4.253   6.555   1.400  0.3698  0.1843 -0.0283
 1042TIP3    H1 3090   4.236   6.570   1.307 -0.3170  0.7645  0.1785
 1042TIP3    H2 3091   4.327   6.495   1.402  0.2728  0.0223 -0.9532
 1043TIP3   OH2 3092   6.205   5.051   0.957 -0.2971 -0.0470 -0.0011
 1043TIP3    H1 3093   6.207   5.128   0.901 -0.8942 -0.1084 -0.1162
 1043TIP3    H2 3094   6.221   4.977   0.898 -0.8182 -0.1022 -0.0779
 1044TIP3   OH2 3095   3.673   3.990   5.383  0.2275 -0.4649 -0.5051
 1044TIP3    H1 3096   3.718   3.933   5.445  1.0547  1.3381  0.6260
 1044TIP3    H2 3097   3.583   3.956   5.380  0.8238 -2.1421 -0.3168
 1045TIP3   OH2 3098   2.444   3.004   2.368 -0.7080 -0.0433 -0.2197
 1045TIP3    H1 3099   2.377   3.059   2.408 -0.9544  0.3438 -1.1364
 1045TIP3    H2 3100   2.527   3.044   2.393 -0.8894  1.0430 -1.2390
 1046TIP3   OH2 3101   4.053   3.833   3.996  0.0771  0.0987 -0.0156
 1046TIP3    H1 3102   3.983   3.795   4.051 -1.9784  2.5553 -0.7433
 1046TIP3    H2 3103   4.081   3.911   4.044 -1.4727  2.0720 -2.1174
 1047TIP3   OH2 3104   6.190   5.957   2.226 -0.0046 -0.2785  0.7080
 1047TIP3    H1 3105   6.146   5.917   2.151 -1.1862  2.8185 -0.4008
 1047TIP3    H2 3106   6.276   5.982   2.192  0.3355 -0.9137  1.0883
 1048TIP3   OH2 3107   4.172   2.173   2.974  0.1361 -0.0885 -0.1985
 1048TIP3    H1 3108   4.177   2.181   2.878  1.2905 -0.0509 -0.1588
 1048TIP3    H2 3109   4.102   2.233   2.999 -1.3193 -1.3124 -1.1406
 1049TIP3   OH2 3110   6.086   4.487   5.677  0.0400 -0.5298  0.3659
 1049TIP3    H1 3111   5.993   4.464   5.681 -0.0799 -0.2927 -0.7815
 1049TIP3    H2 3112   6.132   4.404   5.682 -0.2119 -0.6136  1.4279
 1050TIP3   OH2 3113   2.286   5.067   0.439  0.5378 -0.3227  0.0175
 1050TIP3    H1 3114   2.309   5.157   0.458 -0.6456  0.3211 -1.4100
 1050TIP3    H2 3115   2.249   5.069   0.351  0.9780 -2.2907 -0.2669
 1051TIP3   OH2 3116   3.621   5.661   2.839  0.2714 -0.0960  0.0212
 1051TIP3    H1 3117   3.646   5.739   2.791  0.6087  0.1096  0.5286
 1051TIP3    H2 3118   3.534   5.681   2.874  0.1399 -0.1455 -0.2723
 1052TIP3   OH2 3119   2.336   5.201   3.160  0.1561  0.4115 -0.0377
 1052TIP3    H1 3120   2.316   5.109   3.179 -0.8975  0.3126 -1.4957
 1052TIP3    H2 3121   2.415   5.219   3.212 -1.2361 -0.4546  2.5605
 1053TIP3   OH2 3122   2.786   2.707   5.379 -0.6005  0.1652  0.1621
 1053TIP3    H1 3123   2.717   2.727   5.316  1.3841  0.8599 -1.9569
 1053TIP3    H2 3124   2.766   2.619   5.410 -2.1454  0.1612 -0.7626
 1054TIP3   OH2 3125   2.331   4.858   0.053 -0.4384 -0.8140  0.3935
 1054TIP3    H1 3126   2.248   4.811   0.061 -0.2327 -1.0507  1.2290
 1054TIP3    H2 3127   2.392   4.808   0.107 -0.0039 -0.0717  0.6039
 1055TIP3   OH2 3128   6.472   5.603   4.706 -0.4539  0.3323  0.6467
 1055TIP3    H1 3129   6.440   5.566   4.624  1.5398  0.3656 -0.2041
 1055TIP3    H2 3130   6.505   5.689   4.681  0.5790  0.1640  1.3884
 1056TIP3   OH2 3131   3.316   5.072   0.439 -0.4192  1.3310 -0.3283
 1056TIP3    H1 3132   3.357   4.994   0.402 -0.0461  1.4648 -0.2070
 1056TIP3    H2 3133   3.388   5.118   0.483 -0.5761  1.8940 -0.6506
 1057TIP3   OH2 3134   1.079   5.189   2.346 -0.0314  0.4066 -0.3776
 1057TIP3    H1 3135   1.029   5.251   2.294  0.8418  0.6507 -0.9571
 1057TIP3    H2 3136   1.171   5.211   2.327  0.2889 -0.9836 -0.5015
 1058TIP3   OH2 3137   0.475   3.672   4.464 -0.0874 -0.0329 -0.3232
 1058TIP3    H1 3138   0.488   3.760   4.428  2.0398 -0.8711 -1.8722
 1058TIP3    H2 3139   0.384   3.651   4.443 -0.4804  1.5935 -0.3911
 1059TIP3   OH2 3140   4.034   6.220   1.904 -0.8021 -0.6192  0.1519
 1059TIP3    H1 3141   4.018   6.271   1.984 -1.9085  0.9684 -1.0358
 1059TIP3    H2 3142   4.056   6.133   1.936  1.1515  0.5409  2.2673
 1060TIP3   OH2 3143   2.114   2.834   0.656 -0.2512 -0.2724  0.0227
 1060TIP3    H1 3144   2.088   2.766   0.718 -2.1677  0.0988 -0.2980
 1060TIP3    H2 3145   2.104   2.916   0.705  0.5971 -0.1294 -0.0400
 1061TIP3   OH2 3146   3.446   5.847   4.889  0.3952  0.2406  0.1063
 1061TIP3    H1 3147   3.461   5.828   4.797  1.7211  0.1451  0.3301
 1061TIP3    H2 3148   3.368   5.902   4.890 -0.5324 -0.9824 -0.9428
 1062TIP3   OH2 3149   5.630   0.506   0.167  0.0376  0.5106 -0.2047
 1062TIP3    H1 3150   5.549   0.481   0.123 -0.3009  1.6276 -0.2443
 1062TIP3    H2 3151   5.602   0.546   0.249  0.6295 -0.6560  0.5997
 1063TIP3   OH2 3152   6.065   0.220   0.976  0.4481 -0.2716 -0.0980
 1063TIP3    H1 3153   6.023   0.304   0.992  0.3126 -0.3296 -0.1487
 1063TIP3    H2 3154   6.094   0.192   1.063 -1.0776 -1.0049  0.2122
 1064TIP3   OH2 3155   2.125   4.689   5.604  0.3041 -0.0670 -0.4403
 1064TIP3    H1 3156   2.108   4.759   5.668  1.7999  0.1683 -0.2761
 1064TIP3    H2 3157   2.214   4.661   5.623 -0.5760 -2.7523  0.1846
 1065TIP3   OH2 3158   5.530   1.908   5.814 -0.1427 -0.4997 -0.0666
 1065TIP3    H1 3159   5.509   1.948   5.898  2.8036 -1.6345  1.3322
 1065TIP3    H2 3160   5.460   1.937   5.756 -2.4747  0.1065  2.7963
 1066TIP3   OH2 3161   3.014   1.733   3.136  0.4065 -0.0471 -0.3481
 1066TIP3    H1 3162   2.936   1.763   3.182  0.5706 -0.2587  0.0687
 1066TIP3    H2 3163   2.982   1.664   3.077  0.1286  0.5107 -0.8692
 1067TIP3   OH2 3164   3.000   3.075   4.050 -0.2673  0.1484  0.1342
 1067TIP3    H1 3165   3.059   3.142   4.016  1.1639 -0.9513  0.3740
 1067TIP3    H2 3166   3.027   2.995   4.006 -0.6215 -0.6560  1.3386
 1068TIP3   OH2 3167   5.761   0.770   0.683 -0.5298  0.0830  0.0292
 1068TIP3    H1 3168   5.690   0.715   0.716  0.7055 -0.8764  1.2323
 1068TIP3    H2 3169   5.790   0.725   0.603  0.3330 -0.9692  0.8921
 1069TIP3   OH2 3170   5.645   6.660   0.809  0.0706 -0.2841 -0.0368
 1069TIP3    H1 3171   5.641   6.675   0.715 -0.3166 -1.0095 -0.1451
 1069TIP3    H2 3172   5.591   6.730   0.847 -1.7301 -1.3295 -0.5296
 1070TIP3   OH2 3173   4.406   1.569   3.859  0.1102  0.1878 -0.0925
 1070TIP3    H1 3174   4.439   1.532   3.941  2.3374 -1.5946 -1.6687
 1070TIP3    H2 3175   4.380   1.658   3.882  0.8388 -0.1834  2.5079
 1071TIP3   OH2 3176   1.339   4.496   3.187  0.5893 -0.2624  0.2053
 1071TIP3    H1 3177   1.311   4.430   3.122 -0.3466  0.6370 -0.3350
 1071TIP3    H2 3178   1.398   4.553   3.138  0.5616 -0.0829  0.3830
 1072TIP3   OH2 3179   2.174   3.779   5.327 -0.8326  0.1987  0.5506
 1072TIP3    H1 3180   2.101   3.750   5.381 -1.8284  1.9840  0.2338
 1072TIP3    H2 3181   2.200   3.863   5.366 -0.9528  1.0544 -1.1427
 1073TIP3   OH2 3182   1.798   3.350   4.080  0.3218 -0.3571  0.5181
 1073TIP3    H1 3183   1.814   3.407   4.005 -1.0479 -0.7632 -0.1055
 1073TIP3    H2 3184   1.741   3.400   4.138  0.5353 -0.4415  0.8061
 1074TIP3   OH2 3185   2.920   4.000   0.422  0.7823  0.2644 -0.0405
 1074TIP3    H1 3186   2.898   4.081   0.376 -0.2868  0.4089  0.7004
 1074TIP3    H2 3187   2.931   3.935   0.352 -1.5058  0.3119 -0.5287
 1075TIP3   OH2 3188   3.157   3.256   1.735 -0.4079 -0.3005  0.7476
 1075TIP3    H1 3189   3.222   3.289   1.796  0.1418 -0.4183  0.2356
 1075TIP3    H2 3190   3.115   3.335   1.700  0.7380 -0.1205 -0.2958
 1076TIP3   OH2 3191   0.785   1.866   5.558  0.0572 -0.2993 -0.3819
 1076TIP3    H1 3192   0.714   1.880   5.621  0.6361 -2.6140  0.8844
 1076TIP3    H2 3193   0.740   1.838   5.478 -0.5138 -0.3203 -0.0569
 1077TIP3   OH2 3194   6.954   5.724   3.614  0.4343  0.2444 -0.2458
 1077TIP3    H1 3195   7.025   5.666   3.590 -0.2539 -0.4154 -0.7352
 1077TIP3    H2 3196   6.875   5.672   3.603 -0.0319  0.1480  2.6396
 1078TIP3   OH2 3197   5.129   3.564   0.740  0.5957  0.4760 -0.2205
 1078TIP3    H1 3198   5.174   3.635   0.786 -0.9702  1.8691 -0.7205
 1078TIP3    H2 3199   5.134   3.588   0.648  0.0166 -0.0502 -0.3983
 1079TIP3   OH2 3200   0.128   1.431   0.337  0.1674  0.2936  0.3563
 1079TIP3    H1 3201   0.220   1.410   0.319  0.2905  0.3564  0.8959
 1079TIP3    H2 3202   0.115   1.405   0.429 -0.3976  0.1381  0.2335
 1080TIP3   OH2 3203   5.363   4.651   2.962  0.2824  0.6380  0.1060
 1080TIP3    H1 3204   5.348   4.608   3.046  0.5911 -0.5248 -0.4095
 1080TIP3    H2 3205   5.299   4.611   2.902 -0.0023  1.5192 -0.2025
 1081TIP3   OH2 3206   5.722   1.428   2.989 -0.9521  0.1915  0.2635
 1081TIP3    H1 3207   5.791   1.477   3.036 -0.8113  0.8757 -0.6162
 1081TIP3    H2 3208   5.640   1.464   3.023 -0.8514  0.7069 -0.0189
 1082TIP3   OH2 3209   2.610   0.433   4.629  0.5337  0.0483 -0.4824
 1082TIP3    H1 3210   2.566   0.440   4.544 -1.0799 -0.1720  0.3004
 1082TIP3    H2 3211   2.650   0.519   4.642  0.1076  0.3468 -1.1066
 1083TIP3   OH2 3212   2.468   4.959   1.946  0.0052 -0.6253  0.5185
 1083TIP3    H1 3213   2.390   5.012   1.929 -0.8015 -2.0863 -0.4572
 1083TIP3    H2 3214   2.541   5.012   1.911 -0.5856  0.4917  0.9183
 1084TIP3   OH2 3215   6.198   6.726   5.785  0.3379 -0.1289 -0.0110
 1084TIP3    H1 3216   6.170   6.811   5.821  1.2641  0.5963 -0.9433
 1084TIP3    H2 3217   6.118   6.689   5.747  0.0903  0.7151 -0.3429
 1085TIP3   OH2 3218   0.208   3.501   0.817 -0.0448 -0.2233 -0.6885
 1085TIP3    H1 3219   0.138   3.439   0.801 -0.1244  0.2088 -2.1960
 1085TIP3    H2 3220   0.176   3.556   0.888  0.1738 -2.0690  0.9252
 1086TIP3   OH2 3221   0.676   0.631   4.444 -0.2645 -0.3473 -0.2720
 1086TIP3    H1 3222   0.719   0.700   4.495 -1.5246 -1.5968  2.7318
 1086TIP3    H2 3223   0.703   0.647   4.354  2.7208  1.6230  0.8277
 1087TIP3   OH2 3224   2.458   2.377   0.486 -0.0586  0.7891  0.4017
 1087TIP3    H1 3225   2.456   2.425   0.569  1.2908 -0.9633  1.5330
 1087TIP3    H2 3226   2.551   2.368   0.466 -0.1335 -2.3158  0.9400
 1088TIP3   OH2 3227   3.432   0.037   1.379  0.1163 -0.6111  0.0015
 1088TIP3    H1 3228   3.517   0.074   1.402 -0.6300  1.6478 -0.5549
 1088TIP3    H2 3229   3.401  -0.004   1.460  0.2075  1.7241  1.3129
 1089TIP3   OH2 3230   0.584   5.403   4.259  0.0310  0.3670  0.1995
 1089TIP3    H1 3231   0.649   5.357   4.206  1.6018  0.3869  2.0164
 1089TIP3    H2 3232   0.551   5.472   4.201  0.8097 -0.3316 -1.1289
 1090TIP3   OH2 3233   2.997   4.451   1.215  0.0198  0.3870 -0.0782
 1090TIP3    H1 3234   2.917   4.416   1.253  0.4977  1.5071  2.1989
 1090TIP3    H2 3235   3.016   4.395   1.140 -2.4831 -0.3243 -0.2521
 1091TIP3   OH2 3236   5.277   6.712   1.551 -0.1144 -0.5535  0.2168
 1091TIP3    H1 3237   5.354   6.717   1.607  0.2422  0.0805 -0.3142
 1091TIP3    H2 3238   5.210   6.762   1.598  0.0683 -0.3444  0.2534
 1092TIP3   OH2 3239   2.272   2.902   4.062  0.2582  0.1438  0.2769
 1092TIP3    H1 3240   2.210   2.924   4.132  1.4260  0.9262  1.0848
 1092TIP3    H2 3241   2.243   2.955   3.988 -1.6031 -1.4258 -0.2176
 1093TIP3   OH2 3242   3.671   4.156   1.246 -0.2159 -0.6181 -0.3865
 1093TIP3    H1 3243   3.590   4.205   1.254  0.1906 -0.2350  3.2151
 1093TIP3    H2 3244   3.652   4.071   1.285  1.4437  0.1626  2.4827
 1094TIP3   OH2 3245   3.903   5.834   0.930  0.0683  0.9683  0.1023
 1094TIP3    H1 3246   3.941   5.753   0.895  1.3267  1.4526  0.2935
 1094TIP3    H2 3247   3.883   5.887   0.852 -0.7559  0.4879 -0.0227
 1095TIP3   OH2 3248   4.314   0.777   2.063  0.0202 -0.2020  0.3745
 1095TIP3    H1 3249   4.305   0.692   2.020  1.0812 -0.3619  0.4320
 1095TIP3    H2 3250   4.330   0.839   1.992  0.4064 -0.2498  0.4127
 1096TIP3   OH2 3251   4.743   6.096   1.034 -0.0801 -0.0511 -0.1826
 1096TIP3    H1 3252   4.812   6.030   1.034  0.9003  0.9546  0.3528
 1096TIP3    H2 3253   4.785   6.175   1.000 -0.6120  0.9189  1.3243
 1097TIP3   OH2 3254   6.753   4.512   4.029  0.3199  0.0992  0.2100
 1097TIP3    H1 3255   6.669   4.512   3.982  0.8915 -0.1408 -0.8153
 1097TIP3    H2 3256   6.743   4.582   4.094 -0.3849  0.6125 -0.4352
 1098TIP3   OH2 3257   3.533   2.005   1.016 -0.0446 -0.0323 -0.2515
 1098TIP3    H1 3258   3.532   2.010   0.921  1.1763 -1.0744 -0.3516
 1098TIP3    H2 3259   3.543   2.096   1.046 -1.7151  0.4474 -1.0441
 1099TIP3   OH2 3260   6.307   2.004   2.218  0.0757  0.3646  0.0621
 1099TIP3    H1 3261   6.230   2.039   2.171 -1.4500 -0.9697  1.4410
 1099TIP3    H2 3262   6.315   1.914   2.187  0.0951  0.0047  1.1049
 1100TIP3   OH2 3263   5.191   4.405   0.153  0.2133  0.4669  0.2961
 1100TIP3    H1 3264   5.215   4.491   0.188  0.8309 -0.5092  2.4536
 1100TIP3    H2 3265   5.252   4.345   0.195 -0.5273 -1.1113 -0.7851
 1101TIP3   OH2 3266   0.651   1.012   3.759  0.2164  0.1642  0.0631
 1101TIP3    H1 3267   0.645   1.076   3.830  3.4019  2.4513 -1.4785
 1101TIP3    H2 3268   0.588   1.042   3.694  0.8351  1.1034 -0.1268
 1102TIP3   OH2 3269   1.933   4.497   2.097  0.6550  0.3615  0.0631
 1102TIP3    H1 3270   1.869   4.550   2.146  1.4656  2.2554 -0.8201
 1102TIP3    H2 3271   1.902   4.500   2.007  2.0192  1.4242 -0.3977
 1103TIP3   OH2 3272   5.198   2.147   1.323 -0.2104 -0.6449 -0.3413
 1103TIP3    H1 3273   5.225   2.234   1.351 -0.3903 -0.7567  0.1899
 1103TIP3    H2 3274   5.246   2.132   1.242 -1.9577  0.9232 -1.7569
 1104TIP3   OH2 3275   6.603   1.935   4.537  0.1844  0.5152  0.4221
 1104TIP3    H1 3276   6.544   1.982   4.477  0.4883 -0.5639 -0.7672
 1104TIP3    H2 3277   6.545   1.874   4.583  0.3500 -0.6087 -0.8116
 1105TIP3   OH2 3278   6.986   3.095   1.699 -0.1102 -0.4701 -0.3038
 1105TIP3    H1 3279   6.896   3.066   1.684  0.5031 -1.7582 -1.9647
 1105TIP3    H2 3280   7.036   3.054   1.627  1.8400 -0.0452  0.7343
 1106TIP3   OH2 3281   2.570   3.350   0.326 -0.0617  0.2568  0.0060
 1106TIP3    H1 3282   2.571   3.397   0.242  1.1895 -0.0867 -0.1949
 1106TIP3    H2 3283   2.635   3.396   0.379 -0.4046  0.0839  0.5754
 1107TIP3   OH2 3284   0.961   5.367   2.176 -0.1926 -0.1739  0.3218
 1107TIP3    H1 3285   0.958   5.452   2.221  0.5985  0.8595 -1.4541
 1107TIP3    H2 3286   0.889   5.371   2.113  1.8160  0.6607 -2.1051
 1108TIP3   OH2 3287   1.651   3.817   5.396 -0.2432 -0.2785  0.1749
 1108TIP3    H1 3288   1.671   3.759   5.469  1.8431  0.9584  0.6874
 1108TIP3    H2 3289   1.563   3.849   5.413 -0.1326 -0.7036  1.6736
 1109TIP3   OH2 3290   1.854   5.874   0.801 -0.2084  0.3247 -0.4920
 1109TIP3    H1 3291   1.872   5.865   0.707 -1.3828  0.4493 -0.7442
 1109TIP3    H2 3292   1.913   5.811   0.843 -0.5461 -0.6148 -1.4057
 1110TIP3   OH2 3293   6.525   0.994   5.174 -0.2054 -0.3038 -0.0943
 1110TIP3    H1 3294   6.606   0.987   5.125  0.9411  1.1424  1.4701
 1110TIP3    H2 3295   6.496   0.904   5.187  0.7997 -0.8082 -1.2338
 1111TIP3   OH2 3296   1.980   4.155   3.055  0.1241  0.4436  0.2836
 1111TIP3    H1 3297   1.993   4.208   3.134 -0.0747 -0.2913  0.8102
 1111TIP3    H2 3298   1.894   4.115   3.066  0.8110 -1.0185  0.5003
 1112TIP3   OH2 3299   4.926   0.131   0.729 -0.2471 -0.2910 -0.3625
 1112TIP3    H1 3300   4.906   0.042   0.700 -0.1883  0.4675 -3.0055
 1112TIP3    H2 3301   5.021   0.132   0.738 -0.2650 -0.5399 -0.1247
 1113TIP3   OH2 3302   2.193   1.913   4.899 -0.0087 -0.0406  0.4296
 1113TIP3    H1 3303   2.098   1.915   4.914  0.1780  0.0953  1.7063
 1113TIP3    H2 3304   2.202   1.909   4.804 -1.2900  0.2875  0.2736
 1114TIP3   OH2 3305   3.144   6.731   2.383 -0.4865 -0.5133  0.2868
 1114TIP3    H1 3306   3.211   6.675   2.423  0.9953 -0.2620 -1.6602
 1114TIP3    H2 3307   3.122   6.795   2.451  1.4023 -0.5074  0.9458
 1115TIP3   OH2 3308   0.847   5.239   5.833  0.3284 -0.3769 -0.8141
 1115TIP3    H1 3309   0.859   5.155   5.877 -0.5554 -0.5272 -0.8388
 1115TIP3    H2 3310   0.784   5.286   5.888  0.2193 -0.0463 -1.2173
 1116TIP3   OH2 3311   6.801   1.734   4.041  0.0816  0.2044  0.0259
 1116TIP3    H1 3312   6.810   1.693   3.955  0.3872 -0.4832  0.3774
 1116TIP3    H2 3313   6.728   1.795   4.031 -0.2057 -0.2278 -0.5817
 1117TIP3   OH2 3314   1.011   1.572   2.911 -0.1190 -0.3114  0.3787
 1117TIP3    H1 3315   1.037   1.514   2.981  0.9499  0.1489  0.3843
 1117TIP3    H2 3316   1.074   1.644   2.915 -0.4342  0.0395 -0.6360
 1118TIP3   OH2 3317   6.022   3.288   2.304  0.4890  0.6582 -0.4383
 1118TIP3    H1 3318   6.001   3.312   2.394  2.6919  1.6158 -0.1124
 1118TIP3    H2 3319   5.992   3.363   2.252  0.2487  0.6130 -0.3657
 1119TIP3   OH2 3320   0.884   1.396   0.020  0.0041 -0.2941  0.2697
 1119TIP3    H1 3321   0.875   1.304   0.043 -0.1174 -0.3350  0.0594
 1119TIP3    H2 3322   0.957   1.427   0.074 -0.0959 -0.4572  0.5014
 1120TIP3   OH2 3323   4.219   1.650   5.109  0.3811 -0.1395 -0.7853
 1120TIP3    H1 3324   4.176   1.571   5.143  1.0400  0.3323  1.3110
 1120TIP3    H2 3325   4.311   1.625   5.101  0.0413 -0.7989 -4.1763
 1121TIP3   OH2 3326   0.598   3.572   3.650  0.2569 -0.4944 -0.4885
 1121TIP3    H1 3327   0.650   3.601   3.575 -0.4391 -0.3974 -0.9454
 1121TIP3    H2 3328   0.594   3.650   3.706  1.1398 -0.6920 -0.1286
 1122TIP3   OH2 3329   3.579   3.464   5.756 -0.1497  0.3535  0.2143
 1122TIP3    H1 3330   3.591   3.380   5.801 -0.1356  0.2035 -0.0717
 1122TIP3    H2 3331   3.602   3.446   5.665 -0.7783  0.5081  0.0222
 1123TIP3   OH2 3332   0.048   4.041   5.508  0.6001 -0.1673  0.1010
 1123TIP3    H1 3333   0.064   4.093   5.587  0.6457 -0.8158  0.5205
 1123TIP3    H2 3334   0.132   4.001   5.488 -0.0770 -2.4559  1.5020
 1124TIP3   OH2 3335   2.761   6.606   1.014 -0.0169 -0.0902 -0.1063
 1124TIP3    H1 3336   2.857   6.610   1.014 -0.0229  1.1588 -1.7713
 1124TIP3    H2 3337   2.733   6.678   1.069  0.0034 -0.0382 -0.1635
 1125TIP3   OH2 3338   0.697   1.712   2.184  0.4523  0.1278 -0.1764
 1125TIP3    H1 3339   0.648   1.731   2.264  0.9991  2.1973 -0.2595
 1125TIP3    H2 3340   0.646   1.754   2.114  0.0439 -1.5459 -0.9239
 1126TIP3   OH2 3341   0.430   6.211   2.903 -0.3379  0.4003 -0.2980
 1126TIP3    H1 3342   0.393   6.288   2.947 -0.4414  0.0997  0.1427
 1126TIP3    H2 3343   0.358   6.148   2.900 -0.1040  0.1241 -0.1794
 1127TIP3   OH2 3344   3.748   5.554   3.063 -0.0036 -0.1086 -0.1440
 1127TIP3    H1 3345   3.719   5.572   2.974  2.1903  0.3314 -0.8276
 1127TIP3    H2 3346   3.731   5.635   3.111  0.1019  0.1433 -0.5300
 1128TIP3   OH2 3347   0.187   0.201   2.032 -0.0910 -0.0457  0.4748
 1128TIP3    H1 3348   0.239   0.171   2.106  1.3504 -0.6521 -0.7374
 1128TIP3    H2 3349   0.123   0.131   2.018  0.0323 -0.2166  0.7619
 1129TIP3   OH2 3350   0.198   2.067   1.142  0.3341  0.3879 -0.1395
 1129TIP3    H1 3351   0.123   2.016   1.111  0.3217  0.5645 -0.4048
 1129TIP3    H2 3352   0.251   2.081   1.063  1.0247 -0.3710  0.1704
 1130TIP3   OH2 3353   3.997   0.227   2.092  0.7030  0.2395 -0.7113
 1130TIP3    H1 3354   4.087   0.221   2.123  0.3954  0.4160  0.2494
 1130TIP3    H2 3355   3.990   0.315   2.055  0.7786  0.4073 -0.3208
 1131TIP3   OH2 3356   6.307   3.503   5.378  0.1232  0.0106 -0.1336
 1131TIP3    H1 3357   6.383   3.512   5.436  0.5084 -0.9051 -0.4820
 1131TIP3    H2 3358   6.233   3.532   5.431  0.5362 -0.3419  0.6543
 1132TIP3   OH2 3359   6.618   2.613   4.146 -0.3937  0.2721 -0.1231
 1132TIP3    H1 3360   6.639   2.689   4.092 -0.2239 -0.5189 -1.2223
 1132TIP3    H2 3361   6.537   2.637   4.191 -0.0378  1.3093 -0.0117
 1133TIP3   OH2 3362   4.699   5.041   3.084 -0.1409  0.1428 -0.5230
 1133TIP3    H1 3363   4.772   5.031   3.146 -0.5533 -0.5370 -0.1387
 1133TIP3    H2 3364   4.727   4.995   3.006 -0.1193 -0.0452 -0.4053
 1134TIP3   OH2 3365   4.513   2.204   1.691  0.0583 -0.0981  0.0095
 1134TIP3    H1 3366   4.597   2.159   1.684 -0.0313 -0.3641  0.6177
 1134TIP3    H2 3367   4.500   2.216   1.785 -0.3070  0.4683 -0.1062
 1135TIP3   OH2 3368   0.462   3.285   4.418  0.1749  0.1171  0.6226
 1135TIP3    H1 3369   0.412   3.313   4.341 -1.2651 -0.7252  1.2067
 1135TIP3    H2 3370   0.405   3.305   4.492 -0.1631 -2.5757  1.2001
 1136TIP3   OH2 3371   2.113   6.763   3.189 -0.2374 -0.0536 -0.0689
 1136TIP3    H1 3372   2.139   6.852   3.168  0.2457 -0.0962  0.3232
 1136TIP3    H2 3373   2.027   6.752   3.148  0.3801  0.0716 -1.4170
 1137TIP3   OH2 3374   3.580   1.213   2.230 -0.0093  0.1247  0.9372
 1137TIP3    H1 3375   3.605   1.231   2.321 -0.2683  0.1760  0.9994
 1137TIP3    H2 3376   3.649   1.156   2.197 -0.5328 -0.8653  1.5233
 1138TIP3   OH2 3377   5.188   1.096   4.040  0.5011  0.1914  0.5741
 1138TIP3    H1 3378   5.117   1.128   4.095  1.3498 -0.9273  2.4244
 1138TIP3    H2 3379   5.172   1.002   4.032  0.1261  0.3731 -1.6004
 1139TIP3   OH2 3380   1.256   5.165   3.127 -0.0822  0.5291 -0.9407
 1139TIP3    H1 3381   1.267   5.113   3.206 -0.2157  0.7820 -0.7537
 1139TIP3    H2 3382   1.290   5.109   3.057 -0.9986 -0.1518 -0.8639
 1140TIP3   OH2 3383   7.185   1.053   1.734  0.6456  0.1365 -0.7529
 1140TIP3    H1 3384   7.147   1.111   1.799  1.3966  0.2760 -0.4195
 1140TIP3    H2 3385   7.230   1.111   1.672  0.7257 -0.0427 -0.8666
 1141TIP3   OH2 3386   0.497   4.754   2.507 -0.2335 -0.1780 -0.3768
 1141TIP3    H1 3387   0.465   4.838   2.539  1.7842  0.5309 -0.0360
 1141TIP3    H2 3388   0.577   4.776   2.459 -0.1171 -1.8302 -1.0179
 1142TIP3   OH2 3389   5.137   2.997   2.499 -0.5988  0.1722  0.0639
 1142TIP3    H1 3390   5.049   2.967   2.474 -0.4310  0.2699 -0.6656
 1142TIP3    H2 3391   5.128   3.093   2.507 -0.6851  0.1290  0.5433
 1143TIP3   OH2 3392   6.082   6.147   4.852  0.2140 -0.6270 -0.1565
 1143TIP3    H1 3393   6.161   6.095   4.865  0.4811 -0.8037 -2.1650
 1143TIP3    H2 3394   6.091   6.184   4.764 -0.6315  1.6709  0.6162
 1144TIP3   OH2 3395   1.891   3.167   3.020  0.3044 -0.1662  0.0945
 1144TIP3    H1 3396   1.845   3.219   3.086  0.2698  0.7398 -0.6185
 1144TIP3    H2 3397   1.871   3.211   2.937  0.1594 -1.4126 -0.5527
 1145TIP3   OH2 3398   6.525   6.043   3.739  0.7001 -0.2249 -0.3082
 1145TIP3    H1 3399   6.592   6.070   3.677  2.0484  0.0056  1.1701
 1145TIP3    H2 3400   6.555   5.958   3.772  1.7966  1.0500  2.3360
 1146TIP3   OH2 3401   1.554   0.496   4.837  0.2372 -0.1084 -0.0968
 1146TIP3    H1 3402   1.612   0.560   4.878  0.4139 -0.5897  0.4159
 1146TIP3    H2 3403   1.604   0.464   4.762 -0.3456  1.2507 -1.1097
 1147TIP3   OH2 3404   6.768   1.520   2.937 -0.6864  0.1929  0.6262
 1147TIP3    H1 3405   6.720   1.516   3.020  0.6835 -2.7155  1.3975
 1147TIP3    H2 3406   6.766   1.431   2.903  3.8792 -0.1552  0.6186
 1148TIP3   OH2 3407   3.680   3.447   5.476  0.5992 -0.3537  0.0766
 1148TIP3    H1 3408   3.588   3.466   5.459  1.0376  1.9417 -0.1371
 1148TIP3    H2 3409   3.724   3.463   5.393  1.4291  0.5818  0.6693
 1149TIP3   OH2 3410   0.767   2.741   2.138 -0.3936 -0.1343 -0.4040
 1149TIP3    H1 3411   0.806   2.727   2.225 -0.0367  0.5307 -0.4539
 1149TIP3    H2 3412   0.721   2.659   2.120 -1.6059  0.1889  1.0027
 1150TIP3   OH2 3413   4.956   4.678   1.353  0.2284  0.0466  0.3642
 1150TIP3    H1 3414   4.876   4.716   1.390  0.1904  0.3789 -0.0431
 1150TIP3    H2 3415   5.026   4.733   1.386 -0.0012  1.8521 -1.9164
 1151TIP3   OH2 3416   0.813   5.458   3.243  0.2232 -0.1347  0.7032
 1151TIP3    H1 3417   0.816   5.440   3.337  1.6376 -1.6628  0.3879
 1151TIP3    H2 3418   0.847   5.379   3.202 -0.1635  0.5981 -1.1018
 1152TIP3   OH2 3419   3.467  -0.017   3.598 -0.0594  0.3048 -0.0916
 1152TIP3    H1 3420   3.512   0.066   3.581  0.2487  0.1508 -0.0245
 1152TIP3    H2 3421   3.385   0.009   3.641 -1.3938  0.7883 -2.7232
 1153TIP3   OH2 3422   3.653   1.723   4.701  0.2288  0.4913  0.4187
 1153TIP3    H1 3423   3.615   1.637   4.683  0.5885  0.4278 -0.0568
 1153TIP3    H2 3424   3.709   1.710   4.777 -1.0215  0.6793  1.4034
 1154TIP3   OH2 3425   2.507   0.433   4.370  0.5700 -0.5284  0.5487
 1154TIP3    H1 3426   2.420   0.402   4.345  0.4361  0.0330  0.3092
 1154TIP3    H2 3427   2.501   0.528   4.368  1.6680 -0.4335 -1.2941
 1155TIP3   OH2 3428   2.858   4.886   2.516 -0.0459 -0.2644 -0.1132
 1155TIP3    H1 3429   2.872   4.848   2.603  0.0014 -0.0251 -0.0150
 1155TIP3    H2 3430   2.922   4.956   2.510 -0.0236 -0.3049 -0.3579
 1156TIP3   OH2 3431   1.725   3.020   2.535  1.2072 -0.5616  0.3783
 1156TIP3    H1 3432   1.751   3.012   2.626  0.5875  0.4815  0.6542
 1156TIP3    H2 3433   1.644   2.969   2.528  1.6295 -1.2294  0.2334
 1157TIP3   OH2 3434   1.506   2.097   5.657  0.1217 -0.0349  0.5681
 1157TIP3    H1 3435   1.423   2.068   5.693  0.5038 -0.7178  0.9141
 1157TIP3    H2 3436   1.571   2.038   5.694  0.5110 -0.9311 -1.3890
 1158TIP3   OH2 3437   0.711   4.426   4.852 -0.1503 -0.1103  0.2874
 1158TIP3    H1 3438   0.780   4.421   4.785 -1.0069 -0.4384 -0.5892
 1158TIP3    H2 3439   0.747   4.378   4.926  0.8193  0.2542  0.0716
 1159TIP3   OH2 3440   4.641   6.566   4.634 -0.2277 -0.7307  0.2892
 1159TIP3    H1 3441   4.733   6.538   4.634  0.2218  0.5768 -1.6110
 1159TIP3    H2 3442   4.625   6.592   4.725  0.6237 -2.8858  1.1192
 1160TIP3   OH2 3443   4.851   6.024   2.820  0.1152 -1.0549  0.0963
 1160TIP3    H1 3444   4.791   5.978   2.761 -3.1756  2.5328  0.2604
 1160TIP3    H2 3445   4.893   6.090   2.765 -1.9300  1.3914  1.2872
 1161TIP3   OH2 3446   0.970   2.810   1.082  0.1634  0.0550 -0.2161
 1161TIP3    H1 3447   0.981   2.746   1.011  4.0493  1.8388 -1.5035
 1161TIP3    H2 3448   0.965   2.895   1.037  0.5022  1.0652  1.5677
 1162TIP3   OH2 3449   2.208   1.247   1.509 -0.4825 -0.6326  0.7762
 1162TIP3    H1 3450   2.156   1.197   1.573 -0.7084  0.2444  1.3066
 1162TIP3    H2 3451   2.296   1.250   1.547 -0.2847 -1.2497  0.3786
 1163TIP3   OH2 3452   1.674   2.928   0.063 -0.2113 -0.2291 -0.3490
 1163TIP3    H1 3453   1.621   2.858   0.025 -1.1225  0.3307 -0.1377
 1163TIP3    H2 3454   1.614   3.002   0.072  0.6434  0.4824 -0.2512
 1164TIP3   OH2 3455   0.677   4.912   4.590 -0.1457 -0.2353 -0.5275
 1164TIP3    H1 3456   0.730   4.915   4.510  1.0814  0.4463  0.2900
 1164TIP3    H2 3457   0.621   4.834   4.579 -0.4689  0.2025 -2.3193
 1165TIP3   OH2 3458   3.301   3.682   4.021 -0.5336  0.0748 -0.6155
 1165TIP3    H1 3459   3.343   3.735   3.953  0.1014 -0.5205 -0.6975
 1165TIP3    H2 3460   3.216   3.659   3.985 -0.7552  0.9009 -0.6437
 1166TIP3   OH2 3461   2.578   1.252   2.344 -0.9340 -0.7172  0.4481
 1166TIP3    H1 3462   2.630   1.211   2.275 -2.0398  0.1076 -0.9299
 1166TIP3    H2 3463   2.629   1.328   2.371 -0.5206 -1.0161  0.5277
 1167TIP3   OH2 3464   3.056   0.250   5.890  0.2641  0.2264 -0.2258
 1167TIP3    H1 3465   3.114   0.176   5.906 -0.5809 -0.3004  0.5592
 1167TIP3    H2 3466   3.100   0.302   5.824  0.5789 -1.3242 -1.2890
 1168TIP3   OH2 3467   5.012   1.334   5.028 -0.0434 -0.6501  0.1303
 1168TIP3    H1 3468   4.920   1.353   5.042 -0.4909 -2.2647 -0.4768
 1168TIP3    H2 3469   5.025   1.247   5.064  0.7215 -1.3499 -1.6986
 1169TIP3   OH2 3470   2.688   0.521   0.581 -0.0798  0.1977 -0.8753
 1169TIP3    H1 3471   2.708   0.517   0.675  0.5394 -1.7805 -1.0351
 1169TIP3    H2 3472   2.594   0.536   0.578 -0.0327  0.7763  0.0571
 1170TIP3   OH2 3473   4.134   3.972   2.257 -0.3412 -0.1615 -0.1803
 1170TIP3    H1 3474   4.111   4.044   2.199  0.9630 -0.0612 -0.6085
 1170TIP3    H2 3475   4.224   3.951   2.234  0.5695  0.4949  2.4574
 1171TIP3   OH2 3476   4.769   4.466   2.813  0.2052  0.0497  0.1206
 1171TIP3    H1 3477   4.729   4.476   2.727  1.5899 -1.7608 -0.8110
 1171TIP3    H2 3478   4.743   4.377   2.840  1.7065 -0.2917  0.4879
 1172TIP3   OH2 3479   0.802   4.574   3.832  0.0057 -0.0189  0.0499
 1172TIP3    H1 3480   0.892   4.564   3.802  0.0829 -0.4684  0.4343
 1172TIP3    H2 3481   0.799   4.529   3.916 -0.1651  1.3606  0.8162
 1173TIP3   OH2 3482   1.674   4.860   5.470  0.6646  0.5881 -0.6077
 1173TIP3    H1 3483   1.630   4.911   5.538  2.3647 -1.0850  1.9537
 1173TIP3    H2 3484   1.679   4.918   5.395 -2.8491  1.9696  0.0403
 1174TIP3   OH2 3485   0.574   3.483   1.099 -0.2893 -0.1061 -0.3372
 1174TIP3    H1 3486   0.524   3.407   1.070  0.1445 -0.4455 -0.1986
 1174TIP3    H2 3487   0.564   3.546   1.027  0.5054 -0.8200 -1.0952
 1175TIP3   OH2 3488   0.443   0.231   1.499  0.4063 -0.2259  0.0220
 1175TIP3    H1 3489   0.496   0.310   1.502  1.0139 -0.6052 -0.4516
 1175TIP3    H2 3490   0.374   0.246   1.563 -0.0790  1.1089 -0.7807
 1176TIP3   OH2 3491   2.082   6.344   4.584 -0.6649 -0.4825 -0.2351
 1176TIP3    H1 3492   2.149   6.402   4.620  0.4724 -0.4915 -2.1662
 1176TIP3    H2 3493   2.118   6.256   4.593 -0.6581 -0.5374 -0.7335
 1177TIP3   OH2 3494   1.303   1.548   4.474  0.3411 -0.2700  0.1119
 1177TIP3    H1 3495   1.384   1.518   4.431 -0.7470 -1.0146 -1.5254
 1177TIP3    H2 3496   1.256   1.594   4.405 -1.6514 -1.8424  0.3339
 1178TIP3   OH2 3497   1.807   0.758   3.385 -0.1115 -0.3931 -0.4382
 1178TIP3    H1 3498   1.889   0.777   3.430 -0.7300  0.7994  0.2386
 1178TIP3    H2 3499   1.808   0.816   3.308 -0.4947 -0.0477 -0.1915
 1179TIP3   OH2 3500   6.008   0.157   4.222 -0.4386  0.8347  0.2740
 1179TIP3    H1 3501   6.085   0.101   4.214  0.4101  1.9189  0.5940
 1179TIP3    H2 3502   6.007   0.183   4.314 -2.2637 -0.6104  0.7389
 1180TIP3   OH2 3503   6.689   5.421   2.792 -0.2196 -0.2615 -0.2696
 1180TIP3    H1 3504   6.631   5.464   2.854 -1.1778 -1.5575 -0.2084
 1180TIP3    H2 3505   6.774   5.464   2.803 -0.0367 -1.1543  2.7328
 1181TIP3   OH2 3506   2.848   1.062   5.750  0.0500 -0.2819  0.2876
 1181TIP3    H1 3507   2.842   1.150   5.789 -1.0790 -0.2019 -0.0402
 1181TIP3    H2 3508   2.804   1.005   5.813  0.8422 -0.6426  0.5329
 1182TIP3   OH2 3509   0.666   3.917   1.192 -0.4397  0.7556  0.3649
 1182TIP3    H1 3510   0.686   4.009   1.210  0.8426  0.1590  2.2670
 1182TIP3    H2 3511   0.614   3.888   1.268 -1.4169  0.0579 -0.5375
 1183TIP3   OH2 3512   1.897   2.289   5.470  0.4580  0.4140  0.4393
 1183TIP3    H1 3513   1.818   2.329   5.435  0.3561  0.0914  0.2960
 1183TIP3    H2 3514   1.968   2.343   5.437  0.2991  0.6886  0.5436
 1184TIP3   OH2 3515   1.887   4.316   3.674 -0.1548 -0.0793 -0.3392
 1184TIP3    H1 3516   1.807   4.306   3.623 -0.6585  0.1188  0.3995
 1184TIP3    H2 3517   1.909   4.409   3.667 -0.3915  0.0094  0.0350
 1185TIP3   OH2 3518   0.693   1.227   0.866 -0.1070 -0.0673  0.2997
 1185TIP3    H1 3519   0.776   1.188   0.893  2.7445  2.8755 -3.0981
 1185TIP3    H2 3520   0.664   1.174   0.793 -1.0347 -0.8244  1.1983
 1186TIP3   OH2 3521   3.691   5.389   4.807  0.0219 -0.1883  0.0493
 1186TIP3    H1 3522   3.747   5.337   4.865 -0.5802 -1.9825 -0.9174
 1186TIP3    H2 3523   3.685   5.338   4.727 -0.7979  1.2854 -0.8783
 1187TIP3   OH2 3524   5.753   0.393   3.960 -0.2842 -0.7500  0.0587
 1187TIP3    H1 3525   5.782   0.415   4.048  0.7094  2.1061 -0.8683
 1187TIP3    H2 3526   5.826   0.342   3.923  0.0511 -0.4826  0.3432
 1188TIP3   OH2 3527   6.930   1.773   2.266 -0.4938 -0.1361 -0.1045
 1188TIP3    H1 3528   6.931   1.765   2.362 -2.4623 -0.2618 -0.0446
 1188TIP3    H2 3529   6.906   1.864   2.250 -0.6373 -0.2400 -0.4782
 1189TIP3   OH2 3530   0.490   3.027   2.480  0.0218  0.1406 -0.4781
 1189TIP3    H1 3531   0.576   3.028   2.437  0.4046 -1.4254  0.2191
 1189TIP3    H2 3532   0.446   3.104   2.444  1.2263  0.2520 -1.8379
 1190TIP3   OH2 3533   0.607   0.263   4.995 -0.5328  0.1088  0.3933
 1190TIP3    H1 3534   0.577   0.176   4.967 -1.4710  0.9255 -1.3472
 1190TIP3    H2 3535   0.700   0.252   5.012 -0.5441 -1.1558 -0.2219
 1191TIP3   OH2 3536   4.431   6.168   4.607 -0.1321 -0.4229 -0.0545
 1191TIP3    H1 3537   4.431   6.259   4.636 -1.0669 -0.2381 -0.6041
 1191TIP3    H2 3538   4.410   6.171   4.514  2.1572 -1.0642 -0.6676
 1192TIP3   OH2 3539   2.618   1.889   3.691  0.0818  0.6084 -0.1262
 1192TIP3    H1 3540   2.534   1.931   3.710  0.3679  1.4948 -0.8001
 1192TIP3    H2 3541   2.593   1.803   3.655 -0.5260  0.6569  0.1600
 1193TIP3   OH2 3542   5.936   6.484   4.052  0.0461 -0.6169  0.1452
 1193TIP3    H1 3543   5.969   6.462   3.965  2.7852 -2.8514  1.6089
 1193TIP3    H2 3544   5.881   6.410   4.077 -2.2619  0.8372 -0.2695
 1194TIP3   OH2 3545   2.729   5.244  -0.021 -0.2640 -0.0360  0.5076
 1194TIP3    H1 3546   2.784   5.167  -0.010  0.3394  0.2642 -0.3191
 1194TIP3    H2 3547   2.654   5.228   0.036 -0.4049 -1.4841 -0.0259
 1195TIP3   OH2 3548   0.715   0.931   3.143  0.2489  0.0376 -0.1712
 1195TIP3    H1 3549   0.620   0.943   3.140  0.4249  1.9640  0.8076
 1195TIP3    H2 3550   0.727   0.854   3.199 -0.7304 -0.6927 -0.9136
 1196TIP3   OH2 3551   6.838   6.437   5.606  0.2049 -0.3040 -0.2274
 1196TIP3    H1 3552   6.924   6.402   5.630  0.1600 -2.3969 -2.7156
 1196TIP3    H2 3553   6.779   6.406   5.674  1.2932  0.9377  1.3762
 1197TIP3   OH2 3554   0.114   2.871   4.703 -0.9313 -0.4872  0.2622
 1197TIP3    H1 3555   0.055   2.914   4.642  1.0825  2.2614  0.0807
 1197TIP3    H2 3556   0.196   2.859   4.654 -0.4042 -1.6190  1.3395
 1198TIP3   OH2 3557   3.529   2.573   4.990 -0.0353  0.7958  0.1005
 1198TIP3    H1 3558   3.596   2.594   5.055  2.7014 -1.5221 -1.6880
 1198TIP3    H2 3559   3.501   2.484   5.011 -0.9840  0.9534 -0.4343
 1199TIP3   OH2 3560   2.040   0.519   0.355 -0.2634  0.4588  0.2965
 1199TIP3    H1 3561   2.133   0.527   0.375 -0.0676 -0.6846 -0.1261
 1199TIP3    H2 3562   2.034   0.449   0.291 -1.3381  1.1195 -0.3633
 1200TIP3   OH2 3563   5.080   2.486   5.291 -0.1603 -0.0655 -0.0236
 1200TIP3    H1 3564   5.055   2.578   5.297 -1.2572 -0.3402 -0.2074
 1200TIP3    H2 3565   5.129   2.481   5.208 -0.5095  0.2550 -0.2526
 1201TIP3   OH2 3566   5.219   2.261   4.871 -0.1170  0.0875  0.2001
 1201TIP3    H1 3567   5.312   2.250   4.850  0.1778  1.4558  0.6514
 1201TIP3    H2 3568   5.198   2.187   4.928  0.9052  0.1709  0.7078
 1202TIP3   OH2 3569   1.820   3.537   0.667  0.3266  0.1411 -0.2907
 1202TIP3    H1 3570   1.779   3.584   0.740  1.0495  1.5458 -0.7393
 1202TIP3    H2 3571   1.752   3.480   0.633 -0.6619  1.0172  0.1720
 1203TIP3   OH2 3572   1.942   1.238   2.165 -0.0361  0.1916 -0.0506
 1203TIP3    H1 3573   1.892   1.303   2.215 -0.6882  0.3747 -0.9287
 1203TIP3    H2 3574   2.021   1.223   2.218  0.5071  2.2742 -0.1807
 1204TIP3   OH2 3575   3.179   2.379   2.112  0.0735  0.2600 -0.6629
 1204TIP3    H1 3576   3.241   2.404   2.043  1.9199  1.3147  1.2421
 1204TIP3    H2 3577   3.218   2.302   2.153 -1.5549 -1.0227 -1.4232
 1205TIP3   OH2 3578   0.719   2.389   2.146  0.4683  0.2567 -0.4023
 1205TIP3    H1 3579   0.748   2.387   2.055 -0.0028 -0.2724 -0.5398
 1205TIP3    H2 3580   0.652   2.458   2.149 -0.7702 -0.9017 -0.8349
 1206TIP3   OH2 3581   1.679   0.564   3.974  0.0443  0.2058 -0.0886
 1206TIP3    H1 3582   1.600   0.534   3.930  0.0733  1.0842 -0.7550
 1206TIP3    H2 3583   1.750   0.543   3.914  0.1030  1.2525 -0.3979
 1207TIP3   OH2 3584   0.543   4.240   1.841  0.7634  0.6093  0.0404
 1207TIP3    H1 3585   0.458   4.284   1.841  0.7029  0.4905  0.2246
 1207TIP3    H2 3586   0.574   4.249   1.750  0.7051  0.9401  0.0518
 1208TIP3   OH2 3587   0.129   5.315   0.145  0.1979 -0.1771 -0.0092
 1208TIP3    H1 3588   0.098   5.340   0.232 -1.8374 -0.9051 -0.4494
 1208TIP3    H2 3589   0.100   5.386   0.088 -0.8202 -0.9239 -0.4525
 1209TIP3   OH2 3590   7.186   1.111   1.035  0.0661  0.1443  0.1868
 1209TIP3    H1 3591   7.108   1.066   1.067  0.2197 -0.9539 -0.9131
 1209TIP3    H2 3592   7.154   1.198   1.010 -0.7133 -0.1309  0.1784
 1210TIP3   OH2 3593   5.377   2.437   5.185  0.4320 -0.6024  0.2114
 1210TIP3    H1 3594   5.326   2.465   5.109 -1.5013 -0.5876  1.4188
 1210TIP3    H2 3595   5.370   2.341   5.184 -0.3012 -0.5683  0.7788
 1211TIP3   OH2 3596   4.222   1.842   4.804  0.0315 -0.3686 -0.4142
 1211TIP3    H1 3597   4.215   1.880   4.892 -1.7136  0.8663 -1.0191
 1211TIP3    H2 3598   4.265   1.910   4.752  1.0429 -1.0873 -0.5436
 1212TIP3   OH2 3599   0.090   1.253   4.961  0.2138  0.0127  0.1750
 1212TIP3    H1 3600   0.083   1.161   4.934  0.9371 -0.1653  0.5822
 1212TIP3    H2 3601   0.107   1.249   5.055 -0.8717  0.5971  0.4116
 1213TIP3   OH2 3602   6.978   3.244   3.908  0.6228  0.0570 -0.2810
 1213TIP3    H1 3603   7.025   3.292   3.977  2.0254  0.4713 -1.4716
 1213TIP3    H2 3604   7.045   3.190   3.866 -0.4845 -1.2250 -0.4574
 1214TIP3   OH2 3605   1.082   4.008   4.987 -0.3895  0.0162  0.2003
 1214TIP3    H1 3606   0.992   3.996   4.956 -0.4757 -1.3783  0.9266
 1214TIP3    H2 3607   1.108   3.922   5.021  2.2865 -0.4471 -2.6116
 1215TIP3   OH2 3608   1.362   0.054   1.051 -0.2946  0.5999  0.1772
 1215TIP3    H1 3609   1.345   0.018   0.964 -0.4826  0.0623  0.4321
 1215TIP3    H2 3610   1.294   0.120   1.063  0.9508  2.1369 -0.9009
 1216TIP3   OH2 3611   1.607   2.041   3.560 -0.0935 -0.0513  0.1443
 1216TIP3    H1 3612   1.615   2.136   3.551 -0.8468  0.0935  0.8564
 1216TIP3    H2 3613   1.562   2.029   3.644  0.0980 -1.0415  0.1137
 1217TIP3   OH2 3614   0.936   1.302   5.401 -0.3933  0.4965 -0.1193
 1217TIP3    H1 3615   0.927   1.325   5.494  0.7638  0.9748 -0.1161
 1217TIP3    H2 3616   0.897   1.214   5.395  1.1038 -0.3107  1.1815
 1218TIP3   OH2 3617   0.653   4.633   4.595  0.9336  0.0675 -0.4387
 1218TIP3    H1 3618   0.735   4.619   4.643  1.0696  0.2065 -0.6279
 1218TIP3    H2 3619   0.586   4.639   4.663  0.9732 -0.7434 -0.3097
 1219TIP3   OH2 3620   6.723   6.457   4.200 -0.4543 -0.0675 -0.1889
 1219TIP3    H1 3621   6.778   6.453   4.122  0.0452  1.6832  0.0331
 1219TIP3    H2 3622   6.653   6.518   4.176 -0.2966  0.4785  0.7317
 1220TIP3   OH2 3623   0.233   0.040   0.876 -0.7131  0.4283 -0.0830
 1220TIP3    H1 3624   0.179   0.046   0.797  0.0016  0.0893 -0.6095
 1220TIP3    H2 3625   0.267   0.128   0.889 -0.4337  0.3795 -0.4504
 1221TIP3   OH2 3626   7.097   6.061   2.320 -0.6176  0.4398 -0.2442
 1221TIP3    H1 3627   7.053   6.145   2.316  1.0461  1.3235 -1.4852
 1221TIP3    H2 3628   7.157   6.062   2.245 -1.0321 -2.1367 -0.7088
 1222TIP3   OH2 3629   5.181   2.500   5.020 -0.3846 -0.6232 -0.1757
 1222TIP3    H1 3630   5.092   2.534   5.023 -0.2729 -0.3831  2.2368
 1222TIP3    H2 3631   5.176   2.425   4.960 -1.9533  0.0316 -0.9087
 1223TIP3   OH2 3632   5.930   6.578   3.758  0.0600 -0.4127 -0.7069
 1223TIP3    H1 3633   5.922   6.484   3.770  0.8071 -0.4313 -0.3044
 1223TIP3    H2 3634   5.864   6.600   3.692  0.0340 -1.2493 -0.9651
 1224TIP3   OH2 3635   1.406   4.763   4.582 -0.2220  0.3491  0.0130
 1224TIP3    H1 3636   1.380   4.698   4.647  0.7078 -0.0774 -0.0389
 1224TIP3    H2 3637   1.501   4.759   4.580 -0.1854  1.2282 -0.4921
 1225TIP3   OH2 3638   6.489   1.427   5.742 -0.2443  0.7380  0.3758
 1225TIP3    H1 3639   6.468   1.495   5.806  0.0689  0.7057  0.5143
 1225TIP3    H2 3640   6.565   1.382   5.778  1.0189  1.8040 -0.8102
 1226TIP3   OH2 3641   3.798   1.088   4.550 -0.2892  0.1270 -0.3847
 1226TIP3    H1 3642   3.873   1.136   4.586 -0.4469 -0.3011  0.5615
 1226TIP3    H2 3643   3.730   1.098   4.617 -1.6861  1.9463 -1.9660
 1227TIP3   OH2 3644   1.827   2.922   4.646 -0.5762 -0.3769  0.0040
 1227TIP3    H1 3645   1.798   3.000   4.693 -2.7940 -2.0355  1.5700
 1227TIP3    H2 3646   1.749   2.890   4.601  0.1690 -1.9311 -0.2608
 1228TIP3   OH2 3647   5.843   2.471   2.153  0.3724 -0.4833 -0.1728
 1228TIP3    H1 3648   5.847   2.554   2.104 -1.0683 -0.8748 -1.0344
 1228TIP3    H2 3649   5.896   2.410   2.102  0.7866 -0.2931  0.0296
 1229TIP3   OH2 3650   5.155   4.015   0.364 -0.9562  0.1326  0.1906
 1229TIP3    H1 3651   5.110   4.025   0.448 -1.2344 -0.5485  0.1338
 1229TIP3    H2 3652   5.135   3.925   0.337 -0.2651  0.1026 -0.2514
 1230TIP3   OH2 3653   0.321   5.539   5.119  0.3664 -0.4745 -0.2027
 1230TIP3    H1 3654   0.249   5.571   5.064 -0.0152 -0.3784  0.3424
 1230TIP3    H2 3655   0.301   5.447   5.135  0.3185 -0.4275  0.0162
 1231TIP3   OH2 3656   0.761   5.838   1.214  0.7463  0.2895  0.4061
 1231TIP3    H1 3657   0.681   5.795   1.243 -0.2625  0.8613 -1.3479
 1231TIP3    H2 3658   0.817   5.839   1.291 -0.0278 -2.1512  1.1022
 1232TIP3   OH2 3659   0.030   0.677   3.172 -0.1349  0.3354  0.2219
 1232TIP3    H1 3660   0.054   0.637   3.255  0.6990  0.3413 -0.0079
 1232TIP3    H2 3661   0.019   0.770   3.193  1.5766  0.6157  0.0648
 1233TIP3   OH2 3662   0.287   2.130   1.886 -0.0145 -0.6476  0.1984
 1233TIP3    H1 3663   0.208   2.185   1.880  0.0435 -0.6195 -0.3667
 1233TIP3    H2 3664   0.270   2.072   1.960 -0.0045  0.2476  0.9227
 1234TIP3   OH2 3665   6.860   0.952   3.297  0.1146 -0.0617  0.3720
 1234TIP3    H1 3666   6.885   0.902   3.219  0.3631 -0.9458  1.0146
 1234TIP3    H2 3667   6.804   1.022   3.263  0.6136 -0.1526 -0.6590
 1235TIP3   OH2 3668   7.174   0.139   4.171 -0.0810  0.0435 -0.1000
 1235TIP3    H1 3669   7.194   0.145   4.265 -1.0401 -0.5069  0.1603
 1235TIP3    H2 3670   7.216   0.215   4.132 -1.0886  1.2413  1.0487
 1236TIP3   OH2 3671   2.976   3.654   2.623  0.4672 -0.2757 -0.0454
 1236TIP3    H1 3672   2.880   3.656   2.618  0.4683 -0.2738 -0.0656
 1236TIP3    H2 3673   3.005   3.711   2.552  0.4492  0.7926  0.7823
 1237TIP3   OH2 3674   5.277   6.148   4.507 -0.1240  0.2036  0.3082
 1237TIP3    H1 3675   5.304   6.222   4.453  0.7380 -0.3347 -0.0245
 1237TIP3    H2 3676   5.198   6.178   4.551 -0.8871  0.6542 -1.2903
 1238TIP3   OH2 3677   4.682   5.199   2.766 -0.1786  0.1949 -0.2371
 1238TIP3    H1 3678   4.598   5.186   2.811 -0.1944  1.3937  0.1217
 1238TIP3    H2 3679   4.663   5.177   2.674 -1.3675  1.9834 -0.4876
 1239TIP3   OH2 3680   1.280   2.944   3.892  0.5803 -0.7731  0.3825
 1239TIP3    H1 3681   1.189   2.932   3.919  0.3018  0.0093 -0.1941
 1239TIP3    H2 3682   1.325   2.867   3.927 -0.4137 -1.4845  0.1439
 1240TIP3   OH2 3683   4.403   0.478   4.833 -0.1765  0.6821  0.0887
 1240TIP3    H1 3684   4.487   0.491   4.789  0.5340 -0.5499  1.0095
 1240TIP3    H2 3685   4.394   0.552   4.892  2.3611 -1.1540  3.1052
 1241TIP3   OH2 3686   3.933   2.372   5.235 -0.1254 -0.2197 -0.0796
 1241TIP3    H1 3687   3.878   2.374   5.313  1.7681  0.0397  1.2977
 1241TIP3    H2 3688   3.933   2.280   5.209 -0.3195 -0.4027  0.5420
 1242TIP3   OH2 3689   1.348   0.207   1.933  0.4357 -0.0387  0.4753
 1242TIP3    H1 3690   1.387   0.199   1.846 -4.3917 -0.2470 -2.0136
 1242TIP3    H2 3691   1.331   0.301   1.942 -2.0902 -0.2994 -0.5539
 1243TIP3   OH2 3692   3.197   1.886   2.563 -0.4775  0.0887 -0.6992
 1243TIP3    H1 3693   3.228   1.954   2.503  0.5980 -0.3003 -0.6104
 1243TIP3    H2 3694   3.108   1.912   2.585 -0.5039  0.8145 -1.6194
 1244TIP3   OH2 3695   4.380   1.800   4.094 -0.6856  0.9843  0.4549
 1244TIP3    H1 3696   4.457   1.825   4.042  1.3434  0.0320  2.8089
 1244TIP3    H2 3697   4.349   1.882   4.132 -0.0468  1.2275  0.4721
 1245TIP3   OH2 3698   0.896   4.509   5.839  0.2044  0.1139 -0.2497
 1245TIP3    H1 3699   0.922   4.579   5.899  1.2378 -0.7345  0.3251
 1245TIP3    H2 3700   0.828   4.548   5.784  0.1563  1.2976  0.6259
 1246TIP3   OH2 3701   6.179   1.771   5.575 -0.0627 -0.0934  0.5006
 1246TIP3    H1 3702   6.108   1.834   5.589  0.6508  0.4806  1.7020
 1246TIP3    H2 3703   6.169   1.707   5.645 -1.9093 -2.4993 -1.7512
 1247TIP3   OH2 3704   5.983   6.773   3.941 -0.4471  0.0466 -0.2073
 1247TIP3    H1 3705   5.939   6.851   3.910  0.0659  0.1520 -0.6989
 1247TIP3    H2 3706   5.952   6.703   3.884 -0.9664 -0.1294  0.2822
 1248TIP3   OH2 3707   3.939   1.881   4.794 -0.6289  0.1024 -0.1072
 1248TIP3    H1 3708   3.910   1.864   4.883  0.6333  0.9018  0.4980
 1248TIP3    H2 3709   4.032   1.857   4.794 -0.6436 -0.0180 -1.2433
 1249TIP3   OH2 3710   6.065   3.792   3.110 -0.8394  0.3757  0.3979
 1249TIP3    H1 3711   5.971   3.800   3.096 -0.7677  0.6864  0.0808
 1249TIP3    H2 3712   6.102   3.790   3.021 -0.5251  0.5651  0.5228
 1250TIP3   OH2 3713   1.051   1.770   3.736 -0.5059  0.3042  0.2036
 1250TIP3    H1 3714   0.996   1.691   3.738  0.4261 -0.4110 -0.8565
 1250TIP3    H2 3715   1.134   1.741   3.775 -0.7548  1.3053  1.5718
 1251TIP3   OH2 3716   3.950   5.299   5.359 -0.4205 -0.8006 -0.4246
 1251TIP3    H1 3717   3.944   5.266   5.448 -1.3514 -0.5928 -0.4003
 1251TIP3    H2 3718   4.031   5.260   5.324  0.8761  0.4558  1.0354
 1252TIP3   OH2 3719   3.234   2.726   2.007  0.1113 -0.0330  0.6831
 1252TIP3    H1 3720   3.315   2.675   2.005 -1.0875 -2.0459 -0.5638
 1252TIP3    H2 3721   3.206   2.728   1.916 -0.6834  1.6210  0.9382
 1253TIP3   OH2 3722   3.300   2.435   4.204  0.1853 -0.9915  0.2035
 1253TIP3    H1 3723   3.256   2.459   4.285 -1.6781  0.3070 -1.1141
 1253TIP3    H2 3724   3.389   2.469   4.214 -0.2085 -0.2749  1.4611
 1254TIP3   OH2 3725   0.827   0.075   4.632  0.1791  0.1544 -0.5819
 1254TIP3    H1 3726   0.777   0.157   4.632  1.4504  0.9595  0.4068
 1254TIP3    H2 3727   0.835   0.053   4.539  1.7869  2.4220 -1.0708
 1255TIP3   OH2 3728   2.503   0.267   2.170  0.4185  0.4454  0.3212
 1255TIP3    H1 3729   2.514   0.176   2.143 -1.7212  0.6310 -1.5169
 1255TIP3    H2 3730   2.447   0.263   2.247 -0.8386  0.1806 -0.5590
 1256TIP3   OH2 3731   2.878   1.014   2.429 -0.5872 -0.1746  0.1640
 1256TIP3    H1 3732   2.874   1.076   2.502 -1.3865  1.8549 -1.4864
 1256TIP3    H2 3733   2.925   1.062   2.360 -2.6449 -0.7349 -1.7530
 1257TIP3   OH2 3734   6.893   6.618   0.005 -0.2563 -0.4629  0.1974
 1257TIP3    H1 3735   6.895   6.687   0.071  0.5042 -0.4067  0.1259
 1257TIP3    H2 3736   6.845   6.546   0.047  1.2834 -0.8986  1.2882
 1258TIP3   OH2 3737   1.624   2.374   2.771  0.4776  0.5372 -0.0252
 1258TIP3    H1 3738   1.557   2.378   2.840  2.2927  1.0197  1.8297
 1258TIP3    H2 3739   1.688   2.310   2.804  1.8289  1.4208 -0.8301
 1259TIP3   OH2 3740   4.670   3.582   4.288 -0.4870 -0.0231 -0.2791
 1259TIP3    H1 3741   4.595   3.617   4.239 -1.0931 -1.0194 -0.0750
 1259TIP3    H2 3742   4.723   3.537   4.222  1.7110  3.3196 -1.1070
 1260TIP3   OH2 3743   3.092  -0.021   1.405  0.3105 -0.4803  0.2489
 1260TIP3    H1 3744   2.997  -0.027   1.403  0.2989 -0.2231 -1.4917
 1260TIP3    H2 3745   3.111   0.065   1.442 -0.1217 -0.6395  0.8468
 1261TIP3   OH2 3746   1.218   4.844   2.085  0.1672 -0.5032 -0.3873
 1261TIP3    H1 3747   1.262   4.759   2.086  0.2643 -0.4582  0.9380
 1261TIP3    H2 3748   1.154   4.837   2.015  1.5471 -0.9495 -1.6519
 1262TIP3   OH2 3749   3.001   6.646   5.405  0.0790  0.4433  0.1489
 1262TIP3    H1 3750   3.060   6.578   5.373 -0.2942 -0.0190  0.4193
 1262TIP3    H2 3751   2.995   6.709   5.333 -1.3642 -0.9700 -1.0538
 1263TIP3   OH2 3752   5.468   2.876   3.421  0.2401  0.0702 -0.3970
 1263TIP3    H1 3753   5.455   2.781   3.430  1.2334 -0.1216 -0.7861
 1263TIP3    H2 3754   5.439   2.896   3.332  1.4466 -0.1563 -0.8612
 1264TIP3   OH2 3755   4.815   4.039   5.798 -0.1701 -0.6437 -0.5887
 1264TIP3    H1 3756   4.899   4.025   5.840 -0.3942  1.3808  0.6837
 1264TIP3    H2 3757   4.773   3.953   5.799  2.5747 -2.2155 -3.1186
 1265TIP3   OH2 3758   2.452   4.769   3.533 -0.1135 -0.1383  0.2294
 1265TIP3    H1 3759   2.499   4.749   3.452 -4.0757 -1.5158 -2.0260
 1265TIP3    H2 3760   2.401   4.848   3.512 -1.7695 -0.9419  1.0484
 1266TIP3   OH2 3761   0.935   3.652   3.692 -0.5828  0.1790  0.2042
 1266TIP3    H1 3762   0.900   3.741   3.693  0.5616  0.6594 -0.3355
 1266TIP3    H2 3763   1.018   3.659   3.643 -0.2058 -1.0788  0.6110
 1267TIP3   OH2 3764   5.520   6.441   0.482  0.0560  0.5506 -0.5745
 1267TIP3    H1 3765   5.541   6.475   0.395 -1.5052 -1.6594 -1.9087
 1267TIP3    H2 3766   5.424   6.441   0.486  0.0871  1.0200  1.3626
 1268TIP3   OH2 3767   6.273   2.973   4.035 -0.2643 -0.0422 -0.1622
 1268TIP3    H1 3768   6.326   2.906   3.991 -0.4976  1.2539 -2.5744
 1268TIP3    H2 3769   6.325   3.053   4.029 -1.6414  0.8271 -0.8159
 1269TIP3   OH2 3770   1.638   2.705   0.966  0.4238 -0.2698  0.0472
 1269TIP3    H1 3771   1.647   2.717   0.872 -0.8891 -0.9747 -0.1995
 1269TIP3    H2 3772   1.725   2.678   0.996  0.9125  0.1964 -0.9151
 1270TIP3   OH2 3773   3.241   6.312   3.464 -0.0123 -0.0401  0.0061
 1270TIP3    H1 3774   3.182   6.242   3.490  0.4648  0.0502  1.4353
 1270TIP3    H2 3775   3.188   6.391   3.470 -0.2409 -0.1524 -0.5010
 1271TIP3   OH2 3776   2.600   4.105   4.913 -0.0161 -0.0512 -0.1233
 1271TIP3    H1 3777   2.580   4.102   5.007  1.1280 -0.1003  0.1340
 1271TIP3    H2 3778   2.661   4.033   4.899  0.8013  0.7280 -0.6648
 1272TIP3   OH2 3779   5.744   3.851   5.724 -0.0367 -0.0351  0.5103
 1272TIP3    H1 3780   5.659   3.841   5.680  0.0512 -0.6773  0.4753
 1272TIP3    H2 3781   5.757   3.768   5.770  0.5633  0.0707  0.5405
 1273TIP3   OH2 3782   0.178   2.203   5.520  0.0491  0.4979  0.0735
 1273TIP3    H1 3783   0.153   2.229   5.432 -1.1856  0.9018  0.5208
 1273TIP3    H2 3784   0.248   2.139   5.508 -0.8388 -0.2593 -1.2237
 1274TIP3   OH2 3785   4.972   5.261   5.708 -0.2253 -0.3939 -0.6246
 1274TIP3    H1 3786   4.975   5.282   5.615 -0.7331 -1.0043 -0.7882
 1274TIP3    H2 3787   4.889   5.298   5.738 -0.3419 -0.7111 -0.5500
 1275TIP3   OH2 3788   3.244   5.160   4.950 -0.2509 -0.1441  0.0195
 1275TIP3    H1 3789   3.266   5.088   4.891 -0.0710 -0.0010 -0.0906
 1275TIP3    H2 3790   3.316   5.222   4.939 -1.8339  1.4751 -2.1872
 1276TIP3   OH2 3791   5.628   3.675   3.686 -0.9140 -0.0180 -0.0255
 1276TIP3    H1 3792   5.543   3.639   3.713 -1.3636  0.4974 -0.7022
 1276TIP3    H2 3793   5.605   3.745   3.625 -0.0803  1.3341  1.1296
 1277TIP3   OH2 3794   2.294   2.427   4.902  0.2879  0.0818 -0.2226
 1277TIP3    H1 3795   2.383   2.430   4.867 -0.1135  0.4525 -1.2403
 1277TIP3    H2 3796   2.299   2.367   4.977  1.6070  0.9176  0.3906
 1278TIP3   OH2 3797   5.739   3.114   2.193  0.0891  0.4383  0.0018
 1278TIP3    H1 3798   5.780   3.031   2.170 -0.3324  0.2336 -0.0259
 1278TIP3    H2 3799   5.676   3.091   2.261 -1.2547  0.4470 -1.2035
 1279TIP3   OH2 3800   2.530   4.562   2.729  0.0597 -0.1190  0.0265
 1279TIP3    H1 3801   2.620   4.563   2.762  0.1586 -0.7815 -0.2275
 1279TIP3    H2 3802   2.479   4.525   2.801  0.0090  0.1246  0.1168
 1280TIP3   OH2 3803   0.179   2.928   0.426 -0.3302 -0.2513  0.2228
 1280TIP3    H1 3804   0.253   2.975   0.388 -0.7943 -0.8905 -1.6256
 1280TIP3    H2 3805   0.218   2.860   0.480  0.5480 -1.2917 -1.6052
 1281TIP3   OH2 3806   6.781   2.002   2.975 -0.3004  0.0676  0.3012
 1281TIP3    H1 3807   6.837   1.930   3.006 -1.1556 -1.2620 -1.1040
 1281TIP3    H2 3808   6.810   2.018   2.885 -1.0001  0.5766  0.1596
 1282TIP3   OH2 3809   1.218   0.891   1.517  0.1003 -0.1117 -0.7309
 1282TIP3    H1 3810   1.280   0.943   1.465  0.5134 -1.4529 -1.6400
 1282TIP3    H2 3811   1.190   0.950   1.587  2.9404  0.3490  0.1543
 1283TIP3   OH2 3812   1.351   4.028   2.564  0.4814  0.3258 -0.1535
 1283TIP3    H1 3813   1.302   3.949   2.589  3.0457 -0.8230  1.6945
 1283TIP3    H2 3814   1.415   3.996   2.500 -0.5743  1.6558 -1.9697
 1284TIP3   OH2 3815   4.487   4.486   3.385 -0.2496 -0.0847 -0.0552
 1284TIP3    H1 3816   4.537   4.405   3.377 -1.0816 -0.5380 -0.8796
 1284TIP3    H2 3817   4.404   4.468   3.340 -1.5837  0.2975  2.1227
 1285TIP3   OH2 3818   4.857   0.481   5.612  0.1450 -0.0925  0.7291
 1285TIP3    H1 3819   4.905   0.433   5.544 -0.5185  0.5553 -0.2254
 1285TIP3    H2 3820   4.855   0.571   5.581  0.4865  0.3771  2.0008
 1286TIP3   OH2 3821   5.379   3.880   4.937  0.2290  0.5714  0.5909
 1286TIP3    H1 3822   5.321   3.953   4.917 -0.6615  0.7117  3.3519
 1286TIP3    H2 3823   5.467   3.919   4.937  0.1180  0.9069 -1.0180
 1287TIP3   OH2 3824   2.216   5.125   1.856  0.0171 -0.3878 -0.3902
 1287TIP3    H1 3825   2.214   5.214   1.891 -1.0942 -0.8279  0.7515
 1287TIP3    H2 3826   2.239   5.136   1.764  0.5928  1.0138 -0.1089
 1288TIP3   OH2 3827   5.011   6.412   0.160  0.5982 -0.3543 -0.2224
 1288TIP3    H1 3828   5.031   6.420   0.253 -0.5312 -0.2633  0.0253
 1288TIP3    H2 3829   5.069   6.476   0.118  1.5608 -0.8352  0.3459
 1289TIP3   OH2 3830   6.523   6.597   4.418  0.1630  0.2235  0.3049
 1289TIP3    H1 3831   6.609   6.633   4.397 -0.0047  0.5124  0.1123
 1289TIP3    H2 3832   6.507   6.625   4.509  0.8723 -1.0019  0.8404
 1290TIP3   OH2 3833   0.688   6.224   3.389  0.5098 -0.0649  0.5448
 1290TIP3    H1 3834   0.638   6.170   3.327  1.8620 -0.4313 -0.2699
 1290TIP3    H2 3835   0.748   6.162   3.431  1.4425  0.6302  0.2667
 1291TIP3   OH2 3836   2.227   5.529   5.766 -0.2239 -0.1057  0.3328
 1291TIP3    H1 3837   2.192   5.442   5.746 -2.0862  0.5072  0.7124
 1291TIP3    H2 3838   2.225   5.533   5.862 -0.0990  0.3435  0.3156
 1292TIP3   OH2 3839   3.626   4.229   1.555 -0.0079  0.0757  0.0070
 1292TIP3    H1 3840   3.601   4.137   1.546 -0.8246  0.3764 -1.0098
 1292TIP3    H2 3841   3.701   4.240   1.498  0.5402 -0.1074  0.6747
 1293TIP3   OH2 3842   4.860   1.845   3.830 -0.4440 -0.4294  0.0061
 1293TIP3    H1 3843   4.819   1.803   3.906  0.1950 -1.6799 -0.3117
 1293TIP3    H2 3844   4.953   1.825   3.840 -0.4167 -1.0941 -1.3890
 1294TIP3   OH2 3845   4.029   1.283   4.623  0.3260  0.3996  0.1018
 1294TIP3    H1 3846   4.025   1.302   4.717 -1.5777 -2.3275  0.7257
 1294TIP3    H2 3847   3.957   1.333   4.585 -2.4316 -2.3959  1.1493
 1295TIP3   OH2 3848   4.623   1.685   1.555 -0.2897 -0.1208 -0.3277
 1295TIP3    H1 3849   4.620   1.635   1.637 -0.7525 -0.5296 -0.5950
 1295TIP3    H2 3850   4.549   1.745   1.561 -0.8827 -0.7925 -0.8576
 1296TIP3   OH2 3851   4.358   6.547   5.483 -0.6504 -0.6877  0.0260
 1296TIP3    H1 3852   4.361   6.636   5.446 -1.8170 -1.2162 -1.4487
 1296TIP3    H2 3853   4.423   6.499   5.432 -0.1462 -0.7379  0.7056
 1297TIP3   OH2 3854   5.794   3.740   4.821 -0.2919 -0.6992 -0.4277
 1297TIP3    H1 3855   5.715   3.698   4.786 -0.9128  0.8968 -1.0558
 1297TIP3    H2 3856   5.856   3.741   4.748 -0.7740  0.6379 -0.8421
 1298TIP3   OH2 3857   5.020   6.442   5.378  0.1616  0.3188 -0.1723
 1298TIP3    H1 3858   5.008   6.367   5.437  1.6707 -1.0446 -1.5210
 1298TIP3    H2 3859   4.967   6.420   5.301 -1.1435  1.7106  0.2728
 1299TIP3   OH2 3860   7.071   1.922   2.558 -0.8185  0.0052 -0.2973
 1299TIP3    H1 3861   7.053   1.989   2.492 -0.8756  0.0099 -0.2768
 1299TIP3    H2 3862   7.023   1.950   2.635  1.4410  1.5005  0.6779
 1300TIP3   OH2 3863   0.814   4.405   5.509  0.5405  0.0294 -0.1150
 1300TIP3    H1 3864   0.754   4.347   5.463  0.5468 -1.2209  1.3464
 1300TIP3    H2 3865   0.764   4.437   5.584  0.9563  0.8979 -0.1997
 1301TIP3   OH2 3866   0.814   1.927   3.723  0.4259  0.1175  0.4385
 1301TIP3    H1 3867   0.784   1.889   3.640  0.6776  0.9785 -0.0544
 1301TIP3    H2 3868   0.897   1.883   3.741  0.7680  0.4989 -0.1848
 1302TIP3   OH2 3869   6.366   5.848   4.418 -0.1533 -0.3397 -0.2302
 1302TIP3    H1 3870   6.325   5.919   4.468  2.1906  0.8037  0.2093
 1302TIP3    H2 3871   6.457   5.846   4.449  0.5880 -1.6462 -2.2670
 1303TIP3   OH2 3872   1.386   2.471   2.915 -0.7702  0.5471 -0.1771
 1303TIP3    H1 3873   1.290   2.465   2.922 -0.8489 -0.1128 -1.4625
 1303TIP3    H2 3874   1.409   2.544   2.972 -1.8955 -0.0822  1.1526
 1304TIP3   OH2 3875   3.231   3.009   1.961  0.4689  0.3887 -0.0793
 1304TIP3    H1 3876   3.226   2.921   1.923  1.2661  0.6587 -0.8400
 1304TIP3    H2 3877   3.149   3.051   1.935  0.5328  0.2053 -0.5869
 1305TIP3   OH2 3878   6.029   0.269   3.934 -0.5198  0.2890  0.6062
 1305TIP3    H1 3879   6.121   0.244   3.923 -0.1598  0.9359  2.0153
 1305TIP3    H2 3880   6.008   0.247   4.025 -1.6337  0.5756  0.4418
 1306TIP3   OH2 3881   6.065   6.547   5.249 -0.4465  0.5332 -0.0935
 1306TIP3    H1 3882   5.971   6.566   5.241 -0.3398  0.3902 -2.0518
 1306TIP3    H2 3883   6.079   6.471   5.193  0.6491 -0.2007  1.1232
 1307TIP3   OH2 3884   5.181   1.765   2.001 -0.5696 -0.1543  0.7807
 1307TIP3    H1 3885   5.095   1.785   1.962 -0.4463 -2.8183 -1.1395
 1307TIP3    H2 3886   5.162   1.754   2.095 -2.3539 -0.6910  0.4065
 1308TIP3   OH2 3887   4.138   4.451   2.065 -0.4336 -0.3204  0.1380
 1308TIP3    H1 3888   4.219   4.493   2.094 -0.1451  0.0456 -1.1535
 1308TIP3    H2 3889   4.140   4.458   1.970 -0.9618 -2.2228 -0.0410
 1309TIP3   OH2 3890   0.361   6.695   3.905  0.4868  0.7096  0.3582
 1309TIP3    H1 3891   0.346   6.610   3.945  1.4408 -0.4829 -1.6647
 1309TIP3    H2 3892   0.456   6.698   3.890  0.4471  2.0750  0.2578
 1310TIP3   OH2 3893   6.907   5.423   1.792  0.3143 -0.1050  0.2663
 1310TIP3    H1 3894   6.888   5.511   1.761 -1.4312  0.5062  2.7660
 1310TIP3    H2 3895   6.923   5.433   1.886 -2.9205 -2.7019  1.3092
 1311TIP3   OH2 3896   2.747   5.329   5.304 -0.4981 -0.0391 -0.0712
 1311TIP3    H1 3897   2.752   5.338   5.208 -0.6651  2.2347  0.0894
 1311TIP3    H2 3898   2.714   5.240   5.317  0.2566 -0.6921 -2.0991
 1312TIP3   OH2 3899   4.280   5.098   1.912 -0.0004 -0.4549 -0.3015
 1312TIP3    H1 3900   4.184   5.101   1.906 -0.0450  1.4332  0.8650
 1312TIP3    H2 3901   4.299   5.117   2.003  1.5018 -1.5342 -0.3526
 1313TIP3   OH2 3902   3.099   6.546   3.477  0.4589  0.2535  0.1364
 1313TIP3    H1 3903   3.093   6.580   3.567 -0.6913 -1.8360  0.9150
 1313TIP3    H2 3904   3.071   6.620   3.422 -1.0497  0.9009  1.6661
 1314TIP3   OH2 3905   0.468   6.331   2.653 -0.5206 -0.1894 -0.4913
 1314TIP3    H1 3906   0.557   6.367   2.658  0.0322 -1.3893 -1.1609
 1314TIP3    H2 3907   0.466   6.264   2.722 -2.3791  2.6868  2.5230
 1315TIP3   OH2 3908   3.946   0.872   3.053  0.5446 -0.0443 -0.9046
 1315TIP3    H1 3909   3.946   0.936   3.125  2.3990 -0.3771 -0.5484
 1315TIP3    H2 3910   3.955   0.788   3.097 -0.8475 -0.4804 -1.4267
 1316TIP3   OH2 3911   3.740   5.392   1.783 -0.5108 -0.2077 -0.6880
 1316TIP3    H1 3912   3.720   5.484   1.800 -0.0608  0.0395 -1.4453
 1316TIP3    H2 3913   3.836   5.389   1.775 -0.5352 -0.7021 -0.8785
 1317TIP3   OH2 3914   1.678   3.858   0.509 -0.1012 -0.3340  0.7586
 1317TIP3    H1 3915   1.696   3.849   0.602  1.0683  0.7082  0.6442
 1317TIP3    H2 3916   1.618   3.932   0.503  1.4229  0.9382  0.5525
 1318TIP3   OH2 3917   0.017   0.431   3.073 -0.0099 -0.3736 -0.0204
 1318TIP3    H1 3918   0.095   0.382   3.099 -1.0594 -1.2506  1.7345
 1318TIP3    H2 3919   0.042   0.523   3.079  1.0601 -0.6548 -0.1072
 1319TIP3   OH2 3920   5.853   1.920   2.005 -0.7497 -0.3427 -0.1681
 1319TIP3    H1 3921   5.772   1.960   2.036 -0.1244  1.2058 -0.4438
 1319TIP3    H2 3922   5.824   1.842   1.957 -2.2009  0.9585 -1.5231
 1320TIP3   OH2 3923   4.886   0.611   0.669 -0.8074 -0.2551  0.3590
 1320TIP3    H1 3924   4.823   0.555   0.715  0.6645 -2.2166  0.1622
 1320TIP3    H2 3925   4.954   0.629   0.735  0.2025 -1.2274 -0.3710
 1321TIP3   OH2 3926   3.712   6.128   4.212 -0.0335  0.4427  0.1053
 1321TIP3    H1 3927   3.650   6.078   4.159 -1.0855  0.6491  1.0796
 1321TIP3    H2 3928   3.720   6.078   4.293 -0.4952  1.4150  0.7848
 1322TIP3   OH2 3929   1.746   4.155   0.612 -0.1121 -0.4268 -0.1401
 1322TIP3    H1 3930   1.673   4.129   0.556  1.5839 -0.1962 -2.5991
 1322TIP3    H2 3931   1.713   4.230   0.661 -1.8692 -1.0366 -0.3192
 1323TIP3   OH2 3932   2.621   3.218   2.453  0.3839 -0.4711 -0.0874
 1323TIP3    H1 3933   2.702   3.179   2.486  0.5051 -0.0994  0.0647
 1323TIP3    H2 3934   2.635   3.312   2.463 -0.6784 -0.4437  1.4400
 1324TIP3   OH2 3935   1.557   1.420   0.177  0.5855 -0.3389  0.1931
 1324TIP3    H1 3936   1.600   1.378   0.251  1.9514 -1.5397 -1.1994
 1324TIP3    H2 3937   1.617   1.490   0.151 -0.0303  0.2692  0.4006
 1325TIP3   OH2 3938   0.828   6.287   1.564  0.6757 -0.4228  0.0565
 1325TIP3    H1 3939   0.917   6.293   1.600  0.9144  0.9481 -0.7067
 1325TIP3    H2 3940   0.799   6.377   1.555  0.5391 -0.6549 -2.9303
 1326TIP3   OH2 3941   4.772   2.518   3.927 -0.0343 -0.4249 -0.0566
 1326TIP3    H1 3942   4.740   2.430   3.909  0.6200 -0.4348 -1.2706
 1326TIP3    H2 3943   4.852   2.526   3.875  1.1245  0.1279  1.6902
 1327TIP3   OH2 3944   4.636   6.707   0.768 -0.5368 -0.2484 -0.5895
 1327TIP3    H1 3945   4.645   6.636   0.831 -0.2969  0.0808 -0.2476
 1327TIP3    H2 3946   4.567   6.762   0.804  0.2199  0.4321 -0.1285
 1328TIP3   OH2 3947   2.162   4.040   0.281 -0.0264 -0.2737  0.1691
 1328TIP3    H1 3948   2.235   4.099   0.303  1.3194 -1.6303 -0.4735
 1328TIP3    H2 3949   2.096   4.058   0.347 -0.4613  3.2443 -1.0198
 1329TIP3   OH2 3950   3.807   2.888   1.444  0.0596 -0.3008  0.0845
 1329TIP3    H1 3951   3.806   2.960   1.381 -1.5337 -0.5243 -0.1647
 1329TIP3    H2 3952   3.773   2.813   1.396  0.1567 -0.8266  0.8208
 1330TIP3   OH2 3953   3.389   3.331   0.215 -0.6066  0.2156 -0.2244
 1330TIP3    H1 3954   3.359   3.240   0.224  3.5197 -1.2360  0.8066
 1330TIP3    H2 3955   3.424   3.336   0.126  0.2838  0.3871  0.1274
 1331TIP3   OH2 3956   4.157   4.238   0.544 -0.2535 -0.4263  0.0092
 1331TIP3    H1 3957   4.140   4.332   0.542 -0.0248 -0.3742  0.5209
 1331TIP3    H2 3958   4.146   4.213   0.636  0.9950 -0.6575  0.1089
 1332TIP3   OH2 3959   1.738   6.566   4.110 -0.0001  0.3490 -0.1008
 1332TIP3    H1 3960   1.723   6.595   4.019  0.3929 -0.7148 -0.5219
 1332TIP3    H2 3961   1.828   6.534   4.110 -0.1386 -0.0417  0.5608
 1333TIP3   OH2 3962   5.262   6.623   4.772 -0.1279  0.1390 -0.5790
 1333TIP3    H1 3963   5.265   6.621   4.676  1.2870  1.3692 -0.5976
 1333TIP3    H2 3964   5.354   6.617   4.799 -0.5934 -2.6025  0.8300
 1334TIP3   OH2 3965   6.436   3.954   3.439 -0.2679  0.6335  0.0148
 1334TIP3    H1 3966   6.440   3.875   3.494 -1.5009  1.4668  1.3770
 1334TIP3    H2 3967   6.344   3.962   3.416 -0.2131  1.8311  0.1513
 1335TIP3   OH2 3968   1.965   6.485   3.334  0.0186 -0.0679 -0.2678
 1335TIP3    H1 3969   2.039   6.531   3.373 -0.3674 -0.5730  1.1075
 1335TIP3    H2 3970   1.888   6.530   3.368 -0.3601 -1.4793  0.8158
 1336TIP3   OH2 3971   4.037   2.128   4.654  0.2046  0.2282  0.1560
 1336TIP3    H1 3972   4.000   2.055   4.705  0.8593 -0.0838  0.2037
 1336TIP3    H2 3973   4.132   2.114   4.659  0.2813  0.1734 -1.1825
 1337TIP3   OH2 3974   6.943   4.697   2.771 -0.1771 -0.0664 -0.3455
 1337TIP3    H1 3975   6.890   4.687   2.850  0.6635  0.4586  0.3123
 1337TIP3    H2 3976   6.921   4.622   2.717 -0.4878 -0.6458  0.5652
 1338TIP3   OH2 3977   6.749   5.434   1.390 -0.0920 -0.1833  0.5169
 1338TIP3    H1 3978   6.676   5.398   1.441 -1.2217  2.1148  0.6111
 1338TIP3    H2 3979   6.714   5.444   1.301  0.4597 -0.0320  0.3133
 1339TIP3   OH2 3980   1.754   5.363   1.692 -0.2180 -0.0542  0.2728
 1339TIP3    H1 3981   1.710   5.434   1.645 -0.4664  0.6071  1.4461
 1339TIP3    H2 3982   1.805   5.318   1.625 -3.5529 -1.6365 -1.4399
 1340TIP3   OH2 3983   1.822   5.093   3.073  0.3172  0.1639  0.1738
 1340TIP3    H1 3984   1.791   5.011   3.111  0.8840  0.1854  0.6994
 1340TIP3    H2 3985   1.751   5.122   3.016  0.8557 -1.6520 -1.5184
 1341TIP3   OH2 3986   3.918   3.239   4.240  0.0466  0.6519  0.4074
 1341TIP3    H1 3987   3.970   3.187   4.300 -0.6719  0.5986  0.9975
 1341TIP3    H2 3988   3.880   3.308   4.294 -1.5264 -0.0619  0.2654
 1342TIP3   OH2 3989   6.982   2.486   1.478 -0.4228  0.2723 -0.2402
 1342TIP3    H1 3990   7.067   2.473   1.436 -0.6304 -0.4541 -0.4616
 1342TIP3    H2 3991   6.971   2.410   1.535  0.2714  1.7019  1.9063
 1343TIP3   OH2 3992   5.316   1.767   0.954  0.1280  0.4033 -0.2095
 1343TIP3    H1 3993   5.323   1.672   0.951  0.8191  0.3340  1.8054
 1343TIP3    H2 3994   5.407   1.797   0.958 -0.1162  1.0395  0.8500
 1344TIP3   OH2 3995   1.110   1.621   4.768 -0.9355 -0.0848 -0.2368
 1344TIP3    H1 3996   1.072   1.587   4.687  1.5078 -0.9409 -1.1193
 1344TIP3    H2 3997   1.100   1.550   4.831 -1.8884  0.1791 -0.0784
 1345TIP3   OH2 3998   6.062   0.586   4.623  0.1300  0.3237  0.0348
 1345TIP3    H1 3999   6.075   0.493   4.641 -0.9749 -0.0373 -0.9352
 1345TIP3    H2 4000   5.988   0.589   4.563  0.9689  1.7435 -0.9942
 1346TIP3   OH2 4001   3.501   1.513   1.224  0.1858  0.4142  1.0407
 1346TIP3    H1 4002   3.561   1.445   1.254 -1.0980 -0.7343  1.0777
 1346TIP3    H2 4003   3.458   1.475   1.148  0.6420  1.8473  0.0070
 1347TIP3   OH2 4004   5.627   5.864   0.161 -0.5329  0.4495 -0.5041
 1347TIP3    H1 4005   5.701   5.827   0.112 -1.2289  0.2588 -1.4498
 1347TIP3    H2 4006   5.642   5.835   0.251  0.5669  0.4593 -0.6625
 1348TIP3   OH2 4007   6.402   3.265   4.269  0.3412  0.7215 -0.8621
 1348TIP3    H1 4008   6.430   3.211   4.195 -0.6847 -2.0080  0.6142
 1348TIP3    H2 4009   6.309   3.281   4.253  0.2620  0.6581 -0.4721
 1349TIP3   OH2 4010   5.218   0.542   1.118  0.6495  0.2600  0.3879
 1349TIP3    H1 4011   5.179   0.463   1.080  0.8577  0.4082 -0.1364
 1349TIP3    H2 4012   5.312   0.527   1.111  0.7176  1.2393 -1.1758
 1350TIP3   OH2 4013   3.991   0.662   3.249 -0.6585  0.4646 -0.1201
 1350TIP3    H1 4014   4.047   0.722   3.300 -1.1673  0.8414  0.0040
 1350TIP3    H2 4015   3.998   0.578   3.295  1.0315  0.0764 -0.9846
 1351TIP3   OH2 4016   0.342   1.376   4.865  0.0403  0.0850  0.1244
 1351TIP3    H1 4017   0.271   1.340   4.918 -1.1965 -0.0162 -1.5177
 1351TIP3    H2 4018   0.311   1.463   4.840  0.3717 -0.0407 -0.7787
 1352TIP3   OH2 4019   3.778   6.544   4.549 -0.1013 -0.2235  0.4802
 1352TIP3    H1 4020   3.743   6.634   4.548 -0.5135 -0.3677  1.2221
 1352TIP3    H2 4021   3.872   6.556   4.558 -0.0748  0.1450 -0.1690
 1353TIP3   OH2 4022   6.539   5.771   4.960  0.0698  0.1776  0.3568
 1353TIP3    H1 4023   6.522   5.788   4.867 -0.3765 -1.3827  0.1347
 1353TIP3    H2 4024   6.625   5.811   4.976 -0.2930  1.3465 -0.4509
 1354TIP3   OH2 4025   0.654   0.455   4.089  0.3450 -0.1622 -0.2885
 1354TIP3    H1 4026   0.582   0.430   4.146 -0.0195  2.3257  0.4554
 1354TIP3    H2 4027   0.733   0.436   4.139  0.0872  0.0213  0.1921
 1355TIP3   OH2 4028   6.146   4.636   3.442 -1.0828 -0.1704 -0.4459
 1355TIP3    H1 4029   6.208   4.593   3.501 -0.6426  0.7787 -0.1911
 1355TIP3    H2 4030   6.083   4.567   3.419  0.2033 -1.2217 -0.9230
 1356TIP3   OH2 4031   3.933   3.080   3.497  0.3611  0.3823 -0.0858
 1356TIP3    H1 4032   3.839   3.095   3.511  0.3100  2.4175 -1.9950
 1356TIP3    H2 4033   3.937   3.034   3.413  1.0892  0.8877 -0.3326
 1357TIP3   OH2 4034   6.693   1.274   5.822  0.4080 -0.1815  0.0052
 1357TIP3    H1 4035   6.774   1.295   5.869  0.2680 -2.0320  1.1333
 1357TIP3    H2 4036   6.722   1.225   5.745  0.5056  1.3527 -0.9761
 1358TIP3   OH2 4037   1.209   6.642   4.873 -0.0931  0.2594 -0.2371
 1358TIP3    H1 4038   1.213   6.737   4.884 -0.1913  0.3213 -0.7439
 1358TIP3    H2 4039   1.277   6.609   4.932  0.3253  0.6710 -0.4814
 1359TIP3   OH2 4040   2.751   4.299   0.957  0.0537  0.4710 -0.9457
 1359TIP3    H1 4041   2.682   4.268   1.014  1.1584 -0.8060 -0.2434
 1359TIP3    H2 4042   2.729   4.390   0.939 -0.3432  0.9019  1.5026
 1360TIP3   OH2 4043   0.124   6.310   4.327 -0.7217 -0.0655  0.1046
 1360TIP3    H1 4044   0.168   6.381   4.373 -0.6011 -0.5430  0.7480
 1360TIP3    H2 4045   0.194   6.247   4.308 -0.9461 -0.3521  0.2147
 1361TIP3   OH2 4046   0.909   3.032   0.924 -0.0149 -0.2789  0.2128
 1361TIP3    H1 4047   0.817   3.016   0.905 -0.3324  2.1113 -0.5308
 1361TIP3    H2 4048   0.955   2.997   0.847 -0.3439 -0.9084  0.2994
 1362TIP3   OH2 4049   0.867   1.014   5.532  0.5760 -0.3532  0.5335
 1362TIP3    H1 4050   0.807   1.011   5.607 -1.0779  1.4936 -0.6145
 1362TIP3    H2 4051   0.946   1.055   5.567 -0.6054  1.6355  1.0980
 1363TIP3   OH2 4052   5.420   1.142   0.142  0.6029 -0.4223  0.2312
 1363TIP3    H1 4053   5.500   1.147   0.194 -0.5705  0.0337  2.0960
 1363TIP3    H2 4054   5.422   1.221   0.088  2.3871 -1.4592 -1.3125
 1364TIP3   OH2 4055   2.293   6.781   1.449  0.2387  0.0716  0.2997
 1364TIP3    H1 4056   2.224   6.757   1.511 -0.9976 -0.8614 -1.3585
 1364TIP3    H2 4057   2.356   6.709   1.453  0.3416  0.1788  0.6927
 1365TIP3   OH2 4058   5.928   6.242   3.366  0.1846  0.2595  0.2799
 1365TIP3    H1 4059   5.837   6.215   3.367  0.5448 -1.0330  0.9208
 1365TIP3    H2 4060   5.930   6.323   3.418 -0.8396  1.3135 -1.2360
 1366TIP3   OH2 4061   1.729   3.511   4.999  0.5169  0.7459  0.0889
 1366TIP3    H1 4062   1.693   3.451   4.933  0.7351  1.3392 -0.5831
 1366TIP3    H2 4063   1.793   3.564   4.951 -0.9343  2.7324  0.2400
 1367TIP3   OH2 4064   1.508   5.295   1.094  0.2084 -0.4048  1.0570
 1367TIP3    H1 4065   1.476   5.240   1.023  0.2775  0.7106  0.1459
 1367TIP3    H2 4066   1.429   5.316   1.145 -0.0358 -0.2022  0.6030
 1368TIP3   OH2 4067   6.305   4.223   0.412  0.7448 -0.5426  0.3998
 1368TIP3    H1 4068   6.318   4.317   0.418 -1.1967 -0.0778 -1.3948
 1368TIP3    H2 4069   6.347   4.187   0.490  1.1884  1.8241  1.3127
 1369TIP3   OH2 4070   5.757   1.314   0.736  0.3872  0.5755 -0.6385
 1369TIP3    H1 4071   5.794   1.401   0.750 -1.3824  1.1897  0.5764
 1369TIP3    H2 4072   5.685   1.328   0.674  0.4877 -0.1303 -0.9249
 1370TIP3   OH2 4073   6.419   6.601   0.620 -0.0321 -0.1009 -0.0367
 1370TIP3    H1 4074   6.435   6.687   0.659 -1.7729  0.2696 -0.0719
 1370TIP3    H2 4075   6.324   6.593   0.617  0.0746 -2.2703  0.4651
 1371TIP3   OH2 4076   1.650   4.683   4.213 -0.1973 -0.0431  0.3473
 1371TIP3    H1 4077   1.560   4.704   4.235 -0.4528 -2.0302  1.3415
 1371TIP3    H2 4078   1.678   4.621   4.280  1.7754  0.1903 -0.1945
 1372TIP3   OH2 4079   1.054   5.655   1.314 -0.7563 -0.0981  0.0136
 1372TIP3    H1 4080   1.075   5.562   1.303  2.0528  0.5647 -1.0139
 1372TIP3    H2 4081   1.034   5.685   1.225  1.6725  0.9069 -0.2809
 1373TIP3   OH2 4082   1.152   2.156   2.311  0.3045  0.4081  0.3358
 1373TIP3    H1 4083   1.097   2.098   2.363  0.1898  1.3338  1.2739
 1373TIP3    H2 4084   1.091   2.210   2.262  0.3580  1.2526  1.1726
 1374TIP3   OH2 4085   0.292   5.448   1.029  0.1369  0.9852 -0.1953
 1374TIP3    H1 4086   0.304   5.477   1.119  0.5673  2.4770 -0.7017
 1374TIP3    H2 4087   0.205   5.409   1.027  1.3930 -2.3471  1.6575
 1375TIP3   OH2 4088   3.302   1.154   2.840 -0.4556 -0.2919  0.7887
 1375TIP3    H1 4089   3.360   1.229   2.831  0.4221 -1.0676 -0.3489
 1375TIP3    H2 4090   3.298   1.137   2.934  2.0615 -0.8549  0.8755
 1376TIP3   OH2 4091   1.424   4.631   1.417  0.5131  0.0877  0.4298
 1376TIP3    H1 4092   1.470   4.585   1.347 -0.4473 -0.8225  0.3679
 1376TIP3    H2 4093   1.385   4.707   1.375 -2.2240 -1.7782 -0.6950
 1377TIP3   OH2 4094   3.969   1.981   0.711  1.0738  0.3574  0.0679
 1377TIP3    H1 4095   3.932   1.940   0.790  1.3246  1.5712  0.8477
 1377TIP3    H2 4096   4.043   2.032   0.744  0.5062  1.7909 -0.7792
 1378TIP3   OH2 4097   3.587   1.329   0.605  0.4776  0.3058 -0.3822
 1378TIP3    H1 4098   3.650   1.399   0.620  0.6025 -0.0626  0.9518
 1378TIP3    H2 4099   3.501   1.372   0.611  0.5379  0.9711 -3.0437
 1379TIP3   OH2 4100   6.392   4.274   2.449 -0.3191  0.1667 -0.7339
 1379TIP3    H1 4101   6.324   4.265   2.383 -0.3868 -0.4768 -0.5817
 1379TIP3    H2 4102   6.424   4.185   2.463  1.5085  0.5915 -1.8157
 1380TIP3   OH2 4103   3.834   6.571   0.971  0.2654  0.1359 -0.2039
 1380TIP3    H1 4104   3.765   6.619   0.925  0.3704 -0.1609 -0.6764
 1380TIP3    H2 4105   3.795   6.548   1.056 -0.1664  0.0858 -0.4140
 1381TIP3   OH2 4106   3.671   2.126   1.776 -0.5016  0.7748 -0.6188
 1381TIP3    H1 4107   3.583   2.087   1.775  0.0111 -0.4806  0.1478
 1381TIP3    H2 4108   3.660   2.209   1.822 -1.2980  0.6524 -0.5724
 1382TIP3   OH2 4109   7.048   0.171   3.916  0.6749 -0.1492 -0.1949
 1382TIP3    H1 4110   7.064   0.142   3.826  0.5621 -0.5444 -0.0887
 1382TIP3    H2 4111   7.133   0.165   3.959  0.7361  0.0730 -0.2821
 1383TIP3   OH2 4112   4.301   1.604   5.436 -0.1740 -0.0509 -0.2420
 1383TIP3    H1 4113   4.343   1.528   5.396  1.3410  0.4384  0.3643
 1383TIP3    H2 4114   4.341   1.679   5.393 -0.5908  0.4381  0.2095
 1384TIP3   OH2 4115   5.802   6.250   4.099 -0.5226  0.3713 -0.4030
 1384TIP3    H1 4116   5.718   6.258   4.145  0.0066 -0.2829  0.7311
 1384TIP3    H2 4117   5.810   6.156   4.082  0.3930  0.3044  0.3258
 1385TIP3   OH2 4118   1.558   1.799   1.387 -0.2408 -0.3816 -0.7429
 1385TIP3    H1 4119   1.590   1.835   1.305 -1.2512  1.3395 -0.4223
 1385TIP3    H2 4120   1.499   1.728   1.361  0.3910 -0.6564 -1.4476
 1386TIP3   OH2 4121   1.704   4.000   3.811 -1.1773  0.2780 -0.3519
 1386TIP3    H1 4122   1.764   4.067   3.845 -2.3512  0.4978  1.4082
 1386TIP3    H2 4123   1.729   3.920   3.856 -3.1748  0.7079  1.6958
 1387TIP3   OH2 4124   5.903   3.613   3.670  0.3476  0.3316  0.6987
 1387TIP3    H1 4125   5.929   3.667   3.744 -0.1529  0.0303  1.1007
 1387TIP3    H2 4126   5.816   3.646   3.646 -0.4058 -0.9402  1.5903
 1388TIP3   OH2 4127   7.099   4.917   3.373 -0.3283  0.4108 -0.4329
 1388TIP3    H1 4128   7.010   4.907   3.339  0.4384  0.8677 -2.7818
 1388TIP3    H2 4129   7.101   5.005   3.410 -0.0610  1.7110 -3.2877
 1389TIP3   OH2 4130   7.135   3.033   0.413  0.0708 -0.1554 -0.6856
 1389TIP3    H1 4131   7.212   2.985   0.383  0.0349  1.5017 -3.7712
 1389TIP3    H2 4132   7.171   3.105   0.466  0.6652  0.4763 -1.9151
 1390TIP3   OH2 4133   2.595   0.293   4.860 -0.1726 -0.2847  0.6138
 1390TIP3    H1 4134   2.520   0.234   4.855 -0.3252 -0.0158 -1.5221
 1390TIP3    H2 4135   2.592   0.342   4.777  2.6190 -0.6499  0.1918
 1391TIP3   OH2 4136   4.568   5.068   0.376 -0.0932 -0.1872 -0.1097
 1391TIP3    H1 4137   4.651   5.037   0.413  0.0582 -0.3263 -0.5597
 1391TIP3    H2 4138   4.523   4.988   0.350  0.1921 -0.0594 -1.0528
 1392TIP3   OH2 4139   2.010   4.350   5.088 -0.0276 -0.3409  0.1498
 1392TIP3    H1 4140   2.000   4.332   5.181 -0.0963  0.6250  0.3392
 1392TIP3    H2 4141   2.087   4.299   5.061 -0.7686 -1.6396  0.4348
 1393TIP3   OH2 4142   0.767   5.445   2.445 -0.6669  0.4303  0.8920
 1393TIP3    H1 4143   0.743   5.525   2.491  0.7633 -0.3262  3.0865
 1393TIP3    H2 4144   0.827   5.474   2.376 -0.8999  1.3536  1.0708
 1394TIP3   OH2 4145   7.156   1.233   4.040  0.9354 -0.0467  0.2198
 1394TIP3    H1 4146   7.194   1.321   4.039 -1.6476  1.1689 -0.7016
 1394TIP3    H2 4147   7.105   1.228   3.959  0.2043 -2.0249  0.7410
 1395TIP3   OH2 4148   1.628   2.953   3.629 -0.2821 -0.2200 -0.0569
 1395TIP3    H1 4149   1.674   2.932   3.548 -0.9693  0.6974 -0.6964
 1395TIP3    H2 4150   1.587   2.871   3.655  0.6217 -0.7295 -0.1761
 1396TIP3   OH2 4151   4.086   3.317   3.609  0.5127  0.3629  0.7474
 1396TIP3    H1 4152   4.054   3.233   3.577 -0.6231  0.5333  1.3958
 1396TIP3    H2 4153   4.020   3.346   3.672  1.1557  1.4895  0.9335
 1397TIP3   OH2 4154   1.566   5.360   0.359 -0.2429  0.5578  0.3044
 1397TIP3    H1 4155   1.649   5.378   0.404 -0.2094  1.6596 -0.1753
 1397TIP3    H2 4156   1.592   5.317   0.278 -0.2402 -0.4338  0.8143
 1398TIP3   OH2 4157   3.650   5.473   2.641 -0.2328 -0.4067 -0.0840
 1398TIP3    H1 4158   3.643   5.534   2.715  0.0164  0.7261 -0.9572
 1398TIP3    H2 4159   3.595   5.399   2.666 -0.0974 -0.0827  1.2595
 1399TIP3   OH2 4160   4.325   2.512   4.570 -0.3942  0.0670 -0.2285
 1399TIP3    H1 4161   4.378   2.592   4.577  1.0305 -0.7343 -1.3363
 1399TIP3    H2 4162   4.388   2.441   4.585 -1.3651 -0.8932 -0.5996
 1400TIP3   OH2 4163   7.148   1.521   2.833  0.3619 -0.1791  0.4666
 1400TIP3    H1 4164   7.101   1.504   2.914  0.8074 -0.7459  0.6173
 1400TIP3    H2 4165   7.079   1.538   2.768  0.0224  0.8975  1.0829
 1401TIP3   OH2 4166   4.702   3.912   0.748 -0.7517  0.0567 -0.8087
 1401TIP3    H1 4167   4.744   3.838   0.704 -0.7326  0.1174 -0.8928
 1401TIP3    H2 4168   4.771   3.949   0.804 -0.5959  0.3589 -1.1961
 1402TIP3   OH2 4169   1.034   2.780   2.052  0.1811 -0.0326  0.0085
 1402TIP3    H1 4170   0.949   2.750   2.083  0.9391 -2.9748 -0.4376
 1402TIP3    H2 4171   1.014   2.841   1.981 -1.5002  1.6354  1.8213
 1403TIP3   OH2 4172   2.246   5.128   1.558  0.0513 -0.4801  0.3188
 1403TIP3    H1 4173   2.250   5.069   1.483 -1.6671 -1.3061  0.8244
 1403TIP3    H2 4174   2.335   5.130   1.592  0.4629 -1.5915 -0.6282
 1404TIP3   OH2 4175   6.938   4.138   5.553 -0.2321  0.2313  0.1683
 1404TIP3    H1 4176   6.891   4.143   5.470  0.3691  2.1032 -0.1078
 1404TIP3    H2 4177   6.986   4.054   5.549 -0.2791  0.2548 -1.3293
 1405TIP3   OH2 4178   4.374   5.588   3.060  0.4885 -0.0997 -0.4001
 1405TIP3    H1 4179   4.287   5.627   3.068  0.9500  1.2806 -1.5216
 1405TIP3    H2 4180   4.382   5.565   2.968  0.9357 -1.2018 -0.1038
 1406TIP3   OH2 4181   5.651   3.205   3.696  0.6697 -0.2293  0.2009
 1406TIP3    H1 4182   5.709   3.278   3.672  0.9394 -0.2702  0.7240
 1406TIP3    H2 4183   5.590   3.243   3.758 -0.0570 -0.1145 -0.5703
 1407TIP3   OH2 4184   1.686   2.266   2.411  0.6539  0.1575 -0.0687
 1407TIP3    H1 4185   1.650   2.198   2.467  0.1697  0.4668  0.0016
 1407TIP3    H2 4186   1.612   2.323   2.391  0.2496 -1.2284 -2.9833
 1408TIP3   OH2 4187   3.189   0.260   3.930  0.2648 -0.1772 -0.8836
 1408TIP3    H1 4188   3.210   0.167   3.920 -1.0157 -0.9439  2.2987
 1408TIP3    H2 4189   3.267   0.306   3.900  1.6156 -2.3651 -0.9019
 1409TIP3   OH2 4190   6.673   1.141   3.219 -0.1922  0.0052 -0.5967
 1409TIP3    H1 4191   6.625   1.155   3.300 -1.4721 -0.5477 -1.2129
 1409TIP3    H2 4192   6.612   1.169   3.150  0.5371 -0.3234 -1.3983
 1410TIP3   OH2 4193   2.384   4.669   4.657 -0.2033 -0.9168  0.3977
 1410TIP3    H1 4194   2.446   4.643   4.590  0.4890  0.9077  0.2675
 1410TIP3    H2 4195   2.338   4.589   4.680 -0.0188 -1.6931 -1.7843
 1411TIP3   OH2 4196   5.791   6.030   3.809 -0.4704 -0.2893  0.6865
 1411TIP3    H1 4197   5.712   6.085   3.801 -0.0390  0.2909  0.3648
 1411TIP3    H2 4198   5.774   5.955   3.753  0.3628  1.2079 -1.6898
 1412TIP3   OH2 4199   6.170   0.834   4.947 -0.0592 -0.2548  0.1624
 1412TIP3    H1 4200   6.256   0.793   4.942  0.2576  0.4646 -0.4314
 1412TIP3    H2 4201   6.109   0.762   4.933  0.5159 -0.4283 -1.8628
 1413TIP3   OH2 4202   6.247   6.727   4.021 -0.3095  0.5654 -0.7241
 1413TIP3    H1 4203   6.158   6.756   4.002 -1.0711 -1.1284  0.0770
 1413TIP3    H2 4204   6.240   6.633   4.032  1.5344  0.4403 -0.2719
 1414TIP3   OH2 4205   6.358   3.957   1.883  0.0061  0.3499  0.2324
 1414TIP3    H1 4206   6.284   3.897   1.871  0.2860  0.0191  0.1379
 1414TIP3    H2 4207   6.374   3.957   1.977 -0.5960  1.0097  0.3389
 1415TIP3   OH2 4208   5.788   0.127   3.250 -0.2184  0.1511 -0.0722
 1415TIP3    H1 4209   5.769   0.135   3.343  0.9109 -0.7660  0.2577
 1415TIP3    H2 4210   5.822   0.038   3.239 -0.4776  0.1826 -1.3904
 1416TIP3   OH2 4211   0.074   0.782   2.868  0.3413 -0.3059 -0.4061
 1416TIP3    H1 4212   0.082   0.747   2.956 -2.5960 -0.0390  0.0619
 1416TIP3    H2 4213   0.118   0.867   2.872  1.2445 -0.7969  0.4519
 1417TIP3   OH2 4214   1.292   5.563   5.596  0.6918  0.6899  0.8601
 1417TIP3    H1 4215   1.209   5.569   5.645  1.2494  1.5737  1.7577
 1417TIP3    H2 4216   1.316   5.471   5.600 -2.2475 -0.4908 -2.9453
 1418TIP3   OH2 4217   2.591   4.647   4.459  0.0264 -0.0456  0.1473
 1418TIP3    H1 4218   2.666   4.694   4.423 -0.5548  1.8855  1.3128
 1418TIP3    H2 4219   2.629   4.584   4.521  0.7576 -0.2176 -0.4660
 1419TIP3   OH2 4220   6.159   4.540   4.001 -0.6400 -0.0099 -0.1962
 1419TIP3    H1 4221   6.218   4.616   4.001 -0.9114  0.3009  2.1003
 1419TIP3    H2 4222   6.187   4.489   4.077 -0.7062 -2.0611 -1.4859
 1420TIP3   OH2 4223   0.213   3.861   1.435  0.0225 -0.1746 -0.4327
 1420TIP3    H1 4224   0.209   3.922   1.361  1.2512 -0.0660 -0.4260
 1420TIP3    H2 4225   0.145   3.892   1.495 -0.8791 -0.1626 -1.4296
 1421TIP3   OH2 4226   0.173   1.196   5.454  0.3536  0.1929  0.0026
 1421TIP3    H1 4227   0.262   1.164   5.439  0.0116 -1.6644  1.5506
 1421TIP3    H2 4228   0.118   1.119   5.446 -0.8319  0.8412  1.4245
 1422TIP3   OH2 4229   0.193   5.033   2.257  0.2458 -0.3526  0.7470
 1422TIP3    H1 4230   0.117   5.012   2.311 -1.5128  0.2782 -1.3403
 1422TIP3    H2 4231   0.208   5.126   2.272 -0.2439 -0.1771  0.1578
 1423TIP3   OH2 4232   5.460   2.055   4.500  0.1282  0.0511 -0.4696
 1423TIP3    H1 4233   5.535   1.997   4.492  0.7621  0.8367 -0.3598
 1423TIP3    H2 4234   5.387   2.005   4.464  0.4831 -1.1202  0.4050
 1424TIP3   OH2 4235   4.378   3.228   2.288  0.0308  0.1249 -0.1181
 1424TIP3    H1 4236   4.352   3.135   2.284 -1.9812  0.6686 -2.0744
 1424TIP3    H2 4237   4.433   3.240   2.210  1.3150  0.3279  0.8012
 1425TIP3   OH2 4238   1.444   1.725   3.652 -0.1570  0.2290 -0.1904
 1425TIP3    H1 4239   1.371   1.684   3.699  0.8459 -0.5453  0.7465
 1425TIP3    H2 4240   1.430   1.819   3.663 -0.3195  0.0765  1.1108
 1426TIP3   OH2 4241   3.360   2.647   0.520 -0.0623  0.2414 -0.1452
 1426TIP3    H1 4242   3.315   2.694   0.450 -0.0676 -0.3370 -0.5360
 1426TIP3    H2 4243   3.306   2.569   0.535  0.5260 -0.1953 -0.2662
 1427TIP3   OH2 4244   1.462   5.953   4.313  0.0167 -0.1813  0.3044
 1427TIP3    H1 4245   1.520   5.942   4.237  1.1134 -1.7479  1.2997
 1427TIP3    H2 4246   1.377   5.974   4.275  1.0931  1.8139 -1.2312
 1428TIP3   OH2 4247   3.487   2.130   0.350  0.3507 -0.5622 -0.0066
 1428TIP3    H1 4248   3.547   2.074   0.400  1.3233 -1.3799 -1.9749
 1428TIP3    H2 4249   3.509   2.113   0.258  0.0504  2.3968 -0.7245
 1429TIP3   OH2 4250   4.828   1.712   4.086  0.2521  0.0545 -0.3690
 1429TIP3    H1 4251   4.855   1.690   4.175  1.5314 -0.9272 -0.9702
 1429TIP3    H2 4252   4.740   1.675   4.078 -0.0449  0.4993  0.5871
 1430TIP3   OH2 4253   7.212   4.242   5.018 -0.2548 -0.1903 -0.3731
 1430TIP3    H1 4254   7.173   4.154   5.024  0.2103 -0.4573 -1.1232
 1430TIP3    H2 4255   7.251   4.256   5.105 -0.2090 -0.7920 -0.2883
 1431TIP3   OH2 4256   6.521   3.219   0.386 -0.6720  0.0122  0.6705
 1431TIP3    H1 4257   6.463   3.278   0.338 -0.9516 -1.9326 -1.5817
 1431TIP3    H2 4258   6.477   3.206   0.471 -1.1157  2.1414  0.8200
 1432TIP3   OH2 4259   3.342   0.397   2.445  0.2808  0.3650  0.8943
 1432TIP3    H1 4260   3.285   0.463   2.405  1.0577  0.7505  0.4007
 1432TIP3    H2 4261   3.426   0.409   2.402  0.1467 -1.7241 -0.0874
 1433TIP3   OH2 4262   1.214   1.844   3.265  0.0088  0.7083 -0.1799
 1433TIP3    H1 4263   1.155   1.891   3.207  0.7147  2.5834  0.5620
 1433TIP3    H2 4264   1.301   1.875   3.242  0.4628  0.0758  0.6298
 1434TIP3   OH2 4265   1.624   4.307   4.556 -0.2430 -0.4269 -0.0054
 1434TIP3    H1 4266   1.681   4.330   4.629  0.8649  0.7769 -1.1678
 1434TIP3    H2 4267   1.629   4.212   4.549  0.1370 -0.4931  1.0851
 1435TIP3   OH2 4268   4.562   6.659   1.271 -0.2237  0.1403 -0.0147
 1435TIP3    H1 4269   4.641   6.715   1.268  0.4773 -0.7053  1.6618
 1435TIP3    H2 4270   4.510   6.695   1.342 -0.2116 -0.7710  0.4623
 1436TIP3   OH2 4271   5.464   2.591   3.994 -0.5210  0.1597 -0.2976
 1436TIP3    H1 4272   5.446   2.607   4.087  1.6972 -0.4433  0.3004
 1436TIP3    H2 4273   5.482   2.678   3.958 -1.4831  0.4057 -0.2126
 1437TIP3   OH2 4274   2.125   1.427   5.596  0.4249 -0.1004  0.1068
 1437TIP3    H1 4275   2.157   1.415   5.507 -0.9074  1.5868 -0.6537
 1437TIP3    H2 4276   2.147   1.517   5.618 -0.6639  0.0013  0.8612
 1438TIP3   OH2 4277   4.169   1.996   2.230  0.5359 -0.4247  0.3330
 1438TIP3    H1 4278   4.123   1.913   2.224  0.9706 -0.6181 -0.6015
 1438TIP3    H2 4279   4.262   1.973   2.221  0.5578  0.3137 -2.4556
 1439TIP3   OH2 4280   0.385   2.034   0.914  0.0943  0.0942  0.3291
 1439TIP3    H1 4281   0.462   2.033   0.970 -0.0289 -1.1195  0.4939
 1439TIP3    H2 4282   0.402   2.105   0.851  0.5719  0.9525  1.4035
 1440TIP3   OH2 4283   3.108   3.360   2.526 -1.0749  0.3037 -0.5048
 1440TIP3    H1 4284   3.069   3.442   2.556  0.5602  0.7747  0.4984
 1440TIP3    H2 4285   3.123   3.309   2.606 -0.5791 -0.2796 -0.9553
 1441TIP3   OH2 4286   3.727   1.917   2.439 -0.3262  0.8262  0.0436
 1441TIP3    H1 4287   3.681   1.856   2.382 -0.1921  0.4850  0.2916
 1441TIP3    H2 4288   3.673   1.921   2.518 -0.2301  0.8690  0.1072
 1442TIP3   OH2 4289   3.604   1.886   5.838  0.3900  0.3064 -0.4255
 1442TIP3    H1 4290   3.584   1.979   5.827 -0.9858 -0.1854 -2.6976
 1442TIP3    H2 4291   3.570   1.864   5.925  0.5136  1.8511  0.0429
 1443TIP3   OH2 4292   4.272   3.952   3.370  0.2312 -0.8539  0.0265
 1443TIP3    H1 4293   4.213   3.988   3.304 -0.7049 -1.8562  0.2824
 1443TIP3    H2 4294   4.280   4.021   3.436 -0.9696 -0.8275  0.1727
 1444TIP3   OH2 4295   3.613   6.456   2.561 -0.0360 -0.0427  0.3280
 1444TIP3    H1 4296   3.618   6.398   2.638  0.1125  0.7753  0.9532
 1444TIP3    H2 4297   3.649   6.539   2.592  0.0316  0.3019 -0.6405
 1445TIP3   OH2 4298   1.191   6.626   5.624 -0.2112  0.0825  0.6412
 1445TIP3    H1 4299   1.142   6.576   5.689 -0.1604 -0.2832  0.4039
 1445TIP3    H2 4300   1.164   6.717   5.638 -0.2275  0.0015  1.1418
 1446TIP3   OH2 4301   4.267   0.857   2.426 -0.2771  0.5595  0.8315
 1446TIP3    H1 4302   4.268   0.952   2.441 -1.3807  0.5961  0.7371
 1446TIP3    H2 4303   4.356   0.837   2.396  0.5505  1.2431  2.7008
 1447TIP3   OH2 4304   6.184   2.016   5.026  0.2049  0.5216  0.0136
 1447TIP3    H1 4305   6.097   2.003   5.064  0.1291 -0.3206 -0.4282
 1447TIP3    H2 4306   6.244   1.982   5.092  0.1096 -0.3137 -0.3186
 1448TIP3   OH2 4307   6.993   2.752   1.396  0.5885 -0.2409  0.4994
 1448TIP3    H1 4308   6.954   2.745   1.308  1.5933  0.5658 -0.0355
 1448TIP3    H2 4309   6.980   2.666   1.435  1.5190 -1.1408 -1.0604
 1449TIP3   OH2 4310   6.077   6.609   4.739  0.2452  0.0517 -0.1963
 1449TIP3    H1 4311   6.170   6.614   4.762  0.3260  1.3327 -0.7320
 1449TIP3    H2 4312   6.062   6.684   4.682 -1.4849  0.8454  1.1888
 1450TIP3   OH2 4313   0.369   1.232   2.835 -0.0856  0.2924  0.0334
 1450TIP3    H1 4314   0.377   1.297   2.764 -1.4472  0.5170  0.0641
 1450TIP3    H2 4315   0.285   1.252   2.876 -0.2995 -1.1938  0.3644
 1451TIP3   OH2 4316   4.499   4.186   5.825  0.5153  0.0057  0.5313
 1451TIP3    H1 4317   4.478   4.267   5.778  2.5994  0.1068 -0.3798
 1451TIP3    H2 4318   4.538   4.129   5.758  1.0356 -0.9348  1.5929
 1452TIP3   OH2 4319   6.042   0.946   1.453 -0.9307  0.4002 -0.1515
 1452TIP3    H1 4320   6.116   0.998   1.485 -2.2627  0.5425  3.0156
 1452TIP3    H2 4321   6.015   0.990   1.372  1.4038  1.2615 -0.5436
 1453TIP3   OH2 4322   6.939   2.988   3.456  0.1064  0.1588 -0.3733
 1453TIP3    H1 4323   6.967   2.931   3.527  0.5468  1.8086  0.8291
 1453TIP3    H2 4324   6.906   2.928   3.389  0.5444 -1.4876  0.8231
 1454TIP3   OH2 4325   5.123   4.691   1.127  0.2270 -0.1139  0.5623
 1454TIP3    H1 4326   5.189   4.636   1.169  0.2883 -0.2113  0.3402
 1454TIP3    H2 4327   5.047   4.685   1.183  1.2476  2.2046  2.3779
 1455TIP3   OH2 4328   1.190   2.190   2.915  0.5422 -0.1866  0.2229
 1455TIP3    H1 4329   1.156   2.278   2.926 -0.8601 -0.3184 -2.2922
 1455TIP3    H2 4330   1.284   2.199   2.925  0.4526  1.6643 -0.2324
 1456TIP3   OH2 4331   2.332   1.057   4.469  0.2003 -0.0855  0.1657
 1456TIP3    H1 4332   2.415   1.049   4.423 -0.4477  1.8303 -1.4595
 1456TIP3    H2 4333   2.268   1.017   4.410 -0.0121 -2.3400  1.7732
 1457TIP3   OH2 4334   0.825   2.522   4.617  0.6584  0.1313  0.0608
 1457TIP3    H1 4335   0.846   2.476   4.536 -0.1659 -0.8407  0.3857
 1457TIP3    H2 4336   0.786   2.455   4.674 -2.3154  1.5458 -0.1077
 1458TIP3   OH2 4337   5.179   2.424   0.576 -0.5997  0.3263 -0.5148
 1458TIP3    H1 4338   5.129   2.498   0.609  1.3470  0.8603  1.4315
 1458TIP3    H2 4339   5.269   2.455   0.572  0.1427 -1.6551 -0.5113
 1459TIP3   OH2 4340   2.600   4.240   1.889  0.1131 -0.1326 -0.1352
 1459TIP3    H1 4341   2.526   4.281   1.934 -0.0019 -0.2962 -0.1750
 1459TIP3    H2 4342   2.560   4.184   1.823  0.1769 -2.2316  1.5246
 1460TIP3   OH2 4343   6.179   0.582   0.396 -0.4637  0.1323  0.1221
 1460TIP3    H1 4344   6.192   0.645   0.326 -0.0381  0.1067  0.1719
 1460TIP3    H2 4345   6.127   0.512   0.357 -3.3745  1.7830  0.8014
 1461TIP3   OH2 4346   6.341   0.312   0.917 -0.9761  0.1511  0.2367
 1461TIP3    H1 4347   6.247   0.294   0.913 -0.7368 -0.9405 -0.9841
 1461TIP3    H2 4348   6.361   0.358   0.835  0.0008 -2.0578 -0.8312
 1462TIP3   OH2 4349   3.661   0.440   3.154  0.0336 -0.0704  0.4954
 1462TIP3    H1 4350   3.643   0.451   3.247  1.4777  0.7498  0.7130
 1462TIP3    H2 4351   3.717   0.363   3.149  2.4089  1.5267  0.7029
 1463TIP3   OH2 4352   4.197   3.405   3.948 -0.6119  0.4100 -0.1550
 1463TIP3    H1 4353   4.196   3.349   4.025 -3.0768  1.3355  0.5589
 1463TIP3    H2 4354   4.156   3.353   3.879 -1.2377  0.6847  0.0093
 1464TIP3   OH2 4355   2.777   3.481   4.980  0.1536  0.4667  0.6270
 1464TIP3    H1 4356   2.779   3.531   4.898 -2.1598  1.3641  1.0379
 1464TIP3    H2 4357   2.708   3.416   4.967  0.6768 -0.2679  1.4143
 1465TIP3   OH2 4358   1.961   5.300   1.113 -0.3911 -0.6186  0.0114
 1465TIP3    H1 4359   1.966   5.382   1.162 -2.3586 -0.4264 -0.0329
 1465TIP3    H2 4360   2.048   5.260   1.125  1.1325  2.0701 -1.1082
 1466TIP3   OH2 4361   5.422   3.482   3.153 -0.2789 -0.2893  0.0928
 1466TIP3    H1 4362   5.436   3.510   3.243 -1.3166 -0.7792  0.4198
 1466TIP3    H2 4363   5.489   3.416   3.137  1.1014  1.1041 -0.1241
 1467TIP3   OH2 4364   6.427   2.692   1.493  0.6745 -0.9743 -0.3620
 1467TIP3    H1 4365   6.431   2.596   1.489  0.5129 -0.9934 -0.0798
 1467TIP3    H2 4366   6.384   2.711   1.576 -1.4470 -0.7078 -1.4349
 1468TIP3   OH2 4367   7.127   2.691   3.399 -0.0242 -0.6962 -0.4470
 1468TIP3    H1 4368   7.170   2.723   3.320  1.9032  1.1887  1.2431
 1468TIP3    H2 4369   7.040   2.662   3.370 -0.0689  1.6093 -2.9502
 1469TIP3   OH2 4370   1.538   3.600   5.181  0.0082  0.0661  0.1983
 1469TIP3    H1 4371   1.594   3.654   5.237  0.1000  3.4216 -2.7972
 1469TIP3    H2 4372   1.599   3.540   5.138  0.2256 -0.9968  1.8728
 1470TIP3   OH2 4373   6.403   5.386   2.307 -0.6255  0.8052 -0.0777
 1470TIP3    H1 4374   6.434   5.378   2.397 -0.6610 -0.4466 -0.1483
 1470TIP3    H2 4375   6.316   5.425   2.315 -3.0852 -4.1053  1.0166
 1471TIP3   OH2 4376   4.320   4.203   5.228 -0.2101  0.1207  0.5136
 1471TIP3    H1 4377   4.267   4.125   5.208 -0.3083  0.2119  0.4158
 1471TIP3    H2 4378   4.388   4.203   5.161  0.4344 -0.4780  1.1579
 1472TIP3   OH2 4379   7.014   4.188   4.319  0.3514  0.2340 -0.3216
 1472TIP3    H1 4380   6.990   4.256   4.382 -0.1697 -0.1410 -0.1068
 1472TIP3    H2 4381   6.978   4.108   4.356  0.1678 -0.0135 -1.0196
 1473TIP3   OH2 4382   2.378   4.550   2.302  0.2747  0.0905 -0.1380
 1473TIP3    H1 4383   2.375   4.633   2.255 -1.0080  1.0128  1.4547
 1473TIP3    H2 4384   2.315   4.494   2.256 -0.4043  0.7181  0.0174
 1474TIP3   OH2 4385   0.479   3.874   0.599 -0.2152  0.5388 -0.4330
 1474TIP3    H1 4386   0.397   3.836   0.630  1.0651 -2.4005 -0.3121
 1474TIP3    H2 4387   0.478   3.863   0.504  1.1072 -2.1912 -0.2397
 1475TIP3   OH2 4388   5.116   6.327   4.662 -0.3707 -0.3109  0.1332
 1475TIP3    H1 4389   5.085   6.277   4.738  1.3293 -0.1416  1.0080
 1475TIP3    H2 4390   5.208   6.347   4.683 -0.1684  0.6736 -1.5024
 1476TIP3   OH2 4391   3.255   4.742   1.040  0.0726 -0.1221 -0.3068
 1476TIP3    H1 4392   3.177   4.798   1.040 -0.6290 -0.9866  1.9267
 1476TIP3    H2 4393   3.326   4.799   1.070 -0.1963  0.0898 -0.0704
 1477TIP3   OH2 4394   6.514   6.380   0.773 -0.3607 -0.0695  0.4597
 1477TIP3    H1 4395   6.441   6.323   0.796 -1.8857  0.1343 -3.1038
 1477TIP3    H2 4396   6.472   6.457   0.733  1.7728  1.1856  0.4932
 1478TIP3   OH2 4397   7.178   4.054   4.140 -0.3794  0.1532 -0.6354
 1478TIP3    H1 4398   7.098   4.096   4.171 -0.6733 -0.7617 -0.0898
 1478TIP3    H2 4399   7.244   4.078   4.206 -0.7776 -1.0029  0.2181
 1479TIP3   OH2 4400   4.134   5.800   4.404 -0.1813  0.0683  0.0317
 1479TIP3    H1 4401   4.209   5.797   4.344  0.6513 -0.1013  1.0446
 1479TIP3    H2 4402   4.116   5.894   4.414  0.9735  0.2150  1.0343
 1480TIP3   OH2 4403   2.549   4.169   4.211  0.2686  0.5608  0.2941
 1480TIP3    H1 4404   2.511   4.185   4.125  2.3812  0.2953 -0.7621
 1480TIP3    H2 4405   2.629   4.222   4.212  1.3687 -1.0440  1.2631
 1481TIP3   OH2 4406   6.425   5.041   1.712 -0.4370  0.0184 -0.3246
 1481TIP3    H1 4407   6.514   5.078   1.709 -0.5956  0.6677  1.6618
 1481TIP3    H2 4408   6.368   5.112   1.682 -0.2832 -0.6280 -2.3065
 1482TIP3   OH2 4409   4.767   1.431   5.843 -0.5422  0.2500  0.1102
 1482TIP3    H1 4410   4.757   1.525   5.862 -1.1542  0.1455  0.2985
 1482TIP3    H2 4411   4.699   1.413   5.778  0.9358  0.4093 -1.5839
 1483TIP3   OH2 4412   6.828   2.407   3.994  0.2389 -0.0502  0.1461
 1483TIP3    H1 4413   6.799   2.318   4.015  0.4368  0.0586  0.9170
 1483TIP3    H2 4414   6.900   2.423   4.055  0.0503  0.7324  0.1677
 1484TIP3   OH2 4415   0.460   5.756   4.667 -0.0354  0.3148  0.2986
 1484TIP3    H1 4416   0.546   5.794   4.686  0.1021  0.6329 -0.8824
 1484TIP3    H2 4417   0.472   5.662   4.678  0.2655  0.4173  0.8629
 1485TIP3   OH2 4418   1.639   3.792   1.952  0.5722 -0.3862  0.3769
 1485TIP3    H1 4419   1.659   3.883   1.975  1.0022 -0.4252  0.1630
 1485TIP3    H2 4420   1.620   3.794   1.858 -1.8469 -0.1123  0.7897
 1486TIP3   OH2 4421   6.941   3.751   4.118  0.0317  0.4303 -0.1618
 1486TIP3    H1 4422   6.996   3.778   4.045 -0.6154 -0.4223 -0.9850
 1486TIP3    H2 4423   6.896   3.831   4.146  0.5912  0.8371 -0.4175
 1487TIP3   OH2 4424   2.446   5.294   5.855 -0.0427 -0.0970  0.1532
 1487TIP3    H1 4425   2.523   5.315   5.908 -0.5220  0.0281  0.8100
 1487TIP3    H2 4426   2.458   5.201   5.832 -1.4645 -1.2410  3.3849
 1488TIP3   OH2 4427   0.041   1.803   1.792  0.3088  0.1057  0.2456
 1488TIP3    H1 4428   0.112   1.783   1.853  0.6977 -0.5175 -0.3897
 1488TIP3    H2 4429   0.067   1.759   1.710 -1.4496 -1.3165  0.3942
 1489TIP3   OH2 4430   7.012   4.776   1.012  0.5594  0.1790  0.4177
 1489TIP3    H1 4431   6.995   4.845   0.949 -0.8879 -0.4609  0.0616
 1489TIP3    H2 4432   7.059   4.709   0.963 -0.2871 -0.1807  0.0856
 1490TIP3   OH2 4433   4.495   2.304   4.565  0.6462  0.1424  0.2268
 1490TIP3    H1 4434   4.585   2.322   4.537  0.0668  0.3623 -1.6120
 1490TIP3    H2 4435   4.469   2.226   4.515 -0.0390 -0.1858  1.0714
 1491TIP3   OH2 4436   4.590   1.572   1.809 -0.1367  0.2772  0.5590
 1491TIP3    H1 4437   4.586   1.494   1.864 -0.3343  0.8816  1.4127
 1491TIP3    H2 4438   4.551   1.641   1.862  0.7137  1.1296  0.1017
 1492TIP3   OH2 4439   1.955   6.091   0.578 -0.0102 -0.2468  0.0272
 1492TIP3    H1 4440   1.862   6.087   0.600  0.2666  0.0711  1.3737
 1492TIP3    H2 4441   1.981   6.000   0.565 -0.5222 -0.3296 -0.4643
 1493TIP3   OH2 4442   2.881   2.707   0.570 -0.7645  0.0751  0.1648
 1493TIP3    H1 4443   2.809   2.706   0.507 -0.4731 -1.1326 -0.1771
 1493TIP3    H2 4444   2.950   2.657   0.528 -0.2076  0.0877  1.0442
 1494TIP3   OH2 4445   5.359   3.618   4.899 -0.3617  0.3788 -0.8628
 1494TIP3    H1 4446   5.345   3.710   4.922 -0.1508  0.3314 -0.5359
 1494TIP3    H2 4447   5.420   3.620   4.826  0.4801  0.4661 -0.1765
 1495TIP3   OH2 4448   0.901   5.698   3.976  0.1796  0.0937 -0.2025
 1495TIP3    H1 4449   0.854   5.615   3.975  0.6236 -0.1963  0.9138
 1495TIP3    H2 4450   0.850   5.753   4.036  1.1462 -0.1810  0.9247
 1496TIP3   OH2 4451   4.531   0.344   0.683 -0.1062  0.9410  0.2858
 1496TIP3    H1 4452   4.450   0.327   0.634 -0.5928  1.2918  0.9534
 1496TIP3    H2 4453   4.513   0.424   0.731  1.4277  2.2520 -1.2284
 1497TIP3   OH2 4454   1.927   4.020   2.204  0.3884  0.2674  0.6519
 1497TIP3    H1 4455   1.945   4.049   2.293 -0.3014 -0.1759  0.9487
 1497TIP3    H2 4456   2.009   3.978   2.176  1.0829  1.6383  0.5455
 1498TIP3   OH2 4457   5.346   4.622   2.645 -0.1085  0.3340  0.2367
 1498TIP3    H1 4458   5.325   4.600   2.554  1.7023  3.3486 -1.0720
 1498TIP3    H2 4459   5.433   4.585   2.659 -0.4796 -0.3206  0.8511
 1499TIP3   OH2 4460   3.821   5.954   0.229 -1.0665 -0.8020  0.6291
 1499TIP3    H1 4461   3.753   5.907   0.179 -1.5741  0.2894  0.2659
 1499TIP3    H2 4462   3.781   6.038   0.251  0.9975  0.9465 -1.7873
 1500TIP3   OH2 4463   2.445   5.865   2.195  0.3114 -1.0443  0.2642
 1500TIP3    H1 4464   2.372   5.846   2.253 -0.4690 -1.2253 -0.7414
 1500TIP3    H2 4465   2.403   5.887   2.111  1.3707 -0.1667 -0.0633
 1501TIP3   OH2 4466   4.656   3.251   0.672 -0.2692  0.1562  0.6130
 1501TIP3    H1 4467   4.598   3.191   0.719 -0.7488  0.0160 -0.1349
 1501TIP3    H2 4468   4.733   3.199   0.652 -0.8827 -0.3797 -0.4521
 1502TIP3   OH2 4469   6.694   5.603   4.469  0.1623  0.0809  0.1145
 1502TIP3    H1 4470   6.655   5.684   4.438  0.2025  0.0278 -0.0823
 1502TIP3    H2 4471   6.772   5.630   4.517  0.2038  0.1560  0.0049
 1503TIP3   OH2 4472   0.455   2.687   2.434 -0.4200 -0.3758  0.3235
 1503TIP3    H1 4473   0.458   2.618   2.501  1.3502  0.6693  1.4200
 1503TIP3    H2 4474   0.454   2.768   2.484 -0.6930  0.4231 -0.9388
 1504TIP3   OH2 4475   4.109   4.766   4.583  0.1466  0.4803 -0.1015
 1504TIP3    H1 4476   4.104   4.773   4.678 -0.6076  0.8951 -0.1582
 1504TIP3    H2 4477   4.078   4.851   4.551 -1.5302 -0.3219 -0.7406
 1505TIP3   OH2 4478   2.956   1.464   5.584 -0.5812  0.2964  0.4568
 1505TIP3    H1 4479   2.872   1.504   5.561 -0.2212  0.5890 -0.4053
 1505TIP3    H2 4480   3.021   1.515   5.536 -0.0924 -1.3219 -0.6964
 1506TIP3   OH2 4481   2.586   2.838   2.168 -0.0138 -0.0833 -0.2533
 1506TIP3    H1 4482   2.520   2.907   2.177 -0.6823 -0.7823  0.3870
 1506TIP3    H2 4483   2.643   2.850   2.244  0.8262  0.7363 -0.9909
 1507TIP3   OH2 4484   1.075   5.646   4.844 -0.1486 -0.6960  0.1818
 1507TIP3    H1 4485   0.982   5.643   4.824 -0.2635  1.6072  0.0241
 1507TIP3    H2 4486   1.079   5.686   4.932  0.6813  0.3945 -0.3203
 1508TIP3   OH2 4487   2.215   2.725   5.782 -0.7601  0.2294  0.0541
 1508TIP3    H1 4488   2.289   2.756   5.833 -0.3682  1.0554 -0.9941
 1508TIP3    H2 4489   2.246   2.644   5.741  0.2504  1.5076 -1.8538
 1509TIP3   OH2 4490   1.823   2.052   5.603  0.2817  0.0745 -0.5115
 1509TIP3    H1 4491   1.842   2.131   5.553  1.2882 -0.9531 -1.8175
 1509TIP3    H2 4492   1.768   1.999   5.545 -1.4761  0.3281  0.8387
 1510TIP3   OH2 4493   4.427   6.062   5.862  0.1981 -0.2510  0.4123
 1510TIP3    H1 4494   4.494   6.125   5.837 -1.0105  0.7466 -0.4346
 1510TIP3    H2 4495   4.413   6.078   5.956 -0.4015  1.0870  0.1237
 1511TIP3   OH2 4496   5.505   0.880   0.910 -0.0162 -0.3035 -0.5575
 1511TIP3    H1 4497   5.510   0.954   0.970  0.5006  0.3477 -1.3846
 1511TIP3    H2 4498   5.569   0.817   0.944  1.0894  0.5356 -1.0577
 1512TIP3   OH2 4499   4.844   0.151   1.234  0.2033  0.1105  0.4717
 1512TIP3    H1 4500   4.883   0.231   1.269  0.1656  1.0598 -1.5177
 1512TIP3    H2 4501   4.819   0.101   1.312  1.8298  1.2061  1.7803
 1513TIP3   OH2 4502   2.716   2.340   1.960  0.4179 -0.3147  0.4086
 1513TIP3    H1 4503   2.773   2.416   1.962 -1.7645  1.5762 -1.7133
 1513TIP3    H2 4504   2.728   2.304   1.872 -0.0266 -1.2197  0.7088
 1514TIP3   OH2 4505   2.114   3.776   1.379 -0.0754  0.1424  0.0323
 1514TIP3    H1 4506   2.024   3.771   1.346  0.1137 -0.0294 -0.4633
 1514TIP3    H2 4507   2.123   3.702   1.438 -0.5392  0.6737  0.7789
 1515TIP3   OH2 4508   6.939   5.471   4.371  0.7361 -0.4759 -0.1413
 1515TIP3    H1 4509   6.909   5.423   4.294  0.6091 -1.4891  0.5156
 1515TIP3    H2 4510   6.884   5.549   4.374  0.2934 -0.7551 -0.7085
 1516TIP3   OH2 4511   0.287   3.574   4.716 -0.3010 -0.1553  0.8339
 1516TIP3    H1 4512   0.281   3.557   4.810  0.4678  1.1373  1.1390
 1516TIP3    H2 4513   0.352   3.644   4.708  1.3298 -1.7453 -0.8413
 1517TIP3   OH2 4514   4.186   2.634   4.363  0.4381 -0.0244  0.1054
 1517TIP3    H1 4515   4.243   2.561   4.390 -1.1036 -0.7352  1.6518
 1517TIP3    H2 4516   4.128   2.647   4.438 -1.5444  0.5508 -1.4620
 1518TIP3   OH2 4517   4.119   5.520   0.457 -0.0136  0.0580 -0.2900
 1518TIP3    H1 4518   4.073   5.440   0.483  0.0773 -0.0039 -0.3183
 1518TIP3    H2 4519   4.126   5.572   0.537  1.3371 -0.6573  0.0846
 1519TIP3   OH2 4520   0.997   6.577   5.046 -0.2309 -0.7218 -0.5694
 1519TIP3    H1 4521   1.088   6.555   5.066 -0.4960 -1.1833  0.1681
 1519TIP3    H2 4522   1.001   6.666   5.013  0.3176 -0.1315  0.9837
 1520TIP3   OH2 4523   0.807   3.186   2.027 -0.0158  0.3615 -0.1017
 1520TIP3    H1 4524   0.883   3.243   2.023 -0.3970  0.8505 -3.6697
 1520TIP3    H2 4525   0.820   3.123   1.955 -2.7400  0.2108 -0.5800
 1521TIP3   OH2 4526   2.656   3.924   1.425  0.3310 -0.1030 -0.2200
 1521TIP3    H1 4527   2.700   3.880   1.498  2.0461  0.3744 -0.9275
 1521TIP3    H2 4528   2.658   3.860   1.354  0.7642  0.2810 -0.5540
 1522TIP3   OH2 4529   6.941   0.614   4.728  0.3562 -0.2192 -0.2788
 1522TIP3    H1 4530   6.881   0.581   4.660  0.2378  0.6906 -0.6222
 1522TIP3    H2 4531   7.028   0.605   4.689  0.2878  0.3105 -0.5649
 1523TIP3   OH2 4532   2.510   3.549   0.857  0.3228  0.0122  0.2079
 1523TIP3    H1 4533   2.462   3.562   0.776 -0.8071 -0.2344  0.8277
 1523TIP3    H2 4534   2.511   3.635   0.899  0.4269  0.0209  0.1874
 1524TIP3   OH2 4535   4.016   3.942   1.000  0.0874 -0.3659 -0.0586
 1524TIP3    H1 4536   4.036   3.868   0.942  0.0036 -0.4848  0.0622
 1524TIP3    H2 4537   3.921   3.955   0.989 -0.3610 -1.7710  1.6393
 1525TIP3   OH2 4538   5.813   2.578   1.711  0.1882 -0.2142 -0.0799
 1525TIP3    H1 4539   5.776   2.556   1.625 -0.0103  1.6220 -0.4987
 1525TIP3    H2 4540   5.904   2.600   1.692 -0.2608  1.8054 -0.1316
 1526TIP3   OH2 4541   5.637   1.338   3.409 -0.4705 -0.3569 -0.1426
 1526TIP3    H1 4542   5.617   1.418   3.361 -0.1994 -0.4356 -0.3899
 1526TIP3    H2 4543   5.733   1.340   3.419 -0.5223 -0.3419  0.3918
 1527TIP3   OH2 4544   1.537   2.923   1.823 -0.3407 -0.6809  0.1867
 1527TIP3    H1 4545   1.528   2.878   1.738  0.9951  1.2546 -1.0636
 1527TIP3    H2 4546   1.454   2.968   1.835 -1.2226 -2.3762  0.8471
 1528TIP3   OH2 4547   5.720   5.172   3.011 -0.0748 -0.0847 -0.3695
 1528TIP3    H1 4548   5.708   5.094   3.066  1.4177 -0.0905 -0.0154
 1528TIP3    H2 4549   5.790   5.221   3.054 -0.6410  1.2049 -0.8764
 1529TIP3   OH2 4550   3.333   2.760   3.436 -0.2074  0.2872  0.1408
 1529TIP3    H1 4551   3.266   2.716   3.384  1.4102 -1.3721 -0.6964
 1529TIP3    H2 4552   3.416   2.722   3.404  1.0391  1.3043  1.9790
 1530TIP3   OH2 4553   3.068   2.496   5.328 -0.7287 -0.2993  0.3415
 1530TIP3    H1 4554   3.064   2.588   5.300 -2.1491  0.6895  3.3703
 1530TIP3    H2 4555   3.144   2.493   5.387 -0.4106 -1.2164 -0.1001
 1531TIP3   OH2 4556   7.050   4.358   1.356 -0.4863 -0.5603 -0.6451
 1531TIP3    H1 4557   6.976   4.337   1.299 -0.1866 -0.5760 -1.0350
 1531TIP3    H2 4558   7.052   4.289   1.421 -0.8448 -0.5326 -0.6061
 1532TIP3   OH2 4559   4.534   0.498   2.088  0.6100  0.0800 -0.3479
 1532TIP3    H1 4560   4.620   0.475   2.052  1.4935  0.3834  1.4832
 1532TIP3    H2 4561   4.553   0.551   2.165 -1.2631  1.1374 -0.5447
 1533TIP3   OH2 4562   1.516   4.080   0.473 -0.1782 -0.3412  0.1190
 1533TIP3    H1 4563   1.491   4.153   0.416 -0.5998 -1.3946 -1.0804
 1533TIP3    H2 4564   1.458   4.088   0.549 -0.8248  0.0551 -0.4047
 1534TIP3   OH2 4565   5.390   4.558   5.152  0.3048  0.2688  0.5666
 1534TIP3    H1 4566   5.342   4.508   5.218  0.0421 -0.6595 -0.3042
 1534TIP3    H2 4567   5.482   4.547   5.177  0.1754  0.5323  1.1882
 1535TIP3   OH2 4568   5.766   2.366   4.333  0.2013  0.0702  0.1387
 1535TIP3    H1 4569   5.819   2.445   4.327  1.8541 -0.7427  2.3890
 1535TIP3    H2 4570   5.706   2.384   4.406  1.5185 -1.1590  1.5977
 1536TIP3   OH2 4571   6.595   5.366   2.543  0.3619  0.3743 -0.3768
 1536TIP3    H1 4572   6.593   5.271   2.531 -2.1144  0.5764 -2.7263
 1536TIP3    H2 4573   6.631   5.379   2.630 -1.1121 -2.8582  0.8748
 1537TIP3   OH2 4574   0.831   0.388   1.440  0.2437 -0.3660 -0.3644
 1537TIP3    H1 4575   0.737   0.393   1.454 -0.1829  0.0108 -2.8859
 1537TIP3    H2 4576   0.841   0.382   1.345  2.7288 -1.6250 -0.1060
 1538TIP3   OH2 4577   6.745   2.073   4.817  0.1002  0.3040  0.4377
 1538TIP3    H1 4578   6.663   2.059   4.866  0.4193  0.9444  1.1768
 1538TIP3    H2 4579   6.771   1.985   4.789 -1.0460  0.1333 -0.1545
 1539TIP3   OH2 4580   6.574   1.096   4.767  0.2371 -0.2763 -0.8782
 1539TIP3    H1 4581   6.537   1.034   4.829  1.1608 -0.1637 -0.1801
 1539TIP3    H2 4582   6.525   1.177   4.781 -0.7494 -0.7371 -1.5633
 1540TIP3   OH2 4583   0.854   5.967   5.286  1.0068 -0.9400 -0.4730
 1540TIP3    H1 4584   0.790   5.900   5.306  1.0714 -1.2566 -1.2848
 1540TIP3    H2 4585   0.860   5.967   5.190 -0.1183  1.2643 -0.6115
 1541TIP3   OH2 4586   5.693   4.493   4.103  0.7737 -0.6428 -0.3394
 1541TIP3    H1 4587   5.644   4.422   4.143  2.3973 -2.1781 -0.9072
 1541TIP3    H2 4588   5.698   4.561   4.171 -2.4997 -0.1404 -0.4598
 1542TIP3   OH2 4589   5.922   2.018   5.098  0.1950  0.4067 -0.5723
 1542TIP3    H1 4590   5.853   2.081   5.076  0.8897  1.2678 -0.3545
 1542TIP3    H2 4591   5.937   2.031   5.192  0.1024 -0.3447 -0.4454
 1543TIP3   OH2 4592   4.875   5.607   3.324 -0.3735  0.9724  0.8169
 1543TIP3    H1 4593   4.857   5.545   3.253  2.8371 -0.1963  0.8659
 1543TIP3    H2 4594   4.789   5.630   3.359 -1.9726  0.3370 -2.3635
 1544TIP3   OH2 4595   2.088   6.422   2.345 -0.4761  0.0496 -0.4514
 1544TIP3    H1 4596   2.178   6.396   2.326 -0.2756 -0.5959  1.2073
 1544TIP3    H2 4597   2.074   6.395   2.436 -1.7660  1.7392 -0.1017
 1545TIP3   OH2 4598   3.380   6.495   4.895  0.5709 -0.2900 -0.2866
 1545TIP3    H1 4599   3.317   6.564   4.874  0.4592  0.0148  1.0129
 1545TIP3    H2 4600   3.466   6.534   4.877  0.4930  0.0865  0.1560
 1546TIP3   OH2 4601   3.895   5.180   1.677  0.2416  0.2220  0.5325
 1546TIP3    H1 4602   3.816   5.131   1.700 -0.0153  0.6132  0.4897
 1546TIP3    H2 4603   3.960   5.154   1.742  0.8286 -1.9254 -0.8053
 1547TIP3   OH2 4604   6.569   4.833   2.826 -0.0401 -0.1425  0.1363
 1547TIP3    H1 4605   6.500   4.788   2.875  0.5742 -1.3297 -0.0460
 1547TIP3    H2 4606   6.533   4.843   2.738 -0.1244 -0.4480  0.1321
 1548TIP3   OH2 4607   6.910   6.526   0.404  0.4041  0.1068  0.0104
 1548TIP3    H1 4608   6.820   6.535   0.433  0.3167 -0.9961  0.0981
 1548TIP3    H2 4609   6.905   6.475   0.324  0.9780 -0.2175  0.1780
 1549TIP3   OH2 4610   6.522   4.032   2.490  0.3006 -0.5060  0.2889
 1549TIP3    H1 4611   6.590   4.004   2.552 -0.4413  0.0915  1.4020
 1549TIP3    H2 4612   6.490   3.951   2.451  0.4454 -0.9383  1.0453
 1550TIP3   OH2 4613   3.825   4.596   0.662 -0.4201  0.1391  0.8141
 1550TIP3    H1 4614   3.785   4.673   0.704 -0.7764 -0.9463  2.5821
 1550TIP3    H2 4615   3.758   4.528   0.668  0.4616 -0.7591  0.7318
 1551TIP3   OH2 4616   3.340   0.256   0.042  0.3006 -0.2083  0.3128
 1551TIP3    H1 4617   3.380   0.227   0.123 -1.9852 -3.0069  0.6109
 1551TIP3    H2 4618   3.286   0.331   0.068  2.2280  1.1266  0.6235
 1552TIP3   OH2 4619   5.188   5.458   3.599  0.1371 -0.2228  0.2510
 1552TIP3    H1 4620   5.093   5.462   3.588 -0.1244 -2.4347  1.2253
 1552TIP3    H2 4621   5.221   5.537   3.554 -2.1256  0.5803 -0.1165
 1553TIP3   OH2 4622   3.066   1.569   0.933 -0.1398 -0.2300 -0.0121
 1553TIP3    H1 4623   3.129   1.626   0.889  0.6310 -0.6032  0.5758
 1553TIP3    H2 4624   2.990   1.624   0.948  0.3556  0.4654 -0.0046
 1554TIP3   OH2 4625   3.407   0.381   5.390 -0.0128  0.4542  0.2761
 1554TIP3    H1 4626   3.478   0.441   5.412 -0.4895  1.6244 -1.1446
 1554TIP3    H2 4627   3.427   0.352   5.301 -1.1676  0.6340 -0.0590
 1555TIP3   OH2 4628   4.080   1.624   2.557 -0.4152  0.8659  0.3334
 1555TIP3    H1 4629   4.107   1.706   2.598  0.7053 -0.3710  2.2720
 1555TIP3    H2 4630   4.029   1.580   2.625 -0.2192 -0.4076 -0.3153
 1556TIP3   OH2 4631   3.609   4.395   0.181 -0.1641  0.1495  0.9018
 1556TIP3    H1 4632   3.616   4.342   0.260  0.8014 -0.1138  0.6442
 1556TIP3    H2 4633   3.520   4.377   0.148 -0.3308 -0.2528  1.5491
 1557TIP3   OH2 4634   3.606   0.956   3.021  0.6791  0.4240 -0.2722
 1557TIP3    H1 4635   3.699   0.951   3.000  0.6425 -0.5632 -0.2321
 1557TIP3    H2 4636   3.595   0.897   3.096 -0.2066 -0.4891 -1.0995
 1558TIP3   OH2 4637   0.764   1.748   2.546 -0.0823 -0.2237  0.2131
 1558TIP3    H1 4638   0.773   1.721   2.637  2.3071 -0.5510 -0.0470
 1558TIP3    H2 4639   0.784   1.670   2.495 -1.7753 -0.1495 -0.6341
 1559TIP3   OH2 4640   1.112   3.894   0.800  0.3049 -1.0069  0.1244
 1559TIP3    H1 4641   1.135   3.870   0.890  0.9112  2.0976  0.9267
 1559TIP3    H2 4642   1.050   3.966   0.809  0.1264 -0.8272 -1.9516
 1560TIP3   OH2 4643   2.673   0.120   5.567  0.2891  0.0899 -0.2910
 1560TIP3    H1 4644   2.659   0.200   5.516  1.7909 -1.3626 -3.2748
 1560TIP3    H2 4645   2.638   0.051   5.511 -0.2532 -1.4683  1.8601
 1561TIP3   OH2 4646   5.899   2.395   3.378  0.9834  0.1413  0.5087
 1561TIP3    H1 4647   5.821   2.450   3.371  0.4470 -0.7857 -1.6527
 1561TIP3    H2 4648   5.875   2.327   3.441  0.2918  0.2760  0.3971
 1562TIP3   OH2 4649   0.937   4.277   3.880  0.2543 -0.3842  0.0971
 1562TIP3    H1 4650   0.866   4.251   3.822 -0.6901  0.0711  1.0132
 1562TIP3    H2 4651   1.013   4.284   3.823 -0.6542  0.1166 -1.0980
 1563TIP3   OH2 4652   4.118   5.826   0.340 -0.0075 -0.6522  0.5672
 1563TIP3    H1 4653   4.108   5.893   0.409  0.7248 -2.3967  2.4733
 1563TIP3    H2 4654   4.032   5.820   0.300 -0.9591 -0.7736  2.5242
 1564TIP3   OH2 4655   5.176   3.709   0.322  0.2790 -0.4038  0.4769
 1564TIP3    H1 4656   5.084   3.687   0.337 -0.1502  0.9433 -0.0669
 1564TIP3    H2 4657   5.222   3.626   0.334 -1.0043 -1.1137  0.7134
 1565TIP3   OH2 4658   5.413   2.318   5.473  0.2161 -0.2552 -0.0653
 1565TIP3    H1 4659   5.372   2.404   5.483  1.0715  0.8129 -3.9060
 1565TIP3    H2 4660   5.353   2.270   5.415  0.4956 -1.7016  0.7988
 1566TIP3   OH2 4661   2.559   5.990   0.099 -0.2705  0.2696 -0.0896
 1566TIP3    H1 4662   2.654   5.984   0.108 -0.2876  1.4624  1.2442
 1566TIP3    H2 4663   2.542   6.082   0.076 -0.9917 -0.4146 -2.7029
 1567TIP3   OH2 4664   4.230   5.582   5.270  0.0038  0.4891  0.0692
 1567TIP3    H1 4665   4.213   5.676   5.262  0.9457  0.6323 -0.3053
 1567TIP3    H2 4666   4.282   5.560   5.194  1.3083  0.0263  1.0588
 1568TIP3   OH2 4667   5.777   1.606   4.417 -0.2353  0.0491  0.2750
 1568TIP3    H1 4668   5.845   1.567   4.362  0.2058  1.0759  0.0788
 1568TIP3    H2 4669   5.724   1.657   4.356 -0.0396  0.7922  0.7267
 1569TIP3   OH2 4670   6.899   3.374   0.578 -0.0348  0.3290 -0.4979
 1569TIP3    H1 4671   6.891   3.465   0.552 -3.0640  0.2246 -0.3014
 1569TIP3    H2 4672   6.896   3.375   0.673  1.3126  0.0839 -0.4361
 1570TIP3   OH2 4673   0.562   5.711   4.988  0.0029 -0.1135 -0.0914
 1570TIP3    H1 4674   0.493   5.645   4.989  0.5046 -0.6404  0.1183
 1570TIP3    H2 4675   0.613   5.692   4.910  1.2446 -1.1387  0.9224
 1571TIP3   OH2 4676   2.514   5.640   1.498 -0.0540 -0.1396 -0.2750
 1571TIP3    H1 4677   2.450   5.576   1.529  0.1624 -0.1730  0.1096
 1571TIP3    H2 4678   2.559   5.669   1.577 -0.6802  1.0825 -0.3309
 1572TIP3   OH2 4679   1.069   0.047   2.567 -0.2889  0.6076 -0.4937
 1572TIP3    H1 4680   1.151   0.067   2.523 -0.5925  1.5951 -0.6399
 1572TIP3    H2 4681   1.076  -0.045   2.592 -0.4501 -0.2481 -3.3456
 1573TIP3   OH2 4682   6.553   6.721   3.573  0.4808  0.1589  0.3565
 1573TIP3    H1 4683   6.472   6.692   3.531  1.2814 -1.5395 -0.1114
 1573TIP3    H2 4684   6.589   6.787   3.514  1.3887 -1.9051 -1.5376
 1574TIP3   OH2 4685   0.226   6.197   2.237  0.6687  0.0484  0.1223
 1574TIP3    H1 4686   0.167   6.164   2.168  0.1600 -2.0852  1.4619
 1574TIP3    H2 4687   0.233   6.124   2.298  5.1578 -0.0629 -0.1746
 1575TIP3   OH2 4688   0.631   4.787   3.735  0.2454  0.9592 -0.0808
 1575TIP3    H1 4689   0.703   4.731   3.764 -0.6294  0.6437  1.5875
 1575TIP3    H2 4690   0.646   4.798   3.641 -0.0558 -2.8652 -0.7223
 1576TIP3   OH2 4691   5.939   4.883   2.995 -0.4934 -0.9307 -0.9529
 1576TIP3    H1 4692   6.001   4.814   3.020  0.5531 -0.0113 -0.9432
 1576TIP3    H2 4693   5.995   4.954   2.963 -1.3754  0.9427  1.4316
 1577TIP3   OH2 4694   7.185   2.885   3.607  0.1953  0.2691  0.0697
 1577TIP3    H1 4695   7.158   2.841   3.527 -3.7606  1.8749  0.2968
 1577TIP3    H2 4696   7.241   2.956   3.578  0.0718 -0.0967 -1.1143
 1578TIP3   OH2 4697   5.904   4.420   4.459  0.6044 -0.6561  0.0629
 1578TIP3    H1 4698   5.930   4.505   4.426  0.0539 -0.2419  0.6733
 1578TIP3    H2 4699   5.808   4.421   4.456  0.5815 -1.1148  0.3970
 1579TIP3   OH2 4700   0.359   0.396   4.902 -0.7625 -0.4691  0.2823
 1579TIP3    H1 4701   0.437   0.369   4.950 -1.7061 -2.1889  0.9814
 1579TIP3    H2 4702   0.336   0.319   4.848 -2.0818 -0.1141  0.2883
 1580TIP3   OH2 4703   1.714   0.060   0.788  0.2755  0.1672 -0.0720
 1580TIP3    H1 4704   1.790   0.101   0.746  0.6184  0.5770  0.9165
 1580TIP3    H2 4705   1.752   0.007   0.858 -0.4166  1.5064  1.3616
 1581TIP3   OH2 4706   5.708   1.023   0.616  0.0650  0.2389 -0.1549
 1581TIP3    H1 4707   5.763   1.068   0.680 -1.2253 -0.3811  1.4553
 1581TIP3    H2 4708   5.738   0.932   0.618 -1.5248 -0.3161  1.4302
 1582TIP3   OH2 4709   0.559   6.060   5.076  0.7219 -0.3609 -0.1677
 1582TIP3    H1 4710   0.649   6.074   5.104  0.0395 -0.3074  2.2369
 1582TIP3    H2 4711   0.508   6.062   5.157 -1.4577 -0.3377 -1.4526
 1583TIP3   OH2 4712   2.475   4.569   1.885 -0.2306  0.4104 -0.2061
 1583TIP3    H1 4713   2.413   4.612   1.943 -0.4346 -1.0260  0.6871
 1583TIP3    H2 4714   2.478   4.478   1.915  1.8257  0.2767 -0.6177
 1584TIP3   OH2 4715   7.222   1.618   2.288 -0.7017  0.1800 -0.2607
 1584TIP3    H1 4716   7.200   1.606   2.195 -0.0035 -0.3145 -0.3634
 1584TIP3    H2 4717   7.154   1.569   2.334 -0.0435 -1.0655 -0.5701
 1585TIP3   OH2 4718   3.993   6.512   2.666 -0.2995 -0.4820  0.4379
 1585TIP3    H1 4719   4.087   6.491   2.659 -0.4959 -1.0882 -0.6217
 1585TIP3    H2 4720   3.952   6.429   2.691 -0.6210 -0.3813  0.2492
 1586TIP3   OH2 4721   0.140   0.107   4.900  0.5063  1.1161  0.4301
 1586TIP3    H1 4722   0.162   0.045   4.970  0.3192  0.2584 -0.2572
 1586TIP3    H2 4723   0.078   0.167   4.941 -0.5338 -0.0831  0.6944
 1587TIP3   OH2 4724   5.660   3.959   2.466  0.7173 -0.1792  0.2371
 1587TIP3    H1 4725   5.727   3.955   2.398 -0.6742 -0.9836 -1.1710
 1587TIP3    H2 4726   5.608   4.037   2.444 -0.1063 -0.7830 -0.0056
 1588TIP3   OH2 4727   3.091   1.367   2.070  0.0769 -0.3880 -0.2878
 1588TIP3    H1 4728   3.038   1.422   2.012 -0.5151 -0.0285  0.5699
 1588TIP3    H2 4729   3.180   1.374   2.036 -0.0717  0.7358 -0.4719
 1589TIP3   OH2 4730   1.810   0.874   3.146 -0.5000 -0.0474  0.1785
 1589TIP3    H1 4731   1.725   0.876   3.102  0.3551  2.3253 -1.5253
 1589TIP3    H2 4732   1.868   0.828   3.085 -0.3281 -0.8762  0.9418
 1590TIP3   OH2 4733   4.454   1.537   4.686  0.5720  0.3079 -0.1602
 1590TIP3    H1 4734   4.360   1.554   4.697  0.1324 -1.1340 -1.4779
 1590TIP3    H2 4735   4.466   1.448   4.718  1.2481  0.0182 -1.1901
 1591TIP3   OH2 4736   0.537   1.151   1.088  0.4771 -0.1313 -0.0119
 1591TIP3    H1 4737   0.579   1.185   1.009  0.6177  1.5893  0.7651
 1591TIP3    H2 4738   0.462   1.101   1.055  1.9298 -1.5694 -1.3166
 1592TIP3   OH2 4739   6.123   0.960   2.116  0.3059  0.1935 -0.3739
 1592TIP3    H1 4740   6.206   0.938   2.074 -0.4735 -0.9815 -1.3629
 1592TIP3    H2 4741   6.059   0.901   2.075 -0.9902  0.9732  0.4659
 1593TIP3   OH2 4742   5.758   2.281   0.124 -0.2656  0.5560  0.1974
 1593TIP3    H1 4743   5.758   2.214   0.192  2.0907  0.0901 -0.1746
 1593TIP3    H2 4744   5.782   2.233   0.044  0.6395  1.6940 -0.2359
 1594TIP3   OH2 4745   2.298   6.070   0.691 -0.2136 -0.3114 -0.8305
 1594TIP3    H1 4746   2.256   6.097   0.772 -0.9822 -2.3729 -0.4782
 1594TIP3    H2 4747   2.389   6.050   0.716 -0.2699 -0.2892 -0.6110
 1595TIP3   OH2 4748   1.413   4.561   2.774  0.0585  0.3219 -0.1683
 1595TIP3    H1 4749   1.323   4.586   2.756  0.2537  0.7751 -0.5367
 1595TIP3    H2 4750   1.406   4.478   2.821 -0.5020 -0.5827 -1.7511
 1596TIP3   OH2 4751   4.979   1.931   3.493 -0.4693  0.1691 -0.4102
 1596TIP3    H1 4752   5.016   1.925   3.404 -1.9753 -1.1307 -0.9874
 1596TIP3    H2 4753   4.988   1.843   3.528 -1.2346  0.3252  0.1789
 1597TIP3   OH2 4754   6.407   2.772   2.793  0.6309 -0.0666  0.4539
 1597TIP3    H1 4755   6.360   2.717   2.729 -1.5245 -0.5042  2.2861
 1597TIP3    H2 4756   6.440   2.845   2.741 -0.1952 -0.8790 -1.3380
 1598TIP3   OH2 4757   0.253   3.358   3.047 -0.1953  1.2436 -0.0402
 1598TIP3    H1 4758   0.207   3.440   3.029 -1.8484  0.3984  0.1521
 1598TIP3    H2 4759   0.214   3.295   2.986 -0.1991  0.1875  1.0201
 1599TIP3   OH2 4760   1.916   2.437   5.741 -0.1908  0.7053 -0.1038
 1599TIP3    H1 4761   1.886   2.422   5.652 -2.1500 -1.9947  0.9050
 1599TIP3    H2 4762   1.991   2.378   5.752 -1.6806 -1.0907  0.8189
 1600TIP3   OH2 4763   0.587   3.649   0.889 -0.0633  0.6772  0.0885
 1600TIP3    H1 4764   0.566   3.612   0.803 -0.2585  0.6588  0.1434
 1600TIP3    H2 4765   0.577   3.744   0.877  1.7421  0.8416 -0.4163
 1601TIP3   OH2 4766   2.059   4.064   2.816  0.7437 -0.2507  0.4296
 1601TIP3    H1 4767   2.061   4.090   2.908 -0.3377 -0.8068  0.6221
 1601TIP3    H2 4768   1.967   4.067   2.792  1.0739  0.5685 -0.8494
 1602TIP3   OH2 4769   5.185   2.041   3.885 -0.2568 -0.1681 -0.4156
 1602TIP3    H1 4770   5.166   2.057   3.792 -0.0324 -1.3311 -0.6875
 1602TIP3    H2 4771   5.154   1.951   3.900  1.7092 -0.8154  0.0424
 1603TIP3   OH2 4772   6.737   2.771   1.237 -0.1675  0.1838  0.2284
 1603TIP3    H1 4773   6.671   2.804   1.297 -2.7943 -1.3280 -1.6086
 1603TIP3    H2 4774   6.782   2.849   1.206 -1.5695  1.3775  1.0495
 1604TIP3   OH2 4775   1.798   3.587   0.360  0.1269 -0.4959  0.5093
 1604TIP3    H1 4776   1.742   3.647   0.408 -1.2286 -0.5333 -0.9423
 1604TIP3    H2 4777   1.770   3.596   0.269  2.7163 -0.2883 -0.3478
 1605TIP3   OH2 4778   3.719   6.436   1.999 -0.2025  0.3616 -0.9526
 1605TIP3    H1 4779   3.721   6.361   2.058 -0.4771  0.5400 -0.7166
 1605TIP3    H2 4780   3.791   6.492   2.027  0.7054 -0.3304 -1.8189
 1606TIP3   OH2 4781   6.736   4.918   5.653  0.3593 -0.6087  0.6382
 1606TIP3    H1 4782   6.782   4.998   5.625 -2.7399  0.7953 -0.9411
 1606TIP3    H2 4783   6.740   4.921   5.749  0.4847  1.3612  0.6143
 1607TIP3   OH2 4784   5.560   5.149   0.606  0.1420 -0.1037  0.2285
 1607TIP3    H1 4785   5.511   5.170   0.527  1.7086 -0.3316 -0.8522
 1607TIP3    H2 4786   5.493   5.126   0.671 -1.1753  0.0921 -1.0212
 1608TIP3   OH2 4787   1.899   4.169   0.362  0.2603  0.4716 -0.1527
 1608TIP3    H1 4788   1.820   4.142   0.314  0.2883  0.9720 -0.4928
 1608TIP3    H2 4789   1.881   4.147   0.453  0.3978 -0.9445 -0.4409
 1609TIP3   OH2 4790   1.149   1.805   2.878  0.6355  0.1115 -0.5610
 1609TIP3    H1 4791   1.105   1.874   2.927 -0.1779  0.7722 -2.1332
 1609TIP3    H2 4792   1.121   1.819   2.787  1.7325 -1.3090 -1.1563
 1610TIP3   OH2 4793   5.452   6.279   3.231  0.5954  0.5982 -0.1082
 1610TIP3    H1 4794   5.447   6.224   3.152 -0.2244 -1.6836  1.4203
 1610TIP3    H2 4795   5.546   6.298   3.240  1.0881 -1.5733 -0.1002
 1611TIP3   OH2 4796   3.508   0.355   5.083  0.0661  0.0655  0.3165
 1611TIP3    H1 4797   3.581   0.392   5.033  0.4233 -1.7324 -0.5846
 1611TIP3    H2 4798   3.436   0.417   5.071  0.3942  0.1009 -1.8119
 1612TIP3   OH2 4799   0.195   3.725   4.456  0.3220 -0.1191 -0.2067
 1612TIP3    H1 4800   0.254   3.800   4.448 -0.6988  1.3367  3.4900
 1612TIP3    H2 4801   0.109   3.759   4.430  0.2487 -0.7121 -0.7532
 1613TIP3   OH2 4802   0.231   5.192   1.185  0.5723 -0.2506  0.4824
 1613TIP3    H1 4803   0.260   5.204   1.276  3.8600 -0.4357 -0.3991
 1613TIP3    H2 4804   0.267   5.108   1.159 -1.7859 -1.0215 -0.5672
 1614TIP3   OH2 4805   5.426   4.646   3.659 -0.0559  0.4583  0.2475
 1614TIP3    H1 4806   5.465   4.670   3.575 -3.1814 -1.3196 -1.8858
 1614TIP3    H2 4807   5.395   4.729   3.695 -0.4458  1.0551 -1.3604
 1615TIP3   OH2 4808   7.095   0.604   4.316 -0.1098  1.1376 -0.4140
 1615TIP3    H1 4809   7.136   0.662   4.252 -1.1727  1.3626 -0.9138
 1615TIP3    H2 4810   7.001   0.615   4.302 -0.3480 -0.5097 -0.3620
 1616TIP3   OH2 4811   3.336   3.442   2.392  0.3685 -0.2150 -0.3751
 1616TIP3    H1 4812   3.250   3.403   2.408  1.0300 -2.3192 -1.5351
 1616TIP3    H2 4813   3.324   3.495   2.313 -0.2369  0.9631  0.4763
 1617TIP3   OH2 4814   0.995   0.741   1.491  0.6957  0.1167 -0.1587
 1617TIP3    H1 4815   0.933   0.803   1.453 -0.2687 -0.6454  0.1265
 1617TIP3    H2 4816   1.074   0.793   1.510 -0.3812  1.4408  0.8780
 1618TIP3   OH2 4817   5.261   1.484   5.452  0.5195 -0.2103 -0.3063
 1618TIP3    H1 4818   5.304   1.486   5.366 -1.4826  0.3552 -1.3692
 1618TIP3    H2 4819   5.247   1.390   5.469  1.4928 -0.3577 -0.2830
 1619TIP3   OH2 4820   4.033   2.245   2.026  0.6998 -0.1434  0.1277
 1619TIP3    H1 4821   3.978   2.278   2.096  0.4260 -1.9733  0.8202
 1619TIP3    H2 4822   3.974   2.236   1.951 -0.5818 -3.8059  1.3327
 1620TIP3   OH2 4823   4.163   5.723   1.276 -0.1853  0.6873 -0.2616
 1620TIP3    H1 4824   4.234   5.780   1.245  1.3725 -1.0334 -0.1105
 1620TIP3    H2 4825   4.209   5.651   1.319 -2.1450  0.5068  1.6634
 1621TIP3   OH2 4826   2.320   2.143   5.008  0.5188  0.1424 -0.1399
 1621TIP3    H1 4827   2.296   2.142   5.101 -1.3380  1.4975 -0.5338
 1621TIP3    H2 4828   2.277   2.065   4.972 -0.8869  0.9328 -0.2684
 1622TIP3   OH2 4829   2.036   0.952   4.575  0.6984 -0.9748  0.0560
 1622TIP3    H1 4830   2.085   0.976   4.654  1.0181 -1.6546  0.0760
 1622TIP3    H2 4831   2.088   0.989   4.503  0.0338  0.2571  0.1855
 1623TIP3   OH2 4832   5.828   1.209   2.555 -0.1813  0.1059  0.0493
 1623TIP3    H1 4833   5.902   1.225   2.498  1.8578 -1.9420  1.9185
 1623TIP3    H2 4834   5.818   1.290   2.605 -0.6199  1.1281 -1.6096
 1624TIP3   OH2 4835   0.317   1.641   5.108  0.3683  0.3438 -0.4982
 1624TIP3    H1 4836   0.250   1.708   5.094 -0.1565 -0.4441 -1.8499
 1624TIP3    H2 4837   0.284   1.563   5.065  1.0538 -0.7708  0.9061
 1625TIP3   OH2 4838   2.748   2.510   1.656 -0.1567  0.3448 -0.5783
 1625TIP3    H1 4839   2.818   2.570   1.679  0.2176 -0.9233  1.9170
 1625TIP3    H2 4840   2.790   2.424   1.650 -1.2587 -0.2251 -0.4790
 1626TIP3   OH2 4841   0.331   4.998   2.629 -0.2124  0.3279  0.3448
 1626TIP3    H1 4842   0.401   5.062   2.637  1.0740 -0.3366 -3.6854
 1626TIP3    H2 4843   0.264   5.043   2.577  0.1924 -1.0859 -1.4951
 1627TIP3   OH2 4844   6.760   0.362   3.075 -0.5792 -0.0442  0.5392
 1627TIP3    H1 4845   6.707   0.366   2.996  0.9894  0.4427 -0.5404
 1627TIP3    H2 4846   6.734   0.280   3.117  0.1631 -1.5337 -1.7064
 1628TIP3   OH2 4847   2.790   0.090   3.714 -0.3370  0.3162 -0.3540
 1628TIP3    H1 4848   2.763   0.031   3.784  0.5755 -1.0057 -1.0784
 1628TIP3    H2 4849   2.832   0.034   3.650  1.0220  1.8198 -0.8464
 1629TIP3   OH2 4850   0.999   6.207   1.279  0.1842 -0.0515 -0.0501
 1629TIP3    H1 4851   0.976   6.225   1.188 -1.1340 -0.6768  0.1325
 1629TIP3    H2 4852   0.915   6.198   1.324  0.7585  2.4421  1.7273
 1630TIP3   OH2 4853   3.143   5.702   1.609 -0.6602  0.4340  0.6269
 1630TIP3    H1 4854   3.059   5.674   1.574 -1.0113  1.2569  0.7790
 1630TIP3    H2 4855   3.197   5.718   1.532 -0.4801 -0.5576  0.5394
 1631TIP3   OH2 4856   2.046   6.480   0.670  0.2310 -0.4394  0.1376
 1631TIP3    H1 4857   2.125   6.531   0.651  1.1397 -1.6403  0.5431
 1631TIP3    H2 4858   2.078   6.407   0.723 -1.2200 -0.7566  0.6058
 1632TIP3   OH2 4859   4.706   5.013   0.831 -0.3093  0.9003 -0.5590
 1632TIP3    H1 4860   4.747   5.008   0.745  0.7640 -2.1551  0.0110
 1632TIP3    H2 4861   4.754   4.949   0.884 -1.7103  1.8206  1.9919
 1633TIP3   OH2 4862   1.313   5.282   5.838  0.2152 -0.6530  0.4377
 1633TIP3    H1 4863   1.330   5.263   5.745 -0.9682 -1.2361  0.3282
 1633TIP3    H2 4864   1.396   5.263   5.881  0.7551 -0.4762 -0.4794
 1634TIP3   OH2 4865   5.177   6.534   2.902  0.1641  0.2924  0.7090
 1634TIP3    H1 4866   5.167   6.620   2.942 -2.5480  0.6417 -0.5059
 1634TIP3    H2 4867   5.194   6.475   2.976 -1.8570  1.3248  2.0997
 1635TIP3   OH2 4868   5.205   0.002   3.382 -0.0876 -0.4836 -1.2830
 1635TIP3    H1 4869   5.236  -0.007   3.472  1.2732  0.0025 -1.6862
 1635TIP3    H2 4870   5.110   0.015   3.392  0.1376  0.3513  0.1311
 1636TIP3   OH2 4871   6.323   1.967   3.341  0.5022  0.3738 -0.0647
 1636TIP3    H1 4872   6.328   2.039   3.404 -0.0585 -1.6234  2.3944
 1636TIP3    H2 4873   6.413   1.935   3.334  0.4144  0.0080  0.4569
 1637TIP3   OH2 4874   5.482   1.727   4.295 -0.3190 -0.1177 -0.3130
 1637TIP3    H1 4875   5.406   1.784   4.289 -0.4066 -0.1723  0.2375
 1637TIP3    H2 4876   5.543   1.773   4.353 -0.1273 -0.2891 -0.3748
 1638TIP3   OH2 4877   4.538   0.203   1.170 -0.1799 -0.7391 -0.8528
 1638TIP3    H1 4878   4.491   0.198   1.253 -0.1270 -1.1551 -0.8467
 1638TIP3    H2 4879   4.627   0.174   1.191 -0.4737 -2.0366 -1.2930
 1639TIP3   OH2 4880   4.021   0.935   4.979 -0.1609  0.5278 -0.3425
 1639TIP3    H1 4881   3.927   0.951   4.982 -0.3689 -0.8011  1.8387
 1639TIP3    H2 4882   4.053   0.959   5.066  1.3423 -0.0722 -0.6963
 1640TIP3   OH2 4883   1.688   5.515   1.478 -0.1069 -0.3571  0.9539
 1640TIP3    H1 4884   1.645   5.600   1.492 -1.6549 -1.0607  0.6945
 1640TIP3    H2 4885   1.619   5.459   1.444  0.8898 -1.7364  1.1272
 1641TIP3   OH2 4886   6.346   3.349   1.103  0.2887 -0.1762  1.1304
 1641TIP3    H1 4887   6.282   3.420   1.096  0.1419 -0.4953 -2.7637
 1641TIP3    H2 4888   6.430   3.392   1.085  0.7284 -0.4152  2.4908
 1642TIP3   OH2 4889   3.964   2.989   5.675  0.1781  0.3347 -0.3091
 1642TIP3    H1 4890   3.935   3.071   5.635 -1.8559  0.1836  0.7248
 1642TIP3    H2 4891   3.883   2.946   5.703  1.3158 -1.0861  0.9732
 1643TIP3   OH2 4892   5.105   3.922   4.764  0.3586 -0.2755 -0.5443
 1643TIP3    H1 4893   5.118   3.910   4.858  0.1086 -0.0601 -0.4813
 1643TIP3    H2 4894   5.137   3.841   4.724  1.1102 -0.0933 -0.3278
 1644TIP3   OH2 4895   2.436   4.532   0.441  0.2419 -0.0548  0.0238
 1644TIP3    H1 4896   2.457   4.439   0.436 -0.4427 -0.1839 -0.5988
 1644TIP3    H2 4897   2.421   4.548   0.535 -1.9585 -1.1281 -0.0850
 1645TIP3   OH2 4898   3.677   0.182   5.712 -0.5418  0.1579 -0.6563
 1645TIP3    H1 4899   3.625   0.148   5.639 -0.3128  0.6119 -1.0322
 1645TIP3    H2 4900   3.629   0.260   5.742  0.7878  1.6026 -2.1236
 1646TIP3   OH2 4901   6.855   2.029   2.159 -0.5649 -0.2145  0.4935
 1646TIP3    H1 4902   6.782   2.015   2.099  1.2562  0.1577 -1.9512
 1646TIP3    H2 4903   6.909   2.095   2.116  3.7998 -3.8696 -0.4251
 1647TIP3   OH2 4904   2.478   2.522   0.227  0.2389 -0.6897 -0.0063
 1647TIP3    H1 4905   2.530   2.483   0.297 -0.5882 -2.7494 -0.4512
 1647TIP3    H2 4906   2.528   2.505   0.147 -0.6127 -1.7976 -0.3219
 1648TIP3   OH2 4907   1.041   2.067   1.082  0.9337  0.1525 -0.1149
 1648TIP3    H1 4908   1.131   2.089   1.057  1.6249 -2.0063  0.2788
 1648TIP3    H2 4909   1.030   1.976   1.054 -0.0377 -0.6594  2.5771
 1649TIP3   OH2 4910   0.252   0.628   5.375 -0.0958  0.3157 -0.1224
 1649TIP3    H1 4911   0.194   0.556   5.402 -0.4700  0.7072  0.1317
 1649TIP3    H2 4912   0.304   0.591   5.303  0.0326 -0.3486  0.3016
 1650TIP3   OH2 4913   6.267   3.821   2.110  0.2859  0.3010  0.2688
 1650TIP3    H1 4914   6.278   3.791   2.200 -0.5904  0.5230  0.4589
 1650TIP3    H2 4915   6.288   3.744   2.057  2.0941  0.5302  0.5920
 1651TIP3   OH2 4916   0.273   3.189   4.875 -0.3359 -0.1666 -0.4016
 1651TIP3    H1 4917   0.235   3.101   4.875 -2.6599  0.7706  0.3628
 1651TIP3    H2 4918   0.198   3.248   4.884  1.1615  1.9167 -0.7883
 1652TIP3   OH2 4919   5.802   3.821   3.391 -0.2782 -0.2252 -0.2821
 1652TIP3    H1 4920   5.822   3.743   3.341  1.0372  0.2315 -0.5119
 1652TIP3    H2 4921   5.887   3.850   3.426 -0.6409  1.3772 -0.6295
 1653TIP3   OH2 4922   5.880   4.913   3.765 -0.6023 -0.1621 -1.1293
 1653TIP3    H1 4923   5.897   4.858   3.841 -0.4488  1.4308  0.0287
 1653TIP3    H2 4924   5.966   4.924   3.724 -0.1701  1.1364  0.0254
 1654TIP3   OH2 4925   0.755   1.185   3.994 -0.5576 -0.0548  0.2516
 1654TIP3    H1 4926   0.740   1.109   4.050 -1.0294 -1.0573 -1.1837
 1654TIP3    H2 4927   0.845   1.174   3.963 -0.3720  0.3811  0.6210
 1655TIP3   OH2 4928   7.142   6.297   4.075  0.0091 -0.6584 -0.3096
 1655TIP3    H1 4929   7.158   6.341   4.158 -0.0098 -0.8716 -0.1906
 1655TIP3    H2 4930   7.096   6.362   4.021  0.1569 -0.4693 -0.2076
 1656TIP3   OH2 4931   1.264   4.001   3.050 -0.8141  0.3547  0.0265
 1656TIP3    H1 4932   1.349   4.044   3.038 -0.5926 -0.1524 -0.2557
 1656TIP3    H2 4933   1.286   3.918   3.093 -1.1677  0.2235 -0.0479
 1657TIP3   OH2 4934   1.677   4.018   1.013 -0.0477  0.5538 -0.2501
 1657TIP3    H1 4935   1.742   4.014   0.942 -1.1587  2.3053 -1.4267
 1657TIP3    H2 4936   1.647   3.928   1.022  2.2933 -0.2598  0.1291
 1658TIP3   OH2 4937   2.093   2.238   1.474  0.5513 -0.1919  0.4331
 1658TIP3    H1 4938   2.111   2.146   1.454  0.8982 -0.1553  0.5681
 1658TIP3    H2 4939   2.008   2.236   1.517 -0.0106 -0.3131 -0.6442
 1659TIP3   OH2 4940   1.913   3.645   2.102  0.0042 -0.1711  0.7949
 1659TIP3    H1 4941   1.895   3.595   2.182  0.7761  0.2675  1.2515
 1659TIP3    H2 4942   1.853   3.719   2.106 -0.2496 -0.3732  0.7564
 1660TIP3   OH2 4943   5.553   0.680   4.337  0.6205 -0.4927  0.7093
 1660TIP3    H1 4944   5.517   0.653   4.422 -0.1107 -0.1791  0.4965
 1660TIP3    H2 4945   5.619   0.746   4.359  0.2792 -0.2537  1.0199
 1661TIP3   OH2 4946   2.591   6.733   0.116 -0.3970  0.1477 -0.0068
 1661TIP3    H1 4947   2.550   6.820   0.107  0.9920  0.9777  1.2320
 1661TIP3    H2 4948   2.684   6.749   0.097 -0.2844 -1.3131 -0.8526
 1662TIP3   OH2 4949   5.749   5.500   2.212 -0.6646  0.2749  0.1571
 1662TIP3    H1 4950   5.802   5.528   2.138  1.7561 -2.6979  0.5747
 1662TIP3    H2 4951   5.770   5.562   2.282  2.9302 -1.0917  0.4871
 1663TIP3   OH2 4952   6.483   5.587   2.010 -0.5710 -0.5021  0.6419
 1663TIP3    H1 4953   6.488   5.493   2.028 -2.1052 -0.9145 -0.8949
 1663TIP3    H2 4954   6.400   5.599   1.965 -0.7104  1.7171  1.3653
 1664TIP3   OH2 4955   1.659   3.117   1.419  0.1559 -0.1775 -0.0385
 1664TIP3    H1 4956   1.615   3.168   1.486  2.2907 -0.0834  1.4020
 1664TIP3    H2 4957   1.624   3.028   1.429 -2.1581  0.4926 -1.2894
 1665TIP3   OH2 4958   0.496   1.443   5.181 -0.0586 -0.4582  0.4241
 1665TIP3    H1 4959   0.587   1.472   5.181 -0.8472  2.2846  1.7730
 1665TIP3    H2 4960   0.446   1.520   5.154 -1.9254 -2.4361 -2.3507
 1666TIP3   OH2 4961   7.101   3.061   5.288 -0.5554 -0.1657  0.3176
 1666TIP3    H1 4962   7.053   3.109   5.356 -1.2623 -0.5212  0.0755
 1666TIP3    H2 4963   7.190   3.094   5.294 -0.9895  1.0613  0.2661
 1667TIP3   OH2 4964   1.974   5.236   1.591 -0.5113  0.7918  0.1570
 1667TIP3    H1 4965   1.988   5.307   1.528 -2.5634  0.1180 -1.1628
 1667TIP3    H2 4966   2.061   5.197   1.601  0.0068  1.2525 -1.9137
 1668TIP3   OH2 4967   6.761   6.245   2.931  0.3211  0.0239  0.1907
 1668TIP3    H1 4968   6.757   6.153   2.957  0.7729 -0.3957 -1.1460
 1668TIP3    H2 4969   6.674   6.264   2.896 -0.2956  0.5963  1.9260
 1669TIP3   OH2 4970   0.170   6.368   4.939 -0.1584  0.6002 -0.1497
 1669TIP3    H1 4971   0.114   6.341   4.866  1.1790 -0.1051 -0.9519
 1669TIP3    H2 4972   0.136   6.319   5.014  0.6899 -1.5454 -1.0806
 1670TIP3   OH2 4973   4.000   3.433   0.827  0.0406 -0.3961  0.2382
 1670TIP3    H1 4974   4.034   3.355   0.872  1.1466 -0.8281 -1.2661
 1670TIP3    H2 4975   4.064   3.451   0.759 -1.2684  0.5938 -0.7829
 1671TIP3   OH2 4976   0.009   5.653   1.714  0.1181  0.1145 -0.3063
 1671TIP3    H1 4977   0.072   5.623   1.780 -1.4339  0.6782  1.5125
 1671TIP3    H2 4978   0.047   5.624   1.631  2.9724  0.7928  0.6386
 1672TIP3   OH2 4979   4.373   1.115   2.476  0.1409 -0.2769  0.2563
 1672TIP3    H1 4980   4.421   1.113   2.558  0.1897  0.6522  0.2700
 1672TIP3    H2 4981   4.441   1.123   2.409  0.0243  1.4127  0.2996
 1673TIP3   OH2 4982   1.177   0.208   5.612  0.2717  0.1796 -0.0157
 1673TIP3    H1 4983   1.241   0.186   5.680  0.3842 -1.5372 -0.6253
 1673TIP3    H2 4984   1.151   0.123   5.576 -2.3219  0.8351  0.1558
 1674TIP3   OH2 4985   0.454   5.104   4.091 -0.0837 -0.0290 -0.1879
 1674TIP3    H1 4986   0.422   5.042   4.025  1.2782  0.3671 -1.2784
 1674TIP3    H2 4987   0.524   5.056   4.136 -0.7429 -0.1568  0.7301
 1675TIP3   OH2 4988   6.174   3.120   5.643 -0.1022  0.3764  0.8138
 1675TIP3    H1 4989   6.239   3.190   5.649  1.1203 -0.7231  0.8229
 1675TIP3    H2 4990   6.225   3.042   5.620 -1.6662 -0.1711 -0.9989
 1676TIP3   OH2 4991   1.888   5.613   1.184  0.6345  0.2050  0.2846
 1676TIP3    H1 4992   1.793   5.616   1.183  0.5092 -1.7595 -1.8429
 1676TIP3    H2 4993   1.916   5.705   1.182 -1.2482  0.7953 -1.2495
 1677TIP3   OH2 4994   1.565   1.866   2.282 -0.3068 -0.7386 -0.1131
 1677TIP3    H1 4995   1.529   1.926   2.218 -0.1639  0.3015  0.7599
 1677TIP3    H2 4996   1.508   1.874   2.358 -0.7612 -2.3169 -0.2593
 1678TIP3   OH2 4997   5.381   5.727   0.285  0.0006 -0.3410  0.0352
 1678TIP3    H1 4998   5.428   5.802   0.322  0.1905 -1.1929  1.5906
 1678TIP3    H2 4999   5.449   5.664   0.264 -0.3171 -1.0663  1.1027
 1679TIP3   OH2 5000   1.868   2.331   4.914 -0.4154  0.2906 -0.1381
 1679TIP3    H1 5001   1.895   2.259   4.971 -1.5006 -1.5398 -1.7900
 1679TIP3    H2 5002   1.933   2.331   4.843 -0.8029  0.5069 -0.4980
 1680TIP3   OH2 5003   3.127   3.100   0.776  0.5617 -0.4257 -0.2397
 1680TIP3    H1 5004   3.185   3.158   0.726 -1.3144  1.4974 -0.3385
 1680TIP3    H2 5005   3.072   3.058   0.709  1.8782 -2.3743 -0.1633
 1681TIP3   OH2 5006   7.167   2.017   5.426  0.3508 -0.3530 -0.3778
 1681TIP3    H1 5007   7.153   2.109   5.404  1.6175 -0.1963 -0.6160
 1681TIP3    H2 5008   7.209   2.019   5.512 -1.5125 -0.8214  0.5914
 1682TIP3   OH2 5009   5.424   5.616   1.463 -0.0180 -0.2517 -0.3997
 1682TIP3    H1 5010   5.389   5.600   1.375  1.6174  1.5734 -1.4773
 1682TIP3    H2 5011   5.519   5.625   1.449  0.0953  1.8210  1.2459
 1683TIP3   OH2 5012   5.973   5.506   0.303 -0.6437 -0.0220  0.1136
 1683TIP3    H1 5013   5.948   5.423   0.261  1.9050 -0.7683 -0.1286
 1683TIP3    H2 5014   5.988   5.566   0.230  1.7292 -0.6984 -0.0380
 1684TIP3   OH2 5015   6.069   2.554   1.590  0.3461 -0.2307  0.2633
 1684TIP3    H1 5016   6.115   2.499   1.526  2.1407  0.9949  0.4471
 1684TIP3    H2 5017   6.070   2.502   1.671  3.3032  0.5654  0.8280
 1685TIP3   OH2 5018   7.040   3.289   5.122 -0.3136 -0.4335  0.9087
 1685TIP3    H1 5019   7.124   3.327   5.147 -0.1573 -0.4371  0.3932
 1685TIP3    H2 5020   7.039   3.203   5.163  2.0117 -2.5104 -2.8442
 1686TIP3   OH2 5021   7.123   6.081   1.722  0.8127 -0.2708  0.2751
 1686TIP3    H1 5022   7.170   6.075   1.639 -1.0864 -0.0557 -0.8814
 1686TIP3    H2 5023   7.085   6.169   1.722  1.1871 -0.0974  1.6101
 1687TIP3   OH2 5024   1.964   1.391   0.686  0.1571  0.4053  0.5549
 1687TIP3    H1 5025   1.941   1.303   0.657 -0.6858  0.1320  1.9714
 1687TIP3    H2 5026   1.971   1.441   0.605 -0.0965 -0.7823 -0.2338
 1688TIP3   OH2 5027   6.626   1.902   2.673 -0.1431  0.4281 -0.0740
 1688TIP3    H1 5028   6.650   1.986   2.712  1.6846  0.0465 -0.2985
 1688TIP3    H2 5029   6.686   1.892   2.599 -1.5886 -0.2234 -1.2047
 1689TIP3   OH2 5030   6.111   6.757   3.640  0.1644 -0.3613 -0.1292
 1689TIP3    H1 5031   6.070   6.709   3.712 -0.9005 -0.5012 -0.8101
 1689TIP3    H2 5032   6.191   6.708   3.622  0.8072  0.0718  1.4010
 1690TIP3   OH2 5033   1.062   3.694   4.247 -0.2027  0.6031 -0.8315
 1690TIP3    H1 5034   1.001   3.712   4.175  1.1274 -1.2746 -2.5146
 1690TIP3    H2 5035   1.098   3.607   4.228 -0.2964 -0.3145  2.4994
 1691TIP3   OH2 5036   3.697   1.355   4.879  0.3567  0.5414  0.3579
 1691TIP3    H1 5037   3.670   1.405   4.801 -0.0707 -0.2941 -0.0449
 1691TIP3    H2 5038   3.684   1.264   4.854  1.1952  0.2214  1.0612
 1692TIP3   OH2 5039   0.287   0.390   0.417  0.0957 -0.6546 -0.1326
 1692TIP3    H1 5040   0.230   0.460   0.449 -1.3127 -1.8503  0.0706
 1692TIP3    H2 5041   0.361   0.389   0.478 -0.1849  0.2280  0.2344
 1693TIP3   OH2 5042   5.954   2.619   5.134  0.6517 -0.0635  0.1194
 1693TIP3    H1 5043   5.893   2.686   5.104  0.4699 -0.2009  0.1803
 1693TIP3    H2 5044   5.957   2.630   5.229  1.7571  0.8234  0.0023
 1694TIP3   OH2 5045   1.647   3.561   2.337 -0.1997 -0.2248  0.0718
 1694TIP3    H1 5046   1.736   3.527   2.328 -0.5485 -0.6364 -2.6728
 1694TIP3    H2 5047   1.618   3.577   2.247 -1.4493  3.8044  0.9692
 1695TIP3   OH2 5048   6.592   4.986   4.519  0.2459 -0.1347 -0.2138
 1695TIP3    H1 5049   6.559   5.027   4.440  0.7999  0.6936 -0.0270
 1695TIP3    H2 5050   6.682   4.963   4.499  0.2557 -0.3208  0.0316
 1696TIP3   OH2 5051   6.495   4.844   4.730 -0.3541  0.0142 -0.0350
 1696TIP3    H1 5052   6.519   4.897   4.654  0.1314 -1.0356 -0.6525
 1696TIP3    H2 5053   6.400   4.833   4.722 -0.4097  0.5094 -0.0821
 1697TIP3   OH2 5054   2.868   4.895   3.676 -0.2568 -0.0132  0.4374
 1697TIP3    H1 5055   2.865   4.808   3.718  0.3993 -0.0142  0.4849
 1697TIP3    H2 5056   2.923   4.882   3.599  1.2095  0.7295  1.3274
 1698TIP3   OH2 5057   6.388   4.822   5.081 -0.1494 -0.2266 -0.2372
 1698TIP3    H1 5058   6.471   4.780   5.101  0.0104 -0.1199 -0.6592
 1698TIP3    H2 5059   6.338   4.755   5.034 -0.3611 -0.3419  0.1536
 1699TIP3   OH2 5060   5.746   5.670   4.072  0.2736  0.3576 -0.2657
 1699TIP3    H1 5061   5.724   5.714   4.154  2.3301  1.0125  0.0065
 1699TIP3    H2 5062   5.662   5.645   4.034 -0.7993  1.6202  1.1714
 1700TIP3   OH2 5063   2.918   0.652   2.295  0.3800  0.2816  0.6384
 1700TIP3    H1 5064   2.842   0.597   2.277 -0.0598  1.3244 -0.8835
 1700TIP3    H2 5065   2.881   0.736   2.324  0.9886  0.3962  1.1039
 1701TIP3   OH2 5066   3.344   0.895   3.754  0.2957 -0.2413  0.4567
 1701TIP3    H1 5067   3.286   0.967   3.730  2.1721  1.2731  0.1839
 1701TIP3    H2 5068   3.337   0.889   3.849  0.1487  0.3281  0.4842
 1702TIP3   OH2 5069   5.651   3.777   1.620  0.3484  0.4951 -0.6397
 1702TIP3    H1 5070   5.634   3.863   1.582 -0.5833  0.3890 -0.4972
 1702TIP3    H2 5071   5.564   3.744   1.644  0.7260 -0.3381 -0.3756
 1703TIP3   OH2 5072   1.438   1.735   5.824 -1.0877 -0.5244 -0.6378
 1703TIP3    H1 5073   1.494   1.728   5.746  0.4115  1.4966  0.1837
 1703TIP3    H2 5074   1.473   1.668   5.884 -1.4602 -1.2427 -1.1997
 1704TIP3   OH2 5075   3.733   0.391   0.185 -0.4911  0.2538 -0.2710
 1704TIP3    H1 5076   3.696   0.380   0.097  0.3569 -0.1299 -0.5888
 1704TIP3    H2 5077   3.722   0.306   0.226  0.5116 -0.0368 -0.5660
 1705TIP3   OH2 5078   2.663   4.625   5.562 -0.4897  0.2039  0.1900
 1705TIP3    H1 5079   2.719   4.613   5.485 -0.2419  1.7922  0.0894
 1705TIP3    H2 5080   2.687   4.554   5.621 -0.7416 -1.0904 -1.2222
 1706TIP3   OH2 5081   4.869   1.993   1.266 -0.0134 -0.0927  0.0135
 1706TIP3    H1 5082   4.946   2.034   1.306 -2.7992  2.3226  3.4762
 1706TIP3    H2 5083   4.850   2.048   1.190  1.5693 -0.6907 -0.8536
 1707TIP3   OH2 5084   1.605   0.151   2.353 -0.7098 -0.2280 -0.3615
 1707TIP3    H1 5085   1.699   0.163   2.339 -1.0937  1.1580 -2.0575
 1707TIP3    H2 5086   1.574   0.237   2.381 -1.7617 -0.1581 -1.6665
 1708TIP3   OH2 5087   3.665   2.056   4.990  0.2662  0.1787 -0.0090
 1708TIP3    H1 5088   3.590   2.013   5.030 -0.0005  1.0504  0.4513
 1708TIP3    H2 5089   3.631   2.094   4.909  0.1206  0.8503  0.3582
 1709TIP3   OH2 5090   6.008   4.419   2.584  0.4117  0.0913  0.0524
 1709TIP3    H1 5091   6.063   4.341   2.590  0.0276 -0.1052  1.3876
 1709TIP3    H2 5092   5.931   4.391   2.534 -0.0939 -0.6231  1.2051
 1710TIP3   OH2 5093   4.216   3.063   3.861 -0.2381 -0.0031  0.1123
 1710TIP3    H1 5094   4.136   3.072   3.913 -0.6040 -1.5970 -0.1332
 1710TIP3    H2 5095   4.278   3.021   3.921  0.1460  0.4383  0.0264
 1711TIP3   OH2 5096   5.523   3.371   2.304 -0.5072 -0.1372  0.1257
 1711TIP3    H1 5097   5.602   3.358   2.357 -0.3598 -1.8721 -0.4591
 1711TIP3    H2 5098   5.478   3.287   2.307 -1.2571  0.1753 -1.2990
 1712TIP3   OH2 5099   1.364   2.727   4.006 -0.2556  0.3015  0.2614
 1712TIP3    H1 5100   1.409   2.648   4.035 -0.6956 -0.7854 -1.8338
 1712TIP3    H2 5101   1.272   2.712   4.028 -0.7377 -0.9185 -2.2520
 1713TIP3   OH2 5102   2.182   6.721   0.068 -0.1670  0.5644 -0.4504
 1713TIP3    H1 5103   2.173   6.729  -0.027  0.4735 -1.0845 -0.6744
 1713TIP3    H2 5104   2.218   6.633   0.082  1.6625  1.5040  1.2163
 1714TIP3   OH2 5105   3.912   0.535   5.090 -0.2553  0.8174  0.1920
 1714TIP3    H1 5106   3.841   0.548   5.028 -1.7987 -0.4311  1.5996
 1714TIP3    H2 5107   3.968   0.470   5.048 -1.0860  0.2467 -0.0642
 1715TIP3   OH2 5108   2.405   4.544   5.015 -0.2915  0.9556  0.2463
 1715TIP3    H1 5109   2.433   4.475   4.955 -0.4140  0.3597  0.8613
 1715TIP3    H2 5110   2.450   4.524   5.097  1.8234  3.1351 -0.2609
 1716TIP3   OH2 5111   5.800   0.375   3.132 -0.2423 -0.1346 -0.3016
 1716TIP3    H1 5112   5.785   0.286   3.165 -1.2677  0.3029  0.4367
 1716TIP3    H2 5113   5.714   0.416   3.134  0.3562  1.1284  0.1213
 1717TIP3   OH2 5114   7.120   4.700   3.795  0.0829  0.5719 -0.3397
 1717TIP3    H1 5115   7.048   4.763   3.800 -0.1766  0.2871 -0.4513
 1717TIP3    H2 5116   7.089   4.633   3.735 -0.3313 -0.5412  1.0499
 1718TIP3   OH2 5117   1.349   6.564   2.998  0.5027 -0.7604 -0.0397
 1718TIP3    H1 5118   1.265   6.532   2.966 -0.0059  1.0931 -0.6719
 1718TIP3    H2 5119   1.409   6.490   2.984 -0.9554 -2.0770  0.3199
 1719TIP3   OH2 5120   0.924   0.727   1.939 -0.6863 -0.0211 -0.4153
 1719TIP3    H1 5121   0.935   0.644   1.892 -2.0575 -0.9203  0.7870
 1719TIP3    H2 5122   1.007   0.739   1.985 -0.8459 -1.3204  0.2636
 1720TIP3   OH2 5123   2.057   2.080   1.800  0.4192 -0.5625 -0.3168
 1720TIP3    H1 5124   2.023   2.046   1.883  3.1731 -0.1713  1.1164
 1720TIP3    H2 5125   1.985   2.131   1.764 -0.3279  0.9081  2.8550
 1721TIP3   OH2 5126   0.904   0.293   3.471  0.0683  0.7046  0.1382
 1721TIP3    H1 5127   0.810   0.306   3.488  0.0709  0.9675 -0.0403
 1721TIP3    H2 5128   0.907   0.256   3.383  0.0333 -0.9967  0.8111
 1722TIP3   OH2 5129   6.809   6.613   4.893  0.3134  0.4741  0.0024
 1722TIP3    H1 5130   6.757   6.591   4.815  0.7531 -0.4344 -0.0482
 1722TIP3    H2 5131   6.900   6.605   4.864  0.5326  2.8734 -0.1431
 1723TIP3   OH2 5132   3.300   0.046   3.304 -0.1244  0.4910 -0.6311
 1723TIP3    H1 5133   3.268   0.093   3.381  0.5910 -0.5421  0.3400
 1723TIP3    H2 5134   3.254   0.085   3.230 -1.4942  0.9295  0.4188
 1724TIP3   OH2 5135   3.230   0.161   2.548 -0.4478  0.5203 -0.4988
 1724TIP3    H1 5136   3.269   0.245   2.524 -0.3648  0.6518  0.0656
 1724TIP3    H2 5137   3.305   0.101   2.552 -0.4003  0.5966 -0.1693
 1725TIP3   OH2 5138   3.223   1.795   0.845 -0.0611 -0.0040  0.0376
 1725TIP3    H1 5139   3.222   1.891   0.850 -0.1662 -0.0415  0.8281
 1725TIP3    H2 5140   3.266   1.776   0.761 -2.1908  0.7620 -1.3209
 1726TIP3   OH2 5141   1.307   1.049   4.996 -0.8738 -0.4047 -0.1095
 1726TIP3    H1 5142   1.394   1.066   4.959 -0.6554 -0.2153  0.4773
 1726TIP3    H2 5143   1.321   1.051   5.091 -2.0242  2.4598  0.0790
 1727TIP3   OH2 5144   3.924   2.680   4.896  0.3073 -0.3178 -0.4980
 1727TIP3    H1 5145   3.881   2.611   4.845 -0.0160 -0.1482 -0.4612
 1727TIP3    H2 5146   3.937   2.642   4.983 -2.2364  0.4935  0.3404
 1728TIP3   OH2 5147   1.596   0.915   4.516 -0.3259  0.4997 -0.4593
 1728TIP3    H1 5148   1.659   0.843   4.521  0.4670  1.1615 -0.6300
 1728TIP3    H2 5149   1.547   0.909   4.598 -0.0092  0.0023 -0.2985
 1729TIP3   OH2 5150   1.567   0.863   3.012  0.1088  0.3365  0.0181
 1729TIP3    H1 5151   1.493   0.922   3.022  0.1422  0.0299  2.8042
 1729TIP3    H2 5152   1.533   0.777   3.038  0.9463 -0.1936 -0.5916
 1730TIP3   OH2 5153   0.008   6.626   2.521 -0.0805  0.2485  0.0030
 1730TIP3    H1 5154   0.059   6.547   2.504 -2.1459 -0.6818 -2.5031
 1730TIP3    H2 5155   0.060   6.697   2.483  0.8802 -0.1818  0.5028
 1731TIP3   OH2 5156   3.360   2.001   1.297 -0.3295  0.0641 -0.3670
 1731TIP3    H1 5157   3.345   2.090   1.265 -2.4514 -0.1619 -0.1248
 1731TIP3    H2 5158   3.351   1.945   1.219  0.3216 -0.0247 -0.3905
 1732TIP3   OH2 5159   2.595   5.536   5.704  0.2648  0.2600  0.3116
 1732TIP3    H1 5160   2.573   5.515   5.794 -1.1114 -1.8743 -0.4706
 1732TIP3    H2 5161   2.515   5.572   5.667 -0.4900 -2.5912 -1.0872
 1733TIP3   OH2 5162   6.292   0.764   4.142 -0.0148  0.3216  0.3920
 1733TIP3    H1 5163   6.266   0.785   4.232  0.5966  2.7072  0.0925
 1733TIP3    H2 5164   6.361   0.698   4.152 -1.9268 -1.6274  1.4664
 1734TIP3   OH2 5165   1.068   4.922   0.887  0.0675  0.6525 -0.1651
 1734TIP3    H1 5166   1.046   4.831   0.905  1.5378  0.4853  0.9979
 1734TIP3    H2 5167   1.119   4.920   0.806 -0.7514  0.5739 -0.6836
 1735TIP3   OH2 5168   4.768   4.197   2.928  0.1459  0.5362  0.3821
 1735TIP3    H1 5169   4.773   4.132   2.998  0.1456  1.1688  0.9830
 1735TIP3    H2 5170   4.681   4.186   2.891  0.2690 -0.0316  0.2580
 1736TIP3   OH2 5171   5.171   0.806   1.205 -0.0648 -0.5669  0.5689
 1736TIP3    H1 5172   5.096   0.849   1.166  1.1198 -0.1023 -1.3335
 1736TIP3    H2 5173   5.169   0.717   1.170  0.4133 -0.4615  0.2527
 1737TIP3   OH2 5174   4.784   5.221   0.014  0.1571 -0.2715 -0.0308
 1737TIP3    H1 5175   4.743   5.260   0.092  1.6123 -0.1006  0.6796
 1737TIP3    H2 5176   4.750   5.132   0.012 -0.3711 -0.0908  0.4448
 1738TIP3   OH2 5177   2.562   1.833   4.502 -0.0831  0.1779  0.1567
 1738TIP3    H1 5178   2.658   1.831   4.499 -0.1007  0.5900 -1.7302
 1738TIP3    H2 5179   2.536   1.742   4.492  0.1046  0.0851  0.4929
 1739TIP3   OH2 5180   1.925   1.493   2.643  0.3525 -0.2140 -0.1852
 1739TIP3    H1 5181   1.844   1.528   2.606  0.3763 -1.6243 -1.6981
 1739TIP3    H2 5182   1.921   1.515   2.736 -0.1579  2.7084 -0.7895
 1740TIP3   OH2 5183   4.132   4.530   1.264 -0.1916  0.2979 -0.5214
 1740TIP3    H1 5184   4.196   4.590   1.302 -1.1564  0.3291  1.1276
 1740TIP3    H2 5185   4.052   4.581   1.259 -0.3536 -0.0443 -1.6484
 1741TIP3   OH2 5186   4.426   2.326   4.258 -0.4342  0.0773 -0.2375
 1741TIP3    H1 5187   4.487   2.394   4.232 -1.2534  0.9746  0.1123
 1741TIP3    H2 5188   4.480   2.249   4.273  0.4482  0.5102 -1.1379
 1742TIP3   OH2 5189   6.588   3.144   2.129 -0.3335 -0.2918 -0.0593
 1742TIP3    H1 5190   6.640   3.195   2.190 -0.4187 -0.9192  0.5508
 1742TIP3    H2 5191   6.499   3.177   2.139 -0.5628 -1.1651  1.0260
 1743TIP3   OH2 5192   0.614   6.194   1.874  0.1903  0.1681 -0.6281
 1743TIP3    H1 5193   0.525   6.173   1.903  0.6308  0.5186  1.1126
 1743TIP3    H2 5194   0.603   6.270   1.817 -0.5243  1.1436  0.7452
 1744TIP3   OH2 5195   3.161   6.665   5.138  0.1495  0.5642 -0.5166
 1744TIP3    H1 5196   3.100   6.739   5.138 -2.5391 -1.5302 -0.0380
 1744TIP3    H2 5197   3.135   6.612   5.064 -0.6785 -1.9140  1.4225
 1745TIP3   OH2 5198   1.751   5.064   2.767  0.3141 -0.3968  0.0964
 1745TIP3    H1 5199   1.715   5.042   2.681 -2.5916  0.7345  0.9047
 1745TIP3    H2 5200   1.769   5.157   2.762  1.5916 -0.6150  0.2831
 1746TIP3   OH2 5201   5.645   5.809   0.431 -0.2939 -0.3411  0.0359
 1746TIP3    H1 5202   5.603   5.811   0.517  0.6853 -0.5072  0.5217
 1746TIP3    H2 5203   5.699   5.730   0.432  0.6498  0.2875 -0.2820
 1747TIP3   OH2 5204   4.963   5.040   1.316 -0.1393 -0.2854  0.6762
 1747TIP3    H1 5205   5.006   5.106   1.262 -0.6770  0.6893  1.4165
 1747TIP3    H2 5206   5.033   5.007   1.373  0.0313 -0.0252  0.6215
 1748TIP3   OH2 5207   1.535   5.821   5.218  0.1071 -0.0622  0.1556
 1748TIP3    H1 5208   1.593   5.801   5.144  0.2528 -1.6910  0.6612
 1748TIP3    H2 5209   1.471   5.750   5.218 -1.1063  1.0037  0.4045
 1749TIP3   OH2 5210   5.669   2.224   5.470  0.4298  0.0203 -0.7436
 1749TIP3    H1 5211   5.577   2.252   5.467  0.8301  1.5767  0.3268
 1749TIP3    H2 5212   5.683   2.201   5.561  0.6979 -1.7934 -1.2122
 1750TIP3   OH2 5213   3.517   1.579   0.450 -0.1930  0.4716 -0.6547
 1750TIP3    H1 5214   3.503   1.532   0.368  0.9342 -0.0102 -0.5924
 1750TIP3    H2 5215   3.608   1.609   0.444  0.6993 -1.5984  1.4120
 1751TIP3   OH2 5216   2.171   0.259   5.319 -0.4279  1.3071 -0.1821
 1751TIP3    H1 5217   2.226   0.309   5.259 -0.1581  0.6679 -0.4749
 1751TIP3    H2 5218   2.213   0.268   5.405 -0.4669  1.7064 -0.2070
 1752TIP3   OH2 5219   6.585   5.003   4.936 -0.0486 -0.1806 -0.1442
 1752TIP3    H1 5220   6.614   4.947   5.009  0.1134  1.9591  1.5428
 1752TIP3    H2 5221   6.555   4.942   4.869  0.7657 -2.2846  1.3037
 1753TIP3   OH2 5222   1.376   5.762   3.517  0.1216 -0.1500  0.2580
 1753TIP3    H1 5223   1.327   5.691   3.475  0.6421 -0.8396  0.7758
 1753TIP3    H2 5224   1.312   5.833   3.527 -0.7518 -0.9790  0.8172
 1754TIP3   OH2 5225   4.508   4.981   1.089  0.6286  0.2222  0.1868
 1754TIP3    H1 5226   4.485   5.055   1.032 -0.3830 -2.2038 -2.8233
 1754TIP3    H2 5227   4.599   4.963   1.067  0.6180  0.0591  0.2802
 1755TIP3   OH2 5228   1.960   0.120   2.666 -0.3284  0.1043  0.4220
 1755TIP3    H1 5229   1.867   0.107   2.651 -0.6482  1.4702  1.0396
 1755TIP3    H2 5230   1.972   0.107   2.760  0.2669 -0.8808  0.2250
 1756TIP3   OH2 5231   5.053   5.637   1.473 -0.6497  0.4029  0.3687
 1756TIP3    H1 5232   5.091   5.631   1.385 -0.0275  1.8480  0.5148
 1756TIP3    H2 5233   5.008   5.554   1.485  0.1025 -0.2227 -0.9247
 1757TIP3   OH2 5234   6.722   0.544   4.035  0.1346  0.1750 -0.1143
 1757TIP3    H1 5235   6.627   0.539   4.037  0.1916 -1.5258  0.8113
 1757TIP3    H2 5236   6.743   0.584   3.951 -1.3729 -0.5567 -0.8747
 1758TIP3   OH2 5237   0.349   0.285   2.857  0.5600  0.1538 -0.1180
 1758TIP3    H1 5238   0.259   0.262   2.834  0.0045  0.5562  1.5089
 1758TIP3    H2 5239   0.376   0.219   2.920  2.1525 -1.1059 -1.9988
 1759TIP3   OH2 5240   0.466   2.177   2.176 -0.5155  0.0115 -0.8240
 1759TIP3    H1 5241   0.545   2.149   2.222 -1.2681 -0.1821  0.4224
 1759TIP3    H2 5242   0.496   2.210   2.092  0.7316 -1.4793 -0.9955
 1760TIP3   OH2 5243   6.261   0.053   4.267  0.4880  0.0285 -0.0479
 1760TIP3    H1 5244   6.327  -0.006   4.231 -0.8675 -1.1378 -0.7241
 1760TIP3    H2 5245   6.288   0.140   4.237  1.3392 -0.5078 -0.8830
 1761TIP3   OH2 5246   1.024   4.423   4.309 -0.4802 -0.4709  0.0140
 1761TIP3    H1 5247   0.934   4.398   4.290 -0.3446 -1.5636  0.7338
 1761TIP3    H2 5248   1.077   4.375   4.245 -0.3145 -1.0232  0.5525
 1762TIP3   OH2 5249   1.293   0.321   5.227  0.1554 -0.3451  0.5857
 1762TIP3    H1 5250   1.279   0.415   5.240 -2.8160 -0.6697  0.3880
 1762TIP3    H2 5251   1.349   0.315   5.150  1.3695  1.2345  1.2915
 1763TIP3   OH2 5252   6.366   1.837   5.112  0.8393  0.9294  0.1820
 1763TIP3    H1 5253   6.360   1.811   5.204  1.0385  1.6934  0.4129
 1763TIP3    H2 5254   6.313   1.771   5.066 -0.9808  1.6932  1.0667
 1764TIP3   OH2 5255   3.575   4.084   0.275  0.4615  0.6458  0.1065
 1764TIP3    H1 5256   3.517   4.058   0.346 -0.3314 -0.6512 -0.9592
 1764TIP3    H2 5257   3.633   4.009   0.261 -0.4325  0.2104 -1.6041
 1765TIP3   OH2 5258   2.828   3.807   4.301  0.2410 -0.9001  0.1225
 1765TIP3    H1 5259   2.743   3.761   4.301 -0.3712  0.1448 -1.8216
 1765TIP3    H2 5260   2.875   3.772   4.226 -0.9548  2.6810 -2.5939
 1766TIP3   OH2 5261   3.209   1.959   2.284  0.3695 -0.0052 -0.4084
 1766TIP3    H1 5262   3.247   1.872   2.274  0.2687 -0.1294  0.2040
 1766TIP3    H2 5263   3.203   1.994   2.195 -1.9954 -1.6571 -0.9956
 1767TIP3   OH2 5264   4.101   3.421   5.206 -0.1147 -0.5867  0.6474
 1767TIP3    H1 5265   4.127   3.383   5.289  0.6761  0.6630  1.0028
 1767TIP3    H2 5266   4.184   3.449   5.165 -0.4074 -1.7958 -0.8948
 1768TIP3   OH2 5267   4.651   4.025   3.164 -0.3935  0.3410 -0.0360
 1768TIP3    H1 5268   4.746   4.030   3.170 -0.3254 -1.0487  0.3312
 1768TIP3    H2 5269   4.628   3.941   3.204 -1.9375  1.4463  1.5819
 1769TIP3   OH2 5270   2.346   2.646   3.131 -0.1798 -0.0623 -0.0109
 1769TIP3    H1 5271   2.413   2.579   3.116  0.9033  1.2464 -1.2971
 1769TIP3    H2 5272   2.273   2.620   3.075  0.9518  0.7576 -1.9493
 1770TIP3   OH2 5273   5.140   4.803   2.605  0.1557  0.3568 -0.0976
 1770TIP3    H1 5274   5.211   4.761   2.653 -0.1153  0.2085  0.1802
 1770TIP3    H2 5275   5.184   4.860   2.542  0.5701 -1.1880 -1.2769
 1771TIP3   OH2 5276   1.291   1.221   3.216 -0.1312  0.0495 -0.2247
 1771TIP3    H1 5277   1.248   1.167   3.283 -1.0528  0.8380 -0.1601
 1771TIP3    H2 5278   1.309   1.161   3.144 -1.4583 -0.2783 -0.2979
 1772TIP3   OH2 5279   2.283   4.014   3.999  0.4840 -0.2640  0.3282
 1772TIP3    H1 5280   2.286   4.106   4.026  0.7694 -0.1927  0.0578
 1772TIP3    H2 5281   2.375   3.987   3.996  0.4656 -0.2148 -0.7659
 1773TIP3   OH2 5282   3.817   3.416   2.328  0.4120  0.3739 -0.3078
 1773TIP3    H1 5283   3.812   3.475   2.252  1.4567 -0.1343 -0.8001
 1773TIP3    H2 5284   3.733   3.371   2.329  0.7773 -0.4432 -1.8830
 1774TIP3   OH2 5285   2.286   5.027   5.767  0.6297  0.0467  0.8472
 1774TIP3    H1 5286   2.370   5.049   5.726 -0.0958 -0.8556 -1.1990
 1774TIP3    H2 5287   2.311   4.987   5.851  2.3817 -2.1832 -0.6203
 1775TIP3   OH2 5288   0.886   1.620   1.171 -0.0387 -0.5253 -0.1283
 1775TIP3    H1 5289   0.800   1.580   1.162  0.4934 -1.6085 -0.5319
 1775TIP3    H2 5290   0.872   1.692   1.233 -1.7920  1.0552 -2.1926
 1776TIP3   OH2 5291   2.649   3.471   3.037 -0.0250  0.3802  0.1423
 1776TIP3    H1 5292   2.646   3.503   3.127  1.7586 -0.3274  0.4939
 1776TIP3    H2 5293   2.591   3.530   2.988 -1.9222  0.1001  1.9234
 1777TIP3   OH2 5294   7.143   4.009   4.775  0.2582  0.3486  0.3377
 1777TIP3    H1 5295   7.118   4.021   4.866 -1.4253 -1.0338  0.1055
 1777TIP3    H2 5296   7.212   3.943   4.778 -0.8158 -0.7932  0.5334
 1778TIP3   OH2 5297   2.820   3.916   5.412 -0.0668 -0.1626 -0.4268
 1778TIP3    H1 5298   2.914   3.907   5.399 -0.0373 -0.3774 -0.0623
 1778TIP3    H2 5299   2.801   3.867   5.492 -0.6729 -1.1222 -1.1325
 1779TIP3   OH2 5300   3.831   2.484   4.139 -0.0335  0.4504  0.4506
 1779TIP3    H1 5301   3.826   2.576   4.115 -1.8537  0.5428  1.0564
 1779TIP3    H2 5302   3.908   2.478   4.196  1.9945  0.9480 -2.0749
 1780TIP3   OH2 5303   6.479   2.373   0.532  0.0140 -0.1938  0.7010
 1780TIP3    H1 5304   6.465   2.340   0.620 -1.6880  0.9027  0.8927
 1780TIP3    H2 5305   6.396   2.360   0.487  0.6271 -0.0758 -0.5403
 1781TIP3   OH2 5306   3.085   1.059   4.101 -0.1083  0.4384  0.0707
 1781TIP3    H1 5307   3.034   0.978   4.108 -0.5805  0.7749  0.5903
 1781TIP3    H2 5308   3.155   1.049   4.166  0.7679 -0.2058 -0.9343
 1782TIP3   OH2 5309   1.556   6.531   0.539 -0.4937  0.0525 -0.6476
 1782TIP3    H1 5310   1.639   6.531   0.587 -0.3400  1.4864 -0.8700
 1782TIP3    H2 5311   1.560   6.609   0.484 -1.9117  0.0555 -0.7954
 1783TIP3   OH2 5312   3.824   6.260   2.741 -0.1082 -0.3312 -0.0943
 1783TIP3    H1 5313   3.729   6.252   2.755 -0.1825 -1.1396 -0.9937
 1783TIP3    H2 5314   3.840   6.213   2.660  1.0079  0.2022 -0.1944
 1784TIP3   OH2 5315   5.761   0.909   2.788 -0.3431  0.9823 -0.0203
 1784TIP3    H1 5316   5.797   0.888   2.874 -0.2145  1.4966  0.0600
 1784TIP3    H2 5317   5.822   0.974   2.753 -0.4916  0.9028 -0.4276
 1785TIP3   OH2 5318   0.836   5.246   4.514  0.5019 -0.3635 -0.1023
 1785TIP3    H1 5319   0.924   5.243   4.552  1.2242 -0.3421 -1.7121
 1785TIP3    H2 5320   0.842   5.196   4.433 -0.6822  0.5502 -0.7966
 1786TIP3   OH2 5321   7.103   6.199   4.422  0.5231 -0.2545  0.2209
 1786TIP3    H1 5322   7.141   6.132   4.479  1.0460 -0.5522 -0.4655
 1786TIP3    H2 5323   7.178   6.252   4.394  0.2694 -0.1142 -0.1926
 1787TIP3   OH2 5324   5.707   6.382   3.217  0.0907  0.1702  0.7795
 1787TIP3    H1 5325   5.778   6.402   3.278 -0.2141 -0.8315  1.4778
 1787TIP3    H2 5326   5.751   6.348   3.139  0.4227  0.4176  0.8574
 1788TIP3   OH2 5327   3.113   5.269   3.408 -0.2834  0.6620  0.3710
 1788TIP3    H1 5328   3.200   5.256   3.369 -0.5148  0.9489 -0.2474
 1788TIP3    H2 5329   3.126   5.251   3.501 -0.1788 -2.2191 -0.1091
 1789TIP3   OH2 5330   4.928   1.659   0.492 -0.1865  0.6599 -0.6735
 1789TIP3    H1 5331   5.009   1.615   0.466 -0.5207 -0.9833  0.8530
 1789TIP3    H2 5332   4.950   1.705   0.573 -1.0469 -0.9993  0.5772
 1790TIP3   OH2 5333   0.097   1.794   5.015 -0.1247  0.7593  0.1009
 1790TIP3    H1 5334   0.042   1.783   5.093 -1.5084  1.2159 -0.7797
 1790TIP3    H2 5335   0.037   1.826   4.948  1.4002  2.2323 -0.6430
 1791TIP3   OH2 5336   4.726   5.158   1.363 -0.4070  0.1523 -0.1778
 1791TIP3    H1 5337   4.709   5.130   1.453 -1.4009 -0.2382 -0.4727
 1791TIP3    H2 5338   4.809   5.116   1.340 -0.4067 -0.1651  0.3761
 1792TIP3   OH2 5339   4.187   6.636   3.400  0.5537 -0.1894 -0.1680
 1792TIP3    H1 5340   4.138   6.709   3.437 -0.0754 -0.2659 -0.8292
 1792TIP3    H2 5341   4.272   6.640   3.444  0.4164  0.7416  0.0456
 1793TIP3   OH2 5342   6.930   5.131   5.632 -0.0355 -0.4635 -0.9269
 1793TIP3    H1 5343   7.006   5.189   5.629 -0.4776  0.3462  1.5461
 1793TIP3    H2 5344   6.855   5.190   5.635 -0.6254 -1.2087 -0.7321
 1794TIP3   OH2 5345   5.111   4.079   1.043 -0.0157  0.3611 -1.0415
 1794TIP3    H1 5346   5.042   4.014   1.039  0.3759 -0.2277  0.9640
 1794TIP3    H2 5347   5.188   4.031   1.074  0.3232  1.7051  0.3168
 1795TIP3   OH2 5348   5.771   4.134   5.788  0.2966  0.1092 -0.5177
 1795TIP3    H1 5349   5.775   4.042   5.763  2.1914  0.2861 -1.0114
 1795TIP3    H2 5350   5.844   4.146   5.848 -0.8004  0.9901  0.6827
 1796TIP3   OH2 5351   4.672   2.917   4.362  0.0560 -0.3946  0.1019
 1796TIP3    H1 5352   4.732   2.875   4.423  0.6724  0.0436 -0.1882
 1796TIP3    H2 5353   4.589   2.874   4.376  0.2144 -0.3728  1.1735
 1797TIP3   OH2 5354   4.068   0.631   0.305 -0.5485  0.5316  0.3542
 1797TIP3    H1 5355   4.078   0.726   0.294 -0.5269  0.5105  0.1836
 1797TIP3    H2 5356   3.980   0.621   0.341 -0.2428  0.6685  1.1686
 1798TIP3   OH2 5357   2.665   3.079   4.583  0.1145  0.1908 -0.1516
 1798TIP3    H1 5358   2.588   3.119   4.623 -0.4252 -0.0759 -0.9238
 1798TIP3    H2 5359   2.738   3.113   4.635 -0.3145  2.2242 -0.8107
 1799TIP3   OH2 5360   5.060   4.096   3.366 -0.0445  0.7941 -0.0376
 1799TIP3    H1 5361   5.155   4.105   3.364  0.2675 -1.3147  2.0660
 1799TIP3    H2 5362   5.032   4.147   3.442 -0.1015 -1.6671  1.6790
 1800TIP3   OH2 5363   3.315   6.289   3.106 -0.4610  0.2053  0.0787
 1800TIP3    H1 5364   3.232   6.243   3.119  0.3553 -0.8181  2.2927
 1800TIP3    H2 5365   3.291   6.381   3.096 -2.0780 -0.4401 -3.4112
 1801TIP3   OH2 5366   6.273   3.052   0.215 -0.1085 -0.1240 -0.3218
 1801TIP3    H1 5367   6.320   3.020   0.291 -2.0694 -2.8750 -0.1523
 1801TIP3    H2 5368   6.332   3.116   0.176  1.0545  1.2921  3.3345
 1802TIP3   OH2 5369   4.696   0.623   5.380  0.0621  0.3532  0.2588
 1802TIP3    H1 5370   4.739   0.625   5.294  0.3534 -0.0438  0.3912
 1802TIP3    H2 5371   4.756   0.671   5.438 -0.1121  0.5808  0.2490
 1803TIP3   OH2 5372   4.031   1.720   0.584 -0.8764 -0.1510 -0.1665
 1803TIP3    H1 5373   4.024   1.800   0.637  0.2450 -0.1258 -0.0379
 1803TIP3    H2 5374   4.047   1.752   0.495 -1.7209 -0.2164 -0.3501
 1804TIP3   OH2 5375   6.385   6.457   1.674  0.0253 -0.4896 -0.1340
 1804TIP3    H1 5376   6.359   6.482   1.585  1.8351  0.0077 -0.5634
 1804TIP3    H2 5377   6.405   6.540   1.717  1.1723 -0.8442  0.0559
 1805TIP3   OH2 5378   3.147   4.449   5.634  0.1301 -0.3266 -0.0880
 1805TIP3    H1 5379   3.083   4.378   5.638 -1.0217  0.6632 -0.4855
 1805TIP3    H2 5380   3.152   4.482   5.724  0.0833 -0.4002 -0.0585
 1806TIP3   OH2 5381   2.487   4.908   0.554  0.3281  0.3608  1.2075
 1806TIP3    H1 5382   2.407   4.953   0.525  0.8785  0.0101 -1.0411
 1806TIP3    H2 5383   2.554   4.935   0.491  1.3251 -1.4869  1.3953
 1807TIP3   OH2 5384   5.233   0.255   2.237  0.7118 -0.0204  0.0053
 1807TIP3    H1 5385   5.321   0.269   2.271  0.9833 -0.8091 -0.3370
 1807TIP3    H2 5386   5.184   0.332   2.264  1.4714  0.3638  0.3192
 1808TIP3   OH2 5387   2.547   1.233   0.914  0.1887 -0.6024  0.1058
 1808TIP3    H1 5388   2.550   1.139   0.895  2.3564 -1.1739  2.7050
 1808TIP3    H2 5389   2.616   1.271   0.861 -0.8124 -0.3953 -1.0897
 1809TIP3   OH2 5390   7.103   4.686   0.606 -0.2215 -0.5298  0.5777
 1809TIP3    H1 5391   7.007   4.684   0.603 -0.1983 -0.4521 -1.9363
 1809TIP3    H2 5392   7.124   4.777   0.626 -0.6634 -0.3877  0.4113
 1810TIP3   OH2 5393   1.742   3.784   3.974  0.3702 -0.0023 -0.3899
 1810TIP3    H1 5394   1.823   3.738   3.952  0.7644  0.6548 -0.3306
 1810TIP3    H2 5395   1.674   3.733   3.931  0.6144 -1.5576  0.9490
 1811TIP3   OH2 5396   6.843   5.689   4.098  0.0836 -0.0752  0.2244
 1811TIP3    H1 5397   6.829   5.616   4.037 -0.8461  0.1093  0.2175
 1811TIP3    H2 5398   6.831   5.768   4.045  1.4511  0.1167  0.1420
 1812TIP3   OH2 5399   4.640   5.096   3.751 -0.3651  0.1564 -0.0925
 1812TIP3    H1 5400   4.625   5.123   3.841  1.1132 -2.5377  1.0927
 1812TIP3    H2 5401   4.553   5.080   3.715 -1.0251  2.3458  0.4287
 1813TIP3   OH2 5402   7.188   2.215   3.380  0.0601  0.4998  0.4639
 1813TIP3    H1 5403   7.180   2.211   3.284 -0.2106 -0.8045  0.5298
 1813TIP3    H2 5404   7.099   2.201   3.412  0.1191  1.1312  0.9121
 1814TIP3   OH2 5405   2.977   1.490   2.961  0.4975 -0.3730 -0.6361
 1814TIP3    H1 5406   2.937   1.514   2.878  1.1046 -0.0902 -0.8536
 1814TIP3    H2 5407   2.962   1.396   2.969 -0.3210 -0.2471 -0.6449
 1815TIP3   OH2 5408   1.346   4.921   1.690 -0.1427  0.0691  0.0517
 1815TIP3    H1 5409   1.278   4.867   1.650  0.0228 -0.5885  0.6400
 1815TIP3    H2 5410   1.427   4.872   1.676  0.1413  0.5959 -0.1826
 1816TIP3   OH2 5411   1.652   4.237   3.124 -0.4878  0.3673 -0.1682
 1816TIP3    H1 5412   1.644   4.142   3.117 -0.9095  0.2756  1.2113
 1816TIP3    H2 5413   1.624   4.270   3.039  0.8966 -0.7904 -1.1065
 1817TIP3   OH2 5414   3.881   6.260   0.387  0.1805 -0.3717 -0.4118
 1817TIP3    H1 5415   3.806   6.201   0.395  0.0131 -0.3021 -1.3110
 1817TIP3    H2 5416   3.847   6.346   0.410 -0.0312 -0.3341 -0.8555
 1818TIP3   OH2 5417   4.744   1.668   1.048  0.6091  0.0589 -0.9596
 1818TIP3    H1 5418   4.735   1.691   1.140 -0.3035 -0.1698 -0.9848
 1818TIP3    H2 5419   4.782   1.580   1.048 -0.8218 -0.5796 -0.7596
 1819TIP3   OH2 5420   3.951   2.812   1.881  0.0021 -0.1684  0.1793
 1819TIP3    H1 5421   4.042   2.811   1.850  0.0807  1.6564  0.2706
 1819TIP3    H2 5422   3.955   2.767   1.966  0.8602  0.1205  0.3032
 1820TIP3   OH2 5423   2.689   2.004   1.695  0.0681  0.0536 -0.4396
 1820TIP3    H1 5424   2.626   1.940   1.726 -0.7737  0.3943 -1.3817
 1820TIP3    H2 5425   2.734   1.961   1.622  1.4784 -0.4605  0.6892
 1821TIP3   OH2 5426   0.762   4.091   2.305  0.5764  0.1761  0.5297
 1821TIP3    H1 5427   0.840   4.040   2.325  0.1622 -0.9238 -0.5813
 1821TIP3    H2 5428   0.783   4.136   2.223 -0.1805 -0.6534 -0.1333
 1822TIP3   OH2 5429   5.093   3.731   5.586 -0.1247  0.3213  0.1145
 1822TIP3    H1 5430   5.145   3.656   5.556 -0.6150 -0.0468  0.1781
 1822TIP3    H2 5431   5.095   3.725   5.682 -1.7111 -0.6973  0.1078
 1823TIP3   OH2 5432   2.829   4.135   0.162 -0.0447  0.6872 -0.9078
 1823TIP3    H1 5433   2.749   4.100   0.123 -0.5363 -1.2789  1.6017
 1823TIP3    H2 5434   2.895   4.069   0.145  0.0531  0.4421  0.2869
 1824TIP3   OH2 5435   3.189   0.840   0.104 -0.5010  0.2773  0.3876
 1824TIP3    H1 5436   3.114   0.887   0.068  0.5226  1.9708  0.3670
 1824TIP3    H2 5437   3.244   0.820   0.029 -0.3947  0.0359  0.5268
 1825TIP3   OH2 5438   2.776   0.951   0.603  0.4610 -0.6084 -0.5946
 1825TIP3    H1 5439   2.704   0.961   0.540 -2.1631 -0.2741  2.1776
 1825TIP3    H2 5440   2.845   1.008   0.570 -1.1500  0.3034 -2.6342
 1826TIP3   OH2 5441   4.948   1.375   3.628 -0.2224  0.0991 -0.3857
 1826TIP3    H1 5442   5.043   1.379   3.617 -0.0377 -0.7539  0.7336
 1826TIP3    H2 5443   4.927   1.282   3.617 -0.7153  0.0431  0.9151
 1827TIP3   OH2 5444   1.776   1.719   0.954 -0.0608 -0.6541 -0.0807
 1827TIP3    H1 5445   1.864   1.743   0.982 -0.7664  0.7374  1.0839
 1827TIP3    H2 5446   1.783   1.627   0.927  1.6075 -0.7243  0.5024
 1828TIP3   OH2 5447   2.652   1.316   5.554  0.2036  0.4422 -0.6275
 1828TIP3    H1 5448   2.728   1.263   5.576  0.1431  0.6344  0.0838
 1828TIP3    H2 5449   2.632   1.295   5.463 -0.2611 -1.2894 -0.1611
 1829TIP3   OH2 5450   5.529   6.176   3.691  0.3670 -0.0871 -0.0965
 1829TIP3    H1 5451   5.497   6.197   3.779  1.0519  0.9935 -0.0823
 1829TIP3    H2 5452   5.452   6.183   3.635 -0.0096 -0.4506  0.3667
 1830TIP3   OH2 5453   4.532   1.005   4.983 -0.0683  0.1076  0.1223
 1830TIP3    H1 5454   4.501   1.074   5.041  1.6512  1.7896 -0.8526
 1830TIP3    H2 5455   4.545   0.929   5.041 -2.5115  0.3722  1.1089
 1831TIP3   OH2 5456   6.073   2.832   1.501  0.0102 -0.4521 -0.2517
 1831TIP3    H1 5457   6.066   2.915   1.549 -1.1599 -0.0185 -1.1171
 1831TIP3    H2 5458   6.095   2.767   1.568 -0.4216  0.3272  0.6677
 1832TIP3   OH2 5459   1.822   0.815   3.761  0.1267 -0.2124 -0.0856
 1832TIP3    H1 5460   1.892   0.798   3.697  0.9475  0.1479  0.6928
 1832TIP3    H2 5461   1.811   0.732   3.807  0.7145 -0.0172  0.4228
 1833TIP3   OH2 5462   6.740   0.688   4.512 -0.0299  0.4016 -0.0186
 1833TIP3    H1 5463   6.645   0.683   4.521  0.1363 -1.2297  1.2378
 1833TIP3    H2 5464   6.755   0.700   4.418 -1.4613  1.1345 -0.1734
 1834TIP3   OH2 5465   3.938   2.443   1.557  0.1753  0.0156 -0.0156
 1834TIP3    H1 5466   3.903   2.510   1.615 -0.9164 -0.4954 -0.0524
 1834TIP3    H2 5467   3.865   2.422   1.498  0.4638 -1.2530  0.0474
 1835TIP3   OH2 5468   2.544   5.044   0.005 -0.1305  0.3409  0.2000
 1835TIP3    H1 5469   2.495   5.124   0.022  0.4387  0.7432 -0.0308
 1835TIP3    H2 5470   2.479   4.974   0.012 -1.1787  1.0018 -1.9726
 1836TIP3   OH2 5471   1.007   2.860   3.252  0.5981 -0.8503  0.3650
 1836TIP3    H1 5472   1.097   2.879   3.279  1.0773  0.8510 -2.0705
 1836TIP3    H2 5473   0.953   2.891   3.325  1.8482  1.7016  0.3067
 1837TIP3   OH2 5474   0.997   4.115   3.584 -0.3769  0.0288 -0.5135
 1837TIP3    H1 5475   1.028   4.206   3.581  0.7271 -0.3227 -0.2863
 1837TIP3    H2 5476   1.031   4.075   3.504 -1.6384  0.0345 -1.0720
 1838TIP3   OH2 5477   4.536   4.891   4.160  0.0341 -0.0374 -0.0078
 1838TIP3    H1 5478   4.514   4.956   4.226  0.9820  0.9695 -0.6596
 1838TIP3    H2 5479   4.463   4.830   4.162 -1.5701  1.7855 -0.3269
 1839TIP3   OH2 5480   6.010   3.396   0.996  0.3391 -0.9139 -0.8170
 1839TIP3    H1 5481   5.970   3.334   0.935  0.4825 -0.9375 -0.8865
 1839TIP3    H2 5482   6.007   3.350   1.081  0.1343 -0.8782 -0.8040
 1840TIP3   OH2 5483   1.689   1.269   2.327  0.4580  0.4218  0.7128
 1840TIP3    H1 5484   1.612   1.245   2.378 -0.4236 -0.3707 -0.9174
 1840TIP3    H2 5485   1.733   1.186   2.310 -0.1779  0.4419 -1.2005
 1841TIP3   OH2 5486   6.681   6.015   0.360 -1.0922 -0.1002  0.3303
 1841TIP3    H1 5487   6.667   6.072   0.284 -1.4964  0.6587  0.9471
 1841TIP3    H2 5488   6.719   5.935   0.324  1.5356  1.3538 -0.3307
 1842TIP3   OH2 5489   5.405   0.084   3.115 -0.0980  0.1333  0.6243
 1842TIP3    H1 5490   5.419   0.081   3.210  1.2744  1.5490  0.4945
 1842TIP3    H2 5491   5.310   0.096   3.106 -0.3279 -0.6097  1.7792
 1843TIP3   OH2 5492   6.137   4.661   5.079 -0.2350 -0.1206 -0.0697
 1843TIP3    H1 5493   6.184   4.595   5.029  0.4041  1.4693 -1.6518
 1843TIP3    H2 5494   6.088   4.610   5.145  0.0253 -2.1661 -1.3569
 1844TIP3   OH2 5495   0.618   3.671   2.159 -0.5857  0.5533  0.2440
 1844TIP3    H1 5496   0.542   3.620   2.187 -0.4337 -0.0304 -0.3704
 1844TIP3    H2 5497   0.613   3.751   2.210 -1.7706  0.6481  0.0104
 1845TIP3   OH2 5498   4.306   2.061   4.661 -0.2849 -0.0173 -0.3164
 1845TIP3    H1 5499   4.370   2.104   4.718 -2.5025  1.7680  0.9976
 1845TIP3    H2 5500   4.352   2.052   4.577  1.5360  1.5821  0.4183
 1846TIP3   OH2 5501   0.785   2.964   3.813 -0.3457  0.1754  0.4909
 1846TIP3    H1 5502   0.811   2.978   3.722 -1.9027  1.5363  0.2015
 1846TIP3    H2 5503   0.797   2.870   3.827  1.8934  0.2740 -0.4350
 1847TIP3   OH2 5504   3.764   1.426   2.116 -0.3050 -0.0354  0.4977
 1847TIP3    H1 5505   3.853   1.422   2.151 -0.5553  1.2150  1.3868
 1847TIP3    H2 5506   3.714   1.364   2.170 -0.1272 -0.1740  0.5028
 1848TIP3   OH2 5507   5.262   2.374   0.057 -0.2590 -0.1692  0.2510
 1848TIP3    H1 5508   5.230   2.335   0.138 -0.5156  1.0747  0.7718
 1848TIP3    H2 5509   5.195   2.438   0.033  0.4771  0.4588 -0.1850
 1849TIP3   OH2 5510   1.113   4.224   1.890  0.2951 -0.6257  0.1727
 1849TIP3    H1 5511   1.107   4.217   1.985 -1.7408  0.5477  0.1857
 1849TIP3    H2 5512   1.154   4.142   1.862  0.0904 -1.3805  1.9815
 1850TIP3   OH2 5513   6.738   2.589   5.733 -0.5299  0.2336 -0.1959
 1850TIP3    H1 5514   6.766   2.605   5.643 -0.9294 -0.3273 -0.4278
 1850TIP3    H2 5515   6.811   2.544   5.774  0.4478  2.1960  0.3474
 1851TIP3   OH2 5516   0.460   4.220   4.272 -0.1790 -0.3225  0.6669
 1851TIP3    H1 5517   0.540   4.204   4.222 -0.1519 -0.3842  0.7310
 1851TIP3    H2 5518   0.490   4.251   4.357 -0.2328  1.6165  0.0395
 1852TIP3   OH2 5519   2.196   5.542   1.318  0.0259 -0.2688  0.5956
 1852TIP3    H1 5520   2.233   5.514   1.234 -0.0610  0.6192  0.2499
 1852TIP3    H2 5521   2.206   5.637   1.318 -1.9947 -0.0085  0.6008
 1853TIP3   OH2 5522   6.009   5.546   4.833 -0.6104 -0.0427  1.0039
 1853TIP3    H1 5523   5.956   5.506   4.902 -3.0536  0.9844 -0.1557
 1853TIP3    H2 5524   6.036   5.473   4.778 -1.7884 -0.4962  1.0126
 1854TIP3   OH2 5525   2.724   1.574   5.330 -0.1466  0.0775  0.2366
 1854TIP3    H1 5526   2.637   1.538   5.310 -0.6605  1.7006 -0.6592
 1854TIP3    H2 5527   2.707   1.664   5.358  1.1359 -0.1077  1.7588
 1855TIP3   OH2 5528   2.894   6.626   5.872  0.0565 -0.3536  0.2241
 1855TIP3    H1 5529   2.923   6.646   5.783  1.1196  0.3756  0.7065
 1855TIP3    H2 5530   2.840   6.548   5.863  0.5574 -0.5831 -1.0005
 1856TIP3   OH2 5531   0.376   4.358   3.371 -0.0223  0.0435 -0.9384
 1856TIP3    H1 5532   0.342   4.274   3.401 -0.3533  0.2787 -0.6348
 1856TIP3    H2 5533   0.299   4.416   3.372  0.4080  0.6185 -0.1376
 1857TIP3   OH2 5534   4.438   4.355   2.037 -0.0363  0.3080 -0.2786
 1857TIP3    H1 5535   4.408   4.445   2.053 -0.9881  0.0790 -0.7186
 1857TIP3    H2 5536   4.513   4.366   1.977 -0.3730  0.7885 -0.6217
 1858TIP3   OH2 5537   1.235   2.768   4.405  0.2097 -0.6311 -0.6198
 1858TIP3    H1 5538   1.329   2.780   4.417 -0.3441  1.0817  3.5543
 1858TIP3    H2 5539   1.198   2.856   4.413 -1.8994 -1.5527  0.7158
 1859TIP3   OH2 5540   2.800   5.087   4.868  0.4360 -0.3349 -0.0645
 1859TIP3    H1 5541   2.708   5.070   4.847  0.7532 -1.2150 -0.8122
 1859TIP3    H2 5542   2.849   5.049   4.795  1.3796  0.4886  0.1209
 1860TIP3   OH2 5543   4.100   5.739   4.926  0.2279  0.5677  0.3958
 1860TIP3    H1 5544   4.020   5.725   4.874  1.0778 -0.5499 -0.6725
 1860TIP3    H2 5545   4.101   5.833   4.944 -0.1329  1.0040 -1.6008
 1861TIP3   OH2 5546   1.201   0.592   3.220  0.1045 -0.2890 -0.0404
 1861TIP3    H1 5547   1.185   0.504   3.255 -2.6328  1.0349  2.4689
 1861TIP3    H2 5548   1.126   0.609   3.163  0.9456  0.2397 -1.0222
 1862TIP3   OH2 5549   6.690   3.922   2.676 -0.6009  0.1716  0.7624
 1862TIP3    H1 5550   6.675   3.853   2.741  1.8148 -0.2408  0.9847
 1862TIP3    H2 5551   6.772   3.897   2.633 -1.1031  1.4894 -1.0866
 1863TIP3   OH2 5552   3.011   5.813   3.061  0.2266  0.2477  0.3574
 1863TIP3    H1 5553   2.947   5.750   3.093 -1.1572 -0.4582 -3.3423
 1863TIP3    H2 5554   2.960   5.888   3.033  0.6112 -0.7520 -3.6870
 1864TIP3   OH2 5555   3.958   0.210   1.425 -0.1224  0.7589  0.0228
 1864TIP3    H1 5556   3.923   0.143   1.366  1.0188  0.1896 -0.0457
 1864TIP3    H2 5557   3.998   0.160   1.496  0.6799  1.3652  0.0113
 1865TIP3   OH2 5558   3.910   1.966   2.744 -0.0801  0.4195 -0.6247
 1865TIP3    H1 5559   3.910   1.962   2.840 -0.3578 -0.6304 -0.6612
 1865TIP3    H2 5560   3.820   1.988   2.721 -0.2445 -0.2659 -0.6661
 1866TIP3   OH2 5561   2.524   5.318   2.731  0.3466  0.6732  0.4037
 1866TIP3    H1 5562   2.556   5.388   2.786  0.0072  0.2544  1.1477
 1866TIP3    H2 5563   2.601   5.286   2.685  0.8024  0.4073  1.3378
 1867TIP3   OH2 5564   3.469   1.819   5.568 -0.3966  0.5539 -0.2264
 1867TIP3    H1 5565   3.554   1.790   5.534 -1.2048 -0.6046 -1.3867
 1867TIP3    H2 5566   3.491   1.876   5.641  1.3756 -1.1246  0.6656
 1868TIP3   OH2 5567   1.989   2.775   2.810  0.3512 -0.5692 -0.2054
 1868TIP3    H1 5568   1.918   2.758   2.747 -0.7066  0.9004  0.5431
 1868TIP3    H2 5569   1.982   2.704   2.873 -0.1614 -0.6863 -0.3864
 1869TIP3   OH2 5570   2.091   3.255   1.083 -0.0931 -0.2221 -0.7200
 1869TIP3    H1 5571   2.149   3.331   1.086 -0.1342 -0.1872 -0.8137
 1869TIP3    H2 5572   2.025   3.277   1.017  0.1770 -0.5353 -1.1046
 1870TIP3   OH2 5573   3.261   3.025   1.656  0.5952 -0.2595 -0.6149
 1870TIP3    H1 5574   3.219   3.100   1.697  0.3699 -0.6902 -0.0475
 1870TIP3    H2 5575   3.354   3.049   1.652  0.6067 -0.1831  0.0744
 1871TIP3   OH2 5576   6.475   1.934   0.718  0.0600 -0.1841  0.1624
 1871TIP3    H1 5577   6.442   1.858   0.670 -1.4761 -0.4413  1.5225
 1871TIP3    H2 5578   6.530   1.981   0.656  1.3797 -2.6068 -0.6262
 1872TIP3   OH2 5579   1.533   2.207   5.094  0.2423  0.3670  0.4167
 1872TIP3    H1 5580   1.497   2.158   5.168  0.6664 -0.8032 -0.1148
 1872TIP3    H2 5581   1.458   2.224   5.037  0.1935 -0.3618  0.2427
 1873TIP3   OH2 5582   7.053   4.138   3.409 -1.3620  0.2246 -0.3088
 1873TIP3    H1 5583   7.134   4.187   3.394 -1.4033  1.3507  2.4916
 1873TIP3    H2 5584   6.983   4.196   3.381 -1.3115  0.9244  0.9347
 1874TIP3   OH2 5585   5.172   5.029   0.058  0.9115  0.1468  0.4453
 1874TIP3    H1 5586   5.136   5.111   0.092 -1.4536 -0.6995  0.1779
 1874TIP3    H2 5587   5.120   4.961   0.101  1.8902 -1.1695 -0.3874
 1875TIP3   OH2 5588   5.395   4.680   0.751 -0.6223  0.3346 -0.1376
 1875TIP3    H1 5589   5.341   4.641   0.682 -0.3962 -1.2303  0.5284
 1875TIP3    H2 5590   5.452   4.742   0.704 -2.9100  2.0238 -0.8535
 1876TIP3   OH2 5591   6.272   3.681   0.390  0.0305  0.0523 -0.3423
 1876TIP3    H1 5592   6.225   3.764   0.381 -1.1378 -0.6610 -1.0191
 1876TIP3    H2 5593   6.286   3.652   0.301 -0.9520 -1.2220 -0.1108
 1877TIP3   OH2 5594   7.104   2.276   0.149 -0.4039  0.2079  0.6370
 1877TIP3    H1 5595   7.084   2.182   0.157  0.7871 -0.3137 -1.6260
 1877TIP3    H2 5596   7.195   2.283   0.178  0.3766  0.1336 -1.5727
 1878TIP3   OH2 5597   6.355   2.261   3.480  0.2677 -0.1971  0.4534
 1878TIP3    H1 5598   6.291   2.266   3.409  1.3962 -2.1106 -0.8111
 1878TIP3    H2 5599   6.335   2.335   3.537 -0.3138  1.7994 -2.1793
 1879TIP3   OH2 5600   0.033   1.815   3.590  0.3083  0.3453  0.3709
 1879TIP3    H1 5601   0.103   1.880   3.590  0.0431  0.6349  0.4161
 1879TIP3    H2 5602   0.041   1.770   3.674  1.0549 -0.2992 -0.0358
 1880TIP3   OH2 5603   7.106   1.132   5.270  0.2336 -0.5882 -0.5626
 1880TIP3    H1 5604   7.152   1.122   5.354  1.2736  1.7272 -0.7534
 1880TIP3    H2 5605   7.139   1.061   5.216 -0.1180 -1.8597  0.8228
 1881TIP3   OH2 5606   2.138   0.808   4.930 -0.1881  0.3272  0.2378
 1881TIP3    H1 5607   2.123   0.722   4.891 -0.1615 -0.5984  2.1598
 1881TIP3    H2 5608   2.215   0.842   4.885 -0.0982 -0.7395 -0.4309
 1882TIP3   OH2 5609   5.856   1.403   2.317  0.0450 -0.1105  0.0741
 1882TIP3    H1 5610   5.940   1.438   2.347  0.2008  1.1638 -1.6995
 1882TIP3    H2 5611   5.791   1.441   2.376  0.4251  1.6223 -0.5652
 1883TIP3   OH2 5612   3.902   0.512   0.870  0.0970 -0.0177 -0.6226
 1883TIP3    H1 5613   3.925   0.592   0.917 -1.3439 -0.0938  0.2778
 1883TIP3    H2 5614   3.809   0.522   0.850 -0.1698 -1.5646 -0.2809
 1884TIP3   OH2 5615   1.411   1.571   1.330 -0.5632  0.4542 -0.1150
 1884TIP3    H1 5616   1.322   1.580   1.297 -0.5184 -0.2674 -0.4672
 1884TIP3    H2 5617   1.457   1.524   1.260 -0.4944 -1.2581  1.0350
 1885TIP3   OH2 5618   6.887   3.385   3.378  0.0489 -0.4341 -0.0310
 1885TIP3    H1 5619   6.982   3.401   3.371  0.2581 -1.9461 -1.3667
 1885TIP3    H2 5620   6.847   3.470   3.361  1.1704  0.0528 -0.3670
 1886TIP3   OH2 5621   0.239   5.196   1.551 -0.4222 -0.2591  0.2988
 1886TIP3    H1 5622   0.179   5.257   1.509 -0.9853 -0.5090  0.7336
 1886TIP3    H2 5623   0.183   5.131   1.593  0.1392 -0.3592  0.9251
 1887TIP3   OH2 5624   0.089   3.711   5.504  0.1707  0.5623 -0.4165
 1887TIP3    H1 5625   0.179   3.705   5.472  0.1638  2.5982 -0.9529
 1887TIP3    H2 5626   0.037   3.669   5.436  0.6268  0.1829 -0.5405
 1888TIP3   OH2 5627   3.007   6.427   1.312  0.6478 -0.2925 -0.4166
 1888TIP3    H1 5628   3.063   6.451   1.385  0.6863 -2.0243  0.1698
 1888TIP3    H2 5629   2.952   6.356   1.346 -0.0847 -0.4028 -1.7472
 1889TIP3   OH2 5630   4.380   2.385   2.369 -0.4191 -0.7310 -0.1586
 1889TIP3    H1 5631   4.341   2.340   2.295  1.0624 -1.2623 -0.6507
 1889TIP3    H2 5632   4.406   2.316   2.429 -1.1305 -0.3304  0.6347
 1890TIP3   OH2 5633   1.106   6.196   5.493 -0.1289  0.4736 -0.7873
 1890TIP3    H1 5634   1.196   6.229   5.494 -0.9920  3.0072 -1.4383
 1890TIP3    H2 5635   1.076   6.207   5.584 -0.6722  2.3954 -1.1598
 1891TIP3   OH2 5636   1.024   1.131   2.522  0.6582 -0.3249  0.3276
 1891TIP3    H1 5637   1.051   1.061   2.582 -3.7675 -1.7211  1.1227
 1891TIP3    H2 5638   0.980   1.195   2.578 -0.6526  0.0098 -1.0032
 1892TIP3   OH2 5639   4.743   2.533   0.578 -0.4492  0.2612 -0.4176
 1892TIP3    H1 5640   4.828   2.488   0.585 -0.3105 -0.1946 -3.4323
 1892TIP3    H2 5641   4.679   2.462   0.577 -0.6026  0.4053 -0.9702
 1893TIP3   OH2 5642   6.975   3.753   4.926 -0.3326  0.4150 -0.2757
 1893TIP3    H1 5643   7.055   3.712   4.961  0.2104  0.4478 -1.4507
 1893TIP3    H2 5644   6.910   3.682   4.928 -0.1243  0.2266  0.1456
 1894TIP3   OH2 5645   1.926   0.427   0.963 -0.3188  0.2712 -0.1425
 1894TIP3    H1 5646   1.876   0.362   1.013  1.0846  0.6060  1.8299
 1894TIP3    H2 5647   1.933   0.502   1.022 -0.8884  1.7962 -1.9221
 1895TIP3   OH2 5648   7.045   6.046   4.920  0.6538  0.1089  0.2939
 1895TIP3    H1 5649   7.020   6.002   5.001  0.8985  0.2906  0.4700
 1895TIP3    H2 5650   7.093   5.980   4.871  1.1361  0.2093  0.6164
 1896TIP3   OH2 5651   6.497   3.952   2.159 -0.0541 -0.6035 -0.2750
 1896TIP3    H1 5652   6.573   3.894   2.171  0.3842  0.3324  1.9941
 1896TIP3    H2 5653   6.422   3.892   2.158  0.4940 -1.3504  0.5990
 1897TIP3   OH2 5654   1.464   2.084   4.156  0.2602  0.5547 -0.1140
 1897TIP3    H1 5655   1.413   2.126   4.226 -1.5630 -1.8419  0.1561
 1897TIP3    H2 5656   1.466   1.992   4.181  2.2761  0.1066 -1.6844
 1898TIP3   OH2 5657   1.010   5.500   5.807  0.2922 -0.0470 -0.2321
 1898TIP3    H1 5658   0.945   5.430   5.798 -0.0243  0.0728  0.9378
 1898TIP3    H2 5659   1.080   5.461   5.860  1.3405 -0.2565 -1.6898
 1899TIP3   OH2 5660   1.962   2.995   5.383  0.4380 -0.1191 -0.2109
 1899TIP3    H1 5661   1.969   2.932   5.454 -2.1614  1.2892  1.4367
 1899TIP3    H2 5662   1.904   2.953   5.319 -1.2417  0.5013  0.8544
 1900TIP3   OH2 5663   5.659   5.030   2.103  0.0085  0.4826  0.4780
 1900TIP3    H1 5664   5.578   5.066   2.069  0.2903  0.8025  0.1303
 1900TIP3    H2 5665   5.678   5.082   2.181  0.6333  1.3903 -0.2581
 1901TIP3   OH2 5666   1.631   4.275   3.558  0.2347  0.0715  0.2896
 1901TIP3    H1 5667   1.602   4.217   3.488 -0.8472 -0.7487  1.3842
 1901TIP3    H2 5668   1.631   4.362   3.519 -0.3860 -0.3726 -0.7244
 1902TIP3   OH2 5669   0.303   3.253   0.373  0.1489  0.5590 -0.8105
 1902TIP3    H1 5670   0.382   3.238   0.425 -0.9209  0.8070  1.0115
 1902TIP3    H2 5671   0.330   3.315   0.305  1.6104  0.2854 -0.5076
 1903TIP3   OH2 5672   6.874   0.667   0.737 -0.1406  0.4140 -0.0237
 1903TIP3    H1 5673   6.803   0.704   0.789 -1.7420 -0.9832 -1.1047
 1903TIP3    H2 5674   6.928   0.619   0.800 -1.5543 -0.5259  0.5163
 1904TIP3   OH2 5675   5.907   2.581   0.924  0.6188  0.1105 -0.1517
 1904TIP3    H1 5676   5.897   2.633   1.004  0.8777 -1.4955  0.9658
 1904TIP3    H2 5677   5.876   2.639   0.854  1.9046  2.1637  0.8709
 1905TIP3   OH2 5678   4.461   4.280   0.858  0.4883 -0.1348  0.4147
 1905TIP3    H1 5679   4.457   4.217   0.786  3.4309  1.1352 -1.0055
 1905TIP3    H2 5680   4.372   4.280   0.894 -1.1028 -1.0305 -3.0401
 1906TIP3   OH2 5681   0.481   3.332   1.490 -0.0439 -0.1380 -0.2437
 1906TIP3    H1 5682   0.490   3.402   1.555 -1.1522 -0.2763  0.0732
 1906TIP3    H2 5683   0.498   3.252   1.538 -0.7424 -0.2309 -0.1381
 1907TIP3   OH2 5684   7.188   0.035   1.625 -0.0483  0.1943 -0.0821
 1907TIP3    H1 5685   7.262   0.015   1.567 -1.1596 -0.6719 -1.2749
 1907TIP3    H2 5686   7.170  -0.048   1.669  0.1555  0.5971  0.7788
 1908TIP3   OH2 5687   0.885   5.819   4.518  0.2922  0.1605 -0.0719
 1908TIP3    H1 5688   0.901   5.725   4.510  0.3724  0.2844 -1.8106
 1908TIP3    H2 5689   0.834   5.828   4.598  1.0181 -1.2572  0.5949
 1909TIP3   OH2 5690   0.083   1.209   0.129  0.1241  0.0523 -0.2010
 1909TIP3    H1 5691   0.172   1.192   0.097  0.2739  1.2214 -0.4552
 1909TIP3    H2 5692   0.092   1.287   0.184 -0.7805  0.3057 -0.4008
 1910TIP3   OH2 5693   4.400   5.738   0.401  0.0433 -0.4789 -0.2749
 1910TIP3    H1 5694   4.321   5.773   0.360  0.2482 -2.4560 -2.5396
 1910TIP3    H2 5695   4.467   5.804   0.384 -0.7909  0.6914  0.7016
 1911TIP3   OH2 5696   2.073   5.348   0.788 -0.2100  0.1337 -0.0875
 1911TIP3    H1 5697   2.168   5.358   0.783  0.1412 -1.7490  1.5289
 1911TIP3    H2 5698   2.056   5.267   0.740 -0.9171  0.1211  0.1856
 1912TIP3   OH2 5699   6.881   2.731   3.624  0.3420 -0.3781 -0.3270
 1912TIP3    H1 5700   6.876   2.691   3.711  0.5702 -0.2385 -0.2495
 1912TIP3    H2 5701   6.973   2.757   3.615 -0.1055  1.5654  0.2638
 1913TIP3   OH2 5702   5.435   4.877   2.339 -0.2380  0.6974 -0.2989
 1913TIP3    H1 5703   5.511   4.832   2.375 -0.5715 -0.5124 -1.0295
 1913TIP3    H2 5704   5.471   4.935   2.272  0.2929  2.3058  1.3075
 1914TIP3   OH2 5705   4.276   4.613   4.439  0.5180 -0.3102  0.2793
 1914TIP3    H1 5706   4.353   4.657   4.475 -0.7503  2.2512  0.1099
 1914TIP3    H2 5707   4.202   4.657   4.482 -0.8901 -1.3021 -1.0380
 1915TIP3   OH2 5708   6.339   1.765   0.922 -0.0852  0.4461  0.4202
 1915TIP3    H1 5709   6.354   1.763   1.016 -0.4553 -0.4670  0.4643
 1915TIP3    H2 5710   6.355   1.856   0.897  1.9562  0.2827  1.0278
 1916TIP3   OH2 5711   3.365   6.605   4.294  0.3696 -0.1519  0.0829
 1916TIP3    H1 5712   3.393   6.681   4.345  0.0530 -1.3087  2.1178
 1916TIP3    H2 5713   3.272   6.597   4.313  0.2479 -0.6096 -0.7024
 1917TIP3   OH2 5714   6.967   6.122   1.049 -0.0090 -0.2948 -0.0518
 1917TIP3    H1 5715   6.926   6.126   0.963 -0.2514  1.4299  0.1048
 1917TIP3    H2 5716   6.956   6.210   1.085  0.9643 -0.7015  1.3379
 1918TIP3   OH2 5717   3.205   4.773   3.304 -0.2599  0.4692  0.5857
 1918TIP3    H1 5718   3.144   4.735   3.368 -0.9339 -0.3297 -0.5050
 1918TIP3    H2 5719   3.292   4.750   3.337 -0.6351 -1.3607  0.3722
 1919TIP3   OH2 5720   3.711   0.999   3.773  0.2406 -0.3322  0.2468
 1919TIP3    H1 5721   3.688   1.091   3.758  1.3347 -0.3208 -1.5409
 1919TIP3    H2 5722   3.750   0.998   3.860  0.2759  0.9030  0.2582
 1920TIP3   OH2 5723   4.528   4.432   1.090  0.1330 -0.4138  0.3526
 1920TIP3    H1 5724   4.529   4.408   0.998  2.6858  1.6923 -0.3087
 1920TIP3    H2 5725   4.436   4.427   1.116 -0.5039 -2.0981 -1.9662
 1921TIP3   OH2 5726   0.304   1.477   4.430 -0.4243 -0.1217 -0.0735
 1921TIP3    H1 5727   0.282   1.461   4.338 -0.2108  0.8151 -0.2874
 1921TIP3    H2 5728   0.220   1.472   4.476 -0.5861 -0.1763 -0.3770
 1922TIP3   OH2 5729   0.667   5.193   5.614 -0.4809  0.3954  0.3091
 1922TIP3    H1 5730   0.656   5.283   5.585 -0.5102 -0.1796 -1.6738
 1922TIP3    H2 5731   0.742   5.195   5.673 -0.3678  1.6799  0.1434
 1923TIP3   OH2 5732   6.722   3.163   2.923  0.2681 -0.7456 -0.0951
 1923TIP3    H1 5733   6.715   3.213   3.005 -2.0011 -0.3906 -0.4409
 1923TIP3    H2 5734   6.675   3.216   2.859 -1.7016 -2.9966 -0.6269
 1924TIP3   OH2 5735   5.284   4.577   3.204 -0.1769 -0.0971 -0.3432
 1924TIP3    H1 5736   5.209   4.614   3.251 -0.9401 -2.9256  0.8435
 1924TIP3    H2 5737   5.360   4.607   3.255 -0.7881 -0.4909  0.8455
 1925TIP3   OH2 5738   3.286   5.040   3.936  0.5502  0.0943 -0.3533
 1925TIP3    H1 5739   3.252   4.992   3.860  1.6775 -0.2746 -0.6386
 1925TIP3    H2 5740   3.261   4.986   4.011 -0.4532  0.3934 -0.4566
 1926TIP3   OH2 5741   2.056   3.590   0.111 -0.2192 -0.3047  0.1740
 1926TIP3    H1 5742   2.095   3.526   0.170 -0.1395 -0.0434  0.4040
 1926TIP3    H2 5743   1.964   3.565   0.106 -0.7615  1.0446  2.2550
 1927TIP3   OH2 5744   1.862   5.811   5.229  0.0272  0.2575 -0.0332
 1927TIP3    H1 5745   1.833   5.835   5.141  0.3635  0.4602 -0.0920
 1927TIP3    H2 5746   1.835   5.884   5.284 -1.9284 -0.7428  0.3921
 1928TIP3   OH2 5747   0.383   6.653   1.063  0.3452 -0.0203 -0.0881
 1928TIP3    H1 5748   0.363   6.560   1.052 -1.8600  0.3034  0.6302
 1928TIP3    H2 5749   0.432   6.676   0.984  0.3006 -1.6324 -0.6246
 1929TIP3   OH2 5750   1.500   5.285   3.978 -0.4836  0.0011  0.6893
 1929TIP3    H1 5751   1.406   5.269   3.980 -0.9367  2.3446  1.1120
 1929TIP3    H2 5752   1.529   5.267   4.068 -0.5101 -0.7197  0.5592
 1930TIP3   OH2 5753   5.795   5.912   5.784 -0.2641  0.3810 -0.1867
 1930TIP3    H1 5754   5.888   5.924   5.766 -0.6076  0.7147 -1.8899
 1930TIP3    H2 5755   5.762   5.999   5.805 -0.4624  0.5042 -0.9891
 1931TIP3   OH2 5756   6.842   5.724   2.022  0.9971  0.0947 -0.2089
 1931TIP3    H1 5757   6.926   5.682   2.004 -0.2354 -2.1231 -1.2781
 1931TIP3    H2 5758   6.787   5.653   2.058 -1.4302  0.5215 -2.7270
 1932TIP3   OH2 5759   0.135   3.778   4.155  0.3520 -0.1902  0.4620
 1932TIP3    H1 5760   0.076   3.808   4.224 -0.3133  0.7661 -0.4922
 1932TIP3    H2 5761   0.156   3.857   4.105  2.1114 -0.5918  0.5106
 1933TIP3   OH2 5762   6.451   4.527   2.505 -0.4228  0.3393  0.3756
 1933TIP3    H1 5763   6.447   4.432   2.505 -1.3294  0.3519  1.7035
 1933TIP3    H2 5764   6.384   4.554   2.568 -0.4472  1.8711 -0.2670
 1934TIP3   OH2 5765   4.804   5.823   0.857 -0.1442 -0.7818  0.4309
 1934TIP3    H1 5766   4.772   5.842   0.769  2.0058  0.3535 -0.1935
 1934TIP3    H2 5767   4.788   5.729   0.869 -1.4989 -0.7267 -0.6857
 1935TIP3   OH2 5768   3.165   5.167   0.241 -0.2137 -0.4332  0.8140
 1935TIP3    H1 5769   3.242   5.179   0.185 -1.3520 -0.8825 -0.9357
 1935TIP3    H2 5770   3.200   5.137   0.325  1.4759 -1.3208 -0.1678
 1936TIP3   OH2 5771   1.737   0.603   2.235  0.2207  0.0951 -0.4151
 1936TIP3    H1 5772   1.677   0.645   2.173 -0.9340  0.3312  0.8151
 1936TIP3    H2 5773   1.688   0.599   2.317  0.8517 -2.3335 -0.0829
 1937TIP3   OH2 5774   6.372   2.318   5.103  0.0995 -0.1087 -0.3685
 1937TIP3    H1 5775   6.375   2.286   5.012  2.0280 -0.2187 -0.3175
 1937TIP3    H2 5776   6.396   2.242   5.156 -2.9102 -0.5938  0.4833
 1938TIP3   OH2 5777   5.284   1.759   4.601  0.3557  0.1537  0.1455
 1938TIP3    H1 5778   5.260   1.726   4.688  2.8819 -2.6647 -0.0655
 1938TIP3    H2 5779   5.333   1.840   4.619 -0.8469  0.7039  1.1396
 1939TIP3   OH2 5780   2.915   6.369   3.327 -0.0715 -0.4000 -0.3316
 1939TIP3    H1 5781   2.834   6.419   3.329 -1.0982 -2.0176  1.1737
 1939TIP3    H2 5782   2.974   6.417   3.386 -0.9595 -0.7959  0.9108
 1940TIP3   OH2 5783   6.796   1.020   1.851  0.3698  1.1578 -0.3865
 1940TIP3    H1 5784   6.873   0.966   1.868 -1.0499 -0.2502  2.1916
 1940TIP3    H2 5785   6.804   1.094   1.911  1.2283  2.8372 -2.4122
 1941TIP3   OH2 5786   0.875   3.915   0.058  0.0034 -0.1207 -0.4878
 1941TIP3    H1 5787   0.896   3.991   0.002 -1.6823  0.8915  0.1543
 1941TIP3    H2 5788   0.840   3.954   0.138  0.9221 -1.5826  0.6567
 1942TIP3   OH2 5789   2.666   6.685   2.814  0.0268 -0.2189 -0.6595
 1942TIP3    H1 5790   2.740   6.685   2.753  0.6295 -1.1678  0.0351
 1942TIP3    H2 5791   2.702   6.721   2.895 -0.6845  0.7371 -0.7565
 1943TIP3   OH2 5792   7.138   6.007   2.888 -0.6753 -0.0521 -0.2626
 1943TIP3    H1 5793   7.128   6.007   2.792  0.5004 -0.0357 -0.3984
 1943TIP3    H2 5794   7.153   6.099   2.910  0.2140 -0.1956 -0.2140
 1944TIP3   OH2 5795   4.731   1.599   0.737 -0.0470  0.6561 -0.3797
 1944TIP3    H1 5796   4.803   1.632   0.792  0.4599  0.4030 -0.8846
 1944TIP3    H2 5797   4.657   1.592   0.797 -0.1220  2.5069 -0.1952
 1945TIP3   OH2 5798   3.433   1.009   4.526  1.0816 -0.1319 -0.0286
 1945TIP3    H1 5799   3.384   1.031   4.605 -0.8829  0.6509 -1.4036
 1945TIP3    H2 5800   3.452   0.916   4.535 -1.4933 -0.6965  0.1566
 1946TIP3   OH2 5801   6.581   3.328   2.759  0.2382  0.4471 -0.0288
 1946TIP3    H1 5802   6.618   3.388   2.694  0.7647  0.1107 -0.0516
 1946TIP3    H2 5803   6.523   3.382   2.812  1.1487  1.1069  0.3200
 1947TIP3   OH2 5804   1.028   3.704   3.325 -0.6106  0.0964  0.0413
 1947TIP3    H1 5805   1.090   3.695   3.398  1.5184 -0.2434 -1.7096
 1947TIP3    H2 5806   0.946   3.668   3.359  0.1932  0.2606  2.3576
 1948TIP3   OH2 5807   4.788   2.263   1.454 -0.3627  0.5578 -0.3819
 1948TIP3    H1 5808   4.868   2.248   1.505 -1.8705 -0.5590  1.8373
 1948TIP3    H2 5809   4.737   2.324   1.508 -1.9638 -0.5381 -0.5956
 1949TIP3   OH2 5810   6.838   3.779   1.611  0.4487 -0.3177 -0.4201
 1949TIP3    H1 5811   6.788   3.852   1.646  0.4508  0.0285 -1.1253
 1949TIP3    H2 5812   6.906   3.763   1.677 -0.9969 -1.2709  0.9084
 1950TIP3   OH2 5813   6.597   4.433   0.168  0.6779  0.3218  0.2647
 1950TIP3    H1 5814   6.629   4.348   0.138 -1.7773 -0.2840 -0.9143
 1950TIP3    H2 5815   6.550   4.469   0.093 -0.0180  1.8108  1.3600
 1951TIP3   OH2 5816   6.180   4.725   1.490 -0.2512  0.3091  0.2016
 1951TIP3    H1 5817   6.233   4.746   1.414 -0.4772 -0.9527 -0.3222
 1951TIP3    H2 5818   6.090   4.737   1.461 -0.3169  1.4782  0.7980
 1952TIP3   OH2 5819   3.916   3.626   4.166  0.4220 -0.1769 -0.5203
 1952TIP3    H1 5820   3.883   3.578   4.241  0.3873  1.7722  0.8083
 1952TIP3    H2 5821   3.838   3.664   4.125  0.6405  1.7173  0.6695
 1953TIP3   OH2 5822   0.243   6.018   2.807 -0.6073  0.2574  0.6452
 1953TIP3    H1 5823   0.258   5.944   2.747  0.2414  0.6234  0.3957
 1953TIP3    H2 5824   0.163   6.059   2.775  0.1775  0.8387 -0.6545
 1954TIP3   OH2 5825   0.003   5.157   0.903 -0.4975 -0.0096 -0.3800
 1954TIP3    H1 5826   0.008   5.215   0.979 -2.3320  1.1040 -1.0602
 1954TIP3    H2 5827   0.010   5.069   0.940 -2.1629  0.4685  1.2093
 1955TIP3   OH2 5828   2.996   3.481   1.946 -0.1286  0.2668  0.2044
 1955TIP3    H1 5829   2.955   3.559   1.910 -1.4404 -0.1579  0.7042
 1955TIP3    H2 5830   2.925   3.437   1.994  0.9675 -0.3960  1.2794
 1956TIP3   OH2 5831   3.427   6.546   3.728  0.1950 -0.0749 -0.2664
 1956TIP3    H1 5832   3.344   6.504   3.705 -0.1379  0.0296  0.6962
 1956TIP3    H2 5833   3.415   6.575   3.818  0.8556  1.0128 -0.5147
 1957TIP3   OH2 5834   0.721   2.970   0.142 -0.0918 -0.2671 -0.2093
 1957TIP3    H1 5835   0.640   2.922   0.132 -0.7913  0.8585 -0.1148
 1957TIP3    H2 5836   0.786   2.918   0.095 -1.0789 -0.6472 -1.1995
 1958TIP3   OH2 5837   0.926   4.769   0.298  0.2308  0.0362  0.0583
 1958TIP3    H1 5838   0.906   4.695   0.241 -2.2656  1.3616 -0.9712
 1958TIP3    H2 5839   0.862   4.763   0.369 -0.1551  1.2514 -0.1483
 1959TIP3   OH2 5840   2.099   1.870   4.461  0.1688 -0.5930  1.3437
 1959TIP3    H1 5841   2.185   1.908   4.480  0.6464 -1.1900  0.4401
 1959TIP3    H2 5842   2.058   1.933   4.401 -0.4092  0.1454  2.4839
 1960TIP3   OH2 5843   0.998   5.374   5.270  0.2671 -0.1506 -0.1395
 1960TIP3    H1 5844   1.009   5.419   5.354 -0.6107  0.0184 -0.1120
 1960TIP3    H2 5845   1.061   5.302   5.274  2.8359  1.8929 -0.7893
 1961TIP3   OH2 5846   4.326   5.760   4.217 -0.3172  0.1344  0.1412
 1961TIP3    H1 5847   4.378   5.784   4.294  0.5562  2.4622 -1.0806
 1961TIP3    H2 5848   4.367   5.681   4.183  0.4546  0.1619  0.9868
 1962TIP3   OH2 5849   6.100   3.142   4.524  0.1632  0.2468  0.1070
 1962TIP3    H1 5850   6.137   3.137   4.613 -1.2905 -0.0155  0.7228
 1962TIP3    H2 5851   6.118   3.056   4.486  1.1085  0.4809 -0.0003
 1963TIP3   OH2 5852   4.432   1.812   5.288 -0.1781 -0.3545 -0.1915
 1963TIP3    H1 5853   4.392   1.897   5.305  1.8681  0.5663  0.4328
 1963TIP3    H2 5854   4.491   1.828   5.215  0.9826 -0.9449  0.5755
 1964TIP3   OH2 5855   2.499   4.714   0.219  0.2756  0.1241 -0.4731
 1964TIP3    H1 5856   2.515   4.779   0.287  1.2926  0.7791 -1.3001
 1964TIP3    H2 5857   2.466   4.637   0.266 -0.1072  0.9296  0.6174
 1965TIP3   OH2 5858   4.099   1.543   0.137  0.1775 -0.3549 -0.1033
 1965TIP3    H1 5859   4.186   1.503   0.133 -0.0290 -0.9919  1.2259
 1965TIP3    H2 5860   4.092   1.595   0.057  1.3208 -1.2292 -0.7834
 1966TIP3   OH2 5861   5.659   2.945   3.648  0.9785 -0.1768  0.2559
 1966TIP3    H1 5862   5.637   2.926   3.557  0.1683 -0.1653  0.4454
 1966TIP3    H2 5863   5.693   3.035   3.646 -1.4366  0.8127  0.3083
 1967TIP3   OH2 5864   3.524   4.512   3.249 -0.2331  0.1014 -0.1995
 1967TIP3    H1 5865   3.449   4.472   3.205 -0.3284 -0.8922  0.8268
 1967TIP3    H2 5866   3.578   4.437   3.276  0.5289  0.7595  0.1261
 1968TIP3   OH2 5867   3.207   4.098   5.500 -0.0325 -0.1770 -0.2445
 1968TIP3    H1 5868   3.139   4.158   5.470  0.2310  1.1069  1.5293
 1968TIP3    H2 5869   3.287   4.150   5.503  0.1907 -0.5341  1.4323
 1969TIP3   OH2 5870   1.667   1.542   4.526  0.0673  0.7974 -0.1809
 1969TIP3    H1 5871   1.668   1.499   4.441 -2.2409  0.3076 -0.0267
 1969TIP3    H2 5872   1.749   1.514   4.568 -0.3890 -1.9081 -0.8718
 1970TIP3   OH2 5873   2.279   5.428   2.671 -0.1283 -0.0038 -0.0821
 1970TIP3    H1 5874   2.301   5.514   2.635  0.2687 -0.8961 -2.0936
 1970TIP3    H2 5875   2.361   5.395   2.707 -0.1491  0.2015  0.1573
 1971TIP3   OH2 5876   2.876   2.808   1.767 -0.7537 -0.1960  0.4430
 1971TIP3    H1 5877   2.843   2.826   1.855 -0.3855 -0.5771  0.6582
 1971TIP3    H2 5878   2.971   2.810   1.775 -0.7188  0.4389 -0.0869
 1972TIP3   OH2 5879   0.078   5.510   1.504  0.0516 -0.5305  0.7267
 1972TIP3    H1 5880  -0.004   5.472   1.470 -0.8242 -0.4894  2.6569
 1972TIP3    H2 5881   0.143   5.491   1.437 -1.3691 -1.3221 -0.4801
 1973TIP3   OH2 5882   4.420   1.292   4.828 -0.0241  0.4364 -0.4081
 1973TIP3    H1 5883   4.435   1.261   4.917  3.1746 -1.2502 -1.4018
 1973TIP3    H2 5884   4.439   1.217   4.772  1.9676  2.4516 -2.6661
 1974TIP3   OH2 5885   6.746   0.662   3.177  0.6332  0.3504  0.0187
 1974TIP3    H1 5886   6.754   0.672   3.271  1.4252  0.5331 -0.0622
 1974TIP3    H2 5887   6.792   0.580   3.158  1.0538  0.6520 -0.2835
 1975TIP3   OH2 5888   6.502   6.332   4.386 -0.4851  0.0993  0.0981
 1975TIP3    H1 5889   6.504   6.297   4.297  2.0624 -0.6854  0.3934
 1975TIP3    H2 5890   6.529   6.424   4.377 -0.9124  0.2154 -0.0063
 1976TIP3   OH2 5891   2.468   6.041   5.786 -0.2396 -0.1803  0.1767
 1976TIP3    H1 5892   2.432   6.044   5.697  0.7197  2.0776 -0.1994
 1976TIP3    H2 5893   2.403   6.086   5.840 -1.1852 -2.2027  0.8358
 1977TIP3   OH2 5894   3.484   6.287   0.016 -0.3973 -0.0542  0.0391
 1977TIP3    H1 5895   3.476   6.346  -0.058  3.6188  2.5882  1.4109
 1977TIP3    H2 5896   3.430   6.326   0.085 -1.3646 -0.6126 -0.3747
 1978TIP3   OH2 5897   4.273   0.535   0.461 -0.5838  0.0011  0.2755
 1978TIP3    H1 5898   4.258   0.454   0.509 -2.5846  0.7802  1.0935
 1978TIP3    H2 5899   4.188   0.558   0.425  0.4097  0.6076 -1.8533
 1979TIP3   OH2 5900   2.400   4.640   0.689 -0.0774 -0.2288  0.7082
 1979TIP3    H1 5901   2.370   4.697   0.760  0.5979 -0.2562  1.0190
 1979TIP3    H2 5902   2.436   4.700   0.623 -0.3188 -0.2330  0.5686
 1980TIP3   OH2 5903   6.855   3.977   3.199 -0.6962 -0.5507  0.1160
 1980TIP3    H1 5904   6.867   3.899   3.145  0.4080 -1.0947  1.0908
 1980TIP3    H2 5905   6.872   3.947   3.288 -1.4048  0.5591  0.6419
 1981TIP3   OH2 5906   6.834   1.459   0.447  0.1960 -0.3337 -0.1964
 1981TIP3    H1 5907   6.895   1.419   0.508 -0.7604 -2.1650 -0.3454
 1981TIP3    H2 5908   6.748   1.431   0.477 -0.2978 -1.5778 -2.4972
 1982TIP3   OH2 5909   1.640   5.169   3.795 -0.8098 -0.0435 -0.0479
 1982TIP3    H1 5910   1.605   5.226   3.864  0.8553 -1.8862  2.5287
 1982TIP3    H2 5911   1.719   5.131   3.833  0.3956 -0.9677 -3.1653
 1983TIP3   OH2 5912   4.779   1.308   4.757 -0.1327  0.6542 -0.4914
 1983TIP3    H1 5913   4.860   1.344   4.722 -1.4673  1.8304 -2.5543
 1983TIP3    H2 5914   4.734   1.384   4.795 -0.2744 -0.0010  0.7024
 1984TIP3   OH2 5915   2.638   0.143   4.345  0.5118  0.1728 -0.0126
 1984TIP3    H1 5916   2.707   0.176   4.403  0.2126 -1.5679  1.4296
 1984TIP3    H2 5917   2.677   0.066   4.304  0.2908  0.6946 -1.2369
 1985TIP3   OH2 5918   2.460   5.776   5.611  0.2734  0.6440 -0.5574
 1985TIP3    H1 5919   2.474   5.831   5.534  0.2417  2.2996  0.5738
 1985TIP3    H2 5920   2.497   5.826   5.684  0.3367 -0.8936  0.5169
 1986TIP3   OH2 5921   2.707   1.741   2.362 -0.4112  0.5650 -0.0636
 1986TIP3    H1 5922   2.636   1.720   2.301  0.5627 -1.2904 -0.6276
 1986TIP3    H2 5923   2.763   1.800   2.313 -0.6942  0.6989 -0.2318
 1987TIP3   OH2 5924   3.800   1.497   0.631  0.0375 -0.5889 -0.0832
 1987TIP3    H1 5925   3.828   1.581   0.593 -0.3942  0.3096  1.4805
 1987TIP3    H2 5926   3.880   1.462   0.671  0.1128 -0.6996 -0.3273
 1988TIP3   OH2 5927   2.093   4.205   4.244 -0.3725  0.5528  0.0031
 1988TIP3    H1 5928   2.077   4.212   4.338 -0.1592 -0.4524  0.1270
 1988TIP3    H2 5929   2.066   4.116   4.222  0.4669  0.4618 -0.7125
 1989TIP3   OH2 5930   4.649   4.294   1.813  0.1348 -0.2064  0.3238
 1989TIP3    H1 5931   4.731   4.337   1.838  3.0014 -3.2122 -2.8971
 1989TIP3    H2 5932   4.618   4.344   1.737  1.4445 -1.4720 -1.1102
 1990TIP3   OH2 5933   4.680   1.127   5.344  0.2474 -0.6127  0.2710
 1990TIP3    H1 5934   4.619   1.171   5.285  0.5673 -1.0078 -0.3675
 1990TIP3    H2 5935   4.652   1.036   5.344  1.1396 -0.9005 -0.4362
 1991TIP3   OH2 5936   2.211   0.288   0.549 -0.1780  0.0813  0.6998
 1991TIP3    H1 5937   2.233   0.335   0.469 -0.5666  2.3172  1.8489
 1991TIP3    H2 5938   2.221   0.195   0.526 -0.6628  0.6431 -2.0179
 1992TIP3   OH2 5939   0.671   2.746   0.745 -0.8782  0.2648  0.3092
 1992TIP3    H1 5940   0.752   2.796   0.742 -1.0469  0.7791  2.5271
 1992TIP3    H2 5941   0.697   2.657   0.719  0.2960  0.5209  0.5485
 1993TIP3   OH2 5942   3.660   5.161   5.471  0.2185 -0.0357  0.3044
 1993TIP3    H1 5943   3.747   5.121   5.465 -0.3654 -1.2212 -1.1051
 1993TIP3    H2 5944   3.619   5.119   5.546  0.9409  0.7248  1.1387
 1994TIP3   OH2 5945   4.533   1.658   2.174  1.0306 -0.1098 -0.3384
 1994TIP3    H1 5946   4.621   1.630   2.149  1.8970  1.4195  0.7916
 1994TIP3    H2 5947   4.487   1.578   2.197  2.1318 -0.9360 -0.9669
 1995TIP3   OH2 5948   0.552   4.014   3.357  0.6900  0.2604 -0.1387
 1995TIP3    H1 5949   0.466   4.017   3.315  0.3962  0.1852  0.4418
 1995TIP3    H2 5950   0.610   4.060   3.296  0.2317  0.3558 -0.5128
 1996TIP3   OH2 5951   2.578   2.090   2.362  0.0954  0.2226 -0.1137
 1996TIP3    H1 5952   2.541   2.144   2.432 -2.0479 -1.7751  0.4058
 1996TIP3    H2 5953   2.644   2.036   2.404 -0.2034  0.0083  0.0799
 1997TIP3   OH2 5954   2.723   2.071   5.096 -0.1906 -0.1264  0.0960
 1997TIP3    H1 5955   2.679   1.995   5.059  2.2464 -2.2840  1.3347
 1997TIP3    H2 5956   2.683   2.083   5.182  0.3733 -0.9885  0.4985
 1998TIP3   OH2 5957   1.290   0.550   1.577 -0.2161 -0.1173 -0.6653
 1998TIP3    H1 5958   1.341   0.597   1.511  0.8371 -1.8952 -1.1662
 1998TIP3    H2 5959   1.307   0.596   1.659  0.5711  0.5183 -1.1815
 1999TIP3   OH2 5960   3.852   3.957   5.132 -0.0243 -0.3051 -0.2493
 1999TIP3    H1 5961   3.818   3.962   5.043 -1.6672  1.2113  0.3867
 1999TIP3    H2 5962   3.796   3.893   5.176 -0.3217  0.1829  0.0997
 2000TIP3   OH2 5963   2.696   2.046   1.984  1.1700  0.4092 -0.3552
 2000TIP3    H1 5964   2.746   2.006   1.913  2.0340  1.5492 -0.4228
 2000TIP3    H2 5965   2.724   2.138   1.985 -0.7046  1.0209 -0.1744
 2001TIP3   OH2 5966   5.835   2.061   5.380 -0.3928  0.4610  0.6399
 2001TIP3    H1 5967   5.859   2.003   5.452 -1.4211 -0.5885  0.1599
 2001TIP3    H2 5968   5.783   2.130   5.422  0.2627  0.6808  1.1123
 2002TIP3   OH2 5969   4.786   1.135   3.414  0.3362 -0.2516  0.0418
 2002TIP3    H1 5970   4.747   1.173   3.493  0.8890 -1.3573  0.8592
 2002TIP3    H2 5971   4.742   1.181   3.342  0.3025  1.2582  0.9761
 2003TIP3   OH2 5972   5.202   5.298   5.832 -0.0985 -0.2259  0.5456
 2003TIP3    H1 5973   5.135   5.306   5.764 -1.0115  1.9227  1.6209
 2003TIP3    H2 5974   5.158   5.252   5.904 -0.2714  0.7011  1.0432
 2004TIP3   OH2 5975   1.274   2.808   5.532  0.2087 -0.1505 -0.3461
 2004TIP3    H1 5976   1.209   2.845   5.592 -0.4561 -0.0917 -1.0863
 2004TIP3    H2 5977   1.358   2.840   5.565 -0.3765  2.7670 -1.3916
 2005TIP3   OH2 5978   2.904   0.621   1.989  0.3280  0.1590  0.1216
 2005TIP3    H1 5979   2.926   0.678   2.063  0.0628 -0.8841  1.0297
 2005TIP3    H2 5980   2.985   0.615   1.938  0.5123  0.8917  0.3177
 2006TIP3   OH2 5981   2.793   6.300   0.232 -0.4578  0.2251 -0.3979
 2006TIP3    H1 5982   2.858   6.243   0.273  0.0077 -0.3679 -1.8756
 2006TIP3    H2 5983   2.749   6.343   0.305  0.8477 -0.1917  0.6786
 2007TIP3   OH2 5984   2.531   2.171   0.176 -0.5737  0.3993 -0.4679
 2007TIP3    H1 5985   2.437   2.186   0.168 -0.2221  2.7187 -1.1024
 2007TIP3    H2 5986   2.541   2.123   0.258 -2.1801  2.3041  0.9459
 2008TIP3   OH2 5987   2.165   0.989   0.584 -0.0277 -0.0672  0.2550
 2008TIP3    H1 5988   2.070   0.976   0.574  0.2116 -1.5184 -0.4489
 2008TIP3    H2 5989   2.184   1.065   0.529 -0.6123 -0.5761 -0.6902
 2009TIP3   OH2 5990   2.977   5.701   4.108 -0.0716 -0.5807 -0.2049
 2009TIP3    H1 5991   2.919   5.718   4.183 -0.6700 -0.5933 -0.6548
 2009TIP3    H2 5992   2.962   5.774   4.049 -0.6415 -1.2676 -0.9317
 2010TIP3   OH2 5993   3.994   2.642   1.275  0.0903  0.5588  0.1521
 2010TIP3    H1 5994   3.934   2.690   1.332  0.6135  0.2406  0.9862
 2010TIP3    H2 5995   3.951   2.643   1.189 -0.1580  2.0636  0.2615
 2011TIP3   OH2 5996   0.062   2.153   4.285  0.9615 -0.1008 -1.1172
 2011TIP3    H1 5997   0.004   2.168   4.360  0.0575  0.2082 -1.8617
 2011TIP3    H2 5998   0.093   2.063   4.297  0.8496 -0.0449 -0.3588
 2012TIP3   OH2 5999   5.515   0.590   2.492 -0.3794 -0.5730 -0.5923
 2012TIP3    H1 6000   5.561   0.593   2.408  0.2276  0.4326 -0.2488
 2012TIP3    H2 6001   5.505   0.682   2.517 -1.1812 -0.8341  0.1026
 2013TIP3   OH2 6002   3.910   3.609   4.622  0.3840  0.1800  0.0322
 2013TIP3    H1 6003   3.941   3.519   4.614 -0.0294 -0.0654  1.1182
 2013TIP3    H2 6004   3.984   3.662   4.591 -0.0823 -0.5635 -2.6070
 2014TIP3   OH2 6005   6.953   4.410   2.575 -0.1895  0.2961 -0.9004
 2014TIP3    H1 6006   6.947   4.467   2.498  0.2881  1.3917 -0.1282
 2014TIP3    H2 6007   6.862   4.399   2.603 -0.2131  1.3270 -0.5736
 2015TIP3   OH2 6008   4.525   2.593   1.995  0.8361  0.6034  1.0893
 2015TIP3    H1 6009   4.572   2.656   2.049 -1.0472  1.7856  1.4136
 2015TIP3    H2 6010   4.437   2.591   2.030  0.5916 -1.5726  0.5030
 2016TIP3   OH2 6011   0.786   5.515   0.147 -0.0381  0.2219  0.0387
 2016TIP3    H1 6012   0.829   5.497   0.230 -0.2027  1.0070  0.3067
 2016TIP3    H2 6013   0.806   5.607   0.130 -2.4080  0.9151  0.6701
 2017TIP3   OH2 6014   2.509   1.766   0.818 -0.2003 -0.4026 -0.8048
 2017TIP3    H1 6015   2.459   1.744   0.896  1.9635 -0.8230  0.5487
 2017TIP3    H2 6016   2.527   1.860   0.826 -0.6350 -0.2794 -1.2177
 2018TIP3   OH2 6017   2.874   6.538   1.926  0.5683 -0.2934  0.0528
 2018TIP3    H1 6018   2.829   6.623   1.918  1.2228 -0.0552 -1.4564
 2018TIP3    H2 6019   2.957   6.559   1.969 -0.1435 -0.5162  1.5784
 2019TIP3   OH2 6020   4.165   2.443   0.581 -0.1330 -0.5314 -0.1924
 2019TIP3    H1 6021   4.079   2.480   0.599  0.5018  1.4810 -0.9753
 2019TIP3    H2 6022   4.157   2.350   0.605 -2.2987 -0.2637  0.3506
 2020TIP3   OH2 6023   1.662   5.269   2.549  0.4722  0.5136  0.4297
 2020TIP3    H1 6024   1.572   5.240   2.531  0.8893  0.5213 -1.9954
 2020TIP3    H2 6025   1.653   5.329   2.624 -1.0730 -1.8955  2.3333
 2021TIP3   OH2 6026   5.663   4.600   2.589  0.4226 -0.5554 -0.1124
 2021TIP3    H1 6027   5.673   4.584   2.495  2.5167 -1.2231  0.1723
 2021TIP3    H2 6028   5.667   4.695   2.598 -0.4025 -0.4516 -0.7335
 2022TIP3   OH2 6029   4.418   6.235   1.153 -0.2655 -0.1402 -0.6390
 2022TIP3    H1 6030   4.498   6.275   1.186 -0.1215 -0.0457 -1.0938
 2022TIP3    H2 6031   4.367   6.215   1.231  0.3750 -0.5772 -0.3271
 2023TIP3   OH2 6032   3.852   6.514   1.399 -0.4607 -0.2398  0.0068
 2023TIP3    H1 6033   3.839   6.440   1.340 -1.1796 -0.6895  0.7037
 2023TIP3    H2 6034   3.912   6.481   1.466 -0.5185 -0.0902  0.1344
 2024TIP3   OH2 6035   6.719   4.718   4.215  0.2494  0.0071  0.5079
 2024TIP3    H1 6036   6.628   4.747   4.206  0.7201  1.3923 -0.0782
 2024TIP3    H2 6037   6.756   4.776   4.282  0.9675  0.1609 -0.0076
 2025TIP3   OH2 6038   6.118   3.001   5.119 -0.2677 -0.3391  0.2386
 2025TIP3    H1 6039   6.187   3.021   5.183  0.2451 -0.1403 -0.3627
 2025TIP3    H2 6040   6.143   2.917   5.082 -0.8562 -0.7121  0.6820
 2026TIP3   OH2 6041   0.906   2.640   1.301 -0.3014  0.1368 -0.7990
 2026TIP3    H1 6042   0.955   2.647   1.383 -0.6155 -2.3859 -0.3049
 2026TIP3    H2 6043   0.945   2.706   1.244  2.5738 -0.5999  0.1240
 2027TIP3   OH2 6044   2.813   0.406   4.329  0.1906 -0.6846 -0.2687
 2027TIP3    H1 6045   2.834   0.339   4.394  0.1941 -0.2104  0.2264
 2027TIP3    H2 6046   2.718   0.412   4.332  0.1018 -1.4849 -1.1488
 2028TIP3   OH2 6047   1.501   0.421   2.381 -0.5587 -0.2210  0.6342
 2028TIP3    H1 6048   1.483   0.471   2.460 -0.7443  0.5081  0.1335
 2028TIP3    H2 6049   1.454   0.466   2.312 -1.4351 -1.5609  0.3092
 2029TIP3   OH2 6050   6.161   2.509   0.500  0.0809 -0.2422  0.2564
 2029TIP3    H1 6051   6.065   2.511   0.500  0.0527  1.9510 -1.4029
 2029TIP3    H2 6052   6.183   2.423   0.535 -2.4891 -0.9247  0.3954
 2030TIP3   OH2 6053   7.208   6.799   0.146  0.0908 -0.6418  0.0962
 2030TIP3    H1 6054   7.238   6.735   0.082  1.0557 -1.2880  1.1554
 2030TIP3    H2 6055   7.113   6.786   0.150  0.1186 -1.1311 -0.6238
 2031TIP3   OH2 6056   4.111   0.875   1.844 -0.1321  0.0388  0.3225
 2031TIP3    H1 6057   4.045   0.943   1.831  0.9097  0.7792 -1.5507
 2031TIP3    H2 6058   4.192   0.924   1.860  0.5392 -0.7488 -0.5794
 2032TIP3   OH2 6059   7.169   6.683   5.788  0.0025 -0.6394  0.2995
 2032TIP3    H1 6060   7.148   6.725   5.872 -1.0302 -1.2364  0.3708
 2032TIP3    H2 6061   7.121   6.600   5.792  0.2343 -0.8268 -0.7418
 2033TIP3   OH2 6062   4.187   5.008   5.268  0.0328  0.0289  0.0166
 2033TIP3    H1 6063   4.205   5.101   5.259  0.2665 -0.1539 -1.9283
 2033TIP3    H2 6064   4.211   4.987   5.358  0.4526  1.7331  0.3364
 2034TIP3   OH2 6065   4.349   3.868   5.518 -0.7463  0.2637  0.5782
 2034TIP3    H1 6066   4.384   3.807   5.453  2.5337  0.0413  2.3035
 2034TIP3    H2 6067   4.305   3.935   5.467  0.1532 -0.8200 -1.7580
 2035TIP3   OH2 6068   6.064   0.638   1.526 -0.1174 -0.4485 -0.0120
 2035TIP3    H1 6069   6.112   0.572   1.575 -0.1951 -0.6213 -0.1701
 2035TIP3    H2 6070   6.098   0.722   1.559  1.3710 -0.5643 -1.1947
 2036TIP3   OH2 6071   2.210   0.473   1.883  0.1539 -0.9464 -0.0074
 2036TIP3    H1 6072   2.142   0.444   1.943 -2.0511  2.2109 -0.7383
 2036TIP3    H2 6073   2.238   0.393   1.838 -1.0011 -2.7781  2.2692
 2037TIP3   OH2 6074   1.270   4.260   2.135  0.5948 -0.2665  0.4149
 2037TIP3    H1 6075   1.325   4.222   2.068 -0.2340 -1.2964  0.2902
 2037TIP3    H2 6076   1.311   4.234   2.218  0.4635 -0.7958  0.3189
 2038TIP3   OH2 6077   0.783   0.870   4.513  0.4190 -0.6721 -0.1508
 2038TIP3    H1 6078   0.797   0.942   4.452  0.5268  0.2694  0.9542
 2038TIP3    H2 6079   0.715   0.901   4.571  0.8622 -1.2371  0.6898
 2039TIP3   OH2 6080   6.077   0.693   2.870  0.7431  0.0833 -0.0429
 2039TIP3    H1 6081   6.031   0.611   2.855 -0.5528  0.7530  0.1219
 2039TIP3    H2 6082   6.146   0.671   2.932  1.1083 -1.0828 -0.8192
 2040TIP3   OH2 6083   6.896   5.736   0.642 -0.2006 -0.0715  0.3626
 2040TIP3    H1 6084   6.806   5.753   0.615 -0.2347 -0.5877  0.1288
 2040TIP3    H2 6085   6.928   5.820   0.675 -1.2088 -0.2008  1.7646
 2041TIP3   OH2 6086   1.835   4.877   4.731 -0.3088 -0.8347 -0.2828
 2041TIP3    H1 6087   1.861   4.966   4.706  1.5045 -0.6852  1.8042
 2041TIP3    H2 6088   1.910   4.843   4.779 -0.4242 -4.0492 -2.1129
 2042TIP3   OH2 6089   1.430   2.751   3.449 -0.0966 -0.2931 -0.0289
 2042TIP3    H1 6090   1.521   2.731   3.425  0.3748  1.7425 -0.1416
 2042TIP3    H2 6091   1.424   2.731   3.542  0.9672  1.0418  0.3545
 2043TIP3   OH2 6092   2.714   1.075   3.741  0.0620  0.5590 -0.1430
 2043TIP3    H1 6093   2.642   1.015   3.760  0.5108 -0.1350 -0.5927
 2043TIP3    H2 6094   2.793   1.028   3.770  0.1869  2.2562  2.6256
 2044TIP3   OH2 6095   7.165   1.230   2.735 -0.0149 -0.7139  0.5115
 2044TIP3    H1 6096   7.191   1.289   2.806 -2.3929 -0.1545  0.9968
 2044TIP3    H2 6097   7.122   1.156   2.779  1.6214 -2.1438 -0.1828
 2045TIP3   OH2 6098   1.559   1.641   0.762  0.1361 -0.1595 -0.1653
 2045TIP3    H1 6099   1.489   1.696   0.799 -0.8445 -1.3430 -0.1905
 2045TIP3    H2 6100   1.639   1.673   0.804 -0.5253  0.6729  0.5153
 2046TIP3   OH2 6101   2.993   0.842   1.730  0.1193  0.2387  0.2378
 2046TIP3    H1 6102   2.990   0.862   1.637  0.9000 -0.5721  0.0173
 2046TIP3    H2 6103   3.013   0.748   1.733 -0.0066  0.2376  1.2175
 2047TIP3   OH2 6104   0.251   0.569   1.719  0.0975 -0.0391  0.1979
 2047TIP3    H1 6105   0.290   0.483   1.733  0.6279  0.3016  0.8412
 2047TIP3    H2 6106   0.280   0.594   1.631  1.2794  0.1726  0.6304
 2048TIP3   OH2 6107   1.171   2.447   4.959  0.1121 -0.1197  0.1283
 2048TIP3    H1 6108   1.259   2.437   4.923  0.1660 -1.5529  0.6052
 2048TIP3    H2 6109   1.115   2.394   4.902 -0.2446 -0.1879  0.5340
 2049TIP3   OH2 6110   2.582   1.644   0.285 -0.4946  0.2448 -0.3448
 2049TIP3    H1 6111   2.668   1.685   0.292 -1.2542  1.8329  0.1835
 2049TIP3    H2 6112   2.565   1.639   0.191 -0.6042  1.6868 -0.4256
 2050TIP3   OH2 6113   4.234   0.768   0.712  0.1501 -0.3117  0.6720
 2050TIP3    H1 6114   4.283   0.741   0.634 -0.3745 -0.2354  0.3103
 2050TIP3    H2 6115   4.212   0.686   0.756  0.3019 -0.3661  0.6437
 2051TIP3   OH2 6116   0.516   6.119   3.172 -1.0476 -0.2127 -0.2382
 2051TIP3    H1 6117   0.467   6.051   3.217 -1.6768 -0.2940 -1.0300
 2051TIP3    H2 6118   0.449   6.178   3.137 -0.6041 -0.2806 -1.2596
 2052TIP3   OH2 6119   5.816   1.245   3.937 -0.7826 -0.1913 -0.0877
 2052TIP3    H1 6120   5.736   1.280   3.899 -0.0053  0.4844 -1.1555
 2052TIP3    H2 6121   5.818   1.154   3.910 -1.7811 -0.5670  0.9819
 2053TIP3   OH2 6122   2.061   3.109   4.997 -0.3215  0.0498 -0.2787
 2053TIP3    H1 6123   2.023   3.089   5.082 -2.1020 -0.8296 -1.2235
 2053TIP3    H2 6124   2.032   3.199   4.979  0.3863  0.3802  0.1960
 2054TIP3   OH2 6125   1.596   4.457   5.619  0.1456  0.4185 -0.3132
 2054TIP3    H1 6126   1.621   4.365   5.607 -0.8901 -0.0296  0.7331
 2054TIP3    H2 6127   1.511   4.465   5.575  0.1249  0.8221 -0.2040
 2055TIP3   OH2 6128   6.222   6.182   3.994  0.2044 -0.0910 -0.7526
 2055TIP3    H1 6129   6.238   6.143   4.080 -0.2287  0.9970 -0.1678
 2055TIP3    H2 6130   6.156   6.125   3.954 -0.1250 -0.1959 -0.0759
 2056TIP3   OH2 6131   4.473   4.090   0.658 -0.4644 -0.2121  0.3312
 2056TIP3    H1 6132   4.552   4.037   0.665 -0.8592 -0.6521  2.0783
 2056TIP3    H2 6133   4.464   4.108   0.565  2.1587  0.5830  0.1515
 2057TIP3   OH2 6134   7.091   0.730   3.653 -0.3433 -0.3454 -0.0031
 2057TIP3    H1 6135   7.090   0.645   3.610 -0.0270 -1.4177  1.9717
 2057TIP3    H2 6136   7.018   0.778   3.615 -1.4296 -2.0460 -0.1467
 2058TIP3   OH2 6137   0.324   5.383   3.686 -0.3657  0.6233  0.1225
 2058TIP3    H1 6138   0.256   5.320   3.664 -0.6771  0.4090  1.5879
 2058TIP3    H2 6139   0.406   5.337   3.667 -0.6008  0.5965 -0.8947
 2059TIP3   OH2 6140   5.703   6.713   1.385  0.1000 -0.1536  0.2983
 2059TIP3    H1 6141   5.769   6.663   1.339  0.1551 -0.1162  0.3371
 2059TIP3    H2 6142   5.666   6.772   1.319  0.0571 -0.2235  0.2603
 2060TIP3   OH2 6143   7.195   1.357   0.923  1.0313  0.1611 -0.2046
 2060TIP3    H1 6144   7.247   1.403   0.858  0.8892  0.6588  0.0320
 2060TIP3    H2 6145   7.157   1.426   0.977 -0.1214 -0.1724 -0.5588
 2061TIP3   OH2 6146   7.006   0.852   1.842 -0.3959  0.1120 -0.1882
 2061TIP3    H1 6147   7.044   0.764   1.835  0.8215  0.5121  0.9043
 2061TIP3    H2 6148   7.072   0.909   1.803  1.1397  1.0374  3.3279
 2062TIP3   OH2 6149   4.705   5.062   1.629  0.3267 -0.2525  0.4313
 2062TIP3    H1 6150   4.617   5.075   1.665  0.3563 -1.1609  0.8527
 2062TIP3    H2 6151   4.761   5.117   1.684  0.1663 -0.5009  0.8470
 2063TIP3   OH2 6152   1.353   5.030   1.967  0.1478 -0.3543  0.0704
 2063TIP3    H1 6153   1.303   4.979   2.031  1.1103  0.1919  1.2912
 2063TIP3    H2 6154   1.342   4.982   1.885 -2.9184  0.0956  0.0976
 2064TIP3   OH2 6155   1.332   1.539   0.235  0.3436  0.1176 -0.1245
 2064TIP3    H1 6156   1.356   1.540   0.328 -1.9391 -1.3347  0.5870
 2064TIP3    H2 6157   1.400   1.487   0.193  0.3547 -0.9574  1.1431
 2065TIP3   OH2 6158   3.234   4.958   0.741  0.3035 -0.3607 -0.2417
 2065TIP3    H1 6159   3.157   4.933   0.791  1.4101 -0.5960  1.4318
 2065TIP3    H2 6160   3.236   5.053   0.746  1.1717 -0.4211  1.4792
 2066TIP3   OH2 6161   3.085   1.542   4.431 -0.2897  0.3885 -0.0563
 2066TIP3    H1 6162   3.124   1.458   4.406 -2.5199 -0.2398 -1.7448
 2066TIP3    H2 6163   3.055   1.528   4.521 -0.5706 -0.6105 -0.2931
 2067TIP3   OH2 6164   1.041   4.396   0.094  0.1561  0.4223  0.1922
 2067TIP3    H1 6165   1.072   4.407   0.004  0.0449 -1.6893 -0.1698
 2067TIP3    H2 6166   0.962   4.449   0.098  0.5844  1.1675 -0.7080
 2068TIP3   OH2 6167   4.610   1.379   1.269  0.0228  0.4210  0.3151
 2068TIP3    H1 6168   4.628   1.304   1.213  1.6343  1.1842 -0.2590
 2068TIP3    H2 6169   4.548   1.432   1.219  2.0747  1.5128 -1.2109
 2069TIP3   OH2 6170   2.074   0.874   2.198 -0.0518 -0.0748 -0.3426
 2069TIP3    H1 6171   2.067   0.963   2.233 -1.0065  0.3277 -1.4983
 2069TIP3    H2 6172   2.152   0.838   2.240 -0.8536  0.5385  1.8120
 2070TIP3   OH2 6173   3.785   4.845   5.006 -0.1520  0.3021  0.1037
 2070TIP3    H1 6174   3.858   4.905   5.023 -0.0086  0.1476  0.0336
 2070TIP3    H2 6175   3.740   4.840   5.090 -0.9456  1.5418 -0.2280
 2071TIP3   OH2 6176   5.623   0.245   5.139 -0.3352 -0.1111  0.3440
 2071TIP3    H1 6177   5.616   0.179   5.071  0.8597  1.3026 -1.2313
 2071TIP3    H2 6178   5.706   0.227   5.183 -0.9690 -0.8463  1.2879
 2072TIP3   OH2 6179   2.467   4.540   3.211 -0.3624 -0.0753  0.1322
 2072TIP3    H1 6180   2.526   4.604   3.171 -1.4604 -0.1751 -1.7574
 2072TIP3    H2 6181   2.519   4.459   3.215  0.9578  0.8014  2.3344
 2073TIP3   OH2 6182   2.724   5.296   3.038  0.1810 -0.3099  0.4910
 2073TIP3    H1 6183   2.715   5.205   3.010  1.0568 -0.2890  0.0912
 2073TIP3    H2 6184   2.818   5.315   3.029 -0.1854  1.0635 -0.7910
 2074TIP3   OH2 6185   0.886   6.772   5.668  0.4380  0.5718 -0.0163
 2074TIP3    H1 6186   0.816   6.732   5.617  0.7881 -0.3684  0.2106
 2074TIP3    H2 6187   0.934   6.826   5.605  0.3268  0.1406 -0.4776
 2075TIP3   OH2 6188   4.937   5.490   3.557 -0.4068 -0.1663 -0.5653
 2075TIP3    H1 6189   4.909   5.534   3.477 -0.2007 -0.5081 -0.8263
 2075TIP3    H2 6190   4.892   5.406   3.556  0.1348 -0.4565 -0.6673
 2076TIP3   OH2 6191   6.094   5.848   5.188 -0.1523 -0.0992  0.5457
 2076TIP3    H1 6192   6.143   5.802   5.256 -0.0597 -0.0320  0.5243
 2076TIP3    H2 6193   6.155   5.852   5.114 -0.0616  0.3073  0.6427
 2077TIP3   OH2 6194   5.796   0.074   2.613  0.3734 -0.2066 -1.0715
 2077TIP3    H1 6195   5.788   0.084   2.708 -3.1224  0.6766 -1.3180
 2077TIP3    H2 6196   5.753  -0.010   2.594  2.4463 -1.1740 -1.8192
 2078TIP3   OH2 6197   6.043   3.837   2.799  0.1452  0.1810 -0.3206
 2078TIP3    H1 6198   6.009   3.809   2.714 -0.8764 -1.2540  0.5214
 2078TIP3    H2 6199   5.972   3.888   2.837  0.5389  0.6805 -0.2393
 2079TIP3   OH2 6200   4.194   0.044   0.595 -0.4509 -0.1170 -0.1162
 2079TIP3    H1 6201   4.246  -0.024   0.552  0.0761 -0.8808  1.6387
 2079TIP3    H2 6202   4.157   0.001   0.672 -1.0357  1.2901  0.4321
 2080TIP3   OH2 6203   2.307   3.161   4.210 -0.1352  0.0383  0.0280
 2080TIP3    H1 6204   2.264   3.182   4.127 -0.9659 -0.2539  0.3840
 2080TIP3    H2 6205   2.359   3.239   4.230 -2.0667  1.2329  0.6190
 2081TIP3   OH2 6206   5.824   0.498   2.479  0.5611  0.0027 -0.5034
 2081TIP3    H1 6207   5.747   0.451   2.444  1.2400 -0.8005 -0.9662
 2081TIP3    H2 6208   5.898   0.444   2.452  1.2073  0.0767  1.0605
 2082TIP3   OH2 6209   3.949   0.627   5.332 -0.7987  0.5749  0.2404
 2082TIP3    H1 6210   4.008   0.700   5.310 -1.3343  0.5176 -1.5834
 2082TIP3    H2 6211   3.906   0.606   5.249 -1.2556 -1.2993  0.9098
 2083TIP3   OH2 6212   0.941   6.670   0.777 -0.2015  0.2684  0.3752
 2083TIP3    H1 6213   0.882   6.598   0.797  0.3389 -0.4871 -0.6361
 2083TIP3    H2 6214   1.017   6.628   0.738  0.8413  1.2596  1.2871
 2084TIP3   OH2 6215   5.439   0.255   0.982  0.0332  0.2975 -0.0406
 2084TIP3    H1 6216   5.462   0.182   1.038 -1.6428  1.3978  2.2250
 2084TIP3    H2 6217   5.374   0.220   0.921  1.0643 -0.6367 -0.6520
 2085TIP3   OH2 6218   4.266   0.291   0.605  0.0319 -0.3856  0.3581
 2085TIP3    H1 6219   4.226   0.322   0.686  0.4993  0.1685  0.3787
 2085TIP3    H2 6220   4.241   0.198   0.600  0.6497 -0.6380  1.5420
 2086TIP3   OH2 6221   6.638   0.557   1.335 -0.5068  0.4367 -0.8299
 2086TIP3    H1 6222   6.649   0.593   1.423  1.0295 -0.0282 -0.8027
 2086TIP3    H2 6223   6.672   0.625   1.277 -1.1359  0.5713 -1.0504
 2087TIP3   OH2 6224   1.307   4.432   4.182  0.4415  0.1051 -1.1209
 2087TIP3    H1 6225   1.382   4.399   4.132 -0.6210 -1.1036 -1.9922
 2087TIP3    H2 6226   1.233   4.381   4.150 -0.6950  0.9772  0.0178
 2088TIP3   OH2 6227   6.784   4.122   2.026 -0.2454 -0.4588 -0.1841
 2088TIP3    H1 6228   6.831   4.196   1.986  1.0927 -1.0755  0.1884
 2088TIP3    H2 6229   6.698   4.158   2.047 -0.8301  0.0944 -3.0024
 2089TIP3   OH2 6230   3.439   2.324   5.028 -0.2338 -0.1884  0.3402
 2089TIP3    H1 6231   3.350   2.345   5.056 -0.2739  0.5727 -0.3150
 2089TIP3    H2 6232   3.448   2.230   5.042 -0.9657 -0.1857  0.8752
 2090TIP3   OH2 6233   4.483   4.037   0.383  0.2741  0.1320  1.0807
 2090TIP3    H1 6234   4.457   3.962   0.330 -2.3507  0.8683  1.2004
 2090TIP3    H2 6235   4.569   4.061   0.349  0.1013 -1.4176 -0.6107
 2091TIP3   OH2 6236   1.891   4.428   4.198 -0.6296  0.5185 -0.3135
 2091TIP3    H1 6237   1.957   4.359   4.198 -1.0672  0.0932  0.3862
 2091TIP3    H2 6238   1.849   4.423   4.112 -0.4621  0.1146 -0.3702
 2092TIP3   OH2 6239   2.661   1.322   0.271  0.4485 -0.0681 -0.1731
 2092TIP3    H1 6240   2.598   1.273   0.324  3.1706 -2.2526  1.3261
 2092TIP3    H2 6241   2.697   1.388   0.330 -2.7994  3.7791 -2.0334
 2093TIP3   OH2 6242   1.626   4.265   5.032 -0.2106 -0.2892  0.0028
 2093TIP3    H1 6243   1.703   4.320   5.047 -0.8451  1.1364 -1.6075
 2093TIP3    H2 6244   1.565   4.288   5.102 -0.2721  0.7351 -0.3737
 2094TIP3   OH2 6245   6.879   4.056   1.273 -0.6329 -0.1722 -0.9219
 2094TIP3    H1 6246   6.804   4.024   1.322 -0.2326  0.3569  0.0564
 2094TIP3    H2 6247   6.847   4.133   1.226 -0.6340  0.2194 -0.2822
 2095TIP3   OH2 6248   4.424   2.794   3.615 -0.0798  0.1686 -0.2526
 2095TIP3    H1 6249   4.509   2.773   3.652  0.4623  1.6826 -0.5896
 2095TIP3    H2 6250   4.421   2.744   3.533  0.1166 -0.5535  0.1735
 2096TIP3   OH2 6251   3.159   1.254   4.837  0.4614 -0.3043  0.0980
 2096TIP3    H1 6252   3.100   1.321   4.804  1.5163  0.6004 -0.0226
 2096TIP3    H2 6253   3.141   1.249   4.930  0.1545 -0.0816  0.0508
 2097TIP3   OH2 6254   1.076   4.032   1.290 -0.2384  0.4120  0.1309
 2097TIP3    H1 6255   1.102   4.090   1.218 -0.3949  0.5827  0.2144
 2097TIP3    H2 6256   1.117   4.070   1.368  0.7844 -0.3339 -0.0142
 2098TIP3   OH2 6257   1.715   0.594   1.377  0.0981 -0.4772  0.3954
 2098TIP3    H1 6258   1.772   0.557   1.444  2.5117  1.4048 -0.4863
 2098TIP3    H2 6259   1.769   0.600   1.299 -1.7146  0.2120 -0.8968
 2099TIP3   OH2 6260   6.008   3.066   0.298  0.0771 -0.1449 -0.3520
 2099TIP3    H1 6261   5.962   3.004   0.241 -0.4943 -0.1124  0.0570
 2099TIP3    H2 6262   6.100   3.045   0.286  0.0449  0.5615 -2.0712
 2100TIP3   OH2 6263   1.434   4.783   3.704 -0.5632 -0.0260  0.9003
 2100TIP3    H1 6264   1.504   4.791   3.640 -0.8470 -0.5867  0.5075
 2100TIP3    H2 6265   1.467   4.828   3.782  0.6731 -1.1638  1.0759
 2101TIP3   OH2 6266   5.149   6.704   3.868  0.0616 -0.2154 -0.2753
 2101TIP3    H1 6267   5.219   6.738   3.813 -0.5842 -0.3483 -1.2099
 2101TIP3    H2 6268   5.188   6.695   3.955  1.2963 -0.5947 -0.8457
 2102TIP3   OH2 6269   0.259   4.781   3.125  0.3482  0.4982 -0.0901
 2102TIP3    H1 6270   0.327   4.780   3.057 -2.1200 -2.3219 -2.8641
 2102TIP3    H2 6271   0.196   4.846   3.095  0.1658  0.6203  0.5441
 2103TIP3   OH2 6272   7.129   4.950   0.685 -0.1540 -0.4080 -0.5186
 2103TIP3    H1 6273   7.201   5.010   0.662  2.4776 -2.2641  2.0255
 2103TIP3    H2 6274   7.079   4.998   0.751  0.4608 -0.0909 -0.2703
 2104TIP3   OH2 6275   2.829   0.635   5.529  0.4319 -0.3687  0.0130
 2104TIP3    H1 6276   2.865   0.640   5.441  3.1861 -0.3063  1.0225
 2104TIP3    H2 6277   2.792   0.722   5.546  1.8361  0.3303 -0.3601
 2105TIP3   OH2 6278   2.396   2.053   3.718 -0.1808 -0.4049  0.1551
 2105TIP3    H1 6279   2.363   2.042   3.807 -1.9501 -0.2705 -0.4390
 2105TIP3    H2 6280   2.323   2.094   3.670  0.7540 -0.3949 -1.3350
 2106TIP3   OH2 6281   6.562   1.603   0.883 -0.0346 -0.0349  0.1489
 2106TIP3    H1 6282   6.492   1.667   0.896 -0.5855 -0.2282 -1.5270
 2106TIP3    H2 6283   6.523   1.520   0.908  1.0928  0.3307  3.6044
 2107TIP3   OH2 6284   5.322   5.176   4.627 -0.3967  0.5688 -0.3296
 2107TIP3    H1 6285   5.265   5.102   4.607 -0.9750  1.0398 -0.4594
 2107TIP3    H2 6286   5.294   5.204   4.714  0.1166  0.3686 -0.0951
 2108TIP3   OH2 6287   1.465   5.991   4.836  0.7038 -0.0621 -0.9628
 2108TIP3    H1 6288   1.376   6.017   4.859  0.5672 -1.3051 -0.0045
 2108TIP3    H2 6289   1.467   5.998   4.740 -0.3535  0.1962 -0.9819
 2109TIP3   OH2 6290   6.919   1.241   2.949 -0.3031  0.1840 -0.7890
 2109TIP3    H1 6291   6.973   1.306   2.994 -0.8063 -0.5102  0.8881
 2109TIP3    H2 6292   6.952   1.157   2.980 -1.2623 -0.2873 -1.0047
 2110TIP3   OH2 6293   2.284   1.539   3.212  0.1481 -0.1266 -0.0416
 2110TIP3    H1 6294   2.197   1.499   3.210 -0.6148  1.4721 -1.7957
 2110TIP3    H2 6295   2.275   1.614   3.269  0.0225  0.7097 -1.1275
 2111TIP3   OH2 6296   4.242   4.471   2.614  0.1964  0.0885  0.1853
 2111TIP3    H1 6297   4.311   4.458   2.548  1.0513  1.0008  0.8715
 2111TIP3    H2 6298   4.179   4.530   2.572  1.2877  1.5566  0.5228
 2112TIP3   OH2 6299   5.474   5.059   5.053  0.1274 -0.6463  0.0100
 2112TIP3    H1 6300   5.403   5.022   5.106  0.8212 -2.4346 -0.2254
 2112TIP3    H2 6301   5.482   4.999   4.979  2.8958 -1.4827  0.8268
 2113TIP3   OH2 6302   6.518   4.261   3.231  0.1670  0.4562 -0.3415
 2113TIP3    H1 6303   6.559   4.226   3.310  1.3093  0.7427 -0.7951
 2113TIP3    H2 6304   6.424   4.258   3.250  0.4410  2.5529  1.9386
 2114TIP3   OH2 6305   0.871   3.471   3.938 -0.4620 -0.2536  0.1602
 2114TIP3    H1 6306   0.863   3.480   3.843  0.9677  2.1272  0.1758
 2114TIP3    H2 6307   0.927   3.395   3.951 -1.7681 -1.4198 -0.8173
 2115TIP3   OH2 6308   7.036   0.890   4.827  0.0510 -0.1117 -0.0416
 2115TIP3    H1 6309   6.946   0.881   4.857  0.4420  0.6315  1.4481
 2115TIP3    H2 6310   7.083   0.925   4.903  1.4692  0.0975 -0.9831
 2116TIP3   OH2 6311   6.332   1.709   2.646  0.0035  0.5717 -0.3828
 2116TIP3    H1 6312   6.333   1.687   2.553 -1.5145  1.0932 -0.5627
 2116TIP3    H2 6313   6.415   1.677   2.680  0.2749 -0.2636 -1.7717
 2117TIP3   OH2 6314   6.701   0.227   1.583 -0.3423  0.5225 -0.0134
 2117TIP3    H1 6315   6.696   0.244   1.488 -1.1820  2.0333  0.2583
 2117TIP3    H2 6316   6.709   0.314   1.622  0.8073 -0.1393  1.2794
 2118TIP3   OH2 6317   1.153   4.448   4.661 -0.2368 -0.4464 -0.4478
 2118TIP3    H1 6318   1.231   4.461   4.714 -1.5214  2.5116  0.9581
 2118TIP3    H2 6319   1.099   4.386   4.710 -0.7824  1.1751  1.0997
 2119TIP3   OH2 6320   3.307   1.958   0.494  0.1730  0.1303 -0.1057
 2119TIP3    H1 6321   3.352   2.032   0.453 -1.0762  1.2245  0.4170
 2119TIP3    H2 6322   3.234   1.938   0.436  0.8639 -1.1377 -0.5700
 2120TIP3   OH2 6323   3.518   2.390   0.396  0.2210 -0.7939 -0.2182
 2120TIP3    H1 6324   3.494   2.299   0.379  1.3415 -1.6653  2.3644
 2120TIP3    H2 6325   3.446   2.425   0.448 -0.8226  0.2606 -2.2805
 2121TIP3   OH2 6326   4.577   5.353   4.482 -0.3930 -0.0099 -0.2485
 2121TIP3    H1 6327   4.630   5.426   4.515  0.8354 -0.8077 -0.3701
 2121TIP3    H2 6328   4.491   5.391   4.467  0.1037  1.3205  0.0685
 2122TIP3   OH2 6329   7.139   5.643   5.753 -0.1893 -0.2636 -0.0348
 2122TIP3    H1 6330   7.119   5.612   5.841 -0.5286 -1.3957 -0.4928
 2122TIP3    H2 6331   7.055   5.673   5.718 -0.5725 -2.0872 -0.8205
 2123TIP3   OH2 6332   2.895   2.570   3.790  0.2937  0.5167 -0.5423
 2123TIP3    H1 6333   2.872   2.651   3.746  0.5135 -0.3270 -2.3084
 2123TIP3    H2 6334   2.875   2.585   3.882  1.2149  2.8759 -0.6758
 2124TIP3   OH2 6335   0.067   5.620   0.067 -0.0119 -0.7183 -0.2909
 2124TIP3    H1 6336   0.031   5.690   0.013  0.0036 -0.0039  0.5909
 2124TIP3    H2 6337   0.130   5.664   0.124  0.5015 -1.5642 -0.1779
 2125TIP3   OH2 6338   0.373   1.164   0.127 -0.1708  0.3649 -0.8716
 2125TIP3    H1 6339   0.377   1.126   0.215  0.0140 -0.2523 -1.1359
 2125TIP3    H2 6340   0.450   1.221   0.122  1.2339 -1.4700 -1.4441
 2126TIP3   OH2 6341   0.592   5.521   3.700  1.2003 -0.2105 -0.8577
 2126TIP3    H1 6342   0.680   5.502   3.733  1.1534  0.9507 -0.0212
 2126TIP3    H2 6343   0.542   5.546   3.777  0.3812  0.0273 -1.4540
 2127TIP3   OH2 6344   2.521   5.208   5.011 -0.4875 -0.1806 -0.1505
 2127TIP3    H1 6345   2.588   5.175   5.071  0.2991  0.9897 -0.3613
 2127TIP3    H2 6346   2.439   5.170   5.044  0.1959 -1.2204  0.4118
 2128TIP3   OH2 6347   3.704   1.578   5.761 -0.2655  0.0602  0.2910
 2128TIP3    H1 6348   3.730   1.556   5.671  0.9054  1.3128  0.2927
 2128TIP3    H2 6349   3.681   1.670   5.757  1.1909  0.5284  1.5407
 2129TIP3   OH2 6350   2.054   4.004   5.647  0.0265  0.7255 -0.3281
 2129TIP3    H1 6351   2.026   4.095   5.634 -1.9222 -0.0189 -1.7386
 2129TIP3    H2 6352   2.128   3.993   5.588  0.1290  1.3143 -0.3205
 2130TIP3   OH2 6353   3.710   0.558   5.718 -0.3511  0.5983 -0.0372
 2130TIP3    H1 6354   3.658   0.508   5.656 -0.4707  1.3171 -0.5314
 2130TIP3    H2 6355   3.738   0.635   5.668  3.0428 -0.7784 -0.5434
 2131TIP3   OH2 6356   1.145   4.463   0.795  0.2265  0.6680 -0.1528
 2131TIP3    H1 6357   1.231   4.453   0.836 -0.1765  2.5415  1.2633
 2131TIP3    H2 6358   1.134   4.383   0.743  0.8238 -1.9112  3.3207
 2132TIP3   OH2 6359   0.603   6.432   4.524  0.0116 -0.2489 -0.0486
 2132TIP3    H1 6360   0.542   6.501   4.549 -0.2099 -0.6090  0.4241
 2132TIP3    H2 6361   0.550   6.371   4.473  0.0620 -0.3814  0.0574
 2133TIP3   OH2 6362   3.583   4.368   0.453  1.1467  0.5025  0.2486
 2133TIP3    H1 6363   3.526   4.425   0.504  1.4889  1.2519 -0.1983
 2133TIP3    H2 6364   3.548   4.280   0.468 -0.4427  0.9858 -0.3989
 2134TIP3   OH2 6365   5.153   0.167   3.047  0.3506 -0.4302  0.4340
 2134TIP3    H1 6366   5.075   0.114   3.033 -1.0493  1.1851  1.7166
 2134TIP3    H2 6367   5.130   0.253   3.013  1.0290  0.4604  2.1285
 2135TIP3   OH2 6368   1.887   2.117   0.155 -0.7982 -0.0795 -0.6125
 2135TIP3    H1 6369   1.864   2.032   0.118 -2.0551  0.4276 -1.0511
 2135TIP3    H2 6370   1.805   2.167   0.153 -0.0550  1.1852 -0.4795
 2136TIP3   OH2 6371   0.955   6.082   3.445 -0.2050  0.4024 -0.2791
 2136TIP3    H1 6372   0.963   6.029   3.366 -0.6425 -0.8680  0.4983
 2136TIP3    H2 6373   1.010   6.158   3.429 -0.0898  0.0383 -1.7014
 2137TIP3   OH2 6374   0.095   6.642   1.177  0.5524  0.3586  0.6266
 2137TIP3    H1 6375   0.163   6.580   1.202 -0.6505 -1.2693 -0.0058
 2137TIP3    H2 6376   0.109   6.718   1.234  0.1405 -1.7317  3.7424
 2138TIP3   OH2 6377   4.782   1.052   4.871  0.3216  0.2874  0.0519
 2138TIP3    H1 6378   4.777   1.132   4.819 -0.5062 -0.9887 -1.9430
 2138TIP3    H2 6379   4.693   1.039   4.904  0.0279 -0.6584 -1.0444
 2139TIP3   OH2 6380   4.051   5.463   4.817  0.1253 -0.0995  0.0556
 2139TIP3    H1 6381   3.975   5.434   4.867  0.3487  0.0455  0.4857
 2139TIP3    H2 6382   4.052   5.558   4.827  1.0476 -0.1852  1.0813
 2140TIP3   OH2 6383   6.198   4.791   0.488 -0.3108 -0.4046  0.2482
 2140TIP3    H1 6384   6.117   4.772   0.442  0.3513 -0.7186 -0.8458
 2140TIP3    H2 6385   6.265   4.742   0.439  0.4877 -0.4059  1.3075
 2141TIP3   OH2 6386   3.138   0.851   1.004 -0.2069  0.0063  0.0119
 2141TIP3    H1 6387   3.137   0.940   0.970  0.0135  0.3179  0.7929
 2141TIP3    H2 6388   3.071   0.805   0.954 -0.2971  0.6018 -0.4185
 2142TIP3   OH2 6389   6.032   2.947   3.068 -0.2070 -0.3724  0.0427
 2142TIP3    H1 6390   5.967   2.930   3.137 -2.1650  1.7207 -1.1713
 2142TIP3    H2 6391   6.073   2.862   3.053 -1.4381 -1.4113  2.0696
 2143TIP3   OH2 6392   4.073   3.240   5.001 -0.4751 -0.1658  0.2770
 2143TIP3    H1 6393   4.006   3.179   5.031  0.6023 -0.4679  2.2236
 2143TIP3    H2 6394   4.091   3.296   5.077  2.8793 -1.3855  0.5452
 2144TIP3   OH2 6395   3.624   6.701   0.295 -0.5191 -0.2498  0.2644
 2144TIP3    H1 6396   3.584   6.786   0.317 -0.8472 -0.5663  0.9293
 2144TIP3    H2 6397   3.625   6.700   0.199 -2.3191 -0.3019  0.1974
 2145TIP3   OH2 6398   3.846   4.298   4.748 -0.3098 -0.1257  0.0445
 2145TIP3    H1 6399   3.815   4.210   4.768  2.5570 -1.3496 -0.3465
 2145TIP3    H2 6400   3.856   4.340   4.834  0.7283 -1.1474  0.4472
 2146TIP3   OH2 6401   3.352   5.968   1.756  0.3219  0.4643  0.1585
 2146TIP3    H1 6402   3.305   6.006   1.682 -0.7914 -1.9348 -0.4793
 2146TIP3    H2 6403   3.296   5.987   1.831 -1.4429 -1.6958 -0.4892
 2147TIP3   OH2 6404   5.307   4.196   3.752  0.1640 -0.9262  0.1538
 2147TIP3    H1 6405   5.350   4.271   3.711  0.6756 -1.7037 -0.7728
 2147TIP3    H2 6406   5.235   4.234   3.801 -2.0160 -0.0502 -3.3322
 2148TIP3   OH2 6407   0.437   3.246   1.000  0.9762  0.0041  0.4192
 2148TIP3    H1 6408   0.411   3.192   1.074  1.3971 -0.7286  0.0411
 2148TIP3    H2 6409   0.358   3.251   0.945  0.8270  0.0881  0.6414
 2149TIP3   OH2 6410   3.184   4.725   0.207  0.7423  0.3145  0.0225
 2149TIP3    H1 6411   3.166   4.752   0.297  0.2862  0.2017 -0.0310
 2149TIP3    H2 6412   3.228   4.641   0.215  1.6846  0.8042  0.1737
 2150TIP3   OH2 6413   3.911   2.127   5.109 -0.1043 -0.4230 -0.0376
 2150TIP3    H1 6414   3.983   2.129   5.046  0.3825 -0.8710  0.4958
 2150TIP3    H2 6415   3.832   2.132   5.055  0.2175 -2.9159 -0.8895
 2151TIP3   OH2 6416   4.078   0.811   5.762  0.1656 -0.1579  0.5619
 2151TIP3    H1 6417   4.051   0.720   5.750  0.8136 -0.5591  1.9250
 2151TIP3    H2 6418   4.151   0.806   5.824  1.9003  1.0688 -1.2636
 2152TIP3   OH2 6419   1.450   5.594   2.883  1.0030  0.2451 -0.3778
 2152TIP3    H1 6420   1.447   5.665   2.947  0.4610 -0.2010  0.1061
 2152TIP3    H2 6421   1.396   5.524   2.922  0.5022  0.0382 -1.3958
 2153TIP3   OH2 6422   5.524   4.593   3.345 -0.4878 -0.4495  0.2857
 2153TIP3    H1 6423   5.554   4.680   3.371 -1.4489 -0.3687  1.1874
 2153TIP3    H2 6424   5.587   4.564   3.280 -1.4166  1.8784 -1.7798
 2154TIP3   OH2 6425   1.257   2.171   3.587 -0.4514 -0.3502  0.3486
 2154TIP3    H1 6426   1.246   2.076   3.594  1.8223 -0.7209 -0.2190
 2154TIP3    H2 6427   1.328   2.191   3.648 -0.3258  0.8556 -0.1667
 2155TIP3   OH2 6428   4.690   1.799   1.303  0.0507  0.0012  0.0437
 2155TIP3    H1 6429   4.698   1.754   1.387  1.0426 -1.5542 -0.8423
 2155TIP3    H2 6430   4.769   1.853   1.296  0.4797 -0.6702 -0.3369
 2156TIP3   OH2 6431   2.268   5.370   2.979 -0.0823 -0.2926 -0.1705
 2156TIP3    H1 6432   2.356   5.358   2.942  0.1133 -0.5413  0.3499
 2156TIP3    H2 6433   2.274   5.330   3.066 -0.2995  0.9203  0.4314
 2157TIP3   OH2 6434   2.494   2.559   1.759 -0.1825  0.1478 -0.1155
 2157TIP3    H1 6435   2.470   2.522   1.844  0.0624  0.3644  0.0486
 2157TIP3    H2 6436   2.582   2.524   1.741 -0.2551  0.0582 -0.3074
 2158TIP3   OH2 6437   7.142   3.397   2.348 -0.3317  0.1543  0.2487
 2158TIP3    H1 6438   7.179   3.469   2.399 -0.1254  0.8889 -0.8852
 2158TIP3    H2 6439   7.204   3.325   2.359  1.6856  1.4291 -1.7861
 2159TIP3   OH2 6440   6.994   2.012   2.811  0.8204  0.1701 -0.2694
 2159TIP3    H1 6441   7.082   1.999   2.845  0.3129 -0.6477  0.8183
 2159TIP3    H2 6442   6.991   2.104   2.786  2.1351  0.0877 -0.8113
 2160TIP3   OH2 6443   1.528   5.026   4.391 -0.0969  0.4830  0.6731
 2160TIP3    H1 6444   1.574   5.083   4.452  0.8302  0.1089  0.3482
 2160TIP3    H2 6445   1.532   4.939   4.431 -1.9685  0.6880  1.4263
 2161TIP3   OH2 6446   5.554   5.129   4.474  0.5017 -0.1920  0.1611
 2161TIP3    H1 6447   5.479   5.146   4.531  0.6160  0.0498  0.2398
 2161TIP3    H2 6448   5.517   5.129   4.386  0.3111 -0.6385  0.2389
 2162TIP3   OH2 6449   1.695   0.338   4.604 -0.2414 -0.1890 -0.1669
 2162TIP3    H1 6450   1.708   0.366   4.513  1.0312  1.1666  0.3896
 2162TIP3    H2 6451   1.782   0.312   4.634 -0.4689  0.2240  0.9159
 2163TIP3   OH2 6452   0.904   4.477   5.251  0.2177  0.3080  0.4482
 2163TIP3    H1 6453   0.847   4.405   5.224 -0.8275  1.6341 -1.1260
 2163TIP3    H2 6454   0.884   4.490   5.344 -0.7772 -0.3679  0.3446
 2164TIP3   OH2 6455   2.082   6.195   5.473  0.4630  0.4413  0.4127
 2164TIP3    H1 6456   2.112   6.221   5.386  0.0979  1.5102  0.5914
 2164TIP3    H2 6457   2.163   6.180   5.523  0.7147  1.6587  0.4084
 2165TIP3   OH2 6458   2.754   3.132   3.897 -0.9971  0.2274  0.3312
 2165TIP3    H1 6459   2.769   3.043   3.929 -0.8092 -0.1138 -0.6674
 2165TIP3    H2 6460   2.736   3.183   3.976  1.2598 -0.2031  1.2156
 2166TIP3   OH2 6461   3.863   3.386   1.155 -0.3926 -0.1382 -0.4892
 2166TIP3    H1 6462   3.951   3.406   1.124  0.3037 -1.3372  0.6306
 2166TIP3    H2 6463   3.831   3.470   1.190  1.0099 -0.0736  0.7234
 2167TIP3   OH2 6464   0.330   3.598   2.126  0.1216  0.5001 -0.7955
 2167TIP3    H1 6465   0.264   3.640   2.071 -1.6058 -2.0137 -0.7962
 2167TIP3    H2 6466   0.327   3.646   2.208 -0.1949  1.7320 -1.5018
 2168TIP3   OH2 6467   3.541   0.972   1.068 -0.2882  0.0661  0.3613
 2168TIP3    H1 6468   3.631   0.939   1.063 -0.9247 -1.7601  0.0195
 2168TIP3    H2 6469   3.513   0.950   1.157 -0.3388  0.8326  0.5398
 2169TIP3   OH2 6470   6.014   1.249   0.189  0.0364 -0.5603 -0.3155
 2169TIP3    H1 6471   6.108   1.252   0.173  0.1234 -0.2702  0.2246
 2169TIP3    H2 6472   5.982   1.178   0.133  0.7773 -1.5434  0.4709
 2170TIP3   OH2 6473   0.596   4.467   4.047 -0.0138 -0.1106  0.3516
 2170TIP3    H1 6474   0.523   4.492   4.103 -2.2098 -1.0395 -1.8811
 2170TIP3    H2 6475   0.567   4.386   4.004  1.7584  0.1987 -1.6207
 2171TIP3   OH2 6476   3.911   3.576   5.827 -0.2047  0.0220  0.2054
 2171TIP3    H1 6477   3.847   3.506   5.820 -1.5993  1.2904 -0.3331
 2171TIP3    H2 6478   3.995   3.534   5.809 -1.2204 -1.1001 -2.4723
 2172TIP3   OH2 6479   6.009   5.854   4.200  0.0009 -0.4280  0.0424
 2172TIP3    H1 6480   5.922   5.893   4.190  0.3469  1.4543  3.0329
 2172TIP3    H2 6481   5.992   5.762   4.220 -1.1375 -0.5929 -1.4671
 2173TIP3   OH2 6482   0.488   0.702   5.179 -0.1518  0.2379  0.0149
 2173TIP3    H1 6483   0.519   0.751   5.255  0.0830 -1.6143  1.1941
 2173TIP3    H2 6484   0.557   0.637   5.164 -0.3087  0.4323 -1.6670
 2174TIP3   OH2 6485   3.208   2.055   4.828  0.2920  0.1516  0.4230
 2174TIP3    H1 6486   3.278   2.105   4.786  0.2455  1.9089  2.2864
 2174TIP3    H2 6487   3.231   2.056   4.921 -0.8150 -1.5979  0.7681
 2175TIP3   OH2 6488   1.860   1.000   2.054 -0.0296  0.7471  0.1487
 2175TIP3    H1 6489   1.909   0.925   2.090 -0.0691  0.4122 -0.4708
 2175TIP3    H2 6490   1.898   1.076   2.097 -0.1641  0.3552  0.9900
 2176TIP3   OH2 6491   2.554   1.462   4.327 -0.1936 -0.5948 -0.2112
 2176TIP3    H1 6492   2.502   1.490   4.402  0.1557  0.3429 -0.3143
 2176TIP3    H2 6493   2.623   1.407   4.364  1.1985  1.4734  0.4274
 2177TIP3   OH2 6494   6.236   5.005   5.830  0.5305 -0.3973  0.0114
 2177TIP3    H1 6495   6.229   4.914   5.859  1.8327 -0.0448  1.5670
 2177TIP3    H2 6496   6.324   5.012   5.792 -0.6249 -0.4833 -2.9580
 2178TIP3   OH2 6497   6.080   0.232   2.712 -0.6937  0.0274  0.8609
 2178TIP3    H1 6498   6.034   0.191   2.639 -1.5855 -0.7399  1.8260
 2178TIP3    H2 6499   6.019   0.295   2.748  0.1371  1.1828  0.3077
 2179TIP3   OH2 6500   2.107   1.747   2.760  0.2948  0.3743 -0.1720
 2179TIP3    H1 6501   2.152   1.687   2.700 -1.6971 -2.2537  0.7707
 2179TIP3    H2 6502   2.058   1.690   2.819 -0.7302  2.9519  1.6578
 2180TIP3   OH2 6503   2.904   6.183   5.454 -0.0469  0.1864 -0.0646
 2180TIP3    H1 6504   2.822   6.133   5.447 -0.1891  0.4403 -0.2352
 2180TIP3    H2 6505   2.971   6.117   5.470 -0.2697 -0.0357 -0.0360
 2181TIP3   OH2 6506   4.563   1.960   5.057 -0.5271  0.8763 -0.0513
 2181TIP3    H1 6507   4.555   1.874   5.016  0.3224  1.5604 -1.7493
 2181TIP3    H2 6508   4.503   2.015   5.007  1.6789  2.0893 -1.5266
 2182TIP3   OH2 6509   4.420   3.947   1.866  0.2543 -0.0275 -0.0570
 2182TIP3    H1 6510   4.375   4.029   1.846  1.5512  0.4581 -1.1448
 2182TIP3    H2 6511   4.406   3.935   1.960  0.9676  2.0274  0.3731
 2183TIP3   OH2 6512   5.570   2.578   4.957 -0.0322  0.8280  0.3734
 2183TIP3    H1 6513   5.620   2.545   5.032 -2.5868  1.3067  2.4187
 2183TIP3    H2 6514   5.494   2.621   4.996 -1.3508  1.3305 -2.5155
 2184TIP3   OH2 6515   3.982   0.837   0.575 -0.0436 -0.1597 -0.0622
 2184TIP3    H1 6516   4.003   0.895   0.502 -1.8306  1.3447  0.5321
 2184TIP3    H2 6517   4.067   0.811   0.610  0.8313  0.2594 -1.7535
 2185TIP3   OH2 6518   2.888   2.033   4.023 -0.0064  0.2411 -0.0789
 2185TIP3    H1 6519   2.918   2.052   4.112 -0.8426  2.9888 -0.2725
 2185TIP3    H2 6520   2.798   2.067   4.021 -0.0878 -0.0046 -1.8783
 2186TIP3   OH2 6521   6.717   2.085   3.681 -0.3131 -0.9890 -0.4533
 2186TIP3    H1 6522   6.770   2.037   3.745 -1.5421 -0.5279  0.9644
 2186TIP3    H2 6523   6.720   2.176   3.711  0.8413 -0.3780 -2.3075
 2187TIP3   OH2 6524   2.313   4.447   1.129 -0.5700  0.1005 -0.0514
 2187TIP3    H1 6525   2.338   4.494   1.208 -1.8157  2.8273 -1.1460
 2187TIP3    H2 6526   2.218   4.458   1.123 -0.6298 -0.8406 -1.4355
 2188TIP3   OH2 6527   5.430   2.659   1.932 -0.3113 -0.5272  0.2713
 2188TIP3    H1 6528   5.495   2.711   1.980 -0.0610 -1.1000  0.5650
 2188TIP3    H2 6529   5.369   2.629   2.000  0.1718 -1.5327  0.2821
 2189TIP3   OH2 6530   6.089   2.058   0.405  0.4492  0.0220 -0.0598
 2189TIP3    H1 6531   6.067   2.013   0.324  0.3308 -0.1209  0.0502
 2189TIP3    H2 6532   6.119   1.988   0.463 -0.8910 -0.0992  0.5290
 2190TIP3   OH2 6533   0.480   2.599   3.535  0.0489  0.3253  0.0059
 2190TIP3    H1 6534   0.405   2.652   3.562  0.0417  0.1657  0.3014
 2190TIP3    H2 6535   0.461   2.574   3.445 -0.8990 -0.8321  0.4956
 2191TIP3   OH2 6536   0.093   4.333   0.627  0.0585  0.4643  0.1665
 2191TIP3    H1 6537   0.043   4.255   0.605  0.2046  0.7091 -1.0969
 2191TIP3    H2 6538   0.175   4.299   0.664 -0.7634  0.0627  1.7362
 2192TIP3   OH2 6539   6.294   0.387   2.458  0.1406 -0.2719 -0.7672
 2192TIP3    H1 6540   6.301   0.383   2.363 -3.7689  1.2594 -1.3307
 2192TIP3    H2 6541   6.335   0.470   2.482 -1.0730  0.5757 -1.5157
 2193TIP3   OH2 6542   0.020   3.885   2.963 -0.1411 -0.4942  0.0584
 2193TIP3    H1 6543  -0.057   3.939   2.982 -1.4243 -2.4700  0.7712
 2193TIP3    H2 6544   0.088   3.917   3.022 -1.4429 -0.8394  1.8155
 2194TIP3   OH2 6545   0.891   4.704   4.822 -0.6256 -0.1404  0.1049
 2194TIP3    H1 6546   0.936   4.752   4.753 -0.7104 -0.2958 -0.0591
 2194TIP3    H2 6547   0.856   4.772   4.880 -1.2864  0.0166 -0.4644
 2195TIP3   OH2 6548   6.124   6.428   2.603  0.0396 -0.0277  0.0585
 2195TIP3    H1 6549   6.148   6.379   2.682  0.7584  0.7992  0.3750
 2195TIP3    H2 6550   6.161   6.378   2.531  1.6920  0.5423  0.4485
 2196TIP3   OH2 6551   6.345   6.056   2.899 -0.0553 -0.0140 -0.2362
 2196TIP3    H1 6552   6.419   5.999   2.876  1.0287  1.1810  0.1711
 2196TIP3    H2 6553   6.312   6.020   2.981  1.6370  0.8192  0.8734
 2197TIP3   OH2 6554   5.104   0.423   2.921  0.0629 -0.4607  0.6325
 2197TIP3    H1 6555   5.043   0.435   2.849 -1.1961  1.1176  1.8788
 2197TIP3    H2 6556   5.191   0.423   2.880 -0.6687 -3.3592 -1.2689
 2198TIP3   OH2 6557   0.829   4.343   0.530 -0.0255 -0.2924 -0.1330
 2198TIP3    H1 6558   0.867   4.284   0.466  0.3123 -0.2571  0.0330
 2198TIP3    H2 6559   0.817   4.426   0.484 -0.5578 -0.5038 -0.3840
 2199TIP3   OH2 6560   5.717   5.534   5.562  0.2437  0.4569 -0.1877
 2199TIP3    H1 6561   5.811   5.550   5.550 -0.2227  1.6581 -2.9774
 2199TIP3    H2 6562   5.682   5.618   5.590 -0.1117  0.2654 -0.0584
 2200TIP3   OH2 6563   1.783   1.393   1.358 -0.0764  0.6088 -0.1088
 2200TIP3    H1 6564   1.716   1.370   1.293  0.4627  1.1806 -0.8815
 2200TIP3    H2 6565   1.742   1.374   1.442 -0.5263 -0.8422 -0.6279
 2201TIP3   OH2 6566   1.697   3.717   5.817  0.5978  0.6478  0.0821
 2201TIP3    H1 6567   1.703   3.804   5.778 -0.3618  0.3090 -0.8571
 2201TIP3    H2 6568   1.724   3.658   5.747 -2.0281 -0.0401 -0.4557
 2202TIP3   OH2 6569   6.319   5.485   3.205 -0.3584 -0.5667 -0.1237
 2202TIP3    H1 6570   6.292   5.555   3.145 -0.5504 -0.3893  0.1694
 2202TIP3    H2 6571   6.313   5.524   3.292  1.9277 -0.1572 -0.0897
 2203TIP3   OH2 6572   0.593   4.364   4.472 -0.1430 -0.7396 -0.1929
 2203TIP3    H1 6573   0.671   4.407   4.437 -1.5543  0.3660 -2.1690
 2203TIP3    H2 6574   0.593   4.387   4.565  0.2570  1.9028 -0.7692
 2204TIP3   OH2 6575   3.239   4.009   4.976 -0.2998 -0.1169  0.1644
 2204TIP3    H1 6576   3.249   3.921   4.941 -0.5337  0.0456 -0.3257
 2204TIP3    H2 6577   3.256   4.000   5.069 -0.4129 -0.6981  0.1334
 2205TIP3   OH2 6578   5.920   3.279   0.756 -0.5889  0.4250  0.3185
 2205TIP3    H1 6579   5.845   3.249   0.705  0.7792 -1.6077 -0.6422
 2205TIP3    H2 6580   5.958   3.349   0.704 -0.4778 -0.1323 -0.3533
 2206TIP3   OH2 6581   6.801   5.876   1.689  0.5517  0.0805  0.3740
 2206TIP3    H1 6582   6.860   5.802   1.672  0.5831  0.0463  0.6317
 2206TIP3    H2 6583   6.812   5.894   1.782 -0.0509 -0.1048  0.4830
 2207TIP3   OH2 6584   1.508   4.660   3.030 -0.2035 -0.0831 -0.4422
 2207TIP3    H1 6585   1.510   4.623   2.942 -1.0374 -2.8931  0.6081
 2207TIP3    H2 6586   1.583   4.621   3.075 -0.7850 -0.0859  0.5682
 2208TIP3   OH2 6587   4.824   0.181   5.034  0.2471  0.7400  0.5046
 2208TIP3    H1 6588   4.836   0.162   5.127  1.3962  0.0440  0.2291
 2208TIP3    H2 6589   4.762   0.115   5.003  1.7648 -0.6164  0.2555
 2209TIP3   OH2 6590   3.078   5.716   1.026  0.3444 -0.7458  0.0390
 2209TIP3    H1 6591   3.075   5.752   0.938 -0.2913 -0.0304  0.3486
 2209TIP3    H2 6592   2.988   5.690   1.045  0.4879 -0.9573  0.4560
 2210TIP3   OH2 6593   1.161   5.504   1.829  0.5561  0.4938  0.1591
 2210TIP3    H1 6594   1.252   5.518   1.853  0.3905  0.4310  0.8534
 2210TIP3    H2 6595   1.135   5.427   1.879 -0.2039  1.1822  0.8566
 2211TIP3   OH2 6596   2.140   6.119   2.449  0.2334  0.6351  0.0469
 2211TIP3    H1 6597   2.123   6.079   2.534  0.3530 -0.4130 -0.4117
 2211TIP3    H2 6598   2.053   6.134   2.412  0.1704  1.4453  0.5041
 2212TIP3   OH2 6599   3.857   3.642   0.244 -0.1731 -0.0764 -0.3528
 2212TIP3    H1 6600   3.769   3.603   0.245 -0.6702  0.9929 -0.8368
 2212TIP3    H2 6601   3.901   3.598   0.171 -1.0601  0.9371 -1.5353
 2213TIP3   OH2 6602   5.828   4.974   1.088  0.0007  0.2567 -0.1434
 2213TIP3    H1 6603   5.865   4.985   1.000 -0.6591 -1.0074 -0.6170
 2213TIP3    H2 6604   5.736   5.000   1.078  0.3353  1.8194  0.6233
 2214TIP3   OH2 6605   6.143   0.179   2.090  0.0467  0.2456  0.0336
 2214TIP3    H1 6606   6.198   0.109   2.124  1.4102  1.6488  0.8864
 2214TIP3    H2 6607   6.191   0.259   2.111 -1.5440  1.4568 -0.7120
 2215TIP3   OH2 6608   6.616   3.095   5.408  0.2760 -0.3206  0.0588
 2215TIP3    H1 6609   6.660   3.173   5.375 -1.4987  0.3836 -0.7814
 2215TIP3    H2 6610   6.643   3.025   5.349  0.1475  0.1325 -0.5482
 2216TIP3   OH2 6611   5.489   4.304   1.195  0.1584 -0.4600 -0.6319
 2216TIP3    H1 6612   5.530   4.377   1.242 -1.7090  0.4805 -0.3887
 2216TIP3    H2 6613   5.556   4.236   1.196  2.1668  1.3821 -1.2892
 2217TIP3   OH2 6614   1.891   2.469   4.439  0.0223  0.2952 -0.6663
 2217TIP3    H1 6615   1.926   2.496   4.354 -0.9822 -1.6918 -1.7866
 2217TIP3    H2 6616   1.963   2.421   4.480  0.8473  2.0889  0.1057
 2218TIP3   OH2 6617   4.518   2.401   0.496 -0.2988  0.0790  0.1027
 2218TIP3    H1 6618   4.432   2.398   0.454 -0.5066 -0.0284  0.5290
 2218TIP3    H2 6619   4.520   2.322   0.550  0.2462 -0.1507 -0.2492
 2219TIP3   OH2 6620   0.737   5.700   4.212 -0.4973  0.3399  0.2106
 2219TIP3    H1 6621   0.689   5.773   4.249  1.6539  1.1326  1.6363
 2219TIP3    H2 6622   0.753   5.641   4.286  0.7325  0.1614 -0.1633
 2220TIP3   OH2 6623   2.475   3.732   0.403  0.1678  0.5976 -0.8398
 2220TIP3    H1 6624   2.415   3.741   0.329  0.2321  0.4705 -0.9061
 2220TIP3    H2 6625   2.463   3.642   0.433  2.1544 -0.2540 -2.4201
 2221TIP3   OH2 6626   0.171   1.893   4.311  0.4782 -0.2899 -0.1035
 2221TIP3    H1 6627   0.099   1.830   4.319 -0.8070  1.3138  2.4594
 2221TIP3    H2 6628   0.250   1.839   4.310 -0.5948 -2.0257  1.4182
 2222TIP3   OH2 6629   0.688   1.820   3.941  0.6190 -0.0977  0.0970
 2222TIP3    H1 6630   0.746   1.816   3.865 -2.6058 -1.7040 -2.5723
 2222TIP3    H2 6631   0.613   1.870   3.911 -1.5076 -2.1625  1.5938
 2223TIP3   OH2 6632   6.509   5.919   2.396 -0.9065  0.0358  0.1081
 2223TIP3    H1 6633   6.473   5.940   2.310  0.0100  1.2522  0.0039
 2223TIP3    H2 6634   6.549   6.000   2.426 -1.6311 -0.2258  1.9141
 2224TIP3   OH2 6635   2.438   5.297   4.711  0.6350  0.0676 -0.5078
 2224TIP3    H1 6636   2.533   5.291   4.697  0.7123 -2.8659  0.5964
 2224TIP3    H2 6637   2.427   5.280   4.804 -1.0510 -0.8069 -0.8358
 2225TIP3   OH2 6638   1.233   1.976   5.147  0.0109  0.0297  0.0846
 2225TIP3    H1 6639   1.238   1.907   5.080  0.7674  1.7036 -1.6740
 2225TIP3    H2 6640   1.153   2.023   5.127  0.6381  1.0254 -0.1807
 2226TIP3   OH2 6641   5.221   0.858   3.786  0.1293  0.0343 -0.6462
 2226TIP3    H1 6642   5.261   0.927   3.733 -1.2226  0.9580 -0.5010
 2226TIP3    H2 6643   5.294   0.816   3.830  1.0744  0.6834 -1.5524
 2227TIP3   OH2 6644   2.222   4.610   3.308  0.6231 -0.2331 -0.5202
 2227TIP3    H1 6645   2.312   4.585   3.285  0.4814 -0.5617 -0.7310
 2227TIP3    H2 6646   2.203   4.559   3.387 -0.0885 -1.7582 -1.6261
 2228TIP3   OH2 6647   1.659   3.062   0.579  0.3087  0.6104  0.2268
 2228TIP3    H1 6648   1.729   3.003   0.552  0.8704  1.8304 -1.1361
 2228TIP3    H2 6649   1.679   3.082   0.671  0.8835 -0.2206  0.2936
 2229TIP3   OH2 6650   6.298   4.345   5.317  0.3461 -0.3240 -0.1544
 2229TIP3    H1 6651   6.253   4.301   5.245 -0.9827  1.3356 -0.4088
 2229TIP3    H2 6652   6.311   4.277   5.383 -1.3674 -1.1679 -0.6425
 2230TIP3   OH2 6653   5.222   5.874   3.243  0.4130 -0.5665 -0.3517
 2230TIP3    H1 6654   5.290   5.899   3.306  0.0927 -0.8024  0.0932
 2230TIP3    H2 6655   5.216   5.779   3.250 -1.6811 -0.3921  1.4495
 2231TIP3   OH2 6656   7.079   5.448   4.022  0.2696  0.6321 -0.1505
 2231TIP3    H1 6657   7.027   5.507   4.076  0.9661 -0.2267  1.5253
 2231TIP3    H2 6658   7.152   5.501   3.991  0.2177  0.9719  0.3077
 2232TIP3   OH2 6659   3.134   4.862   0.479  0.7729  0.1650  0.1478
 2232TIP3    H1 6660   3.061   4.924   0.487  0.6199  0.2529 -1.5354
 2232TIP3    H2 6661   3.208   4.907   0.517 -0.2490 -0.3995  3.0450
 2233TIP3   OH2 6662   5.842   4.266   1.905 -0.3188  0.4948 -0.2981
 2233TIP3    H1 6663   5.898   4.329   1.859 -0.7047  2.1754  1.4036
 2233TIP3    H2 6664   5.753   4.295   1.887 -0.5392 -0.0969 -0.1907
 2234TIP3   OH2 6665   2.297   1.671   0.603  0.1754 -0.0031  0.4688
 2234TIP3    H1 6666   2.383   1.632   0.588  0.7298  1.3174  0.1025
 2234TIP3    H2 6667   2.292   1.682   0.698 -0.1027 -1.1680  0.6096
 2235TIP3   OH2 6668   5.194   3.334   2.977  0.1917 -0.2491 -0.1825
 2235TIP3    H1 6669   5.216   3.368   3.064  0.6324  1.3863 -0.8914
 2235TIP3    H2 6670   5.140   3.257   2.994  0.6358 -0.2221  1.5388
 2236TIP3   OH2 6671   5.876   1.811   2.883  0.1162  0.2070  0.2946
 2236TIP3    H1 6672   5.947   1.801   2.819  0.8253 -0.5514  1.1681
 2236TIP3    H2 6673   5.857   1.905   2.882  1.0041  0.4000 -0.1071
 2237TIP3   OH2 6674   4.082   2.127   0.413  0.2641  0.0315  0.0386
 2237TIP3    H1 6675   4.070   2.097   0.503  1.9964  0.5464  0.4937
 2237TIP3    H2 6676   4.003   2.100   0.367 -0.1890 -1.1852  1.4652
 2238TIP3   OH2 6677   4.350   4.113   3.793  0.6316 -0.1126 -0.1780
 2238TIP3    H1 6678   4.380   4.200   3.767 -0.1033 -0.1471 -1.1975
 2238TIP3    H2 6679   4.296   4.083   3.720 -1.3122 -0.3471  1.2546
 2239TIP3   OH2 6680   0.371   3.308   3.732 -0.3051 -0.3493 -0.4631
 2239TIP3    H1 6681   0.431   3.330   3.661  0.6569 -2.8497 -0.5145
 2239TIP3    H2 6682   0.408   3.230   3.772 -1.9761 -0.2568  1.4367
 2240TIP3   OH2 6683   3.772   1.715   0.412 -0.2700 -0.0233  0.2554
 2240TIP3    H1 6684   3.866   1.714   0.433 -0.4437 -0.1825  1.0614
 2240TIP3    H2 6685   3.769   1.738   0.319  0.6128 -0.9572 -0.0255
 2241TIP3   OH2 6686   7.110   4.699   3.049  0.4370 -0.2569 -0.0163
 2241TIP3    H1 6687   7.030   4.750   3.033  0.9384  0.0846 -1.5377
 2241TIP3    H2 6688   7.117   4.696   3.144 -0.3027  1.4204  0.1287
 2242TIP3   OH2 6689   0.712   3.286   4.249 -0.1569  0.4726 -0.1467
 2242TIP3    H1 6690   0.620   3.270   4.269 -0.3513  0.3275 -1.0672
 2242TIP3    H2 6691   0.716   3.380   4.230  0.5890  1.2640  3.2647
 2243TIP3   OH2 6692   1.673   1.181   2.966 -0.5084  0.4159  0.4064
 2243TIP3    H1 6693   1.653   1.275   2.959  0.0375  0.5926  1.1218
 2243TIP3    H2 6694   1.727   1.174   3.045 -1.7000 -0.6929  1.1585
 2244TIP3   OH2 6695   5.740   3.124   2.579  0.1558 -0.6466  0.0313
 2244TIP3    H1 6696   5.812   3.156   2.524 -0.9157 -0.6767 -1.4344
 2244TIP3    H2 6697   5.780   3.056   2.633  1.7072  0.7971  0.8133
 2245TIP3   OH2 6698   1.801   0.192   4.317  0.1242  0.1637 -0.2688
 2245TIP3    H1 6699   1.711   0.172   4.289  0.0164  1.8897 -1.3549
 2245TIP3    H2 6700   1.838   0.108   4.344 -1.8837 -0.5516  0.4265
 2246TIP3   OH2 6701   0.318   0.878   3.821 -0.5924 -0.2455  0.3307
 2246TIP3    H1 6702   0.342   0.830   3.742 -0.9992  1.1413 -0.6745
 2246TIP3    H2 6703   0.366   0.834   3.891 -0.1061 -1.4168 -0.6889
 2247TIP3   OH2 6704   2.922   5.057   0.324 -0.4189 -0.0951 -0.5177
 2247TIP3    H1 6705   2.995   5.097   0.276 -2.6013  1.0476 -3.1634
 2247TIP3    H2 6706   2.935   5.085   0.414  0.6416  2.8686 -1.4619
 2248TIP3   OH2 6707   1.628   5.615   0.701 -0.1211  0.1663 -0.4652
 2248TIP3    H1 6708   1.706   5.568   0.731 -0.1569 -0.8504 -1.8698
 2248TIP3    H2 6709   1.606   5.673   0.774  0.6872 -1.0713  0.8369
 2249TIP3   OH2 6710   3.557   5.920   1.477  0.2793  0.4124  0.5056
 2249TIP3    H1 6711   3.605   5.940   1.557  0.4242 -0.3941  0.6242
 2249TIP3    H2 6712   3.546   6.005   1.434  1.1561  0.7060  0.8421
 2250TIP3   OH2 6713   3.142   6.635   1.902  0.2060  0.0104 -0.1895
 2250TIP3    H1 6714   3.229   6.672   1.887  0.1580  0.5306  0.7482
 2250TIP3    H2 6715   3.094   6.704   1.948 -0.9004 -0.0491 -1.1925
 2251TIP3   OH2 6716   4.450   3.869   0.170 -0.9495  0.0008  0.3413
 2251TIP3    H1 6717   4.491   3.784   0.157  1.5497  1.1377  0.1114
 2251TIP3    H2 6718   4.388   3.877   0.097  1.0515 -0.3889 -1.5228
 2252TIP3   OH2 6719   2.829   0.688   0.062  0.7062 -0.0671  0.2977
 2252TIP3    H1 6720   2.863   0.686  -0.028  1.8144  0.9075  0.6705
 2252TIP3    H2 6721   2.907   0.680   0.117 -0.0970 -2.5764  1.2138
 2253TIP3   OH2 6722   2.648   1.697   2.640 -0.8802  0.1202  0.5735
 2253TIP3    H1 6723   2.660   1.689   2.546 -1.3130 -1.2542  0.6130
 2253TIP3    H2 6724   2.651   1.791   2.657 -0.2941  0.3576 -0.7333
 2254TIP3   OH2 6725   1.802   6.313   2.962 -0.0855  0.1573 -0.3831
 2254TIP3    H1 6726   1.794   6.218   2.961  0.6527  0.0926 -1.5303
 2254TIP3    H2 6727   1.895   6.329   2.977 -0.1591  0.6947 -0.4852
 2255TIP3   OH2 6728   5.368   6.568   2.442  0.1914 -0.1826 -0.0430
 2255TIP3    H1 6729   5.457   6.569   2.480  1.1620  0.6001 -2.2109
 2255TIP3    H2 6730   5.320   6.506   2.497  2.0983 -0.6902  1.1552
 2256TIP3   OH2 6731   3.725   1.693   3.779 -0.0570 -0.6376  0.3855
 2256TIP3    H1 6732   3.717   1.618   3.719 -1.1162  0.0198 -0.3396
 2256TIP3    H2 6733   3.690   1.767   3.729 -1.4124 -0.1451  1.9674
 2257TIP3   OH2 6734   2.803   5.145   1.001  0.4465  0.1316  0.1650
 2257TIP3    H1 6735   2.754   5.107   0.929  0.2610  0.8353 -0.0863
 2257TIP3    H2 6736   2.740   5.149   1.073  0.0175  1.3413 -0.2551
 2258TIP3   OH2 6737   6.270   1.460   1.576 -0.0847 -0.5658 -0.0339
 2258TIP3    H1 6738   6.218   1.540   1.580  0.0341 -0.2598 -2.6866
 2258TIP3    H2 6739   6.248   1.422   1.491  2.2560 -1.6467 -0.2262
 2259TIP3   OH2 6740   1.600   1.524   3.796  0.6060  0.2235  0.1112
 2259TIP3    H1 6741   1.656   1.539   3.719  0.9526 -0.6948  0.1766
 2259TIP3    H2 6742   1.515   1.499   3.758  0.3402  1.2138  0.0187
 2260TIP3   OH2 6743   3.188   1.317   3.732  0.0214  0.1953 -0.5921
 2260TIP3    H1 6744   3.240   1.274   3.801  0.8007  1.7436 -0.1680
 2260TIP3    H2 6745   3.253   1.356   3.674 -0.6542 -0.0272 -1.5221
 2261TIP3   OH2 6746   3.590   0.756   4.628 -0.2522 -0.1007 -0.6784
 2261TIP3    H1 6747   3.647   0.749   4.552 -0.6432  1.0232 -1.0929
 2261TIP3    H2 6748   3.647   0.792   4.697  0.1550 -1.3146 -0.3544
 2262TIP3   OH2 6749   3.872   2.028   3.640 -0.1433  0.5694 -0.4084
 2262TIP3    H1 6750   3.943   1.970   3.669  0.6954  1.6938 -0.1617
 2262TIP3    H2 6751   3.796   1.970   3.632  0.3204 -0.3370  1.1657
 2263TIP3   OH2 6752   3.402   1.974   1.768  0.2497 -0.0173 -0.3705
 2263TIP3    H1 6753   3.342   1.949   1.698 -1.9708 -2.2614  2.1258
 2263TIP3    H2 6754   3.443   1.892   1.796 -0.7102  0.3195  2.3938
 2264TIP3   OH2 6755   3.365   3.057   5.829 -0.0643  0.3161 -0.4038
 2264TIP3    H1 6756   3.293   3.010   5.787  1.7592 -2.1217 -1.0467
 2264TIP3    H2 6757   3.389   3.002   5.903  0.4286  1.6801  0.4825
 2265TIP3   OH2 6758   5.155   4.417   1.460 -0.8101  0.0861  0.3013
 2265TIP3    H1 6759   5.222   4.485   1.460 -2.1869  1.5264 -0.8989
 2265TIP3    H2 6760   5.138   4.401   1.553  1.0319 -0.2022  0.6319
 2266TIP3   OH2 6761   3.404   1.853   0.203  0.2218  0.5303  0.2291
 2266TIP3    H1 6762   3.370   1.782   0.258  0.3991  0.0207 -0.2991
 2266TIP3    H2 6763   3.457   1.808   0.137  1.3185  1.2607  0.5976
 2267TIP3   OH2 6764   0.135   3.157   1.651  0.1702 -0.0912  0.2822
 2267TIP3    H1 6765   0.136   3.229   1.715 -0.9456  1.3891 -1.2823
 2267TIP3    H2 6766   0.062   3.102   1.678 -0.0686  0.3231  0.4918
 2268TIP3   OH2 6767   0.009   0.023   1.196 -0.0681  0.8774 -0.3556
 2268TIP3    H1 6768   0.057  -0.048   1.153 -1.0351  1.0923 -1.8643
 2268TIP3    H2 6769   0.077   0.078   1.235  0.7383 -0.3349 -0.0145
 2269TIP3   OH2 6770   5.409   3.163   0.303 -0.0746 -0.4324  0.5050
 2269TIP3    H1 6771   5.493   3.138   0.265  0.6941  1.0632  1.1116
 2269TIP3    H2 6772   5.364   3.081   0.320  0.6166 -1.2125 -1.2426
 2270TIP3   OH2 6773   4.935   4.180   5.211  0.1350 -0.2228 -0.4090
 2270TIP3    H1 6774   5.021   4.170   5.253  0.1514  1.2314 -0.0291
 2270TIP3    H2 6775   4.874   4.191   5.284 -0.1259  0.3747 -0.7072
 2271TIP3   OH2 6776   5.643   3.046   0.200  0.8497  0.1800 -0.4100
 2271TIP3    H1 6777   5.568   2.996   0.166  2.2160 -1.0073 -1.8050
 2271TIP3    H2 6778   5.709   2.979   0.220  1.6685  1.2306  0.5237
 2272TIP3   OH2 6779   6.327   2.096   1.022  0.1959 -0.2255  0.0748
 2272TIP3    H1 6780   6.238   2.078   0.990  0.2435 -1.6241  0.6339
 2272TIP3    H2 6781   6.351   2.179   0.982 -1.4901  0.3357  0.1721
 2273TIP3   OH2 6782   2.516   0.157   3.074  0.2646  0.0964 -0.3634
 2273TIP3    H1 6783   2.453   0.176   3.004 -2.4539 -1.0028  1.5929
 2273TIP3    H2 6784   2.518   0.062   3.079 -0.1463  0.1342  1.4078
 2274TIP3   OH2 6785   4.928   6.409   5.109 -0.0024  0.0987  0.1483
 2274TIP3    H1 6786   4.854   6.372   5.060 -1.5207  2.4453  0.4942
 2274TIP3    H2 6787   4.978   6.459   5.044  0.3493 -0.1508  0.2256
 2275TIP3   OH2 6788   5.351   5.740   5.382  0.2695 -0.7206 -0.3537
 2275TIP3    H1 6789   5.381   5.649   5.382  0.3881 -0.7370  1.5854
 2275TIP3    H2 6790   5.344   5.764   5.290  1.4623 -2.2910 -0.8858
 2276TIP3   OH2 6791   6.337   3.730   5.238 -0.2913 -0.8728  0.7028
 2276TIP3    H1 6792   6.317   3.721   5.144  0.5149  0.9665  0.3145
 2276TIP3    H2 6793   6.324   3.642   5.273 -0.3688 -1.6727 -1.1813
 2277TIP3   OH2 6794   3.709   3.593   1.229 -0.0594 -0.1778 -0.3431
 2277TIP3    H1 6795   3.629   3.557   1.268  0.5420 -0.9256  0.2624
 2277TIP3    H2 6796   3.741   3.656   1.294 -0.9658  1.3009 -1.2833
 2278TIP3   OH2 6797   3.477   5.387   3.657  0.1394 -0.1924 -0.0149
 2278TIP3    H1 6798   3.512   5.336   3.730  1.2609  1.5271  0.7172
 2278TIP3    H2 6799   3.388   5.353   3.644  0.3424 -1.3302  1.3645
 2279TIP3   OH2 6800   0.080   5.594   5.377 -0.6977 -0.1184 -0.7299
 2279TIP3    H1 6801   0.102   5.571   5.286  2.0424 -0.0274 -0.1506
 2279TIP3    H2 6802   0.058   5.687   5.374 -2.7373 -0.5774 -1.5919
 2280TIP3   OH2 6803   0.048   3.331   4.882  0.0613 -0.7059 -0.3264
 2280TIP3    H1 6804   0.042   3.416   4.838  1.0598 -0.0289  0.7905
 2280TIP3    H2 6805  -0.023   3.280   4.844 -0.2499  0.4485 -1.3927
 2281TIP3   OH2 6806   0.858   1.205   3.038  0.2988 -0.1285  0.4651
 2281TIP3    H1 6807   0.812   1.126   3.064 -0.2450 -0.7544 -2.1368
 2281TIP3    H2 6808   0.789   1.269   3.021  0.6084  0.2198  0.4954
 2282TIP3   OH2 6809   3.794   6.269   0.061 -0.6064 -0.3882  0.3022
 2282TIP3    H1 6810   3.814   6.362   0.071  1.8267 -0.4212 -2.5608
 2282TIP3    H2 6811   3.699   6.265   0.047 -0.7528  1.6603  0.4983
 2283TIP3   OH2 6812   3.657   2.832   1.649 -0.2060 -0.4728  0.3211
 2283TIP3    H1 6813   3.567   2.843   1.618  0.3136 -1.0889 -1.5626
 2283TIP3    H2 6814   3.710   2.865   1.577  1.1087  0.5348  1.6846
 2284TIP3   OH2 6815   6.383   4.537   4.970  0.5534 -0.3560  0.0094
 2284TIP3    H1 6816   6.478   4.542   4.974  0.5910 -1.1445  0.2726
 2284TIP3    H2 6817   6.365   4.472   4.902  0.1872  0.2336 -0.4696
 2285TIP3   OH2 6818   1.981   3.228   1.865 -0.3920 -0.0746 -0.6092
 2285TIP3    H1 6819   1.898   3.198   1.828 -0.1061  0.4717 -1.7039
 2285TIP3    H2 6820   1.972   3.323   1.870 -1.4565 -0.2040  3.2203
 2286TIP3   OH2 6821   0.160   3.280   1.171  0.3719 -0.5278 -0.7531
 2286TIP3    H1 6822   0.211   3.214   1.218 -0.5415 -0.4252  0.4262
 2286TIP3    H2 6823   0.219   3.355   1.163  0.0018  0.1390  1.8870
 2287TIP3   OH2 6824   5.767   0.583   1.610  0.6146  1.0326  0.3360
 2287TIP3    H1 6825   5.779   0.575   1.516 -1.3134  3.3655 -0.2271
 2287TIP3    H2 6826   5.814   0.663   1.633  1.4291  0.2582  1.4653
 2288TIP3   OH2 6827   3.917   2.198   5.832 -0.5264 -0.9604 -0.2641
 2288TIP3    H1 6828   3.905   2.134   5.762 -0.1531 -0.9642 -0.3225
 2288TIP3    H2 6829   3.942   2.279   5.788  2.0421 -1.5445 -0.0069
 2289TIP3   OH2 6830   3.291   2.679   3.108  0.0242 -0.0515  0.2704
 2289TIP3    H1 6831   3.348   2.618   3.061 -0.8083 -0.5627 -0.1038
 2289TIP3    H2 6832   3.351   2.731   3.162  0.9079 -0.1374 -0.5895
 2290TIP3   OH2 6833   3.203   2.037   5.481  0.3503 -0.1793 -0.3062
 2290TIP3    H1 6834   3.225   1.959   5.532 -1.7608 -2.0341 -2.0413
 2290TIP3    H2 6835   3.281   2.052   5.427  1.0995 -0.5407  0.6308
 2291TIP3   OH2 6836   1.856   0.315   5.666 -0.0327  0.2821 -0.1978
 2291TIP3    H1 6837   1.947   0.294   5.686  0.3303  1.3476 -0.6687
 2291TIP3    H2 6838   1.847   0.408   5.687 -0.9317  0.2607 -0.4342
 2292TIP3   OH2 6839   0.073   2.673   2.012 -0.0670  0.9297  0.4318
 2292TIP3    H1 6840   0.035   2.636   2.092 -0.1317 -0.6433 -0.2865
 2292TIP3    H2 6841   0.047   2.765   2.013 -2.9186  0.2145  0.5949
 2293TIP3   OH2 6842   0.446   2.644   1.427 -0.1083  0.7367 -0.5204
 2293TIP3    H1 6843   0.453   2.722   1.483 -1.0321  0.1991  0.3782
 2293TIP3    H2 6844   0.374   2.664   1.367 -1.2760  0.0544  0.6171
 2294TIP3   OH2 6845   5.922   0.179   5.796 -0.2472  0.0420  0.1782
 2294TIP3    H1 6846   5.980   0.233   5.849  1.3772  0.2019 -1.6308
 2294TIP3    H2 6847   5.904   0.232   5.719  0.5261 -1.5326 -1.1556
 2295TIP3   OH2 6848   1.813   4.294   1.888 -1.2740  0.0662 -0.3060
 2295TIP3    H1 6849   1.761   4.225   1.930 -0.5769  0.5895  1.5241
 2295TIP3    H2 6850   1.904   4.271   1.908 -0.9543  0.7470 -0.9189
 2296TIP3   OH2 6851   3.454   4.702   3.419  0.1133  0.3721 -0.0203
 2296TIP3    H1 6852   3.506   4.714   3.498  0.5327  0.5225 -0.3158
 2296TIP3    H2 6853   3.501   4.635   3.369  1.0819  1.8435 -1.1648
 2297TIP3   OH2 6854   2.359   5.634   4.190  0.4124  0.1123 -0.8162
 2297TIP3    H1 6855   2.343   5.618   4.097 -1.9246 -1.5260 -0.2322
 2297TIP3    H2 6856   2.354   5.548   4.231  0.6726  0.8698  0.9095
 2298TIP3   OH2 6857   0.093   4.358   1.189 -0.3823 -0.8717  0.3268
 2298TIP3    H1 6858   0.153   4.325   1.256 -1.0218 -0.4825  1.1040
 2298TIP3    H2 6859   0.006   4.337   1.222 -0.6958 -1.2639 -0.7019
 2299TIP3   OH2 6860   6.971   6.813   0.503  0.2181 -0.2701  0.0513
 2299TIP3    H1 6861   6.962   6.788   0.595  0.9882  1.0733  0.4998
 2299TIP3    H2 6862   7.033   6.749   0.467  0.3320 -0.4702  0.5887
 2300TIP3   OH2 6863   3.561   2.375   3.350 -0.0729 -0.7504 -0.3699
 2300TIP3    H1 6864   3.490   2.326   3.391 -0.4568  0.1880  0.1109
 2300TIP3    H2 6865   3.616   2.404   3.423 -0.9958  1.3019 -0.4227
 2301TIP3   OH2 6866   7.103   1.185   1.963 -0.0710 -0.0159  0.2374
 2301TIP3    H1 6867   7.186   1.187   2.011 -0.0973 -1.6754  0.4020
 2301TIP3    H2 6868   7.038   1.213   2.028  0.3294  1.3696  0.0856
 2302TIP3   OH2 6869   2.152   4.156   0.028 -1.2309 -0.4590  0.4073
 2302TIP3    H1 6870   2.091   4.225   0.001  0.9004  2.0023  1.4908
 2302TIP3    H2 6871   2.132   4.140   0.120 -1.0945 -0.6110  0.4108
 2303TIP3   OH2 6872   4.537   3.284   1.058  0.1580  0.0701 -0.0968
 2303TIP3    H1 6873   4.508   3.230   1.132 -0.3349 -0.9813 -1.0345
 2303TIP3    H2 6874   4.610   3.336   1.094  1.4762 -2.0751  0.5396
 2304TIP3   OH2 6875   0.808   2.636   4.965  0.0126 -0.2700  0.5552
 2304TIP3    H1 6876   0.771   2.700   5.026  0.0896  0.5897 -0.2747
 2304TIP3    H2 6877   0.903   2.644   4.978 -0.0005 -0.7245  0.9482
 2305TIP3   OH2 6878   3.533   5.675   0.139  0.1736  0.0857 -0.0586
 2305TIP3    H1 6879   3.471   5.721   0.083  0.1577 -0.9544 -0.9157
 2305TIP3    H2 6880   3.596   5.634   0.079  0.8375 -0.0865  0.7261
 2306TIP3   OH2 6881   5.966   1.362   4.357 -0.0789  0.5728  0.0647
 2306TIP3    H1 6882   5.963   1.306   4.435  1.5107 -0.7960 -0.7937
 2306TIP3    H2 6883   6.059   1.376   4.341 -0.4302  2.6007 -0.3980
 2307TIP3   OH2 6884   2.199   5.119   1.199  0.0530 -0.6025  1.1046
 2307TIP3    H1 6885   2.282   5.154   1.229  0.4892 -0.4717 -0.1923
 2307TIP3    H2 6886   2.187   5.039   1.249  2.1210 -1.8826 -0.2981
 2308TIP3   OH2 6887   0.226   5.817   1.312  0.1939 -0.1650  0.0308
 2308TIP3    H1 6888   0.239   5.891   1.253  0.0669  1.3568  1.8128
 2308TIP3    H2 6889   0.133   5.796   1.303 -0.6039  2.0781  1.7858
 2309TIP3   OH2 6890   0.974   0.502   2.242  0.1362 -0.5721 -0.3541
 2309TIP3    H1 6891   0.887   0.479   2.276  0.5395  1.5058  2.4222
 2309TIP3    H2 6892   0.975   0.466   2.153 -3.5799 -0.6180 -0.5293
 2310TIP3   OH2 6893   5.204   2.426   2.837 -0.4105  0.0582  0.0202
 2310TIP3    H1 6894   5.150   2.395   2.764 -2.5296 -0.3115  1.6421
 2310TIP3    H2 6895   5.141   2.462   2.899  1.1693 -0.7886  2.2378
 2311TIP3   OH2 6896   2.405   0.894   3.110  0.5151 -1.0653  0.3653
 2311TIP3    H1 6897   2.351   0.944   3.171 -0.4459 -2.8673  1.0688
 2311TIP3    H2 6898   2.494   0.925   3.126 -0.0842  0.6304  0.5287
 2312TIP3   OH2 6899   5.360   6.020   1.517  0.2616  0.0727  0.4874
 2312TIP3    H1 6900   5.273   5.982   1.527  0.2230  0.4961  1.9962
 2312TIP3    H2 6901   5.387   5.995   1.429 -0.6451 -1.6082  0.6445
 2313TIP3   OH2 6902   6.392   2.238   4.804 -0.9672 -0.1719 -0.5012
 2313TIP3    H1 6903   6.301   2.209   4.795 -0.4019 -2.2997  0.2153
 2313TIP3    H2 6904   6.406   2.294   4.727 -2.9161  0.3855 -0.5186
 2314TIP3   OH2 6905   6.337   1.093   3.831  0.0779  0.2857  0.2269
 2314TIP3    H1 6906   6.418   1.064   3.789  0.4229  1.7697 -0.1920
 2314TIP3    H2 6907   6.360   1.104   3.923  0.1395 -0.0459  0.2518
 2315TIP3   OH2 6908   2.248   4.204   4.988  0.5655  0.0436 -0.0173
 2315TIP3    H1 6909   2.332   4.227   4.947  1.1497 -1.7481  0.1144
 2315TIP3    H2 6910   2.263   4.119   5.028 -1.2222 -0.1339  0.3513
 2316TIP3   OH2 6911   0.485   1.134   4.886 -0.3971 -0.5181 -0.3864
 2316TIP3    H1 6912   0.453   1.225   4.881 -3.2933 -1.3736  0.5914
 2316TIP3    H2 6913   0.578   1.143   4.905 -0.8284  2.2965  1.0334
 2317TIP3   OH2 6914   6.554   1.781   2.896 -0.0335 -0.4598 -0.5089
 2317TIP3    H1 6915   6.592   1.825   2.820 -1.9962  1.7098 -0.3099
 2317TIP3    H2 6916   6.615   1.801   2.967  1.4450 -1.9195 -1.2807
 2318TIP3   OH2 6917   1.383   2.235   2.479  0.0096  0.0442  0.1528
 2318TIP3    H1 6918   1.360   2.231   2.386  0.0265 -1.2630  0.1808
 2318TIP3    H2 6919   1.298   2.233   2.524  0.0254 -2.4417  0.2028
 2319TIP3   OH2 6920   6.014   3.700   0.136  0.3021  0.4080 -0.1613
 2319TIP3    H1 6921   5.929   3.662   0.114  0.8625 -0.6979 -0.4676
 2319TIP3    H2 6922   6.003   3.794   0.121 -1.4784  0.5855  1.7474
 2320TIP3   OH2 6923   1.784   1.277   4.819  0.1565 -0.0966  0.2770
 2320TIP3    H1 6924   1.757   1.296   4.909 -0.3242  1.1557 -0.1058
 2320TIP3    H2 6925   1.796   1.364   4.779 -1.6831 -0.5731 -1.4531
 2321TIP3   OH2 6926   6.275   6.345   3.764  0.0739 -0.5430  0.1954
 2321TIP3    H1 6927   6.256   6.290   3.841 -0.6468  0.6690  0.9194
 2321TIP3    H2 6928   6.225   6.305   3.693  0.8583 -1.7646  0.2981
 2322TIP3   OH2 6929   4.660   1.783   3.650 -0.4372 -0.1733  0.1352
 2322TIP3    H1 6930   4.740   1.821   3.687 -0.7883 -0.0012  0.7435
 2322TIP3    H2 6931   4.642   1.837   3.573 -0.4084  0.3068  0.4561
 2323TIP3   OH2 6932   5.947   2.048   1.146 -0.1660 -0.2854 -0.1685
 2323TIP3    H1 6933   5.992   2.074   1.065 -1.3361  0.3871 -0.6335
 2323TIP3    H2 6934   6.011   1.995   1.193  0.5407 -0.7196 -1.5541
 2324TIP3   OH2 6935   2.783   5.368   5.043 -0.0301  0.2540 -0.2414
 2324TIP3    H1 6936   2.799   5.283   5.001  2.4302 -0.6139  2.2104
 2324TIP3    H2 6937   2.849   5.426   5.005  0.1765  0.2769  0.1448
 2325TIP3   OH2 6938   2.088   4.722   0.089 -0.6382  0.0200  0.1823
 2325TIP3    H1 6939   2.147   4.657   0.128  2.3274  2.6111  0.4417
 2325TIP3    H2 6940   2.058   4.774   0.164 -0.8337  0.5629 -0.2717
 2326TIP3   OH2 6941   0.723   1.846   5.852  0.0821 -0.3465  0.0332
 2326TIP3    H1 6942   0.658   1.906   5.890  1.3112  0.5316  0.8115
 2326TIP3    H2 6943   0.713   1.765   5.902 -0.0228 -0.0197  0.5496
 2327TIP3   OH2 6944   2.007   1.800   2.456  0.1568 -0.2252  0.4620
 2327TIP3    H1 6945   1.964   1.814   2.540  0.4593  1.1760  0.3984
 2327TIP3    H2 6946   2.037   1.709   2.460 -0.7061 -0.4920  1.4548
 2328TIP3   OH2 6947   1.648   1.052   3.632  0.0183 -0.4802 -0.3903
 2328TIP3    H1 6948   1.694   0.978   3.673 -0.0667 -0.4292 -0.2017
 2328TIP3    H2 6949   1.567   1.061   3.683  1.3577  1.6317  1.5510
 2329TIP3   OH2 6950   5.837   4.940   5.177  0.1320 -0.2103  0.2906
 2329TIP3    H1 6951   5.817   4.917   5.267  0.9732 -0.6815  0.3577
 2329TIP3    H2 6952   5.931   4.955   5.175 -0.0532  1.1112 -0.2277
 2330TIP3   OH2 6953   3.525   4.041   4.903  1.1800  0.8973 -0.0498
 2330TIP3    H1 6954   3.431   4.036   4.921  0.9999  0.2617 -1.1148
 2330TIP3    H2 6955   3.535   4.125   4.857  1.2437  1.2743  0.6363
 2331TIP3   OH2 6956   3.315   1.490   3.543  0.4368  0.0195 -0.2841
 2331TIP3    H1 6957   3.249   1.527   3.484 -0.0560 -0.0868  0.2001
 2331TIP3    H2 6958   3.398   1.503   3.496  0.1766  0.9129 -0.5295
 2332TIP3   OH2 6959   6.638   2.409   4.351 -0.0617  0.2307 -0.3682
 2332TIP3    H1 6960   6.634   2.476   4.282  1.2269 -0.3130 -0.9932
 2332TIP3    H2 6961   6.719   2.428   4.398  0.7477 -1.3560 -1.0598
 2333TIP3   OH2 6962   1.271   1.302   4.328  0.6462 -0.3839  0.2325
 2333TIP3    H1 6963   1.274   1.298   4.233 -1.5765 -1.0892  0.1350
 2333TIP3    H2 6964   1.347   1.252   4.357  2.4801  1.4415 -1.1063
 2334TIP3   OH2 6965   3.728   5.031   4.088 -0.3370  0.6818  0.3184
 2334TIP3    H1 6966   3.650   5.075   4.055 -0.7629  0.1178  0.5586
 2334TIP3    H2 6967   3.722   5.040   4.183 -0.1241  0.6169  0.3378
 2335TIP3   OH2 6968   0.301   3.729   3.871  0.6510  0.5507  0.3289
 2335TIP3    H1 6969   0.299   3.825   3.863  1.3891  0.5576  0.1683
 2335TIP3    H2 6970   0.329   3.713   3.961  2.0152  0.5053 -0.0743
 2336TIP3   OH2 6971   4.585   2.810   1.727  0.3236  0.6485  0.0520
 2336TIP3    H1 6972   4.527   2.884   1.746  1.3560  1.9075 -1.4391
 2336TIP3    H2 6973   4.525   2.736   1.716 -0.9464  1.7031 -0.5319
 2337TIP3   OH2 6974   5.456   1.199   3.144  1.0686 -0.3161  0.6809
 2337TIP3    H1 6975   5.440   1.294   3.142 -1.0655 -0.5768 -2.7911
 2337TIP3    H2 6976   5.515   1.184   3.070  1.8221 -1.6836  1.5331
 2338TIP3   OH2 6977   3.512   6.411   5.216 -0.5036  0.4396  0.5204
 2338TIP3    H1 6978   3.490   6.500   5.189  1.1209  1.2111  1.5972
 2338TIP3    H2 6979   3.542   6.369   5.136  1.4642  1.7926  0.4740
 2339TIP3   OH2 6980   0.486   2.892   3.634 -0.0297  0.3725  0.4382
 2339TIP3    H1 6981   0.503   2.869   3.726 -1.7437 -0.2183  0.6361
 2339TIP3    H2 6982   0.502   2.986   3.630  0.1411  0.3921  1.3172
 2340TIP3   OH2 6983   5.841   4.204   5.047  0.2322 -0.0674  0.6376
 2340TIP3    H1 6984   5.847   4.147   4.970  1.7187  2.1321 -1.0020
 2340TIP3    H2 6985   5.838   4.143   5.121 -1.4973 -2.3013 -1.0883
 2341TIP3   OH2 6986   3.567   1.266   2.510  0.5152 -0.1547  0.0794
 2341TIP3    H1 6987   3.529   1.181   2.530  1.8154 -0.6689  0.4993
 2341TIP3    H2 6988   3.500   1.330   2.534 -0.8228 -1.0866 -1.0879
 2342TIP3   OH2 6989   1.885   3.474   3.216  0.3375  0.0018 -0.1314
 2342TIP3    H1 6990   1.962   3.492   3.162  0.7296 -0.0415  0.4057
 2342TIP3    H2 6991   1.914   3.408   3.278 -0.4385 -0.8004 -0.5928
 2343TIP3   OH2 6992   0.226   4.812   0.651 -0.2627 -0.1665 -0.2404
 2343TIP3    H1 6993   0.270   4.848   0.728 -0.1084 -0.1918 -0.3169
 2343TIP3    H2 6994   0.250   4.719   0.650 -0.9846 -0.3701  0.1850
 2344TIP3   OH2 6995   5.471   4.628   0.045 -0.0723 -0.2805 -0.0594
 2344TIP3    H1 6996   5.401   4.647  -0.017 -0.1579 -0.2004  0.0600
 2344TIP3    H2 6997   5.529   4.704   0.041  0.9210 -1.0654 -1.3863
 2345TIP3   OH2 6998   1.316   1.779   5.378 -0.6201 -0.5373 -0.2863
 2345TIP3    H1 6999   1.238   1.775   5.434  0.5560  0.2622  1.4867
 2345TIP3    H2 7000   1.305   1.859   5.327 -0.0992  0.6542  1.3773
 2346TIP3   OH2 7001   5.819   4.915   0.545  0.0733 -0.2547  0.7259
 2346TIP3    H1 7002   5.863   4.832   0.564 -0.5887 -0.6828  0.4274
 2346TIP3    H2 7003   5.749   4.920   0.611 -0.3917 -0.3272  0.2436
 2347TIP3   OH2 7004   6.514   1.262   0.857 -0.6105  0.0653  0.2201
 2347TIP3    H1 7005   6.541   1.188   0.912  1.3621  1.0462  0.6517
 2347TIP3    H2 7006   6.448   1.307   0.910  0.7737  0.6140  1.5625
 2348TIP3   OH2 7007   0.744   5.749   1.861  0.1322  0.3251  0.6301
 2348TIP3    H1 7008   0.676   5.759   1.794 -0.2766 -0.3778  0.9322
 2348TIP3    H2 7009   0.699   5.708   1.935  1.1021 -1.1194  0.4582
 2349TIP3   OH2 7010   0.050   4.995   1.722 -0.7383  0.1792  0.3948
 2349TIP3    H1 7011  -0.022   5.052   1.696 -0.5788 -0.1127 -0.7063
 2349TIP3    H2 7012   0.019   4.907   1.703 -0.8134 -0.1044  1.6920
 2350TIP3   OH2 7013   2.354   2.228   2.233 -0.3895 -0.0390 -0.1803
 2350TIP3    H1 7014   2.296   2.182   2.293  1.4190 -1.0102  0.9047
 2350TIP3    H2 7015   2.435   2.178   2.234  0.0707  0.4771 -2.6997
 2351TIP3   OH2 7016   3.015   4.942   0.948  0.2106  0.0227 -0.1336
 2351TIP3    H1 7017   2.958   5.019   0.947  0.7318  0.4275  0.6240
 2351TIP3    H2 7018   2.974   4.881   1.009  0.2616  0.0613 -0.0607
 2352TIP3   OH2 7019   1.684   4.003   4.915  0.1724  0.2489  0.7573
 2352TIP3    H1 7020   1.762   3.964   4.956 -1.2280 -1.2684  2.1010
 2352TIP3    H2 7021   1.692   4.096   4.935  0.9620 -0.0671  2.1025
 2353TIP3   OH2 7022   4.494   1.122   1.247 -0.5987 -0.3726  0.5928
 2353TIP3    H1 7023   4.466   1.051   1.189 -0.1860 -1.1742  1.3502
 2353TIP3    H2 7024   4.570   1.087   1.293 -1.1082  0.1226  1.8576
 2354TIP3   OH2 7025   1.435   4.534   4.708  0.4042 -0.3432 -0.4510
 2354TIP3    H1 7026   1.504   4.495   4.653  0.4981 -3.2223  1.4980
 2354TIP3    H2 7027   1.445   4.490   4.792 -2.4392  0.8079  0.5721
 2355TIP3   OH2 7028   3.182   2.592   0.224  0.3868 -0.5658  0.0338
 2355TIP3    H1 7029   3.169   2.676   0.267 -1.3256 -0.9203  0.2472
 2355TIP3    H2 7030   3.239   2.613   0.149  1.3596  0.4647  1.0084
 2356TIP3   OH2 7031   6.935   5.186   1.192  0.1472  0.1775 -0.2789
 2356TIP3    H1 7032   6.936   5.108   1.248 -0.1168 -1.6645 -2.6551
 2356TIP3    H2 7033   6.844   5.193   1.163  0.3049  1.0180 -0.5753
 2357TIP3   OH2 7034   4.834   4.900   0.294  0.0380 -0.2054  0.4464
 2357TIP3    H1 7035   4.856   4.813   0.328  2.9262 -0.5959 -1.9777
 2357TIP3    H2 7036   4.784   4.883   0.215  0.4515  0.3113  0.0635
 2358TIP3   OH2 7037   0.005   0.931   0.806 -0.0443  0.1012  0.7469
 2358TIP3    H1 7038   0.069   0.964   0.742  0.3972 -2.6186 -0.3611
 2358TIP3    H2 7039   0.005   0.997   0.875  1.9088  1.5637 -0.5111
 2359TIP3   OH2 7040   2.917   1.701   3.914 -0.1357  0.3606 -0.1464
 2359TIP3    H1 7041   2.977   1.763   3.955  0.8030 -0.0504 -0.8622
 2359TIP3    H2 7042   2.971   1.624   3.894 -1.0070 -0.2127 -0.3633
 2360TIP3   OH2 7043   1.557   3.779   1.675 -0.5024 -0.4230 -0.4522
 2360TIP3    H1 7044   1.602   3.842   1.620  0.6459 -1.5743 -0.8912
 2360TIP3    H2 7045   1.490   3.741   1.619 -0.5526 -0.2781 -0.4900
 2361TIP3   OH2 7046   5.354   1.194   2.220 -0.0763  0.2140  0.0320
 2361TIP3    H1 7047   5.336   1.282   2.186 -0.4192 -0.5107 -1.7244
 2361TIP3    H2 7048   5.423   1.160   2.164 -1.0665 -1.2444 -0.3578
 2362TIP3   OH2 7049   3.044   5.452   0.300 -0.3533 -0.3354 -0.4305
 2362TIP3    H1 7050   3.104   5.443   0.226  0.5611  1.0197  0.1114
 2362TIP3    H2 7051   3.075   5.387   0.363  1.3066  1.0747  0.2991
 2363TIP3   OH2 7052   1.386   5.015   5.425 -0.1465  0.2474 -0.1238
 2363TIP3    H1 7053   1.468   5.058   5.401 -0.4844 -0.0029 -1.8524
 2363TIP3    H2 7054   1.358   4.969   5.345 -1.0959 -1.0891  0.9275
 2364TIP3   OH2 7055   1.288   3.429   3.961  0.1262  0.2380 -0.1445
 2364TIP3    H1 7056   1.205   3.388   3.935 -0.0464  0.9078 -0.6826
 2364TIP3    H2 7057   1.354   3.363   3.942 -0.1307  0.2441 -1.1492
 2365TIP3   OH2 7058   5.901   0.785   4.151 -0.2331  0.3546  0.0803
 2365TIP3    H1 7059   5.972   0.823   4.100 -1.1662  1.3821 -0.4772
 2365TIP3    H2 7060   5.871   0.710   4.099 -0.4448  0.7308 -0.3445
 2366TIP3   OH2 7061   6.193   2.708   2.985  0.5143 -0.3928  0.2606
 2366TIP3    H1 7062   6.214   2.618   3.009  0.9574  0.1030  1.9206
 2366TIP3    H2 7063   6.268   2.737   2.932  0.2314 -1.0706 -0.5281
 2367TIP3   OH2 7064   5.412   5.139   2.692 -0.7418  0.4497  0.0847
 2367TIP3    H1 7065   5.376   5.053   2.713  1.9560 -1.1411 -1.3460
 2367TIP3    H2 7066   5.460   5.165   2.771  0.2715 -0.4126 -0.2358
 2368TIP3   OH2 7067   3.864   1.935   5.735  0.0298  0.5584  0.0749
 2368TIP3    H1 7068   3.844   1.895   5.650 -0.0690  1.2885 -0.2551
 2368TIP3    H2 7069   3.804   1.893   5.796  0.5080 -0.4092 -0.0977
 2369TIP3   OH2 7070   5.739   6.382   2.129 -0.2407 -0.4021  0.6414
 2369TIP3    H1 7071   5.676   6.327   2.082  0.2387  0.3954 -0.9989
 2369TIP3    H2 7072   5.824   6.340   2.114  0.6255  2.2181 -3.2539
 2370TIP3   OH2 7073   3.615   2.283   4.406 -0.3337 -0.0473  0.5592
 2370TIP3    H1 7074   3.618   2.188   4.391 -1.5266  0.2896 -2.7812
 2370TIP3    H2 7075   3.704   2.313   4.386 -0.4192 -0.2832 -0.1984
 2371TIP3   OH2 7076   6.774   0.896   5.763  0.6468  0.3198  0.3635
 2371TIP3    H1 7077   6.682   0.869   5.770  0.7678  0.0741  1.1404
 2371TIP3    H2 7078   6.770   0.989   5.740  0.2067  0.2465  0.1336
 2372TIP3   OH2 7079   0.928   2.590   0.902  0.2155 -0.7113 -0.3471
 2372TIP3    H1 7080   0.872   2.553   0.833 -1.0346 -0.7804  0.6778
 2372TIP3    H2 7081   0.918   2.530   0.976  0.4366  0.1238  0.3714
 2373TIP3   OH2 7082   0.364   5.581   0.320 -0.1811  0.3836 -0.0592
 2373TIP3    H1 7083   0.425   5.576   0.247 -1.4728  1.5057 -1.2735
 2373TIP3    H2 7084   0.310   5.658   0.301  0.1018  1.3523  2.6141
 2374TIP3   OH2 7085   1.405   6.388   1.002  0.7326  0.1334  0.6312
 2374TIP3    H1 7086   1.366   6.388   0.915  1.0775  0.2700  0.4760
 2374TIP3    H2 7087   1.497   6.412   0.988  0.6585  0.6970  1.0944
 2375TIP3   OH2 7088   4.807   6.001   3.601 -0.3616  0.8291  0.6152
 2375TIP3    H1 7089   4.831   5.946   3.526  1.0432 -0.0475  1.6654
 2375TIP3    H2 7090   4.881   6.061   3.611 -0.4234  0.7678  1.4652
 2376TIP3   OH2 7091   3.426   4.364   2.097 -0.2280 -0.2793  0.2694
 2376TIP3    H1 7092   3.390   4.424   2.032  0.3514  1.0161  1.1187
 2376TIP3    H2 7093   3.364   4.291   2.098 -2.0433  1.1960  0.6131
 2377TIP3   OH2 7094   5.881   1.564   0.767  0.0520  0.3578  0.4217
 2377TIP3    H1 7095   5.806   1.623   0.766 -0.2651 -0.0316 -0.9263
 2377TIP3    H2 7096   5.952   1.615   0.806 -0.4462  1.3339  0.0852
 2378TIP3   OH2 7097   0.723   2.453   3.307 -0.1206  0.4164 -0.8101
 2378TIP3    H1 7098   0.729   2.358   3.302 -0.0288  0.3144  0.6420
 2378TIP3    H2 7099   0.681   2.470   3.392  1.2455  1.7028 -0.3489
 2379TIP3   OH2 7100   0.498   6.221   2.393  0.4193 -0.1048 -0.2222
 2379TIP3    H1 7101   0.437   6.267   2.335 -1.1879 -0.7749  0.8744
 2379TIP3    H2 7102   0.484   6.261   2.479  1.9107  0.0588 -0.0211
 2380TIP3   OH2 7103   1.498   4.671   0.554 -0.2161 -0.5080 -0.1943
 2380TIP3    H1 7104   1.516   4.692   0.646  0.7722  2.0001 -0.8602
 2380TIP3    H2 7105   1.403   4.680   0.546 -0.2182  0.1285  0.4155
 2381TIP3   OH2 7106   3.901   2.842   0.600  0.2020  0.5938  0.3613
 2381TIP3    H1 7107   3.874   2.763   0.646 -0.0340  1.0509  1.0240
 2381TIP3    H2 7108   3.988   2.862   0.636 -0.2269  1.2757  1.0475
 2382TIP3   OH2 7109   1.230   6.582   3.748 -0.0392  0.5934 -0.1522
 2382TIP3    H1 7110   1.192   6.634   3.678 -2.9137 -0.1454  0.7014
 2382TIP3    H2 7111   1.207   6.492   3.726  2.3882 -0.1020 -0.1620
 2383TIP3   OH2 7112   2.893   5.047   0.050  0.2180  0.0739 -0.0797
 2383TIP3    H1 7113   2.908   5.056   0.145  1.8145 -0.6163 -0.2326
 2383TIP3    H2 7114   2.946   4.971   0.025  0.8955  1.0563 -1.7556
 2384TIP3   OH2 7115   5.898   5.199   2.745  0.6003  0.4411 -0.5014
 2384TIP3    H1 7116   5.934   5.152   2.669 -0.2844 -1.2835  0.0944
 2384TIP3    H2 7117   5.950   5.169   2.819 -0.2782  0.0105 -0.0409
 2385TIP3   OH2 7118   6.956   0.450   0.580  0.1903  0.7699 -0.1197
 2385TIP3    H1 7119   6.999   0.385   0.636 -0.0935  0.5288 -0.1812
 2385TIP3    H2 7120   6.925   0.517   0.641  1.2086  1.2727 -0.1310
 2386TIP3   OH2 7121   6.659   4.429   0.927  0.1791 -0.1501  0.7360
 2386TIP3    H1 7122   6.619   4.421   0.840  2.9569 -0.6057 -0.6119
 2386TIP3    H2 7123   6.594   4.393   0.987 -0.8871 -2.0646 -1.4319
 2387TIP3   OH2 7124   5.530   2.681   5.544  0.7058  0.0259  0.1926
 2387TIP3    H1 7125   5.556   2.628   5.619  0.8799 -1.5925 -0.9530
 2387TIP3    H2 7126   5.588   2.757   5.547  0.7262 -0.0158  1.6480
 2388TIP3   OH2 7127   6.414   5.665   3.398  0.3808  0.3141 -0.0898
 2388TIP3    H1 7128   6.350   5.737   3.398 -0.7502 -0.6374 -0.9541
 2388TIP3    H2 7129   6.430   5.648   3.491 -1.7419 -0.3428  0.2192
 2389TIP3   OH2 7130   5.400   3.870   0.244 -0.1533 -0.6293  0.2000
 2389TIP3    H1 7131   5.331   3.817   0.284 -1.5787  0.8794 -0.1421
 2389TIP3    H2 7132   5.398   3.953   0.293  0.4232 -0.0350 -0.7490
 2390TIP3   OH2 7133   5.536   4.678   0.318  0.6333  0.5793  0.0767
 2390TIP3    H1 7134   5.492   4.659   0.235  0.5885 -2.2137  0.6545
 2390TIP3    H2 7135   5.524   4.772   0.330 -0.8947  0.7593 -2.1915
 2391TIP3   OH2 7136   7.098   3.018   4.614 -0.0754 -0.7099 -1.1867
 2391TIP3    H1 7137   7.075   3.071   4.691  0.7406 -1.8797 -0.0888
 2391TIP3    H2 7138   7.151   3.077   4.560 -2.5003  0.8625 -2.0384
 2392TIP3   OH2 7139   4.335   6.601   3.149 -0.8104  0.2563  0.1779
 2392TIP3    H1 7140   4.374   6.685   3.125 -0.9463  0.5344  0.9143
 2392TIP3    H2 7141   4.341   6.598   3.244 -2.2714  0.1627  0.2967
 2393TIP3   OH2 7142   6.079   6.031   3.267  0.6157  0.1580  0.0974
 2393TIP3    H1 7143   6.038   6.108   3.306 -1.9941 -1.0165 -0.1713
 2393TIP3    H2 7144   6.076   6.049   3.172  1.8007  0.5368  0.1132
 2394TIP3   OH2 7145   5.271   4.588   2.354 -0.0652 -0.3223  0.0116
 2394TIP3    H1 7146   5.247   4.548   2.270 -0.0553  2.0956 -1.2528
 2394TIP3    H2 7147   5.284   4.681   2.333  2.7540 -0.0929  2.1404
 2395TIP3   OH2 7148   1.896   3.646   4.826  0.0636  0.2851 -0.1371
 2395TIP3    H1 7149   1.866   3.663   4.736  1.3370 -0.2654 -0.6810
 2395TIP3    H2 7150   1.977   3.696   4.834 -0.7632  1.5041  1.2185
 2396TIP3   OH2 7151   1.313   1.525   1.858 -0.2896  0.5067 -0.0341
 2396TIP3    H1 7152   1.306   1.495   1.768  1.2621 -1.9939  0.5609
 2396TIP3    H2 7153   1.391   1.581   1.859  1.6774 -2.0403  0.2235
 2397TIP3   OH2 7154   2.279   2.937   1.431  0.3127 -0.2049 -0.4736
 2397TIP3    H1 7155   2.220   3.010   1.413 -0.2709 -0.5075  0.1973
 2397TIP3    H2 7156   2.221   2.862   1.446  0.8997 -0.7618 -0.9368
 2398TIP3   OH2 7157   1.338   5.430   2.365 -0.0837  0.0437  0.2414
 2398TIP3    H1 7158   1.327   5.384   2.448 -0.5365 -0.1387  0.0816
 2398TIP3    H2 7159   1.366   5.362   2.304  0.8434  0.2874  0.3755
 2399TIP3   OH2 7160   6.754   3.566   0.279 -0.1344  0.3705 -0.2972
 2399TIP3    H1 7161   6.695   3.641   0.271 -1.9033 -0.6154  2.0830
 2399TIP3    H2 7162   6.719   3.501   0.218 -1.3711 -0.0801  0.8522
 2400TIP3   OH2 7163   4.366   4.188   3.228 -0.7271  0.6039 -0.2940
 2400TIP3    H1 7164   4.450   4.143   3.219 -0.7655  0.3385  0.5489
 2400TIP3    H2 7165   4.317   4.165   3.149 -0.5668 -0.4692 -0.0914
 2401TIP3   OH2 7166   4.207   3.251   5.409  0.2409 -0.1335  0.5198
 2401TIP3    H1 7167   4.295   3.226   5.379  0.2784  0.9452 -0.3552
 2401TIP3    H2 7168   4.205   3.227   5.501  0.6283 -2.3165  0.0248
 2402TIP3   OH2 7169   4.021   1.216   3.818  0.2926  0.4170 -0.8543
 2402TIP3    H1 7170   4.039   1.256   3.903  0.6229 -0.9987 -0.2163
 2402TIP3    H2 7171   4.013   1.289   3.758  0.3745  1.4430  0.3382
 2403TIP3   OH2 7172   5.971   4.118   1.261 -0.2242 -0.2073  0.5335
 2403TIP3    H1 7173   5.930   4.056   1.321  0.0377  0.8336  1.8614
 2403TIP3    H2 7174   6.036   4.163   1.315  0.4084  0.3971 -0.6960
 2404TIP3   OH2 7175   5.036   3.609   2.054  0.1655 -0.2422 -0.4183
 2404TIP3    H1 7176   4.981   3.655   2.117 -2.4346 -1.7978 -1.3970
 2404TIP3    H2 7177   5.043   3.520   2.090  1.2133 -0.3328 -0.8282
 2405TIP3   OH2 7178   1.086   3.805   1.059  0.4591  0.0472  0.0829
 2405TIP3    H1 7179   1.017   3.772   1.117  1.0570 -0.3584  0.5763
 2405TIP3    H2 7180   1.149   3.734   1.054  0.7744  0.3600 -0.4868
 2406TIP3   OH2 7181   4.363   2.645   2.663  0.2914 -0.0702  0.0897
 2406TIP3    H1 7182   4.383   2.644   2.570  2.5054 -0.7961  0.5099
 2406TIP3    H2 7183   4.308   2.723   2.675 -0.1512 -0.0402 -1.8129
 2407TIP3   OH2 7184   2.307   1.927   3.218 -0.5849  0.2015 -0.2618
 2407TIP3    H1 7185   2.241   1.902   3.282 -0.0298 -1.7081 -0.3633
 2407TIP3    H2 7186   2.370   1.981   3.267 -1.6002  1.0794  0.0997
 2408TIP3   OH2 7187   5.981   3.742   4.607 -0.0827  0.0377  0.0830
 2408TIP3    H1 7188   6.016   3.657   4.634 -0.2321 -0.0071  0.1339
 2408TIP3    H2 7189   6.051   3.781   4.554 -0.8574 -1.0779 -1.8590
 2409TIP3   OH2 7190   1.802   1.007   1.786  0.2550 -0.4146 -0.9565
 2409TIP3    H1 7191   1.786   0.912   1.788 -1.5661 -0.1809  2.3659
 2409TIP3    H2 7192   1.860   1.024   1.860  0.2825  1.1344 -1.2942
 2410TIP3   OH2 7193   4.780   1.392   3.064 -0.0454 -0.4911 -0.2379
 2410TIP3    H1 7194   4.710   1.433   3.116  0.8779  2.1563 -0.9342
 2410TIP3    H2 7195   4.855   1.389   3.123  0.9086  2.2243 -1.1133
 2411TIP3   OH2 7196   5.213   4.854   0.419 -0.0806 -0.0876 -0.3633
 2411TIP3    H1 7197   5.204   4.867   0.513 -0.2897  1.1898 -0.5400
 2411TIP3    H2 7198   5.297   4.894   0.397 -0.9754  1.5227 -1.0214
 2412TIP3   OH2 7199   7.126   3.361   1.223 -0.2180  0.5732 -0.0096
 2412TIP3    H1 7200   7.146   3.407   1.305 -0.4036  0.3475  0.1633
 2412TIP3    H2 7201   7.211   3.329   1.193 -0.2333  0.0977  0.4345
 2413TIP3   OH2 7202   0.266   5.952   5.835 -0.7851  0.3902 -0.2290
 2413TIP3    H1 7203   0.334   5.958   5.769 -2.0521  1.2742 -1.5188
 2413TIP3    H2 7204   0.186   5.935   5.785 -1.4149 -1.5992  1.2986
 2414TIP3   OH2 7205   5.871   1.627   3.115 -0.0149  0.0305  0.6753
 2414TIP3    H1 7206   5.884   1.689   3.043  1.2107 -1.4701 -0.4757
 2414TIP3    H2 7207   5.883   1.679   3.194 -0.0114  1.4557 -0.2256
 2415TIP3   OH2 7208   3.528   2.402   2.647  0.1785 -0.1559 -0.3405
 2415TIP3    H1 7209   3.604   2.371   2.697  1.2253 -1.9942 -2.8564
 2415TIP3    H2 7210   3.557   2.484   2.607 -0.6738  1.3390  1.9107
 2416TIP3   OH2 7211   1.972   1.528   2.165 -0.7534 -0.0147 -0.9131
 2416TIP3    H1 7212   1.978   1.508   2.258 -0.4842 -1.2054 -1.1668
 2416TIP3    H2 7213   2.056   1.570   2.143 -1.9376  3.0782 -0.0351
 2417TIP3   OH2 7214   6.198   0.916   1.110 -0.0637 -0.3163  0.2907
 2417TIP3    H1 7215   6.126   0.979   1.114  0.0610 -0.1970  3.4208
 2417TIP3    H2 7216   6.158   0.833   1.134  0.4846 -0.6492  0.0741
 2418TIP3   OH2 7217   1.709   2.962   2.939 -0.1456 -0.1843 -0.1017
 2418TIP3    H1 7218   1.707   2.870   2.967  1.0174  0.2217  1.4086
 2418TIP3    H2 7219   1.784   3.000   2.985 -0.3535  1.4298 -1.0266
 2419TIP3   OH2 7220   0.204   0.689   1.204  0.2213 -0.3735  0.0678
 2419TIP3    H1 7221   0.130   0.634   1.178  0.0641 -1.3156  2.2922
 2419TIP3    H2 7222   0.164   0.758   1.257  0.7829 -0.0028  0.0135
 2420TIP3   OH2 7223   1.953   4.449   0.348  0.8991 -0.1198 -0.1983
 2420TIP3    H1 7224   1.941   4.362   0.386 -0.2136  0.4474  0.8374
 2420TIP3    H2 7225   1.924   4.440   0.257  2.6778 -1.2713 -0.6849
 2421TIP3   OH2 7226   0.061   4.423   4.630  0.2262 -0.0395 -0.0474
 2421TIP3    H1 7227   0.007   4.451   4.556  0.1865  1.8250  0.6326
 2421TIP3    H2 7228   0.001   4.418   4.704  0.7312  0.9442  0.4622
 2422TIP3   OH2 7229   1.278   0.595   4.877 -0.5149  0.3044 -1.0848
 2422TIP3    H1 7230   1.231   0.662   4.928  0.0888 -0.3383  0.3471
 2422TIP3    H2 7231   1.368   0.599   4.909 -0.4276 -1.0727 -1.1084
 2423TIP3   OH2 7232   5.481   5.795   2.816 -0.1487  0.2763 -0.5004
 2423TIP3    H1 7233   5.439   5.870   2.773 -0.8832 -0.1288 -0.4947
 2423TIP3    H2 7234   5.563   5.784   2.769 -0.3925  0.5994 -1.0142
 2424TIP3   OH2 7235   0.796   4.280   5.071 -0.4708 -0.3321 -0.0579
 2424TIP3    H1 7236   0.708   4.275   5.108 -0.6448 -2.1072 -0.5983
 2424TIP3    H2 7237   0.848   4.221   5.126  0.7406  1.7169  1.0855
 2425TIP3   OH2 7238   6.692   1.354   4.080  0.5726 -0.2284 -0.3032
 2425TIP3    H1 7239   6.691   1.378   3.987 -0.1435  0.5826 -0.1094
 2425TIP3    H2 7240   6.779   1.379   4.110 -0.1528  2.3735 -0.0933
 2426TIP3   OH2 7241   3.928   1.301   5.693 -0.0617 -0.4550  0.2979
 2426TIP3    H1 7242   3.858   1.335   5.637  1.4714  0.1602 -1.3557
 2426TIP3    H2 7243   3.986   1.377   5.707  0.1396 -0.8625  1.8926
 2427TIP3   OH2 7244   2.483   6.371   1.985 -0.2309  0.0050 -0.2798
 2427TIP3    H1 7245   2.442   6.371   2.071 -1.3857 -0.1948 -0.8090
 2427TIP3    H2 7246   2.564   6.420   1.997  0.2970 -1.1458  1.2244
 2428TIP3   OH2 7247   4.122   3.154   0.860  0.5224  0.0068 -0.2464
 2428TIP3    H1 7248   4.176   3.229   0.881 -0.0512 -0.3115  2.7130
 2428TIP3    H2 7249   4.134   3.093   0.933 -3.2164 -0.3638  0.2952
 2429TIP3   OH2 7250   6.862   6.327   0.212  0.2303  0.1575  0.7246
 2429TIP3    H1 7251   6.831   6.311   0.301  2.2071  0.5911  1.5520
 2429TIP3    H2 7252   6.840   6.248   0.164 -1.0590 -0.0041  1.5305
 2430TIP3   OH2 7253   5.328   3.826   2.669 -0.2858 -0.1726  0.4533
 2430TIP3    H1 7254   5.321   3.814   2.575  1.5094 -3.5202  0.6006
 2430TIP3    H2 7255   5.397   3.891   2.680  1.0786 -1.3720 -0.6096
 2431TIP3   OH2 7256   5.588   2.602   5.829  0.4042  0.5474 -0.3669
 2431TIP3    H1 7257   5.541   2.631   5.907  0.4705  1.8541 -0.7745
 2431TIP3    H2 7258   5.681   2.613   5.851  0.4765 -0.4982 -0.1205
 2432TIP3   OH2 7259   6.303   4.810   3.952  0.7507  0.0059 -0.1773
 2432TIP3    H1 7260   6.370   4.825   3.884 -0.7215 -1.5524 -2.1025
 2432TIP3    H2 7261   6.222   4.843   3.913 -0.1322 -0.9171  0.8094
 2433TIP3   OH2 7262   3.512   2.388   4.642 -0.3558 -0.0430  0.4069
 2433TIP3    H1 7263   3.520   2.357   4.551  0.1881  0.6989  0.1822
 2433TIP3    H2 7264   3.596   2.431   4.659 -0.9144  0.9040  0.8418
 2434TIP3   OH2 7265   5.127   0.011   2.171  0.1580  0.7084 -0.1977
 2434TIP3    H1 7266   5.120   0.015   2.075 -4.3915  1.9474 -0.0834
 2434TIP3    H2 7267   5.159   0.097   2.196 -0.0934  0.9284 -0.6079
 2435TIP3   OH2 7268   2.208   4.293   5.570 -0.1667  0.2001  0.3493
 2435TIP3    H1 7269   2.144   4.315   5.637 -0.3639  0.7369 -0.0168
 2435TIP3    H2 7270   2.262   4.372   5.560  0.5714 -0.2489  0.6719
 2436TIP3   OH2 7271   0.304   4.467   2.936  0.0744  0.7026  0.4821
 2436TIP3    H1 7272   0.300   4.516   2.854  1.4948  0.6942  0.3771
 2436TIP3    H2 7273   0.233   4.403   2.930  0.3859  0.4537 -0.9016
 2437TIP3   OH2 7274   3.917   3.098   2.834  0.6767  0.0842  0.0994
 2437TIP3    H1 7275   3.921   3.191   2.857  0.1622  0.1889 -0.2193
 2437TIP3    H2 7276   3.824   3.081   2.820  0.5993 -0.8187  1.5190
 2438TIP3   OH2 7277   6.721   5.791   1.237 -0.6009  0.3245 -0.0471
 2438TIP3    H1 7278   6.716   5.702   1.202  0.5401  0.0941  0.3482
 2438TIP3    H2 7279   6.798   5.829   1.195 -0.1099  0.5614  1.0372
 2439TIP3   OH2 7280   0.666   5.175   2.435 -0.0289  0.3316  0.3170
 2439TIP3    H1 7281   0.638   5.151   2.523  2.2107  0.1171  1.0275
 2439TIP3    H2 7282   0.690   5.267   2.441 -0.6814  0.5537 -0.3072
 2440TIP3   OH2 7283   3.938   2.739   1.003 -0.3405  0.0398  0.3477
 2440TIP3    H1 7284   3.851   2.712   0.974 -0.1235 -1.2373  0.8259
 2440TIP3    H2 7285   3.940   2.834   0.989 -1.4687 -0.0533 -0.5324
 2441TIP3   OH2 7286   1.470   0.274   5.598  0.7353 -0.5347 -0.5086
 2441TIP3    H1 7287   1.450   0.193   5.551 -0.2827 -0.9838  0.6503
 2441TIP3    H2 7288   1.506   0.333   5.531 -3.9703  0.1899 -2.7763
 2442TIP3   OH2 7289   2.386   3.241   5.839 -0.1574  0.1053 -0.3396
 2442TIP3    H1 7290   2.435   3.171   5.796  0.4367 -0.2626  0.9055
 2442TIP3    H2 7291   2.418   3.321   5.797 -0.2684 -0.2970 -1.2236
 2443TIP3   OH2 7292   5.573   5.037   1.072  0.2248 -0.2342  0.3089
 2443TIP3    H1 7293   5.537   4.952   1.049 -0.4956 -0.0554  0.7678
 2443TIP3    H2 7294   5.574   5.039   1.167 -0.5354  0.5894  0.3080
 2444TIP3   OH2 7295   3.093   6.607   4.878  0.1531  0.3326  0.2621
 2444TIP3    H1 7296   3.038   6.534   4.907 -0.4591  0.9697  0.7432
 2444TIP3    H2 7297   3.109   6.590   4.785 -0.2937 -0.2152  0.2828
 2445TIP3   OH2 7298   0.612   1.506   3.808 -0.5733 -0.1556 -0.4894
 2445TIP3    H1 7299   0.543   1.565   3.778 -0.2106  0.5437  0.0240
 2445TIP3    H2 7300   0.628   1.531   3.899  1.7881  1.1227 -1.1706
 2446TIP3   OH2 7301   3.120   5.012   2.989  0.0962  0.7218 -0.3007
 2446TIP3    H1 7302   3.153   5.046   3.073 -1.0280 -0.0888  0.4979
 2446TIP3    H2 7303   3.087   4.924   3.010  0.0967  0.3719 -1.6725
 2447TIP3   OH2 7304   0.387   1.395   0.320  0.0292 -0.4608 -0.5191
 2447TIP3    H1 7305   0.403   1.375   0.413 -1.0087 -1.7840 -0.6014
 2447TIP3    H2 7306   0.465   1.362   0.275 -0.1609 -1.3049 -0.2648
 2448TIP3   OH2 7307   3.490   3.141   1.507 -0.0471  0.0962 -0.4885
 2448TIP3    H1 7308   3.406   3.182   1.488 -0.3629 -1.3375 -2.4329
 2448TIP3    H2 7309   3.496   3.067   1.446  1.5047 -1.3791  1.3072
 2449TIP3   OH2 7310   4.273   1.938   0.161  0.3612 -0.0600 -0.4861
 2449TIP3    H1 7311   4.218   1.980   0.095  1.8175  0.3946 -1.4404
 2449TIP3    H2 7312   4.358   1.925   0.119  1.0080 -0.7635  0.9396
 2450TIP3   OH2 7313   4.752   0.370   2.492  0.0455  0.0059  0.5166
 2450TIP3    H1 7314   4.726   0.462   2.480  1.2720  0.3987  0.7556
 2450TIP3    H2 7315   4.832   0.374   2.544  2.0084 -1.0094 -2.2145
 2451TIP3   OH2 7316   2.569   3.615   2.109  0.2051 -0.5111  0.1063
 2451TIP3    H1 7317   2.573   3.527   2.071 -1.6634 -0.8555  0.6108
 2451TIP3    H2 7318   2.498   3.611   2.173 -1.2291  1.8254 -1.1648
 2452TIP3   OH2 7319   6.512   4.558   4.403 -0.0294 -0.1322  0.0113
 2452TIP3    H1 7320   6.437   4.547   4.461  0.3802 -0.4095  0.4983
 2452TIP3    H2 7321   6.586   4.574   4.461  0.3562 -0.2323 -0.4392
 2453TIP3   OH2 7322   4.369   5.255   5.707 -0.1021 -0.3811  0.4291
 2453TIP3    H1 7323   4.329   5.334   5.672  0.9211  0.2231  0.5804
 2453TIP3    H2 7324   4.309   5.184   5.681 -1.3820  0.5032  0.8924
 2454TIP3   OH2 7325   1.733   3.208   2.042 -0.1608  0.5444 -0.4541
 2454TIP3    H1 7326   1.725   3.195   1.948 -2.2785  1.0103 -0.3837
 2454TIP3    H2 7327   1.781   3.131   2.074 -1.7608 -0.9720 -1.5650
 2455TIP3   OH2 7328   6.315   5.254   2.725  0.4809 -0.5422 -0.6695
 2455TIP3    H1 7329   6.372   5.273   2.800  1.4665 -0.4260 -1.4355
 2455TIP3    H2 7330   6.328   5.327   2.665  2.2187 -2.1541 -2.4120
 2456TIP3   OH2 7331   3.864   4.402   2.823 -0.1121 -0.1322 -0.2513
 2456TIP3    H1 7332   3.834   4.339   2.757 -1.2785 -1.3016  1.3222
 2456TIP3    H2 7333   3.791   4.464   2.830 -0.2467 -0.3532  0.3385
 2457TIP3   OH2 7334   6.699   4.274   0.431  0.1526 -0.1791 -0.5856
 2457TIP3    H1 7335   6.683   4.240   0.519  2.3675 -1.6202 -0.6518
 2457TIP3    H2 7336   6.612   4.285   0.392 -0.7883 -1.8954  0.9181
 2458TIP3   OH2 7337   6.567   0.403   4.359  0.0952 -0.6348 -0.4841
 2458TIP3    H1 7338   6.603   0.361   4.281 -0.1401 -1.5418 -0.1178
 2458TIP3    H2 7339   6.475   0.421   4.337  0.0296 -0.8886 -0.4180
 2459TIP3   OH2 7340   6.155   6.281   0.657 -0.1314  0.3719  0.1501
 2459TIP3    H1 7341   6.212   6.205   0.658  0.3881  0.7553  0.0132
 2459TIP3    H2 7342   6.083   6.258   0.716  0.8747  0.4372  1.4553
 2460TIP3   OH2 7343   5.889   3.933   2.330 -0.0601 -0.3344 -0.0476
 2460TIP3    H1 7344   5.884   4.016   2.282  0.1824 -1.1491 -1.5440
 2460TIP3    H2 7345   5.982   3.915   2.339 -0.0958 -0.0169  1.0712
 2461TIP3   OH2 7346   3.199   0.535   0.967 -0.4013  0.1107  0.0744
 2461TIP3    H1 7347   3.119   0.485   0.979  0.7821 -1.7765  0.5260
 2461TIP3    H2 7348   3.169   0.624   0.947 -2.5743 -0.4644  0.5136
 2462TIP3   OH2 7349   5.330   4.376   2.135  0.1234 -0.0618 -0.2714
 2462TIP3    H1 7350   5.265   4.355   2.067 -1.3516  2.5117  0.2121
 2462TIP3    H2 7351   5.407   4.404   2.086 -1.1937  2.5651 -1.0475
 2463TIP3   OH2 7352   1.753   1.976   4.678  0.1789 -0.2247 -0.1030
 2463TIP3    H1 7353   1.699   1.907   4.639 -0.0824 -0.1508  0.1180
 2463TIP3    H2 7354   1.690   2.045   4.700  0.2992 -0.3134  0.5436
 2464TIP3   OH2 7355   3.673   1.820   1.209 -0.0294  0.5079  0.1225
 2464TIP3    H1 7356   3.644   1.762   1.138  3.1991 -0.3928 -0.6345
 2464TIP3    H2 7357   3.616   1.798   1.283 -2.3199  0.1985 -1.6204
 2465TIP3   OH2 7358   6.482   3.156   1.240  0.6574  0.4655  0.5557
 2465TIP3    H1 7359   6.421   3.146   1.312  0.1438  0.5648  0.1455
 2465TIP3    H2 7360   6.433   3.205   1.173  0.2220 -1.8092 -0.8995
 2466TIP3   OH2 7361   0.362   5.899   3.243 -0.2651  0.2781  0.5835
 2466TIP3    H1 7362   0.302   5.940   3.181  2.5631  0.4948 -2.2778
 2466TIP3    H2 7363   0.318   5.818   3.269 -1.8040  0.4211 -1.3691
 2467TIP3   OH2 7364   2.860   2.958   5.110 -0.3525 -0.3262 -0.0362
 2467TIP3    H1 7365   2.775   2.983   5.145 -0.2779  1.8745 -1.2694
 2467TIP3    H2 7366   2.842   2.935   5.018  0.3346 -0.1902 -0.2101
 2468TIP3   OH2 7367   0.458   2.284   0.812  0.4084  0.6036  0.2319
 2468TIP3    H1 7368   0.468   2.331   0.895  0.3365 -1.6157  1.5758
 2468TIP3    H2 7369   0.546   2.253   0.790 -0.1318 -2.2906  1.7269
 2469TIP3   OH2 7370   2.753   6.355   0.906 -0.1217  0.0646 -0.4400
 2469TIP3    H1 7371   2.689   6.297   0.947 -0.1169  0.7014  0.4834
 2469TIP3    H2 7372   2.738   6.440   0.947  1.9272  0.0260  0.4878
 2470TIP3   OH2 7373   2.797  -0.017   1.817  0.0649 -0.3037  0.3226
 2470TIP3    H1 7374   2.838   0.047   1.759 -0.5361  0.9217  1.2071
 2470TIP3    H2 7375   2.703  -0.001   1.807 -0.0821 -0.8742  0.7487
 2471TIP3   OH2 7376   2.338   3.658   1.261 -0.7935  0.7543 -0.4467
 2471TIP3    H1 7377   2.278   3.718   1.306  0.2393  1.4900 -0.0142
 2471TIP3    H2 7378   2.369   3.599   1.330 -3.0322 -1.4166 -1.1355
 2472TIP3   OH2 7379   5.584   4.209   4.530  0.1655  0.7612  0.3080
 2472TIP3    H1 7380   5.528   4.146   4.576  1.9608 -2.2332 -1.3181
 2472TIP3    H2 7381   5.664   4.213   4.583  1.2056 -0.7045 -1.0430
 2473TIP3   OH2 7382   6.231   1.606   4.952 -0.0972 -0.1510 -0.0055
 2473TIP3    H1 7383   6.285   1.555   5.012 -1.8153 -1.1092  0.7860
 2473TIP3    H2 7384   6.182   1.541   4.902 -0.0918  0.6825 -1.1413
 2474TIP3   OH2 7385   1.255   2.566   3.643 -0.2293  0.4636  0.1209
 2474TIP3    H1 7386   1.226   2.602   3.560 -2.8745  2.0543  1.6104
 2474TIP3    H2 7387   1.307   2.636   3.683 -0.4855  0.4051  0.5657
 2475TIP3   OH2 7388   0.148   5.582   3.594 -0.8669  0.0796 -0.4032
 2475TIP3    H1 7389   0.209   5.524   3.638  0.7181  2.1673  0.3162
 2475TIP3    H2 7390   0.199   5.622   3.523 -2.1001  0.0965 -1.3197
 2476TIP3   OH2 7391   0.487   3.040   1.895 -0.2773  0.2891 -0.1456
 2476TIP3    H1 7392   0.508   3.133   1.894  0.8168  0.0595  0.0115
 2476TIP3    H2 7393   0.419   3.031   1.962  1.1118  0.6871  1.3545
 2477TIP3   OH2 7394   0.623   0.210   0.221  0.4229 -0.8402 -0.4243
 2477TIP3    H1 7395   0.666   0.182   0.140  1.0390 -0.6882 -0.1489
 2477TIP3    H2 7396   0.689   0.199   0.289  0.0388 -0.5752 -0.0034
 2478TIP3   OH2 7397   5.745   1.430   2.043 -0.6313  0.5899 -0.1429
 2478TIP3    H1 7398   5.809   1.488   2.003 -1.7837  1.4742 -0.7730
 2478TIP3    H2 7399   5.780   1.411   2.130 -0.6410  2.9803  0.4440
 2479TIP3   OH2 7400   5.585   6.526   3.967 -0.6725 -0.1983 -0.1598
 2479TIP3    H1 7401   5.576   6.557   3.877  2.5069  0.5675 -0.3407
 2479TIP3    H2 7402   5.584   6.430   3.960 -1.1000 -0.1425 -0.9209
 2480TIP3   OH2 7403   1.191   0.751   2.051  0.4380  0.5517 -0.1461
 2480TIP3    H1 7404   1.220   0.840   2.069 -1.1528  0.9880  0.4031
 2480TIP3    H2 7405   1.199   0.706   2.136 -0.8580  0.7939  0.1120
 2481TIP3   OH2 7406   6.284   6.223   1.361  0.0959 -0.0761  0.1100
 2481TIP3    H1 7407   6.320   6.199   1.447 -0.7671 -0.6395  0.3212
 2481TIP3    H2 7408   6.265   6.140   1.319  1.7386  0.1413 -1.1911
 2482TIP3   OH2 7409   5.546   0.150   0.403  0.4871 -0.0856  0.1455
 2482TIP3    H1 7410   5.486   0.224   0.394  1.3741  0.6022 -0.2763
 2482TIP3    H2 7411   5.597   0.150   0.322  0.2598 -1.3868 -0.0122
 2483TIP3   OH2 7412   3.427   3.976   2.182 -0.2357  0.2563  0.1989
 2483TIP3    H1 7413   3.424   3.887   2.216 -0.2773 -0.0039 -0.4640
 2483TIP3    H2 7414   3.520   3.992   2.165 -0.4699 -0.7946 -2.5237
 2484TIP3   OH2 7415   3.934   1.846   3.019  0.1215  0.3310 -0.1348
 2484TIP3    H1 7416   3.934   1.751   3.006 -1.0992  0.4793 -1.3925
 2484TIP3    H2 7417   4.022   1.865   3.052  0.6080 -1.1458 -0.4828
 2485TIP3   OH2 7418   0.384   3.619   0.310 -0.4682  0.3115 -0.1134
 2485TIP3    H1 7419   0.349   3.585   0.393 -0.5552 -2.2303 -1.0950
 2485TIP3    H2 7420   0.375   3.546   0.249  1.4362  1.4391 -1.8651
 2486TIP3   OH2 7421   2.999   4.168   3.464  0.4635 -0.4516  0.7262
 2486TIP3    H1 7422   2.918   4.134   3.425  0.7451  0.3508 -0.6253
 2486TIP3    H2 7423   2.980   4.260   3.481  0.7179 -0.5339  1.4964
 2487TIP3   OH2 7424   6.653   4.850   1.572 -0.1996  0.2121 -0.0132
 2487TIP3    H1 7425   6.699   4.883   1.648 -0.0756 -0.1943  0.0943
 2487TIP3    H2 7426   6.674   4.912   1.502 -1.0255  1.0761  0.4885
 2488TIP3   OH2 7427   3.033   0.661   0.240  0.0443  0.2467 -0.0104
 2488TIP3    H1 7428   3.103   0.726   0.232  0.9070 -0.6576  0.0694
 2488TIP3    H2 7429   2.987   0.685   0.321  1.8245 -0.6041  1.3180
 2489TIP3   OH2 7430   6.718   1.703   0.681 -0.2059  0.0891  0.1194
 2489TIP3    H1 7431   6.699   1.636   0.747  2.3918 -1.3684 -0.4690
 2489TIP3    H2 7432   6.800   1.743   0.711 -0.5811  1.5120 -0.6923
 2490TIP3   OH2 7433   6.838   4.009   0.493  0.5403  0.1312  0.0643
 2490TIP3    H1 7434   6.780   4.049   0.558  1.3872 -0.9427  1.5380
 2490TIP3    H2 7435   6.842   3.916   0.517  0.5109 -0.4037 -1.8255
 2491TIP3   OH2 7436   5.743   4.266   5.343  0.4120 -0.0398 -0.9036
 2491TIP3    H1 7437   5.746   4.201   5.413 -0.3196  2.1870  1.3368
 2491TIP3    H2 7438   5.831   4.265   5.305  0.8900 -1.1890  0.1729
 2492TIP3   OH2 7439   6.177   4.753   0.773  0.3332 -0.6019 -0.3652
 2492TIP3    H1 7440   6.175   4.781   0.681  1.8701  2.8137  0.4790
 2492TIP3    H2 7441   6.085   4.754   0.800  0.0816  1.6574 -1.0731
 2493TIP3   OH2 7442   1.229   6.390   4.729 -0.0283 -0.4097 -0.5199
 2493TIP3    H1 7443   1.202   6.474   4.767  0.7274 -1.5640  2.9967
 2493TIP3    H2 7444   1.322   6.401   4.711 -0.0428 -0.3213 -0.5413
 2494TIP3   OH2 7445   5.254   5.630   0.737 -0.1205  0.0900  0.3380
 2494TIP3    H1 7446   5.316   5.598   0.802 -1.3682 -1.3683  0.8792
 2494TIP3    H2 7447   5.288   5.599   0.653  0.0457 -0.4806  0.6081
 2495TIP3   OH2 7448   6.405   0.793   3.860 -0.2977  0.2074  0.3520
 2495TIP3    H1 7449   6.460   0.866   3.833  1.3558 -0.6414  1.2435
 2495TIP3    H2 7450   6.319   0.832   3.876  0.0914  1.6222 -0.8372
 2496TIP3   OH2 7451   0.532   2.724   4.902  0.1400 -0.4344 -0.8138
 2496TIP3    H1 7452   0.562   2.810   4.872 -0.1858  0.3144  0.8597
 2496TIP3    H2 7453   0.605   2.665   4.884 -0.0751 -0.0941 -3.0697
 2497TIP3   OH2 7454   3.231   4.818   1.939 -0.0444 -0.4543  0.6922
 2497TIP3    H1 7455   3.154   4.869   1.913 -0.2279 -1.1798 -0.2876
 2497TIP3    H2 7456   3.301   4.882   1.948  0.6624 -0.1835 -3.9532
 2498TIP3   OH2 7457   0.945   6.030   2.391 -0.0499 -0.0348  0.5711
 2498TIP3    H1 7458   1.013   6.082   2.433  1.7164 -1.1567 -0.7946
 2498TIP3    H2 7459   0.953   6.049   2.298 -2.0166  0.2339  0.4076
 2499TIP3   OH2 7460   2.712   2.348   2.270 -0.5798  0.2556  0.8466
 2499TIP3    H1 7461   2.713   2.352   2.174  0.8807 -0.1951  0.8131
 2499TIP3    H2 7462   2.662   2.269   2.290 -0.0808 -0.1802  0.4107
 2500TIP3   OH2 7463   0.103   4.025   0.133 -0.4558  0.3714  0.0701
 2500TIP3    H1 7464   0.056   4.108   0.128 -0.0369  0.9433  3.3926
 2500TIP3    H2 7465   0.053   3.973   0.196 -0.3835 -1.7587 -1.4988
 2501TIP3   OH2 7466   4.877   0.535   1.676 -0.2161 -0.4543  0.1471
 2501TIP3    H1 7467   4.944   0.572   1.734  0.0365  1.6067 -1.3283
 2501TIP3    H2 7468   4.892   0.441   1.678  1.2790 -0.2211  1.5850
 2502TIP3   OH2 7469   4.626   3.485   4.763 -0.1523 -0.1164 -0.2363
 2502TIP3    H1 7470   4.651   3.413   4.822  1.0896 -0.5970 -1.2888
 2502TIP3    H2 7471   4.708   3.510   4.721 -0.4958  2.1991  0.3644
 2503TIP3   OH2 7472   2.881   6.595   0.440  0.4247  0.2910  0.4070
 2503TIP3    H1 7473   2.946   6.527   0.458 -0.7385 -0.5409  1.6088
 2503TIP3    H2 7474   2.858   6.629   0.526 -1.4582 -0.1168  0.1004
 2504TIP3   OH2 7475   7.004   3.673   0.195  0.1066  0.2922  0.2130
 2504TIP3    H1 7476   6.973   3.763   0.198  0.5362  0.4400  0.2512
 2504TIP3    H2 7477   6.943   3.624   0.250  1.5834  1.0682  2.6779
 2505TIP3   OH2 7478   5.187   1.849   1.174 -0.4689  0.4058 -0.4428
 2505TIP3    H1 7479   5.231   1.906   1.110  0.6825  0.0589  0.0097
 2505TIP3    H2 7480   5.152   1.777   1.121  1.2087 -0.3238 -0.6343
 2506TIP3   OH2 7481   2.231   4.036   1.500 -0.6875  0.5901 -0.3401
 2506TIP3    H1 7482   2.206   3.946   1.523  0.0004  0.7328  1.0700
 2506TIP3    H2 7483   2.188   4.091   1.566  1.1204  1.0423  0.5361
 2507TIP3   OH2 7484   3.957   4.829   3.019 -0.7819 -0.4660  0.2363
 2507TIP3    H1 7485   4.044   4.790   3.009 -1.9439 -3.0226 -0.6326
 2507TIP3    H2 7486   3.975   4.922   3.038  2.0946 -0.7754 -0.4668
 2508TIP3   OH2 7487   3.361   5.492   3.366 -0.6459  0.2657  0.0716
 2508TIP3    H1 7488   3.298   5.541   3.312  0.3577  0.4395 -0.9938
 2508TIP3    H2 7489   3.404   5.560   3.419 -0.8133  0.2475  0.2312
 2509TIP3   OH2 7490   4.849   2.307   5.189  0.4420 -0.2412 -0.1336
 2509TIP3    H1 7491   4.829   2.322   5.097  1.1419 -1.3049 -0.4819
 2509TIP3    H2 7492   4.876   2.392   5.222  1.9451 -0.1790 -1.3960
 2510TIP3   OH2 7493   2.719   0.793   2.459  0.9090  0.4964 -0.5711
 2510TIP3    H1 7494   2.767   0.872   2.434 -0.0328  0.9674 -0.9509
 2510TIP3    H2 7495   2.632   0.824   2.483  0.7278 -0.3558 -0.0627
 2511TIP3   OH2 7496   2.585   0.342   3.891 -0.2010 -0.2268  0.6402
 2511TIP3    H1 7497   2.655   0.383   3.942  0.5854 -0.1530 -0.4419
 2511TIP3    H2 7498   2.591   0.249   3.914  1.3085 -0.4734 -0.5703
 2512TIP3   OH2 7499   5.391   3.586   5.491 -0.5573 -0.0474  0.0223
 2512TIP3    H1 7500   5.359   3.532   5.419 -3.0820  1.0365  0.2270
 2512TIP3    H2 7501   5.367   3.538   5.570  2.4495 -1.3723  0.2840
 2513TIP3   OH2 7502   6.465   4.755   5.410 -0.0157  0.2834 -0.5599
 2513TIP3    H1 7503   6.559   4.746   5.427 -0.3215  0.0966  1.2166
 2513TIP3    H2 7504   6.423   4.708   5.482 -1.5218 -3.2434 -3.3943
 2514TIP3   OH2 7505   7.150   3.822   3.301  0.3833 -0.5548  0.1994
 2514TIP3    H1 7506   7.079   3.821   3.237  0.0829  1.2634  0.4474
 2514TIP3    H2 7507   7.145   3.737   3.344 -2.6379  0.0067  1.2184
 2515TIP3   OH2 7508   1.347   6.270   4.151 -0.0511 -0.3497 -0.0168
 2515TIP3    H1 7509   1.318   6.251   4.061  1.5281 -0.8103 -0.4624
 2515TIP3    H2 7510   1.301   6.206   4.205  0.5146 -1.4192 -0.7681
 2516TIP3   OH2 7511   2.791   0.512   4.061 -0.0535  0.1992 -0.4072
 2516TIP3    H1 7512   2.840   0.467   3.992  0.5763  1.4982 -0.8417
 2516TIP3    H2 7513   2.807   0.460   4.139  1.6390  0.2897 -0.6508
 2517TIP3   OH2 7514   6.592   5.066   2.445 -0.0248  0.3229 -0.2703
 2517TIP3    H1 7515   6.593   4.981   2.488 -1.0114  0.9409  1.0207
 2517TIP3    H2 7516   6.669   5.065   2.388  0.7254 -0.9249  0.7287
 2518TIP3   OH2 7517   6.728   6.186   4.965 -0.0212 -0.1561 -0.8629
 2518TIP3    H1 7518   6.749   6.122   4.897 -0.7004 -0.1890 -1.0496
 2518TIP3    H2 7519   6.812   6.223   4.990  0.3621 -0.9757 -0.9013
 2519TIP3   OH2 7520   0.165   2.775   5.326  0.0810 -0.2201 -0.3666
 2519TIP3    H1 7521   0.180   2.718   5.401 -0.4695 -0.2461 -0.2721
 2519TIP3    H2 7522   0.222   2.850   5.341 -0.4118  0.0271  0.3585
 2520TIP3   OH2 7523   0.287   5.491   2.947  0.1456  0.0965  0.5932
 2520TIP3    H1 7524   0.255   5.403   2.967  1.0686 -0.2089  0.7497
 2520TIP3    H2 7525   0.322   5.523   3.030  1.2521 -0.0143  0.1865
 2521TIP3   OH2 7526   5.684   1.531   2.489 -0.3247 -0.2795  0.0492
 2521TIP3    H1 7527   5.691   1.621   2.521  1.1445 -0.0732 -0.8015
 2521TIP3    H2 7528   5.709   1.477   2.564 -0.5659  0.0360  0.3635
 2522TIP3   OH2 7529   1.824   5.834   2.496 -0.0142 -0.2726 -0.3646
 2522TIP3    H1 7530   1.782   5.878   2.569  0.9776 -1.2016  0.7927
 2522TIP3    H2 7531   1.828   5.901   2.427 -2.5492  0.1063 -0.2464
 2523TIP3   OH2 7532   3.308   2.530   5.447  0.1409 -0.5552  0.6053
 2523TIP3    H1 7533   3.319   2.624   5.453 -2.3935 -0.2057  0.9967
 2523TIP3    H2 7534   3.374   2.501   5.385 -0.3004  1.7837 -1.0575
 2524TIP3   OH2 7535   5.267   3.756   2.077 -0.1109  0.1325 -0.3760
 2524TIP3    H1 7536   5.345   3.700   2.080  0.6879  1.2268  1.6374
 2524TIP3    H2 7537   5.193   3.695   2.078  0.7246 -0.9634  1.6796
 2525TIP3   OH2 7538   2.903   1.595   0.069  0.3706  0.4537 -0.1546
 2525TIP3    H1 7539   2.830   1.640   0.112 -0.0752  0.3618 -0.8165
 2525TIP3    H2 7540   2.974   1.659   0.071  0.2598  0.5628  0.4448
 2526TIP3   OH2 7541   5.729   6.128   4.453 -0.2427 -0.6461  0.6450
 2526TIP3    H1 7542   5.795   6.194   4.434 -0.8951  0.2545  1.4289
 2526TIP3    H2 7543   5.778   6.055   4.491  0.5394 -0.8227 -0.6494
 2527TIP3   OH2 7544   6.489   0.529   3.160  0.3565 -0.0655 -0.2240
 2527TIP3    H1 7545   6.574   0.564   3.187  1.1027 -1.6056 -0.4640
 2527TIP3    H2 7546   6.511   0.456   3.102 -1.1057 -1.1063  0.4768
 2528TIP3   OH2 7547   3.838   5.233   4.974 -0.5176  0.5368  0.2009
 2528TIP3    H1 7548   3.903   5.169   5.002 -1.8512 -1.5042 -1.0777
 2528TIP3    H2 7549   3.790   5.255   5.053  0.0882  0.1136  0.6968
 2529TIP3   OH2 7550   3.740   2.482   2.167  0.2312  0.4667 -0.3183
 2529TIP3    H1 7551   3.670   2.537   2.202  0.4367  0.0773  0.7563
 2529TIP3    H2 7552   3.752   2.414   2.233  1.0606  0.0494 -0.8807
 2530TIP3   OH2 7553   2.825   1.733   0.973  0.1624 -0.3174 -0.4527
 2530TIP3    H1 7554   2.757   1.700   1.031 -1.0500 -0.4090 -1.8571
 2530TIP3    H2 7555   2.835   1.825   0.997 -1.3303  0.0118 -0.9900
 2531TIP3   OH2 7556   5.712   3.271   0.334 -0.2968  0.2741  0.2103
 2531TIP3    H1 7557   5.650   3.342   0.318  1.2983  1.4369 -1.1371
 2531TIP3    H2 7558   5.697   3.210   0.261 -0.6466 -0.0549  0.5496
 2532TIP3   OH2 7559   1.928   4.579   3.598  0.6956 -0.0053 -0.2606
 2532TIP3    H1 7560   1.908   4.634   3.522  1.9340 -0.0326 -0.6362
 2532TIP3    H2 7561   1.972   4.638   3.659  0.3038 -0.1379  0.1503
 2533TIP3   OH2 7562   2.140   3.583   3.373 -0.5274 -0.2443 -0.4187
 2533TIP3    H1 7563   2.116   3.674   3.392  0.0062 -0.0447 -0.6897
 2533TIP3    H2 7564   2.188   3.554   3.450 -1.3655 -0.5567  0.0058
 2534TIP3   OH2 7565   6.224   5.598   0.910 -0.1897 -0.2118  0.2520
 2534TIP3    H1 7566   6.178   5.649   0.843  0.5981 -0.4828 -0.5176
 2534TIP3    H2 7567   6.162   5.592   0.983 -0.3696  1.6508  0.2892
 2535TIP3   OH2 7568   4.376   2.831   0.795 -0.2260 -0.0730 -0.4246
 2535TIP3    H1 7569   4.384   2.801   0.885 -1.9236  0.3584 -0.1039
 2535TIP3    H2 7570   4.392   2.752   0.742 -2.2335 -1.0519  0.3408
 2536TIP3   OH2 7571   7.065   3.347   5.667  0.4517  0.1675  0.1435
 2536TIP3    H1 7572   7.129   3.401   5.712 -0.2355  0.6549  0.5529
 2536TIP3    H2 7573   7.096   3.343   5.576  0.9384  0.5800  0.2918
 2537TIP3   OH2 7574   3.241   6.666   0.201  0.3022  0.1877  0.1368
 2537TIP3    H1 7575   3.194   6.734   0.249  2.0624  1.5510  0.0593
 2537TIP3    H2 7576   3.273   6.710   0.122  1.3697 -0.7667  0.0023
 2538TIP3   OH2 7577   5.081   5.839   4.196 -0.2001  0.4728 -0.1050
 2538TIP3    H1 7578   5.079   5.758   4.248 -0.9931  0.6797  0.2078
 2538TIP3    H2 7579   4.993   5.846   4.159  0.0011  0.9510 -0.5042
 2539TIP3   OH2 7580   5.936   1.216   5.483 -0.3435  1.1627  0.2515
 2539TIP3    H1 7581   6.029   1.193   5.479 -0.4446  0.8520 -0.8059
 2539TIP3    H2 7582   5.936   1.306   5.516  0.6933  2.7189 -3.3532
 2540TIP3   OH2 7583   7.236   1.283   2.472  0.2016  0.8633 -0.5146
 2540TIP3    H1 7584   7.149   1.315   2.449 -0.3981 -1.4409 -1.7743
 2540TIP3    H2 7585   7.226   1.247   2.560 -0.2993  0.0482 -0.8993
 2541TIP3   OH2 7586   2.994   0.469   3.059 -0.2117 -0.1114 -0.3287
 2541TIP3    H1 7587   2.962   0.551   3.019 -0.3515  0.8509  1.6532
 2541TIP3    H2 7588   2.923   0.407   3.045 -0.4751  0.3446 -1.0943
 2542TIP3   OH2 7589   6.588   1.580   2.701  0.5232  0.0677  0.4236
 2542TIP3    H1 7590   6.593   1.652   2.639 -0.4500 -0.9287 -0.8739
 2542TIP3    H2 7591   6.653   1.601   2.769 -0.3937  2.6101  0.6070
 2543TIP3   OH2 7592   0.786   2.215   2.640  0.1799  0.0101 -0.4797
 2543TIP3    H1 7593   0.827   2.156   2.577 -2.6485 -1.2125 -1.3272
 2543TIP3    H2 7594   0.774   2.161   2.718  0.1323  0.3477 -0.2526
 2544TIP3   OH2 7595   5.862   6.294   1.060  0.6271 -0.0546 -0.9576
 2544TIP3    H1 7596   5.867   6.361   0.991 -1.3675  0.9811 -0.1738
 2544TIP3    H2 7597   5.935   6.314   1.118  0.7341  0.7343 -1.3466
 2545TIP3   OH2 7598   7.195   3.907   1.577  0.5394  0.2221 -0.0716
 2545TIP3    H1 7599   7.159   3.982   1.625 -0.2261  0.4861 -1.0120
 2545TIP3    H2 7600   7.146   3.907   1.494 -0.0690 -1.8204  0.2321
 2546TIP3   OH2 7601   0.984   6.027   4.995 -0.1471 -0.7427 -0.0211
 2546TIP3    H1 7602   0.920   5.957   4.983  0.1424 -0.9783 -0.2177
 2546TIP3    H2 7603   0.932   6.104   5.020 -0.3359 -1.4289  1.8327
 2547TIP3   OH2 7604   3.432   6.207   1.974 -0.2147  0.3491  0.4028
 2547TIP3    H1 7605   3.421   6.298   2.000 -1.0438 -0.1597  1.9480
 2547TIP3    H2 7606   3.435   6.209   1.879 -1.4954  1.8566  0.3695
 2548TIP3   OH2 7607   0.052   3.532   5.718 -0.0067 -0.1232  0.0371
 2548TIP3    H1 7608   0.035   3.611   5.667  2.4743 -0.8445 -2.1641
 2548TIP3    H2 7609   0.069   3.563   5.806 -3.3836  1.3009  0.3550
 2549TIP3   OH2 7610   6.626   1.821   3.571  0.3476 -0.3471  0.6523
 2549TIP3    H1 7611   6.646   1.817   3.477  1.1360 -2.5799  0.8489
 2549TIP3    H2 7612   6.649   1.910   3.596  1.0372  0.0192 -1.0946
 2550TIP3   OH2 7613   6.232   1.982   1.636  0.4831 -0.2449 -0.3207
 2550TIP3    H1 7614   6.249   2.031   1.717 -0.7804  0.5662 -0.5167
 2550TIP3    H2 7615   6.145   2.011   1.609 -0.1967 -2.4093 -0.6110
 2551TIP3   OH2 7616   0.231   6.016   5.278  0.0742  0.3669 -0.6750
 2551TIP3    H1 7617   0.279   5.951   5.227 -0.1313 -0.6193  0.3305
 2551TIP3    H2 7618   0.296   6.083   5.300  0.3918  0.2955 -1.3728
 2552TIP3   OH2 7619   4.425   0.917   0.159  0.0515 -0.7790  0.7218
 2552TIP3    H1 7620   4.335   0.929   0.128 -0.8431 -1.1658  2.9655
 2552TIP3    H2 7621   4.446   0.826   0.140  0.0998 -0.6131 -0.0578
 2553TIP3   OH2 7622   5.858   3.670   0.369 -0.0072  0.4962 -0.5954
 2553TIP3    H1 7623   5.915   3.670   0.292  0.2355  0.2609 -0.4163
 2553TIP3    H2 7624   5.912   3.708   0.438 -0.3742  1.1345 -0.6493
 2554TIP3   OH2 7625   6.503   4.881   4.131 -0.3269 -0.0701  0.0888
 2554TIP3    H1 7626   6.429   4.852   4.079 -0.2092  0.2827 -0.2843
 2554TIP3    H2 7627   6.468   4.954   4.183  0.2770  1.6358 -1.7520
 2555TIP3   OH2 7628   1.648   6.314   0.386  0.8200  0.0153 -0.2558
 2555TIP3    H1 7629   1.634   6.357   0.470 -0.3380 -1.0749  0.1240
 2555TIP3    H2 7630   1.573   6.340   0.332  1.1957  0.1450 -0.7263
 2556TIP3   OH2 7631   3.007   6.057   1.343  0.6763  0.1317  0.1414
 2556TIP3    H1 7632   3.003   6.128   1.279  0.2481 -0.9097 -1.0449
 2556TIP3    H2 7633   3.078   6.001   1.312 -0.6502 -1.2951 -0.4448
 2557TIP3   OH2 7634   2.466   3.670   2.922 -0.5765 -0.2878  0.0685
 2557TIP3    H1 7635   2.432   3.732   2.986  0.2290  0.0219  0.2082
 2557TIP3    H2 7636   2.404   3.675   2.849 -0.4806  0.7415  0.0471
 2558TIP3   OH2 7637   4.785   5.538   1.799 -0.0718  0.2207 -0.0603
 2558TIP3    H1 7638   4.709   5.593   1.818  0.3787  0.7350  0.2792
 2558TIP3    H2 7639   4.861   5.592   1.823  0.4004 -0.2976 -0.3611
 2559TIP3   OH2 7640   0.448   6.122   0.042  0.2683  0.1890  0.1228
 2559TIP3    H1 7641   0.395   6.170   0.105 -0.7317  1.5098 -1.6169
 2559TIP3    H2 7642   0.518   6.083   0.093 -1.6752 -0.6108  2.3618
 2560TIP3   OH2 7643   6.101   0.444   0.175 -0.5551 -0.0055 -0.3577
 2560TIP3    H1 7644   6.075   0.461   0.085 -1.1996 -1.6718 -0.5118
 2560TIP3    H2 7645   6.087   0.350   0.187 -0.1735  0.1291  1.3800
 2561TIP3   OH2 7646   0.341   4.353   4.043 -0.0247  0.2717  0.3523
 2561TIP3    H1 7647   0.367   4.344   4.134 -0.6556 -0.6319  0.4566
 2561TIP3    H2 7648   0.304   4.441   4.037  0.0383  0.3411  0.9644
 2562TIP3   OH2 7649   3.707   5.270   5.223 -0.1737  0.2345 -0.2436
 2562TIP3    H1 7650   3.670   5.206   5.284 -1.3008  0.2405 -0.8919
 2562TIP3    H2 7651   3.788   5.299   5.265 -1.5351  1.2046  1.8928
 2563TIP3   OH2 7652   2.514   1.400   3.749 -0.3627  0.1550  0.1815
 2563TIP3    H1 7653   2.441   1.455   3.721  0.1514  0.8343  0.1354
 2563TIP3    H2 7654   2.527   1.423   3.841 -0.9370 -0.8050  0.5082
 2564TIP3   OH2 7655   2.757   6.024   1.735  0.4216 -0.2015  0.2010
 2564TIP3    H1 7656   2.669   6.045   1.767  0.3425  1.2870 -0.8863
 2564TIP3    H2 7657   2.743   5.959   1.666  0.0981  0.6205 -0.5098
 2565TIP3   OH2 7658   0.716   2.229   0.737  0.2302 -0.4366 -0.0369
 2565TIP3    H1 7659   0.751   2.164   0.676 -2.0040 -0.7526 -1.0648
 2565TIP3    H2 7660   0.761   2.210   0.820  0.8605 -2.1900 -0.7276
 2566TIP3   OH2 7661   4.692   0.463   3.039 -0.3218  0.3048  0.5189
 2566TIP3    H1 7662   4.642   0.408   3.100 -1.8032  2.1552  1.0776
 2566TIP3    H2 7663   4.691   0.550   3.079  1.9134  0.7873 -0.3422
 2567TIP3   OH2 7664   2.950   3.430   1.063 -0.1853  0.1270  0.4655
 2567TIP3    H1 7665   2.892   3.405   1.134  0.0275 -3.3877 -0.3769
 2567TIP3    H2 7666   2.992   3.348   1.037  0.7513  1.4758 -2.8077
 2568TIP3   OH2 7667   6.192   6.244   2.407 -0.4594  0.4414  0.3400
 2568TIP3    H1 7668   6.234   6.260   2.323  1.4954  0.9899  1.3684
 2568TIP3    H2 7669   6.223   6.157   2.432  0.1992  0.9059  1.1709
 2569TIP3   OH2 7670   6.876   5.909   3.011  0.1848 -0.1542 -0.2677
 2569TIP3    H1 7671   6.924   5.828   3.031 -0.0386 -0.2779 -0.2340
 2569TIP3    H2 7672   6.945   5.973   2.991  0.3704 -0.2983 -0.0963
 2570TIP3   OH2 7673   5.247   0.283   5.322 -0.4473 -0.1209  0.2010
 2570TIP3    H1 7674   5.262   0.343   5.395  1.2677  0.1573 -0.3240
 2570TIP3    H2 7675   5.232   0.198   5.363  1.6868 -0.2079  0.9174
 2571TIP3   OH2 7676   2.366   0.883   0.969  1.1519 -0.5370 -0.1277
 2571TIP3    H1 7677   2.419   0.806   0.947  1.2981 -0.3466 -0.4572
 2571TIP3    H2 7678   2.426   0.941   1.016  1.3337 -0.1838 -0.7790
 2572TIP3   OH2 7679   3.756   0.410   4.535  0.2522  0.1069  0.0787
 2572TIP3    H1 7680   3.797   0.444   4.614  2.2732 -0.4521 -0.6434
 2572TIP3    H2 7681   3.818   0.344   4.503 -1.3660 -0.9645 -0.9975
 2573TIP3   OH2 7682   4.527   6.595   1.605 -0.0234 -0.1209  0.1739
 2573TIP3    H1 7683   4.499   6.678   1.568 -1.2603  0.5987  2.5453
 2573TIP3    H2 7684   4.490   6.529   1.547  0.3834  0.9472 -1.3447
 2574TIP3   OH2 7685   1.181   5.164   0.948 -0.0307 -0.3140  0.3925
 2574TIP3    H1 7686   1.128   5.094   0.908  0.2415 -0.1196 -0.3246
 2574TIP3    H2 7687   1.271   5.140   0.929  0.0219  1.2870 -1.7307
 2575TIP3   OH2 7688   2.130   0.532   5.791  0.8527 -0.2197  0.2739
 2575TIP3    H1 7689   2.083   0.472   5.733  0.1656  0.3433  0.2463
 2575TIP3    H2 7690   2.071   0.606   5.803  1.8430  0.6495 -0.0117
 2576TIP3   OH2 7691   4.932   3.726   0.928 -0.0999 -0.8909 -0.1255
 2576TIP3    H1 7692   4.899   3.685   0.848  1.0898 -1.4952 -0.3449
 2576TIP3    H2 7693   5.023   3.750   0.906  0.6787 -2.2392  1.4185
 2577TIP3   OH2 7694   4.111   1.217   1.459 -0.5062 -0.1203  0.2235
 2577TIP3    H1 7695   4.131   1.305   1.492  2.0110  0.5729 -2.7094
 2577TIP3    H2 7696   4.188   1.165   1.479 -0.3988 -0.6079 -1.3406
 2578TIP3   OH2 7697   2.271   5.238   2.231  0.1181 -0.7003 -0.6186
 2578TIP3    H1 7698   2.232   5.259   2.316 -0.0191  3.2687 -1.4756
 2578TIP3    H2 7699   2.354   5.195   2.252 -0.1876 -0.3443  1.5036
 2579TIP3   OH2 7700   5.477   1.253   1.711  0.4674 -0.2171  0.0718
 2579TIP3    H1 7701   5.393   1.234   1.751  0.6895 -0.5829  0.3645
 2579TIP3    H2 7702   5.461   1.331   1.658 -0.1373 -0.4832 -0.1444
 2580TIP3   OH2 7703   5.041   0.350   0.511 -0.1594 -0.4998 -0.2108
 2580TIP3    H1 7704   5.093   0.270   0.512 -0.0395 -0.4914  3.1559
 2580TIP3    H2 7705   4.951   0.321   0.524 -0.2103 -0.1562  0.2378
 2581TIP3   OH2 7706   6.966   1.819   1.297  0.2847  0.2193  0.4014
 2581TIP3    H1 7707   7.019   1.867   1.361 -1.9866  1.8284  1.1963
 2581TIP3    H2 7708   6.920   1.754   1.350  0.2472 -0.0884 -0.0129
 2582TIP3   OH2 7709   2.810   0.277   2.989 -0.2902  0.3019 -0.7782
 2582TIP3    H1 7710   2.882   0.222   2.957  0.6696  1.8347 -1.3393
 2582TIP3    H2 7711   2.734   0.248   2.938 -0.0779 -1.2375 -0.2759
 2583TIP3   OH2 7712   4.341  -0.019   2.446  0.1362  0.5152  0.6969
 2583TIP3    H1 7713   4.319   0.074   2.439  0.0900  0.4977  0.6152
 2583TIP3    H2 7714   4.433  -0.024   2.419  0.3417  0.6351  1.3347
 2584TIP3   OH2 7715   0.759   3.985   1.529  0.0846  0.1979 -0.1120
 2584TIP3    H1 7716   0.699   3.918   1.497  1.2345 -0.7103 -0.4676
 2584TIP3    H2 7717   0.839   3.937   1.550  1.0597  1.4897 -0.7003
 2585TIP3   OH2 7718   3.506   0.669   2.076 -0.2292  0.2523 -0.3403
 2585TIP3    H1 7719   3.468   0.745   2.032 -1.0329  0.1175  0.1026
 2585TIP3    H2 7720   3.539   0.704   2.159 -0.4248  0.1555 -0.2215
 2586TIP3   OH2 7721   3.907   6.618   2.974 -0.0052  0.1570  0.7751
 2586TIP3    H1 7722   3.879   6.569   3.051 -2.4029 -1.1085 -0.7683
 2586TIP3    H2 7723   3.827   6.657   2.939  0.8941  0.2537 -1.3443
 2587TIP3   OH2 7724   6.028   1.887   0.677  0.7656 -0.4855 -0.1886
 2587TIP3    H1 7725   6.045   1.832   0.754 -0.8173 -1.1591 -0.2838
 2587TIP3    H2 7726   6.079   1.846   0.607  0.7672 -0.9607  0.0834
 2588TIP3   OH2 7727   5.724   4.027   0.039 -0.1591 -0.4580  0.5642
 2588TIP3    H1 7728   5.731   4.103  -0.019 -0.9572 -0.5181  0.3743
 2588TIP3    H2 7729   5.815   4.003   0.058  0.1377 -0.5956 -0.8795
 2589TIP3   OH2 7730   3.546   1.117   4.135 -0.2859  0.3433  0.2793
 2589TIP3    H1 7731   3.623   1.170   4.112  0.5674 -1.2087 -0.5668
 2589TIP3    H2 7732   3.575   1.066   4.211 -0.8334  0.5003  0.5962
 2590TIP3   OH2 7733   6.694   3.583   0.777  0.0168 -0.0127  0.1473
 2590TIP3    H1 7734   6.766   3.525   0.803 -1.2563 -1.1625  1.2599
 2590TIP3    H2 7735   6.702   3.659   0.836 -0.1972 -0.5473  0.8789
 2591TIP3   OH2 7736   5.057   2.333   2.605  0.0790 -0.1978  0.1670
 2591TIP3    H1 7737   5.076   2.338   2.512 -0.8283  2.6708  0.0315
 2591TIP3    H2 7738   4.998   2.258   2.614  0.0738 -0.4406 -1.5877
 2592TIP3   OH2 7739   0.095   0.330   4.025 -0.1334 -1.0842  0.0778
 2592TIP3    H1 7740   0.142   0.413   4.019  0.1526 -1.3094 -1.1097
 2592TIP3    H2 7741   0.041   0.327   3.946 -0.2959 -1.9374  0.2091
 2593TIP3   OH2 7742   4.102   3.573   2.654 -0.1226  0.0773 -0.6390
 2593TIP3    H1 7743   4.185   3.619   2.663  0.0019 -0.0979 -0.8504
 2593TIP3    H2 7744   4.124   3.495   2.602 -0.5266  0.3339 -1.2065
 2594TIP3   OH2 7745   5.588   1.165   5.531  0.2791  0.4237 -0.7084
 2594TIP3    H1 7746   5.556   1.107   5.462  2.2771 -0.7049 -0.7713
 2594TIP3    H2 7747   5.602   1.249   5.487 -1.2592  0.5876 -0.9512
 2595TIP3   OH2 7748   1.665   1.080   4.087 -0.3864 -0.9723 -0.0455
 2595TIP3    H1 7749   1.672   1.098   4.181  0.6433  0.6599 -0.3800
 2595TIP3    H2 7750   1.586   1.127   4.060  0.3965  0.2757 -0.2974
 2596TIP3   OH2 7751   4.666   3.331   1.834  0.0812 -0.5071  0.1498
 2596TIP3    H1 7752   4.621   3.325   1.750  0.5830 -1.9405 -0.0527
 2596TIP3    H2 7753   4.727   3.404   1.824 -2.4200  1.7909  0.5965
 2597TIP3   OH2 7754   0.752   5.742   2.608  0.3112  0.6283  0.4502
 2597TIP3    H1 7755   0.731   5.825   2.651  1.7162  1.3959 -0.2698
 2597TIP3    H2 7756   0.848   5.741   2.603  0.4097 -1.5519  1.4062
 2598TIP3   OH2 7757   2.247   6.450   3.868  0.0168  0.0468  0.3925
 2598TIP3    H1 7758   2.193   6.374   3.842  0.0701 -0.8869  2.7839
 2598TIP3    H2 7759   2.205   6.524   3.824 -0.4849 -1.2274 -1.4333
 2599TIP3   OH2 7760   0.428   5.174   5.750  0.5558  0.3904  0.0144
 2599TIP3    H1 7761   0.517   5.199   5.725  0.4142  1.1423  0.2502
 2599TIP3    H2 7762   0.371   5.226   5.693  0.2589 -0.7375 -0.7560
 2600TIP3   OH2 7763   2.002   0.935   2.669 -0.2970 -0.1972 -0.2547
 2600TIP3    H1 7764   1.909   0.959   2.669 -0.5344 -1.0758  0.8531
 2600TIP3    H2 7765   2.047   1.015   2.697 -0.8270 -0.1084  0.3748
 2601TIP3   OH2 7766   3.398   0.786   0.814 -0.7724 -0.4994  0.2656
 2601TIP3    H1 7767   3.313   0.829   0.816 -0.8339 -0.5972 -0.2284
 2601TIP3    H2 7768   3.458   0.853   0.779 -0.8866 -0.8367 -0.5970
 2602TIP3   OH2 7769   6.501   4.831   2.564  0.4808 -0.1979 -0.2251
 2602TIP3    H1 7770   6.589   4.799   2.544  0.5073  0.2870 -0.9139
 2602TIP3    H2 7771   6.443   4.779   2.508  0.4296  0.2487 -0.5842
 2603TIP3   OH2 7772   0.959   6.469   1.830  0.3915 -0.5360  0.4090
 2603TIP3    H1 7773   1.009   6.423   1.763  2.7974  3.1848 -0.6361
 2603TIP3    H2 7774   1.023   6.493   1.897 -0.5694  1.6845  0.6205
 2604TIP3   OH2 7775   1.364   1.436   5.762 -0.4416 -0.3892  0.2480
 2604TIP3    H1 7776   1.458   1.433   5.745 -0.6982 -3.1019 -1.2536
 2604TIP3    H2 7777   1.325   1.455   5.677 -1.3007  2.3384  1.1427
 2605TIP3   OH2 7778   2.453   2.113   1.508  0.3338 -0.2717 -0.5409
 2605TIP3    H1 7779   2.464   2.026   1.545 -0.1609 -0.2730 -0.3930
 2605TIP3    H2 7780   2.529   2.124   1.451  0.5574 -0.6777 -0.3272
 2606TIP3   OH2 7781   4.866   6.819   3.297  0.1319 -0.3539  0.1311
 2606TIP3    H1 7782   4.918   6.818   3.217 -1.0855 -0.0767 -0.6808
 2606TIP3    H2 7783   4.793   6.760   3.279 -0.1877 -0.2503  1.0241
 2607TIP3   OH2 7784   4.202   1.776   1.366  0.2866 -0.0549  0.0207
 2607TIP3    H1 7785   4.144   1.786   1.441 -0.1159 -0.9249 -0.1633
 2607TIP3    H2 7786   4.147   1.790   1.289  0.8419  1.5142 -0.1132
 2608TIP3   OH2 7787   3.773   4.564   0.026 -0.9343 -0.5870 -0.2739
 2608TIP3    H1 7788   3.734   4.606  -0.051 -1.9411 -0.0975  0.4659
 2608TIP3    H2 7789   3.714   4.492   0.046 -0.7379 -0.6478  0.0901
 2609TIP3   OH2 7790   4.397   5.461   0.433  0.2021  0.3853  0.4995
 2609TIP3    H1 7791   4.404   5.556   0.420  0.7326  0.7054  2.7018
 2609TIP3    H2 7792   4.303   5.443   0.428  0.1671  0.8591 -0.8224
 2610TIP3   OH2 7793   5.135   1.918   2.259  0.0863 -0.5253  0.4174
 2610TIP3    H1 7794   5.115   1.965   2.340  1.1742 -0.2456  0.5350
 2610TIP3    H2 7795   5.177   1.837   2.289  0.0729 -0.6302  0.1469
 2611TIP3   OH2 7796   0.713   5.740   0.923  0.2587  0.1363  0.2543
 2611TIP3    H1 7797   0.691   5.784   1.005 -0.0440 -1.1753  0.9202
 2611TIP3    H2 7798   0.662   5.659   0.926  2.1540 -1.1322 -0.0396
 2612TIP3   OH2 7799   0.424   6.230   4.487 -0.0988 -0.2272  1.2409
 2612TIP3    H1 7800   0.496   6.188   4.534  0.7308  2.8874  3.0780
 2612TIP3    H2 7801   0.347   6.212   4.540 -0.4113 -2.0317  0.2512
 2613TIP3   OH2 7802   5.224   5.589   3.922 -0.3828  0.5127  0.3661
 2613TIP3    H1 7803   5.221   5.496   3.900  2.1526  0.3171  0.4738
 2613TIP3    H2 7804   5.135   5.620   3.907 -0.7172 -1.3238 -2.3718
 2614TIP3   OH2 7805   5.814   0.716   0.173  0.2117  0.0347 -0.7448
 2614TIP3    H1 7806   5.875   0.696   0.102 -0.4897  1.1966 -1.7216
 2614TIP3    H2 7807   5.751   0.645   0.171  1.1378 -0.8354 -0.1485
 2615TIP3   OH2 7808   6.122   4.864   3.604  0.1629  0.6916  0.5508
 2615TIP3    H1 7809   6.149   4.927   3.537  1.5399 -1.8131 -1.4307
 2615TIP3    H2 7810   6.117   4.781   3.557 -1.1856 -0.7882  3.1212
 2616TIP3   OH2 7811   5.546   3.665   4.463 -0.7521 -0.4761 -0.7637
 2616TIP3    H1 7812   5.482   3.722   4.421 -0.1193  1.4605  0.7279
 2616TIP3    H2 7813   5.589   3.619   4.391 -1.7071  0.4907 -1.9818
 2617TIP3   OH2 7814   1.812   2.733   0.717 -0.1802  0.0232 -0.2331
 2617TIP3    H1 7815   1.828   2.791   0.792  1.3076 -1.3757  0.6012
 2617TIP3    H2 7816   1.835   2.786   0.641 -0.6092  1.1123  0.3680
 2618TIP3   OH2 7817   2.921   6.496   0.038  0.1650  0.2468 -0.2561
 2618TIP3    H1 7818   2.907   6.552   0.114  0.4412 -0.7624  0.5670
 2618TIP3    H2 7819   2.898   6.408   0.069  2.2293 -0.5146 -0.6894
 2619TIP3   OH2 7820   1.221   5.597   3.389  0.0192  0.2223  0.1594
 2619TIP3    H1 7821   1.234   5.523   3.449  1.1905 -0.3242 -0.7378
 2619TIP3    H2 7822   1.166   5.563   3.319  0.2881  0.2919 -0.0881
 2620TIP3   OH2 7823   3.478   6.405   5.856  0.0050 -0.4672  0.1854
 2620TIP3    H1 7824   3.501   6.402   5.949 -1.0078 -1.5307  0.4303
 2620TIP3    H2 7825   3.531   6.336   5.816 -0.2460 -0.6313  0.1379
 2621TIP3   OH2 7826   1.882   3.805   5.246 -0.3061 -0.0154  0.2139
 2621TIP3    H1 7827   1.939   3.773   5.316  0.8328 -4.6640 -2.3999
 2621TIP3    H2 7828   1.794   3.805   5.284  0.7083  3.5402  3.1771
 2622TIP3   OH2 7829   5.540   6.600   4.391  0.6150 -0.5113 -0.2579
 2622TIP3    H1 7830   5.594   6.668   4.352  0.2893  1.3912  2.3352
 2622TIP3    H2 7831   5.602   6.545   4.440  0.4659  0.6626  1.3222
 2623TIP3   OH2 7832   5.734   0.499   5.036  0.2377 -0.5113  0.0783
 2623TIP3    H1 7833   5.684   0.509   4.955  1.3685  0.1116 -0.5645
 2623TIP3    H2 7834   5.705   0.415   5.072  0.0788 -1.0357 -1.2287
 2624TIP3   OH2 7835   2.240   6.076   3.975  0.1793  0.2858  0.1648
 2624TIP3    H1 7836   2.243   6.000   4.033 -2.5749  1.8965  2.6828
 2624TIP3    H2 7837   2.295   6.141   4.018  0.6771  0.5079 -0.7710
 2625TIP3   OH2 7838   6.657   4.919   2.064  0.0424  0.0730 -0.6723
 2625TIP3    H1 7839   6.596   4.993   2.070 -1.1625 -0.9711  0.3880
 2625TIP3    H2 7840   6.691   4.908   2.152  1.0485  0.0285 -1.0538
 2626TIP3   OH2 7841   2.648   6.449   0.409  0.7347 -0.0551 -0.2935
 2626TIP3    H1 7842   2.714   6.515   0.432 -0.1218  0.4385  0.8358
 2626TIP3    H2 7843   2.608   6.425   0.492  0.3272 -1.2675 -0.8161
 2627TIP3   OH2 7844   4.988   0.124   5.900  0.2349 -0.4393  0.2093
 2627TIP3    H1 7845   5.052   0.164   5.840  1.4159  0.2211  1.8340
 2627TIP3    H2 7846   4.951   0.051   5.850  0.1560  0.8932 -1.8030
 2628TIP3   OH2 7847   2.614   0.339   3.268 -0.2081 -0.7725  0.3030
 2628TIP3    H1 7848   2.617   0.284   3.190 -0.2032  0.1533 -0.3667
 2628TIP3    H2 7849   2.690   0.396   3.260 -1.1535  0.4941  0.0942
 2629TIP3   OH2 7850   2.111   2.194   4.078  0.2830  0.6737  0.2627
 2629TIP3    H1 7851   2.075   2.240   4.002  1.0639  0.5043 -0.2269
 2629TIP3    H2 7852   2.146   2.263   4.134  1.8448  0.6998 -0.6750
 2630TIP3   OH2 7853   1.745   0.106   3.355  0.3330 -0.3852  1.0181
 2630TIP3    H1 7854   1.805   0.076   3.286  1.1772 -0.2937  1.6979
 2630TIP3    H2 7855   1.686   0.167   3.310  1.7868  0.8132  0.6518
 2631TIP3   OH2 7856   1.160   4.749   2.349 -0.5887 -0.2134 -0.0668
 2631TIP3    H1 7857   1.101   4.806   2.400 -2.1648 -1.2581 -0.6451
 2631TIP3    H2 7858   1.165   4.791   2.263  0.9737  0.8140  0.4840
 2632TIP3   OH2 7859   0.318   0.810   3.348 -0.1005  0.1856  0.0542
 2632TIP3    H1 7860   0.395   0.864   3.363 -0.3480  0.1290  1.6852
 2632TIP3    H2 7861   0.333   0.769   3.262  1.0796  1.1378 -0.2142
 2633TIP3   OH2 7862   6.127   5.331   4.742  0.5263 -0.0156  1.0207
 2633TIP3    H1 7863   6.221   5.316   4.744  0.3878 -1.0094  0.8127
 2633TIP3    H2 7864   6.089   5.250   4.778 -0.3245 -0.6940 -1.1968
 2634TIP3   OH2 7865   2.587   3.507   1.120  0.3147  0.4680 -0.1378
 2634TIP3    H1 7866   2.573   3.417   1.151  0.8455  1.1402  2.2249
 2634TIP3    H2 7867   2.586   3.499   1.024  1.0286 -2.1597 -0.0135
 2635TIP3   OH2 7868   5.967   0.227   0.666 -0.0249  0.2364 -0.1164
 2635TIP3    H1 7869   5.887   0.209   0.714  0.2369 -2.3632 -0.4794
 2635TIP3    H2 7870   6.001   0.307   0.704 -2.1169  0.7059  0.9082
 2636TIP3   OH2 7871   1.697   0.959   2.777  0.1132  0.1597  0.1816
 2636TIP3    H1 7872   1.654   0.887   2.821 -0.2104  0.2172 -0.0346
 2636TIP3    H2 7873   1.726   1.017   2.847 -1.1940  0.7012  0.2947
 2637TIP3   OH2 7874   5.878   0.237   2.108  0.6506  0.2269  0.0779
 2637TIP3    H1 7875   5.973   0.226   2.102  0.7779  1.1387  0.2706
 2637TIP3    H2 7876   5.844   0.148   2.111  1.3372 -0.1933 -2.2791
 2638TIP3   OH2 7877   5.767   4.529   0.349 -0.3112  0.2111  0.1483
 2638TIP3    H1 7878   5.754   4.434   0.343 -0.7427  0.3409 -1.2855
 2638TIP3    H2 7879   5.682   4.567   0.328 -0.1400  0.9205  0.7008
 2639TIP3   OH2 7880   6.315   2.910   4.913  0.0694  0.3174  0.5766
 2639TIP3    H1 7881   6.292   2.841   4.974 -1.9313 -0.1457 -0.5948
 2639TIP3    H2 7882   6.392   2.877   4.866 -0.2124 -0.6197  0.7718
 2640TIP3   OH2 7883   4.960   6.654   5.553 -0.1555 -0.1317  0.0993
 2640TIP3    H1 7884   4.987   6.595   5.483 -1.5251 -1.4637  0.6193
 2640TIP3    H2 7885   4.865   6.662   5.543 -0.2671  0.3246  1.2834
 2641TIP3   OH2 7886   3.899   0.259   1.728  0.2639  0.0114  0.3026
 2641TIP3    H1 7887   3.820   0.222   1.769  0.3363 -0.2535  0.2083
 2641TIP3    H2 7888   3.873   0.276   1.638  0.6952 -1.3367 -0.0976
 2642TIP3   OH2 7889   3.665   5.006   0.985 -0.1169  0.1021  0.1526
 2642TIP3    H1 7890   3.638   5.014   1.076 -3.0383 -0.8886 -0.5110
 2642TIP3    H2 7891   3.601   5.059   0.936  0.3725 -0.6990 -1.4339
 2643TIP3   OH2 7892   5.891   1.145   3.500 -0.2553 -0.2704  0.3280
 2643TIP3    H1 7893   5.967   1.132   3.443 -0.6884  1.0219 -0.5867
 2643TIP3    H2 7894   5.927   1.142   3.588  0.7170 -0.5774 -0.0618
 2644TIP3   OH2 7895   7.168   5.324   3.087  0.1396  0.1133 -0.2928
 2644TIP3    H1 7896   7.114   5.250   3.112  0.5376  0.2474  1.0423
 2644TIP3    H2 7897   7.122   5.364   3.013 -0.6603 -0.7925 -0.2982
 2645TIP3   OH2 7898   1.093   4.132   5.364  0.0133  0.2335 -0.0690
 2645TIP3    H1 7899   1.051   4.122   5.450 -0.1517  0.0238 -0.1750
 2645TIP3    H2 7900   1.115   4.225   5.360 -1.2549  0.5434 -0.3815
 2646TIP3   OH2 7901   6.807   4.991   0.413 -0.3242 -0.2921  0.0375
 2646TIP3    H1 7902   6.785   4.918   0.356  1.0504 -0.5210 -0.2375
 2646TIP3    H2 7903   6.899   5.010   0.394  0.1288 -0.2577  2.0181
 2647TIP3   OH2 7904   0.582   5.247   3.479 -0.2676 -0.1164  0.0937
 2647TIP3    H1 7905   0.569   5.207   3.565  1.4466 -0.6670  0.1428
 2647TIP3    H2 7906   0.662   5.299   3.490 -0.8864  1.0462 -0.7649
 2648TIP3   OH2 7907   1.792   4.695   2.197  0.1768  0.5295  0.1634
 2648TIP3    H1 7908   1.705   4.671   2.227 -0.4629  0.8190 -1.3824
 2648TIP3    H2 7909   1.811   4.778   2.240 -0.6074  0.8123 -0.0211
 2649TIP3   OH2 7910   6.779   4.089   5.335 -0.2887 -0.1904 -0.3984
 2649TIP3    H1 7911   6.759   4.167   5.283  0.5343  0.3158  0.0235
 2649TIP3    H2 7912   6.780   4.018   5.272  2.2745  0.6362 -1.4088
 2650TIP3   OH2 7913   0.034   4.534   0.799 -0.1688  0.2740  0.3519
 2650TIP3    H1 7914   0.052   4.446   0.766 -0.8443 -0.6312  2.2088
 2650TIP3    H2 7915   0.013   4.586   0.721 -0.3442 -1.3626 -0.7395
 2651TIP3   OH2 7916   2.274   1.505   3.673 -0.2189 -0.3619 -0.0941
 2651TIP3    H1 7917   2.224   1.581   3.645  0.6150  0.4386  0.5512
 2651TIP3    H2 7918   2.223   1.469   3.747  0.4231  0.7861  0.9350
 2652TIP3   OH2 7919   6.120   1.889   1.306  0.3577  0.5020  0.1004
 2652TIP3    H1 7920   6.213   1.869   1.305  0.0453 -1.2038  1.2217
 2652TIP3    H2 7921   6.101   1.914   1.397 -0.3474  0.5319 -0.0429
 2653TIP3   OH2 7922   3.751   0.657   0.260  0.2512  0.1678  0.1081
 2653TIP3    H1 7923   3.763   0.562   0.250  1.0618  0.3020 -0.2792
 2653TIP3    H2 7924   3.675   0.665   0.318  0.8431 -0.7288  1.0510
 2654TIP3   OH2 7925   6.333   3.382   5.739  0.3166  0.5432  0.8630
 2654TIP3    H1 7926   6.412   3.332   5.718 -0.5858 -0.4029 -0.4194
 2654TIP3    H2 7927   6.366   3.466   5.772  1.8718  0.3015  0.0129
 2655TIP3   OH2 7928   1.749   1.900   4.267 -0.2679 -0.2644 -0.6241
 2655TIP3    H1 7929   1.700   1.872   4.343 -0.2930 -0.6312 -0.7731
 2655TIP3    H2 7930   1.769   1.992   4.283 -0.6696 -0.2195 -0.3895
 2656TIP3   OH2 7931   5.572   4.566   2.325  0.5296  0.3290  0.0134
 2656TIP3    H1 7932   5.586   4.490   2.267  1.5827 -0.1067  0.8274
 2656TIP3    H2 7933   5.479   4.588   2.312  0.9788  1.0059 -2.7431
 2657TIP3   OH2 7934   4.903   2.567   2.542 -0.1129 -0.3352 -0.8073
 2657TIP3    H1 7935   4.932   2.480   2.569 -0.7097 -0.0911  0.7460
 2657TIP3    H2 7936   4.979   2.623   2.555 -0.2926 -0.2851  0.1097
 2658TIP3   OH2 7937   0.860   4.928   3.935  0.6150  0.5947  0.0452
 2658TIP3    H1 7938   0.836   4.886   3.852  0.8489 -0.6545  0.5916
 2658TIP3    H2 7939   0.955   4.939   3.930  0.5663  0.9754 -0.0553
 2659TIP3   OH2 7940   4.741   0.362   1.927  0.4379  0.1488 -0.1993
 2659TIP3    H1 7941   4.801   0.367   2.001  0.3297 -1.5341  0.0281
 2659TIP3    H2 7942   4.798   0.352   1.851  0.4889 -0.6350 -0.0665
 2660TIP3   OH2 7943   4.712   2.831   5.662  0.6093 -0.1870 -0.3791
 2660TIP3    H1 7944   4.667   2.750   5.686  0.3499  0.2075  0.5549
 2660TIP3    H2 7945   4.801   2.821   5.697  0.1729  0.4716  1.0247
 2661TIP3   OH2 7946   4.490   0.056   0.818  0.1157  0.4496 -1.0155
 2661TIP3    H1 7947   4.515   0.144   0.788  0.1037  0.2699 -1.5604
 2661TIP3    H2 7948   4.566   0.025   0.867 -0.0683  0.9582 -0.3913
 2662TIP3   OH2 7949   6.632   5.377   3.152 -0.0743 -0.4272  0.0252
 2662TIP3    H1 7950   6.665   5.446   3.210  0.6282 -1.4336  0.8626
 2662TIP3    H2 7951   6.584   5.424   3.084 -1.1362  0.8053  1.5321
 2663TIP3   OH2 7952   1.690   2.319   4.155  0.7584  0.7629  0.0519
 2663TIP3    H1 7953   1.771   2.281   4.191  0.0761 -0.7875  0.0219
 2663TIP3    H2 7954   1.644   2.353   4.232  2.2319  3.4176 -0.0974
 2664TIP3   OH2 7955   5.288   3.628   1.347  0.0282  0.3087  0.5661
 2664TIP3    H1 7956   5.289   3.537   1.317 -0.6511  0.5302 -0.1571
 2664TIP3    H2 7957   5.380   3.655   1.345  0.0532  0.1936 -1.0162
 2665TIP3   OH2 7958   5.199   0.474   5.528  0.2525  0.0110  0.1118
 2665TIP3    H1 7959   5.156   0.460   5.613 -0.8986  0.0080 -0.4469
 2665TIP3    H2 7960   5.258   0.548   5.543  0.8277 -0.6340  1.1709
 2666TIP3   OH2 7961   0.999   1.613   2.256  0.6603  0.0641 -1.0533
 2666TIP3    H1 7962   0.939   1.571   2.318 -0.3323 -0.6023 -2.4362
 2666TIP3    H2 7963   1.086   1.600   2.295  0.1188 -0.8826 -0.1177
 2667TIP3   OH2 7964   1.589   2.075   2.583 -0.1736 -0.0055  0.0021
 2667TIP3    H1 7965   1.569   2.109   2.671  1.0008  0.9691 -0.0705
 2667TIP3    H2 7966   1.505   2.077   2.537 -0.6683  0.1741  0.8815
 2668TIP3   OH2 7967   3.966   3.994   0.488  0.2909  0.3483 -0.0343
 2668TIP3    H1 7968   3.997   3.906   0.508  0.5573  0.2447 -0.8442
 2668TIP3    H2 7969   3.987   4.045   0.566  0.5282 -0.2117  0.2766
 2669TIP3   OH2 7970   3.887   3.113   1.275  0.1336  0.3151  0.1456
 2669TIP3    H1 7971   3.918   3.190   1.226  1.0580 -0.3191 -0.3216
 2669TIP3    H2 7972   3.872   3.145   1.364 -1.6287  1.5143 -0.5316
 2670TIP3   OH2 7973   0.253   6.541   1.396 -0.1107 -0.5322 -0.5959
 2670TIP3    H1 7974   0.347   6.525   1.385  0.1427 -0.6972  1.4138
 2670TIP3    H2 7975   0.215   6.454   1.403 -0.2190 -0.4577 -0.1936
 2671TIP3   OH2 7976   4.334   5.057   3.387 -0.0340 -0.2051 -0.3733
 2671TIP3    H1 7977   4.401   5.023   3.328  0.9651 -0.9030  1.1192
 2671TIP3    H2 7978   4.256   5.006   3.366  0.6619 -1.3699 -0.1920
 2672TIP3   OH2 7979   3.939   2.821   5.324 -0.0018 -0.5133  0.5957
 2672TIP3    H1 7980   3.948   2.743   5.379 -0.7676 -0.7248  0.4307
 2672TIP3    H2 7981   4.002   2.883   5.361  1.3954 -1.5611  0.0777
 2673TIP3   OH2 7982   4.700   5.524   5.567  0.3964 -0.4627  0.0639
 2673TIP3    H1 7983   4.649   5.547   5.489 -1.2694  0.1193  1.2540
 2673TIP3    H2 7984   4.711   5.607   5.613 -0.0531 -1.0297  1.2287
 2674TIP3   OH2 7985   2.476   5.515   4.549  0.9007  0.5789  0.1073
 2674TIP3    H1 7986   2.462   5.458   4.625  0.9019  2.9551  2.0447
 2674TIP3    H2 7987   2.571   5.519   4.538  0.8796 -0.2034 -0.3906
 2675TIP3   OH2 7988   5.445   0.353   4.838 -0.1211 -0.1123 -0.2477
 2675TIP3    H1 7989   5.425   0.337   4.746  2.0444 -1.3777 -0.5721
 2675TIP3    H2 7990   5.454   0.448   4.845  1.1398 -0.0822 -1.7118
 2676TIP3   OH2 7991   1.815   5.625   4.718  0.2452  0.2870  0.3180
 2676TIP3    H1 7992   1.877   5.669   4.660  0.7366  0.2620  0.8132
 2676TIP3    H2 7993   1.731   5.628   4.671  0.8369 -0.6402 -0.8399
 2677TIP3   OH2 7994   4.711   0.420   3.695  0.4819 -0.4857  0.3348
 2677TIP3    H1 7995   4.802   0.438   3.717 -0.0571  1.0635  1.4689
 2677TIP3    H2 7996   4.660   0.462   3.765 -1.1210 -0.7200 -0.6301
 2678TIP3   OH2 7997   3.421   2.932   3.649 -0.1080  0.0400 -0.1075
 2678TIP3    H1 7998   3.341   2.966   3.690  0.1410 -1.5574  1.9272
 2678TIP3    H2 7999   3.391   2.891   3.568 -1.4478 -0.6878  0.6999
 2679TIP3   OH2 8000   3.033   2.483   4.748  0.0867 -0.1799  0.5331
 2679TIP3    H1 8001   3.001   2.393   4.756 -0.1429  0.0385  2.4140
 2679TIP3    H2 8002   3.129   2.474   4.743  0.0014 -0.6024 -1.3731
 2680TIP3   OH2 8003   6.981   5.134   1.922 -0.2031 -0.1595 -0.0154
 2680TIP3    H1 8004   7.017   5.211   1.877 -1.2184  1.1288  1.3260
 2680TIP3    H2 8005   7.040   5.121   1.997  3.2327 -4.0063 -2.8943
 2681TIP3   OH2 8006   1.468   1.686   4.919  0.2319  0.0667  0.1315
 2681TIP3    H1 8007   1.481   1.706   4.826  1.7647 -0.3522  0.2345
 2681TIP3    H2 8008   1.379   1.715   4.937 -0.3113 -0.3644 -1.6159
 2682TIP3   OH2 8009   6.406   2.008   4.357  0.0727  0.0125  0.5151
 2682TIP3    H1 8010   6.401   2.092   4.311 -1.2583  0.3110  1.1642
 2682TIP3    H2 8011   6.335   2.011   4.421  1.4010 -0.6990  2.0961
 2683TIP3   OH2 8012   5.340   1.012   1.950 -0.0262 -0.2350 -0.2360
 2683TIP3    H1 8013   5.299   1.095   1.926  0.4252  0.2574  0.6729
 2683TIP3    H2 8014   5.433   1.024   1.929  0.1614 -0.2441  0.5678
 2684TIP3   OH2 8015   6.751   2.121   0.114  0.6123  0.1352 -0.3728
 2684TIP3    H1 8016   6.785   2.033   0.099  0.2509  0.0510 -0.7162
 2684TIP3    H2 8017   6.685   2.133   0.046  1.1040  0.9127 -0.7297
 2685TIP3   OH2 8018   4.342   1.055   3.317 -0.4991 -0.2749 -0.0579
 2685TIP3    H1 8019   4.342   1.009   3.233 -0.6474  0.6564 -0.5904
 2685TIP3    H2 8020   4.286   1.131   3.302  0.5583  0.6445  0.4636
 2686TIP3   OH2 8021   2.461   1.496   5.273  0.5376 -0.2154  0.6166
 2686TIP3    H1 8022   2.472   1.434   5.201 -0.5490 -0.0284  0.2650
 2686TIP3    H2 8023   2.376   1.473   5.310  0.4158  0.6561  0.8857
 2687TIP3   OH2 8024   5.212   0.173   5.744 -0.2791  0.1926  0.6157
 2687TIP3    H1 8025   5.281   0.237   5.763  1.5883 -0.7431 -2.3878
 2687TIP3    H2 8026   5.258   0.097   5.710 -2.6614 -1.6621  1.2838
 2688TIP3   OH2 8027   7.178   6.707   1.587 -0.3959 -0.2249  0.2154
 2688TIP3    H1 8028   7.130   6.784   1.555 -1.3197 -0.8712  0.0078
 2688TIP3    H2 8029   7.156   6.638   1.525  0.6871 -0.5874  0.2180
 2689TIP3   OH2 8030   2.389   2.405   0.768 -0.1047  0.2900 -0.1095
 2689TIP3    H1 8031   2.406   2.405   0.863  0.5679 -1.0838 -0.2074
 2689TIP3    H2 8032   2.400   2.496   0.742  1.3955  0.4274  0.8650
 2690TIP3   OH2 8033   6.090   2.973   2.519  0.3817  0.1729  0.3317
 2690TIP3    H1 8034   6.141   3.025   2.457  0.5710  0.4756  0.7364
 2690TIP3    H2 8035   6.039   3.037   2.568  0.0018 -0.0886  0.2870
 2691TIP3   OH2 8036   5.727   5.866   5.160  0.4809  0.0310 -0.0328
 2691TIP3    H1 8037   5.716   5.801   5.229 -2.1393  0.2191 -0.1855
 2691TIP3    H2 8038   5.808   5.841   5.116  2.2749 -0.0794  3.0555
 2692TIP3   OH2 8039   2.982   3.132   2.022 -0.6183  0.1619  0.4017
 2692TIP3    H1 8040   2.975   3.156   2.115  1.8928 -1.8598  1.2517
 2692TIP3    H2 8041   2.936   3.201   1.976 -1.4280  1.5973  3.1172
 2693TIP3   OH2 8042   5.951   1.488   5.566 -0.3451  0.8271 -0.0265
 2693TIP3    H1 8043   6.028   1.493   5.622  1.1972 -0.6614 -1.8683
 2693TIP3    H2 8044   5.890   1.552   5.603  1.7898  2.1185  1.4616
 2694TIP3   OH2 8045   3.642   6.345   0.632  0.0491 -0.5231  0.3116
 2694TIP3    H1 8046   3.711   6.389   0.582  0.6031 -0.2455  1.2791
 2694TIP3    H2 8047   3.682   6.329   0.718 -0.8469 -1.0398  0.6422
 2695TIP3   OH2 8048   5.221   0.716   2.083 -0.4828 -0.2655 -0.2443
 2695TIP3    H1 8049   5.178   0.792   2.122  0.6405 -0.4715  1.5121
 2695TIP3    H2 8050   5.314   0.729   2.102  0.1633 -0.4353 -2.8599
 2696TIP3   OH2 8051   0.292   1.241   1.766 -0.2097  0.8305 -0.1185
 2696TIP3    H1 8052   0.354   1.216   1.835 -0.6798 -0.3584 -0.0925
 2696TIP3    H2 8053   0.206   1.241   1.809 -0.4546  0.5204 -0.5928
 2697TIP3   OH2 8054   6.917   6.517   1.990  0.1751 -0.7205  0.3260
 2697TIP3    H1 8055   6.898   6.605   1.958  0.1555 -0.2865  1.4776
 2697TIP3    H2 8056   6.981   6.531   2.060  1.0651 -1.7341 -0.2637
 2698TIP3   OH2 8057   5.617   3.254   0.881  0.4438 -0.6226  0.5854
 2698TIP3    H1 8058   5.647   3.166   0.904 -2.9817 -1.9498  0.5596
 2698TIP3    H2 8059   5.608   3.252   0.786 -0.7076 -0.6322  0.6917
 2699TIP3   OH2 8060   1.339   6.108   3.133 -0.0032  0.4283  0.0196
 2699TIP3    H1 8061   1.412   6.046   3.147  0.1330  0.2889 -1.2190
 2699TIP3    H2 8062   1.349   6.172   3.203  0.9356  0.0525  0.2511
 2700TIP3   OH2 8063   5.289   6.558   5.452 -0.2935  0.3235 -0.7526
 2700TIP3    H1 8064   5.325   6.513   5.528  0.4388 -0.9151 -1.7912
 2700TIP3    H2 8065   5.195   6.545   5.458 -0.4861  2.0625  1.0419
 2701TIP3   OH2 8066   0.645   6.059   1.132 -0.1638  0.2616 -0.2162
 2701TIP3    H1 8067   0.607   6.082   1.217  0.3381 -0.5779  0.2507
 2701TIP3    H2 8068   0.700   5.983   1.150  0.1430  0.2188 -1.2546
 2702TIP3   OH2 8069   2.613   6.010   3.383  0.0859 -0.1307  0.6927
 2702TIP3    H1 8070   2.632   5.920   3.411  0.8320 -0.3806 -0.5266
 2702TIP3    H2 8071   2.689   6.034   3.330 -1.0833  0.4338 -0.7845
 2703TIP3   OH2 8072   3.855   3.208   5.538 -0.0773 -0.5914 -0.6807
 2703TIP3    H1 8073   3.805   3.287   5.518  0.1080 -0.8230 -2.2400
 2703TIP3    H2 8074   3.894   3.183   5.454  1.7723 -1.0322  0.2577
 2704TIP3   OH2 8075   6.815   2.974   0.123  0.2674 -0.0802  0.3914
 2704TIP3    H1 8076   6.760   2.984   0.200  0.0640  1.1174  0.1120
 2704TIP3    H2 8077   6.854   3.061   0.109  0.7814 -0.4296 -0.4894
 2705TIP3   OH2 8078   3.179   6.398   3.733  0.3732 -0.2089  0.0129
 2705TIP3    H1 8079   3.085   6.407   3.752  0.5077  0.5554  0.3342
 2705TIP3    H2 8080   3.194   6.304   3.735 -0.5584 -0.4060 -0.8583
 2706TIP3   OH2 8081   0.260   3.032   2.046  0.4571 -0.4524 -0.2255
 2706TIP3    H1 8082   0.267   3.014   2.140  3.1780 -1.1624 -0.4726
 2706TIP3    H2 8083   0.170   3.010   2.024 -0.9110  1.6603  2.5586
 2707TIP3   OH2 8084   2.441   0.679   3.287  0.6422  0.3303 -0.7542
 2707TIP3    H1 8085   2.386   0.733   3.230  1.1471 -0.1137 -1.6754
 2707TIP3    H2 8086   2.508   0.738   3.319 -0.2299  0.8317  0.2259
 2708TIP3   OH2 8087   4.636   2.785   4.858  0.2078  0.0696  0.1874
 2708TIP3    H1 8088   4.681   2.868   4.845 -1.7398  1.2272  0.4703
 2708TIP3    H2 8089   4.644   2.768   4.952 -2.2218  1.7320  0.7820
 2709TIP3   OH2 8090   4.251   6.073   4.349 -0.1128 -0.3417 -0.2512
 2709TIP3    H1 8091   4.322   6.136   4.336  1.8825 -2.3465  0.2833
 2709TIP3    H2 8092   4.219   6.055   4.260 -0.5493  1.1964 -0.4295
 2710TIP3   OH2 8093   1.437   3.072   0.085  0.4599 -0.2457 -0.1752
 2710TIP3    H1 8094   1.377   3.001   0.060 -1.9784  0.8105  2.1798
 2710TIP3    H2 8095   1.423   3.140   0.020 -0.4627 -0.2318  0.0373
 2711TIP3   OH2 8096   0.265   2.801   3.446  0.5669  0.3837  0.3273
 2711TIP3    H1 8097   0.316   2.848   3.512 -0.2483  0.5249  0.8778
 2711TIP3    H2 8098   0.191   2.859   3.427 -1.0553 -1.0696  1.8084
 2712TIP3   OH2 8099   0.876   3.594   2.251  0.1064  0.1596  0.6219
 2712TIP3    H1 8100   0.809   3.623   2.189  0.2368  1.3753  1.0122
 2712TIP3    H2 8101   0.959   3.615   2.207  0.2213 -0.2510  0.6370
 2713TIP3   OH2 8102   6.813   0.946   4.594 -0.2976  0.2975  0.5167
 2713TIP3    H1 8103   6.823   0.968   4.686  0.7937  0.0412  0.4743
 2713TIP3    H2 8104   6.784   0.854   4.595  0.1540  0.1570  0.5922
 2714TIP3   OH2 8105   5.149   4.679   0.174 -0.0193  0.2511 -0.1124
 2714TIP3    H1 8106   5.158   4.749   0.109 -0.8913  0.9311  0.4828
 2714TIP3    H2 8107   5.153   4.724   0.259  0.6556 -0.5754  0.3128
 2715TIP3   OH2 8108   6.437   5.560   5.170 -0.3237  0.5842  0.2019
 2715TIP3    H1 8109   6.433   5.504   5.092  2.0029  0.0612  0.4006
 2715TIP3    H2 8110   6.478   5.641   5.140  1.5005  0.0127  1.0159
 2716TIP3   OH2 8111   4.573   2.220   2.811  0.8169  0.0717  0.5036
 2716TIP3    H1 8112   4.486   2.242   2.777  0.6746 -1.9376 -0.6369
 2716TIP3    H2 8113   4.559   2.139   2.860  1.7853  0.6259  1.7368
 2717TIP3   OH2 8114   1.709   1.469   3.073 -0.2935 -0.2409 -0.0277
 2717TIP3    H1 8115   1.661   1.528   3.131 -0.7974  0.2512 -0.9191
 2717TIP3    H2 8116   1.738   1.397   3.130 -0.3848  0.4442  0.9068
 2718TIP3   OH2 8117   1.243   5.375   1.125  0.3299 -0.8680  0.1416
 2718TIP3    H1 8118   1.167   5.384   1.183  0.0025  0.5972 -0.4884
 2718TIP3    H2 8119   1.221   5.301   1.069 -1.2708  0.3790 -0.9473
 2719TIP3   OH2 8120   4.437   2.644  -0.024 -0.2854  0.2132  0.3694
 2719TIP3    H1 8121   4.512   2.656   0.034 -0.9084  0.1886  1.1901
 2719TIP3    H2 8122   4.361   2.668   0.029 -1.1067 -2.0666  0.3405
 2720TIP3   OH2 8123   1.976   0.847   0.290 -0.2818  0.5916  0.2160
 2720TIP3    H1 8124   1.956   0.775   0.230  3.4583  0.5240 -1.2365
 2720TIP3    H2 8125   1.954   0.813   0.376 -1.2496 -1.1815 -0.6705
 2721TIP3   OH2 8126   4.634   6.362   2.377  0.1824 -0.6263  0.9468
 2721TIP3    H1 8127   4.710   6.308   2.355  0.6370  0.2834  0.1892
 2721TIP3    H2 8128   4.568   6.338   2.311  0.7493  0.4572 -0.0554
 2722TIP3   OH2 8129   3.303   3.516   4.572  0.6012 -0.3229  0.1587
 2722TIP3    H1 8130   3.282   3.599   4.529 -0.1821  0.3064  1.6900
 2722TIP3    H2 8131   3.222   3.465   4.566  1.3918 -1.4591 -1.7321
 2723TIP3   OH2 8132   0.438   0.753   3.602 -0.0994 -0.1935  0.3464
 2723TIP3    H1 8133   0.375   0.723   3.536  0.6281 -0.5782 -0.1813
 2723TIP3    H2 8134   0.480   0.830   3.563  1.9743 -1.7527 -0.6571
 2724TIP3   OH2 8135   0.827   2.786   5.841 -0.5015 -0.5891  0.0307
 2724TIP3    H1 8136   0.915   2.818   5.859 -1.2922  1.7933 -0.0131
 2724TIP3    H2 8137   0.840   2.709   5.786  1.5699 -1.0326  1.0616
 2725TIP3   OH2 8138   4.879   3.526   1.829 -0.0219 -0.0306 -0.1285
 2725TIP3    H1 8139   4.926   3.550   1.909 -0.2731  1.0546 -0.2853
 2725TIP3    H2 8140   4.887   3.603   1.773  0.0235 -0.7224 -1.1005
 2726TIP3   OH2 8141   4.951   3.475   4.062  0.5292 -0.0317  0.5454
 2726TIP3    H1 8142   4.930   3.566   4.086 -0.3614  0.0589 -0.4866
 2726TIP3    H2 8143   4.874   3.445   4.013  1.7765 -0.5610 -1.1736
 2727TIP3   OH2 8144   5.792   6.728   0.511  0.4402  0.1666 -0.4776
 2727TIP3    H1 8145   5.703   6.759   0.494  0.5912 -0.0338 -1.7018
 2727TIP3    H2 8146   5.831   6.717   0.424  1.8386  0.7446  0.0442
 2728TIP3   OH2 8147   5.610   1.861   0.480 -0.1077  0.4868  0.1946
 2728TIP3    H1 8148   5.649   1.778   0.450 -0.0848  0.6507 -0.2429
 2728TIP3    H2 8149   5.516   1.843   0.485 -0.1200  0.4796 -0.0521
 2729TIP3   OH2 8150   2.732   2.606   4.061 -0.0418 -0.4685  0.3626
 2729TIP3    H1 8151   2.766   2.601   4.151 -0.0033  1.0183  0.4471
 2729TIP3    H2 8152   2.725   2.514   4.034  2.9014 -0.9220  0.7515
 2730TIP3   OH2 8153   5.701   4.376   0.682 -0.5553  0.0531  0.3621
 2730TIP3    H1 8154   5.633   4.386   0.615 -0.4065 -0.7873  0.0642
 2730TIP3    H2 8155   5.674   4.433   0.753 -0.4850  1.3114 -0.5951
 2731TIP3   OH2 8156   4.501   6.324   4.067  0.2085  0.5897 -0.4317
 2731TIP3    H1 8157   4.431   6.343   4.129 -0.8215 -1.3928 -0.8983
 2731TIP3    H2 8158   4.581   6.331   4.119 -0.5790 -0.2942  0.9676
 2732TIP3   OH2 8159   6.104   1.220   5.205 -0.0512  0.1023  0.4961
 2732TIP3    H1 8160   6.032   1.157   5.205  1.0831 -1.3405  2.6694
 2732TIP3    H2 8161   6.177   1.173   5.163  0.2803  0.6234  0.4830
 2733TIP3   OH2 8162   1.577   1.057   1.591 -0.2209 -0.0581 -0.6684
 2733TIP3    H1 8163   1.666   1.056   1.625 -0.0521  0.1476 -1.1074
 2733TIP3    H2 8164   1.549   0.965   1.594 -0.3864  0.0106  0.4850
 2734TIP3   OH2 8165   2.360   1.383   1.035  0.0516  0.0441 -0.3740
 2734TIP3    H1 8166   2.290   1.417   0.979 -0.4647  0.7619  0.6744
 2734TIP3    H2 8167   2.419   1.338   0.975  0.6149  2.5341 -1.8240
 2735TIP3   OH2 8168   0.335   0.055   4.357  0.0638  0.7095  0.0980
 2735TIP3    H1 8169   0.391   0.060   4.280 -0.7775  1.2072 -0.5037
 2735TIP3    H2 8170   0.270  -0.012   4.334  0.7105 -0.2328  0.9890
 2736TIP3   OH2 8171   2.013   3.978   1.181 -0.5442  0.0849 -0.5467
 2736TIP3    H1 8172   2.085   3.977   1.243  0.8349 -0.3639 -2.0895
 2736TIP3    H2 8173   1.941   3.933   1.226 -0.4163  1.9121  1.6057
 2737TIP3   OH2 8174   4.749   2.718   2.862 -0.0572  0.1898  0.2647
 2737TIP3    H1 8175   4.693   2.761   2.927 -0.8979 -0.6575  0.1338
 2737TIP3    H2 8176   4.704   2.635   2.844 -0.1305  0.6416 -1.7983
 2738TIP3   OH2 8177   3.053   0.041   4.851 -0.2100 -0.1181  0.2642
 2738TIP3    H1 8178   2.970  -0.003   4.831 -0.2547  0.5189 -1.0960
 2738TIP3    H2 8179   3.120  -0.011   4.806 -0.3018  1.3111 -1.6585
 2739TIP3   OH2 8180   4.132   1.292   0.322 -0.1961 -0.2668 -0.2432
 2739TIP3    H1 8181   4.052   1.247   0.350 -0.9299  0.5446 -0.9521
 2739TIP3    H2 8182   4.119   1.308   0.229  1.7152 -1.9427 -0.8660
 2740TIP3   OH2 8183   3.720   0.440   1.174  0.5681  0.2187 -0.4008
 2740TIP3    H1 8184   3.649   0.473   1.229  1.0768 -0.7960  0.8988
 2740TIP3    H2 8185   3.698   0.471   1.086 -0.4095  1.6366  0.3092
 2741TIP3   OH2 8186   6.408   1.044   3.125  0.5522  0.6263  0.3290
 2741TIP3    H1 8187   6.376   1.044   3.216  0.6353 -0.0857  0.3643
 2741TIP3    H2 8188   6.339   1.088   3.076 -0.5707 -0.9892  0.3894
 2742TIP3   OH2 8189   6.690   5.095   1.062  0.6931 -0.1590  0.3546
 2742TIP3    H1 8190   6.754   5.052   1.005  2.8276  2.4287  0.6349
 2742TIP3    H2 8191   6.673   5.031   1.131 -0.5619 -2.6471 -2.0577
 2743TIP3   OH2 8192   6.131   5.789   2.819  0.0599  0.1288  0.0447
 2743TIP3    H1 8193   6.091   5.703   2.805 -1.8510  0.8384  0.7459
 2743TIP3    H2 8194   6.079   5.848   2.764  1.8245  0.7541 -1.0167
 2744TIP3   OH2 8195   1.514   0.399   0.118 -1.0829  0.2151 -0.1298
 2744TIP3    H1 8196   1.462   0.388   0.198 -0.9392 -1.6623 -0.2540
 2744TIP3    H2 8197   1.487   0.326   0.062 -0.3401  0.8434 -1.3339
 2745TIP3   OH2 8198   6.435   2.385   1.042  0.3524  0.0139 -0.3857
 2745TIP3    H1 8199   6.344   2.402   1.017 -0.4798  0.2330  2.4063
 2745TIP3    H2 8200   6.458   2.459   1.099  1.8444 -0.7005 -0.0258
 2746TIP3   OH2 8201   6.322   4.478   1.400  0.0984 -0.5123  0.6770
 2746TIP3    H1 8202   6.264   4.529   1.344 -1.7863 -1.4520  1.6514
 2746TIP3    H2 8203   6.390   4.540   1.428 -0.7949  0.8206 -0.0140
 2747TIP3   OH2 8204   6.247   4.084   1.125 -0.1553  0.7995 -0.0988
 2747TIP3    H1 8205   6.271   4.041   1.207 -1.7691  1.8932  1.0013
 2747TIP3    H2 8206   6.300   4.040   1.058  0.2838 -0.9647  1.3421
 2748TIP3   OH2 8207   5.605   0.349   4.533  0.3786 -0.3071  1.0079
 2748TIP3    H1 8208   5.525   0.386   4.571 -0.1776 -1.0133  0.5424
 2748TIP3    H2 8209   5.579   0.318   4.446  1.3183  0.0502  0.5843
 2749TIP3   OH2 8210   1.083   6.304   1.660 -0.2872  0.0072  0.1682
 2749TIP3    H1 8211   1.105   6.211   1.666  0.1030 -0.0336 -1.3720
 2749TIP3    H2 8212   1.145   6.339   1.596 -0.1833  1.4182  1.0131
 2750TIP3   OH2 8213   0.088   4.706   1.919 -0.2549 -0.0195  0.3067
 2750TIP3    H1 8214   0.173   4.745   1.897 -0.2073  0.2362  0.9184
 2750TIP3    H2 8215   0.100   4.672   2.008 -0.5819 -0.6112  0.1314
 2751TIP3   OH2 8216   2.544   3.225   1.212 -0.2465 -0.6028 -0.0848
 2751TIP3    H1 8217   2.469   3.255   1.265 -0.0021 -0.9127  0.4511
 2751TIP3    H2 8218   2.536   3.129   1.213 -0.1109 -0.6183 -0.4280
 2752TIP3   OH2 8219   2.250   3.771   0.209 -0.2512  0.3999  0.4407
 2752TIP3    H1 8220   2.176   3.711   0.196  0.0847  0.2073 -0.7688
 2752TIP3    H2 8221   2.212   3.859   0.199 -0.5576  0.3497  1.1702
 2753TIP3   OH2 8222   5.309   5.987   4.953  0.6284 -0.3918  0.1711
 2753TIP3    H1 8223   5.376   5.977   4.886 -0.2682 -1.9022 -0.5401
 2753TIP3    H2 8224   5.227   5.962   4.910 -0.4615  1.5067  0.9776
 2754TIP3   OH2 8225   4.629   5.189   4.028 -0.5882 -0.0939 -0.3923
 2754TIP3    H1 8226   4.666   5.241   4.100 -0.1716  0.3764 -0.9360
 2754TIP3    H2 8227   4.590   5.113   4.071 -0.3797  0.2005  0.3345
 2755TIP3   OH2 8228   5.458   6.741   0.511  0.1812  0.0452  0.2832
 2755TIP3    H1 8229   5.394   6.723   0.443  0.7826  1.1262 -0.6055
 2755TIP3    H2 8230   5.407   6.744   0.592 -0.7223 -0.1331 -0.2626
 2756TIP3   OH2 8231   2.820   2.264   1.703 -0.0285  0.3714 -0.7028
 2756TIP3    H1 8232   2.908   2.233   1.725 -0.7692  0.0914  2.3228
 2756TIP3    H2 8233   2.765   2.186   1.710 -0.8811  1.0168  0.0318
 2757TIP3   OH2 8234   3.687   6.676   4.029 -0.2327  0.0556  0.4675
 2757TIP3    H1 8235   3.599   6.699   3.997 -0.6437 -0.8993  0.8595
 2757TIP3    H2 8236   3.671   6.609   4.096  0.9123 -1.5272 -0.7743
 2758TIP3   OH2 8237   1.177   3.279   3.713 -0.1393 -0.4732 -0.9725
 2758TIP3    H1 8238   1.183   3.349   3.648 -0.6943 -0.8698 -1.4620
 2758TIP3    H2 8239   1.245   3.216   3.687  1.1251  0.3885  0.1190
 2759TIP3   OH2 8240   5.901   2.146   4.257  0.0955 -0.1524  0.0280
 2759TIP3    H1 8241   5.985   2.192   4.265  0.9617 -1.6761  0.2259
 2759TIP3    H2 8242   5.835   2.212   4.277  1.1507  1.4428 -1.4292
 2760TIP3   OH2 8243   4.937   0.915   3.318 -0.1691 -0.0275 -0.6078
 2760TIP3    H1 8244   4.907   1.003   3.344  3.0895  0.1778  3.6117
 2760TIP3    H2 8245   4.872   0.856   3.355  0.6452  0.6069  2.1336
 2761TIP3   OH2 8246   1.319   4.549   5.502 -0.1038 -0.2944  0.3537
 2761TIP3    H1 8247   1.250   4.490   5.474  1.2711 -1.3170 -1.0165
 2761TIP3    H2 8248   1.299   4.568   5.594 -2.0142 -0.7855  0.0708
 2762TIP3   OH2 8249   2.938   2.502   1.974  0.0057 -0.2102 -0.2218
 2762TIP3    H1 8250   2.949   2.588   2.013  1.3023 -0.2892 -0.3891
 2762TIP3    H2 8251   2.998   2.445   2.022 -1.1792 -1.1487  0.2166
 2763TIP3   OH2 8252   6.926   3.226   0.117 -0.3213 -0.1293  0.1136
 2763TIP3    H1 8253   6.892   3.263   0.198  0.7687  0.7699  0.1812
 2763TIP3    H2 8254   6.967   3.299   0.072 -0.7991 -0.6507 -1.1987
 2764TIP3   OH2 8255   1.617   5.120   5.311 -0.3019 -0.0640 -0.7546
 2764TIP3    H1 8256   1.646   5.087   5.226 -3.5595 -0.7562 -1.7737
 2764TIP3    H2 8257   1.594   5.211   5.295  0.8428  0.3551 -0.0909
 2765TIP3   OH2 8258   4.367   6.310   5.198 -0.4914 -0.4230 -0.2085
 2765TIP3    H1 8259   4.388   6.311   5.292  1.5965 -0.3218 -0.6316
 2765TIP3    H2 8260   4.272   6.317   5.195 -0.7460 -1.8614  1.9412
 2766TIP3   OH2 8261   1.136   1.634   5.743 -0.6684 -0.0995  0.2375
 2766TIP3    H1 8262   1.223   1.621   5.779 -1.2327 -1.4633  1.2086
 2766TIP3    H2 8263   1.105   1.546   5.722 -2.1272  0.2711  0.7068
 2767TIP3   OH2 8264   1.657   6.769   4.263 -0.2171 -0.2029  0.0397
 2767TIP3    H1 8265   1.678   6.681   4.233  0.9893  0.2380 -0.4432
 2767TIP3    H2 8266   1.740   6.816   4.261 -0.5504  0.5434  1.7138
 2768TIP3   OH2 8267   5.587   2.114   1.006 -0.0252  0.0971 -0.4984
 2768TIP3    H1 8268   5.666   2.085   1.051 -0.6397 -0.2753  0.3462
 2768TIP3    H2 8269   5.615   2.192   0.958  0.1411  1.8556  2.2793
 2769TIP3   OH2 8270   4.808   6.140   5.863  0.1279 -0.1965 -0.3096
 2769TIP3    H1 8271   4.788   6.048   5.879  0.5542 -0.2112  0.1542
 2769TIP3    H2 8272   4.731   6.173   5.815  0.1081 -0.8608 -0.7501
 2770TIP3   OH2 8273   5.751   4.522   1.767  0.4771 -0.2932  0.1202
 2770TIP3    H1 8274   5.724   4.555   1.682  3.2507  0.0644 -0.7168
 2770TIP3    H2 8275   5.788   4.598   1.812  0.9178 -0.9021  0.8233
 2771TIP3   OH2 8276   4.647   6.247   2.093  0.0143 -0.4371 -0.1875
 2771TIP3    H1 8277   4.630   6.190   2.019  0.1181  0.8453 -1.2314
 2771TIP3    H2 8278   4.723   6.299   2.068  2.0732 -2.1141  2.1017
 2772TIP3   OH2 8279   7.073   2.849   1.059  0.1826 -0.0282 -0.3733
 2772TIP3    H1 8280   7.002   2.911   1.076 -0.1744 -0.3674 -0.5749
 2772TIP3    H2 8281   7.152   2.893   1.088 -0.2016  0.0577  0.5841
 2773TIP3   OH2 8282   1.682   2.376   5.300 -0.5610 -0.3263  0.1613
 2773TIP3    H1 8283   1.621   2.313   5.262 -0.3028 -0.1245 -0.5964
 2773TIP3    H2 8284   1.725   2.417   5.225  0.1591 -0.1207  0.6741
 2774TIP3   OH2 8285   3.472   1.361   2.926 -0.2247  0.2781 -0.4760
 2774TIP3    H1 8286   3.403   1.421   2.898  0.5915  2.0253  1.0944
 2774TIP3    H2 8287   3.526   1.412   2.985  0.8272 -1.8781  0.5283
 2775TIP3   OH2 8288   1.413   6.376   2.349  0.2695 -0.1890 -0.0755
 2775TIP3    H1 8289   1.407   6.468   2.324 -0.2090 -0.0894  0.3861
 2775TIP3    H2 8290   1.346   6.332   2.296  0.6069 -0.3020 -0.4139
 2776TIP3   OH2 8291   5.888   4.666   5.306  0.2751  0.0753 -0.3816
 2776TIP3    H1 8292   5.979   4.639   5.293  0.3617 -0.2353  0.7591
 2776TIP3    H2 8293   5.894   4.755   5.340  0.2143 -0.2981  0.6470
 2777TIP3   OH2 8294   0.013   3.579   4.670  0.1115  0.1749 -0.0380
 2777TIP3    H1 8295   0.107   3.599   4.661 -0.0464  0.4393 -1.4579
 2777TIP3    H2 8296  -0.022   3.592   4.582 -1.5866  1.6866  0.8083
 2778TIP3   OH2 8297   1.964   1.794   4.680  0.2388 -0.2345 -0.4460
 2778TIP3    H1 8298   1.890   1.847   4.711  0.7782  0.3639 -0.1628
 2778TIP3    H2 8299   1.997   1.841   4.603  0.5936 -0.2662 -0.3153
 2779TIP3   OH2 8300  -0.032   2.609   3.712 -0.2211 -0.3120 -0.2353
 2779TIP3    H1 8301   0.055   2.573   3.697 -0.6907 -0.5158 -3.0211
 2779TIP3    H2 8302  -0.018   2.704   3.715  0.2624 -0.4033  1.0554
 2780TIP3   OH2 8303   6.674   5.485   4.857  0.3609 -0.5764  0.2736
 2780TIP3    H1 8304   6.632   5.445   4.933 -0.1974  2.2206  1.5667
 2780TIP3    H2 8305   6.605   5.535   4.814  1.2635  0.0342 -0.5209
 2781TIP3   OH2 8306   1.871   0.388   4.994  0.2980 -0.4634  0.6096
 2781TIP3    H1 8307   1.932   0.435   5.050  0.3618  1.4676 -0.9714
 2781TIP3    H2 8308   1.793   0.376   5.048  1.4948 -1.6075  2.1514
 2782TIP3   OH2 8309   7.085   1.267  -0.030  0.6979  0.1444  0.6291
 2782TIP3    H1 8310   7.060   1.346   0.019 -1.1513 -0.7312  1.2234
 2782TIP3    H2 8311   7.165   1.237   0.012  0.2505  0.5392  1.8034
 2783TIP3   OH2 8312   4.772   3.384   5.667  0.4776 -0.5144  0.4628
 2783TIP3    H1 8313   4.738   3.305   5.709  0.8717 -1.3938 -0.8301
 2783TIP3    H2 8314   4.846   3.410   5.722 -1.3916  0.7214  2.6120
 2784TIP3   OH2 8315   4.300   3.257   2.632  0.2089 -0.9283 -0.0246
 2784TIP3    H1 8316   4.244   3.312   2.578  1.4135 -0.4054 -0.7901
 2784TIP3    H2 8317   4.256   3.173   2.635 -1.7640  0.0793  1.3097
 2785TIP3   OH2 8318   3.190   4.083   2.763  0.2376  0.0546 -0.1307
 2785TIP3    H1 8319   3.252   4.137   2.813  1.7459 -2.3218  0.7132
 2785TIP3    H2 8320   3.231   4.071   2.678 -0.0771  0.1682 -0.3024
 2786TIP3   OH2 8321   1.115   3.680   4.733  0.1408  0.1274  0.4759
 2786TIP3    H1 8322   1.127   3.714   4.821  0.1227 -0.9509  0.9119
 2786TIP3    H2 8323   1.155   3.592   4.736  1.7457  0.7461 -1.0645
 2787TIP3   OH2 8324   3.398   0.961   5.054  0.0373  0.2856  0.5815
 2787TIP3    H1 8325   3.340   1.002   5.118  0.9814  3.6156 -0.4539
 2787TIP3    H2 8326   3.485   0.967   5.093  0.6219  2.3188 -0.8470
 2788TIP3   OH2 8327   5.966   1.344   1.139 -0.1690 -0.3953 -0.1078
 2788TIP3    H1 8328   5.956   1.398   1.217 -2.1206 -2.2938  1.0952
 2788TIP3    H2 8329   5.885   1.358   1.089 -0.4427 -1.6837 -0.0696
 2789TIP3   OH2 8330   4.261   6.412   2.688  0.0047  0.2994 -0.4529
 2789TIP3    H1 8331   4.353   6.438   2.690 -0.4537  1.9383  0.3623
 2789TIP3    H2 8332   4.227   6.434   2.774 -1.1102 -0.5305 -0.6557
 2790TIP3   OH2 8333   4.848   1.931   2.247 -0.2304 -0.1778  0.0318
 2790TIP3    H1 8334   4.939   1.923   2.221 -1.0078 -1.1675 -2.7230
 2790TIP3    H2 8335   4.838   1.869   2.319  1.5844  1.1785  1.5413
 2791TIP3   OH2 8336   2.319   5.719   3.785  0.1123  0.3195 -0.3137
 2791TIP3    H1 8337   2.236   5.678   3.808  0.8170 -1.4480 -0.7396
 2791TIP3    H2 8338   2.385   5.652   3.805  1.3521  1.3767 -0.7575
 2792TIP3   OH2 8339   4.027   0.709   2.393  0.3342  0.0490  0.3248
 2792TIP3    H1 8340   4.086   0.653   2.344 -1.4337 -2.6385  1.0647
 2792TIP3    H2 8341   4.074   0.792   2.402  2.1634 -0.5042 -2.7553
 2793TIP3   OH2 8342   5.014   2.584   2.967  0.2800  0.4347  0.4174
 2793TIP3    H1 8343   5.004   2.570   3.061 -0.4323  1.9837  0.6221
 2793TIP3    H2 8344   4.924   2.598   2.936  0.3254 -1.6354 -0.8168
 2794TIP3   OH2 8345   5.387   0.954   5.284 -1.2935  0.2276 -0.2190
 2794TIP3    H1 8346   5.321   0.908   5.336 -0.9017  0.2650  0.3271
 2794TIP3    H2 8347   5.471   0.928   5.323 -1.0560  1.3102  0.0348
 2795TIP3   OH2 8348   0.876   2.209   1.967 -0.1424 -0.4150  0.2400
 2795TIP3    H1 8349   0.869   2.224   1.873 -0.3979 -0.8571  0.1848
 2795TIP3    H2 8350   0.969   2.222   1.987  0.4382 -2.9396 -0.5358
 2796TIP3   OH2 8351   1.100   4.846   1.559 -1.0348  0.6046 -0.2135
 2796TIP3    H1 8352   1.073   4.836   1.468 -2.3145 -1.0180  0.2941
 2796TIP3    H2 8353   1.110   4.940   1.571 -0.5640  0.8339 -2.0875
 2797TIP3   OH2 8354   3.267   5.939   4.527 -0.0794  0.2479  0.7017
 2797TIP3    H1 8355   3.234   5.965   4.441 -0.4278  0.8031  0.9990
 2797TIP3    H2 8356   3.190   5.905   4.573  0.3246 -1.1507  0.3949
 2798TIP3   OH2 8357   5.920   1.117   1.850 -0.3305  0.5112 -0.3406
 2798TIP3    H1 8358   5.878   1.032   1.856  0.2834  0.0886 -1.7144
 2798TIP3    H2 8359   5.913   1.154   1.939  0.4568 -1.4536  0.5852
 2799TIP3   OH2 8360   4.134   2.180   2.700 -0.0790 -0.1703 -0.7255
 2799TIP3    H1 8361   4.189   2.122   2.648 -0.3780 -1.5177  0.3845
 2799TIP3    H2 8362   4.070   2.122   2.740 -1.4880  1.1796 -0.9262
 2800TIP3   OH2 8363   0.675   2.181   3.342  0.1013 -0.2466  0.1505
 2800TIP3    H1 8364   0.602   2.198   3.400 -1.7663 -2.4941 -1.3172
 2800TIP3    H2 8365   0.715   2.101   3.376 -1.2151 -1.7793 -1.6698
 2801TIP3   OH2 8366   4.539   0.169   4.900  0.1617 -0.0757  0.1209
 2801TIP3    H1 8367   4.520   0.257   4.865 -2.1733 -0.3223  0.6270
 2801TIP3    H2 8368   4.547   0.182   4.994  3.5835  0.1146 -0.0676
 2802TIP3   OH2 8369   0.493   4.348   5.818  0.3200 -0.3777  0.5854
 2802TIP3    H1 8370   0.509   4.383   5.905  0.5139  0.3704  0.2520
 2802TIP3    H2 8371   0.433   4.410   5.776  2.4008  0.8466 -0.7957
 2803TIP3   OH2 8372   6.305   0.496   4.420 -0.3286  0.5759  0.4817
 2803TIP3    H1 8373   6.266   0.462   4.501 -1.3169  0.6353  0.0473
 2803TIP3    H2 8374   6.239   0.556   4.385  0.7299  1.7514  0.4139
 2804TIP3   OH2 8375   5.670   5.263   0.929  0.4889  0.3374  0.6029
 2804TIP3    H1 8376   5.662   5.353   0.962  0.1430  0.1696  0.9937
 2804TIP3    H2 8377   5.635   5.209   1.000 -1.1280  0.0214 -0.3886
 2805TIP3   OH2 8378   4.116   0.439   3.026 -0.3259  0.4047  0.0535
 2805TIP3    H1 8379   4.086   0.515   3.075 -1.9637  0.0344 -0.3351
 2805TIP3    H2 8380   4.051   0.427   2.957  1.0257 -0.0974 -1.1767
 2806TIP3   OH2 8381   3.673   5.423   5.580 -0.1807  0.0260 -0.0399
 2806TIP3    H1 8382   3.695   5.338   5.542  0.7757  0.5337 -0.6817
 2806TIP3    H2 8383   3.673   5.409   5.674  0.0591 -0.6633 -0.1384
 2807TIP3   OH2 8384   1.961   5.454   1.435  0.0663  0.0458 -0.2362
 2807TIP3    H1 8385   1.877   5.499   1.434 -0.7304 -1.3193  1.4278
 2807TIP3    H2 8386   2.006   5.486   1.356 -1.2470  2.1603 -0.2036
 2808TIP3   OH2 8387   1.063   3.615   0.739 -0.2857 -0.0833 -0.3211
 2808TIP3    H1 8388   1.031   3.611   0.649  0.4900  0.1413 -0.6246
 2808TIP3    H2 8389   1.040   3.704   0.768  0.4614  0.2472 -0.7050
 2809TIP3   OH2 8390   3.630   0.444   0.903  0.5184  0.3172 -0.0992
 2809TIP3    H1 8391   3.536   0.460   0.895  0.1726 -1.2009  0.6995
 2809TIP3    H2 8392   3.642   0.353   0.876  1.7028  0.3709  0.2037
 2810TIP3   OH2 8393   5.091   2.707   1.406 -0.0673 -0.1698  0.3681
 2810TIP3    H1 8394   5.122   2.795   1.427  0.6245 -0.3762  0.2159
 2810TIP3    H2 8395   5.014   2.722   1.350  0.7957  0.3431 -0.7302
 2811TIP3   OH2 8396   4.335   3.741   1.668  0.1647  0.4884  0.0856
 2811TIP3    H1 8397   4.393   3.814   1.645 -0.1910  0.4311 -1.0214
 2811TIP3    H2 8398   4.330   3.744   1.764  1.5933  0.7938  0.1682
 2812TIP3   OH2 8399   3.090   6.301   2.786  0.4888 -0.5445  0.3341
 2812TIP3    H1 8400   3.055   6.377   2.834  0.6941 -1.1666  1.4960
 2812TIP3    H2 8401   3.015   6.244   2.774  0.2983 -0.1000 -0.6943
 2813TIP3   OH2 8402   4.024   1.695   5.354 -0.1536  0.4618 -0.2037
 2813TIP3    H1 8403   4.103   1.660   5.394  0.3891  0.4654 -1.2318
 2813TIP3    H2 8404   4.045   1.786   5.334 -0.1604  0.2792 -1.0973
 2814TIP3   OH2 8405   4.781   5.216   3.535 -0.1140 -0.0136 -0.5554
 2814TIP3    H1 8406   4.745   5.187   3.619 -2.8483  0.1988 -1.5448
 2814TIP3    H2 8407   4.791   5.136   3.484  1.0931 -0.0919 -0.2248
 2815TIP3   OH2 8408   3.509   6.135   3.816 -0.2410 -0.0533 -0.1579
 2815TIP3    H1 8409   3.572   6.183   3.761 -0.5471 -1.3082 -1.6813
 2815TIP3    H2 8410   3.477   6.065   3.760 -1.7203 -0.4996  1.1652
 2816TIP3   OH2 8411   3.025   2.033   0.685  0.3487  0.3066 -0.5112
 2816TIP3    H1 8412   2.993   2.063   0.770 -0.1145  0.9980 -0.9238
 2816TIP3    H2 8413   2.995   1.943   0.679  1.0503 -0.0111  0.3885
 2817TIP3   OH2 8414   4.747   4.814   1.470 -0.2802 -0.4853  0.1998
 2817TIP3    H1 8415   4.656   4.812   1.439 -0.3934 -1.0201  0.5624
 2817TIP3    H2 8416   4.754   4.896   1.519 -0.7500 -0.7508  0.7213
 2818TIP3   OH2 8417   5.547   3.650   2.226 -0.8440 -0.0805  0.3203
 2818TIP3    H1 8418   5.538   3.554   2.225 -0.9194 -0.0704 -1.0165
 2818TIP3    H2 8419   5.629   3.667   2.181 -1.1994  0.5200 -0.1089
 2819TIP3   OH2 8420   5.896   6.503   3.415  0.1465 -0.2845 -0.6166
 2819TIP3    H1 8421   5.951   6.550   3.352 -0.0021  1.8550  0.7422
 2819TIP3    H2 8422   5.823   6.562   3.432 -0.2185 -1.1293  0.9570
 2820TIP3   OH2 8423   1.412   0.643   2.224  0.2781 -0.0820  0.0215
 2820TIP3    H1 8424   1.431   0.726   2.267  0.7960  0.3925 -1.0954
 2820TIP3    H2 8425   1.453   0.650   2.138 -1.6050 -0.5806 -0.9763
 2821TIP3   OH2 8426   0.827   0.498   4.865  0.1803  0.1276 -0.7245
 2821TIP3    H1 8427   0.744   0.536   4.837  0.2749  0.8478 -0.0669
 2821TIP3    H2 8428   0.883   0.504   4.788  0.3153  1.7186 -0.5437
 2822TIP3   OH2 8429   2.686   6.101   0.506 -0.3421 -0.0639 -0.2945
 2822TIP3    H1 8430   2.765   6.066   0.465  0.2421  0.2547  0.5254
 2822TIP3    H2 8431   2.718   6.168   0.566 -1.1810 -0.3438  0.4936
 2823TIP3   OH2 8432   3.449   0.313   5.773 -0.0171 -0.5100 -0.0892
 2823TIP3    H1 8433   3.370   0.301   5.720  0.7594 -1.2659 -1.1293
 2823TIP3    H2 8434   3.427   0.275   5.857 -1.5116  1.3081  0.4164
 2824TIP3   OH2 8435   2.874   0.520   4.954 -0.0331 -0.0050 -0.1071
 2824TIP3    H1 8436   2.902   0.573   4.880  1.0336  2.0234  1.6423
 2824TIP3    H2 8437   2.939   0.449   4.959 -0.5290 -0.5901 -1.4852
 2825TIP3   OH2 8438   3.266   0.137   4.622 -0.3645 -0.1604  0.3606
 2825TIP3    H1 8439   3.300   0.086   4.696  2.7209  0.4735 -0.4914
 2825TIP3    H2 8440   3.330   0.208   4.611  0.7832 -1.5925 -4.4007
 2826TIP3   OH2 8441   1.377   6.294   2.615 -0.3221  0.4067  0.2514
 2826TIP3    H1 8442   1.366   6.310   2.521  1.7018  0.8595  0.0420
 2826TIP3    H2 8443   1.396   6.381   2.651 -1.3735  0.2781  1.1497
 2827TIP3   OH2 8444   4.646   2.708   2.531 -0.2580 -0.1100  0.2599
 2827TIP3    H1 8445   4.731   2.715   2.575 -0.4516 -0.0757  0.6388
 2827TIP3    H2 8446   4.665   2.664   2.449  0.0964 -0.3109  0.4459
 2828TIP3   OH2 8447   4.455   2.484   3.031  0.2072 -0.2073  0.5678
 2828TIP3    H1 8448   4.435   2.390   3.041  1.8304 -0.4112  2.5015
 2828TIP3    H2 8449   4.546   2.485   3.000  0.1231  0.7475  0.3467
 2829TIP3   OH2 8450   2.792   0.913   5.527 -0.0970  0.5151  0.5178
 2829TIP3    H1 8451   2.875   0.907   5.480 -0.3491  2.2079 -0.2004
 2829TIP3    H2 8452   2.803   0.988   5.585 -1.0437  0.6151  0.5729
 2830TIP3   OH2 8453   4.254   3.477   3.482 -0.0414  0.3046  0.2375
 2830TIP3    H1 8454   4.184   3.420   3.513  2.4376 -1.6737  2.7599
 2830TIP3    H2 8455   4.251   3.553   3.540 -0.2085  0.3045  0.2278
 2831TIP3   OH2 8456   5.364   0.492   0.049 -0.2025 -0.3410 -0.1630
 2831TIP3    H1 8457   5.399   0.564  -0.003 -1.4856 -0.3857 -1.1305
 2831TIP3    H2 8458   5.276   0.520   0.073 -0.2295 -1.0322  0.5903
 2832TIP3   OH2 8459   4.582   1.882   3.924 -0.5345 -0.1478 -0.4721
 2832TIP3    H1 8460   4.629   1.965   3.922 -0.3758 -0.2503 -0.9407
 2832TIP3    H2 8461   4.579   1.852   3.833 -1.1401 -0.3503 -0.3960
 2833TIP3   OH2 8462   2.653   6.192   2.504 -0.0247 -0.0016 -0.6811
 2833TIP3    H1 8463   2.564   6.228   2.499 -0.0676  0.0866  0.5397
 2833TIP3    H2 8464   2.642   6.098   2.488 -0.3199  0.0214 -0.6070
 2834TIP3   OH2 8465   3.411   5.694   0.685  0.0867  0.3430  0.1682
 2834TIP3    H1 8466   3.459   5.614   0.706 -0.2788  0.0991  0.0750
 2834TIP3    H2 8467   3.385   5.683   0.594  1.2717  1.1982 -0.3017
 2835TIP3   OH2 8468   4.471   4.902   1.348 -0.1495 -0.2900 -0.6470
 2835TIP3    H1 8469   4.466   4.998   1.347 -1.2550 -0.3120  0.5270
 2835TIP3    H2 8470   4.473   4.878   1.255 -1.7795  0.8129 -1.0200
 2836TIP3   OH2 8471   3.388   2.938   3.239 -0.7831 -0.5375  0.2758
 2836TIP3    H1 8472   3.475   2.953   3.202 -1.3674 -0.0277 -0.9491
 2836TIP3    H2 8473   3.403   2.935   3.333  0.6069 -0.7938  0.0790
 2837TIP3   OH2 8474   1.053   0.956   2.727 -0.2693 -0.1004  0.5235
 2837TIP3    H1 8475   1.120   0.995   2.784  0.2308 -0.1602 -0.0144
 2837TIP3    H2 8476   0.976   0.948   2.783  0.7475 -1.9246  1.7503
 2838TIP3   OH2 8477   5.606   3.094   3.346  0.2875  0.2416 -0.0338
 2838TIP3    H1 8478   5.547   3.041   3.400  2.8899 -1.3701  1.4346
 2838TIP3    H2 8479   5.581   3.075   3.256 -1.1627 -0.6949  0.5381
 2839TIP3   OH2 8480   0.554   1.196   2.570 -0.9738  0.2582 -0.1031
 2839TIP3    H1 8481   0.587   1.152   2.492  0.7522  2.2688 -0.5950
 2839TIP3    H2 8482   0.488   1.257   2.536 -1.3993 -0.0102  0.2320
 2840TIP3   OH2 8483   3.311   4.712   3.774 -0.3741 -0.3279  0.0649
 2840TIP3    H1 8484   3.388   4.769   3.774 -2.1397  2.2257 -0.8303
 2840TIP3    H2 8485   3.290   4.701   3.867  1.0033 -1.0424  0.3219
 2841TIP3   OH2 8486   3.236   2.244   5.666 -0.7865  0.3855 -0.7785
 2841TIP3    H1 8487   3.227   2.182   5.594 -0.6549 -0.2646 -0.2520
 2841TIP3    H2 8488   3.154   2.236   5.715 -0.3904 -0.0968 -0.1654
 2842TIP3   OH2 8489   5.578   3.000   1.269  0.2775 -0.8400  0.6142
 2842TIP3    H1 8490   5.575   3.025   1.362 -2.3436 -0.6066  0.5466
 2842TIP3    H2 8491   5.519   2.924   1.263  2.1020 -2.2409 -0.5240
 2843TIP3   OH2 8492   2.795   3.092   0.848  0.1224 -0.1605  0.1188
 2843TIP3    H1 8493   2.830   3.098   0.759  1.3883 -1.5556  0.4958
 2843TIP3    H2 8494   2.768   3.182   0.868 -0.4108  0.1433 -1.7371
 2844TIP3   OH2 8495   2.740   0.917   5.154 -0.3529 -0.3458 -0.3161
 2844TIP3    H1 8496   2.776   0.944   5.070  1.3401  0.5591  0.6308
 2844TIP3    H2 8497   2.788   0.837   5.177 -0.4432 -0.3118  0.0054
 2845TIP3   OH2 8498   6.938   6.481   5.229 -0.4128 -0.8158  1.1526
 2845TIP3    H1 8499   6.923   6.527   5.312  0.7780  0.5554  0.6370
 2845TIP3    H2 8500   6.874   6.519   5.169  2.2997  2.3344 -0.0294
 2846TIP3   OH2 8501   4.826   0.809   1.163 -0.4050 -0.7889  0.0762
 2846TIP3    H1 8502   4.872   0.730   1.190  0.1770 -0.6427 -0.4626
 2846TIP3    H2 8503   4.890   0.859   1.113  0.0008  1.1627  2.3686
 2847TIP3   OH2 8504   1.600   5.962   3.170  0.8984 -0.3836 -0.2546
 2847TIP3    H1 8505   1.662   6.004   3.110  0.5042  1.4663  0.5405
 2847TIP3    H2 8506   1.622   6.000   3.256 -0.7328 -0.3841  0.1822
 2848TIP3   OH2 8507   2.263   2.832   2.860  0.2450 -0.5475  0.1596
 2848TIP3    H1 8508   2.252   2.899   2.928 -0.6366 -2.0641  1.5814
 2848TIP3    H2 8509   2.174   2.809   2.835  0.5562 -0.5329 -1.0362
 2849TIP3   OH2 8510   4.723   3.102   5.740  0.1780  0.3890  0.5993
 2849TIP3    H1 8511   4.642   3.126   5.784 -1.2078 -0.0920 -1.5229
 2849TIP3    H2 8512   4.711   3.011   5.712  0.5607  0.9012 -1.4616
 2850TIP3   OH2 8513   5.818   4.704   3.609 -0.2622  0.5971 -0.2164
 2850TIP3    H1 8514   5.845   4.786   3.650 -1.0428  0.7490  0.0133
 2850TIP3    H2 8515   5.737   4.680   3.654  0.8215 -1.1981  0.9063
 2851TIP3   OH2 8516   2.241   1.984   2.705  0.3036 -0.2216  0.5197
 2851TIP3    H1 8517   2.229   1.980   2.610 -1.7186  1.1532  0.6538
 2851TIP3    H2 8518   2.230   1.894   2.735  0.5957 -0.6093 -0.5037
 2852TIP3   OH2 8519   2.539   1.438   5.822 -0.1770  0.1163  0.1834
 2852TIP3    H1 8520   2.510   1.349   5.803  0.0772  0.2553 -0.9340
 2852TIP3    H2 8521   2.473   1.472   5.882 -2.9063  0.6869 -2.8377
 2853TIP3   OH2 8522   6.706   4.334   2.444 -0.1017 -0.9151 -0.5520
 2853TIP3    H1 8523   6.620   4.330   2.401  0.2170 -1.1040 -1.1813
 2853TIP3    H2 8524   6.710   4.255   2.497 -0.0563 -1.2463 -1.0384
 2854TIP3   OH2 8525   1.216   2.873   1.602 -0.5694 -0.0553  0.0944
 2854TIP3    H1 8526   1.259   2.886   1.518  0.3576 -0.3193  0.5209
 2854TIP3    H2 8527   1.164   2.793   1.591 -0.2705 -0.2150 -0.1516
 2855TIP3   OH2 8528   3.279   1.459   0.726  0.0129 -0.2340  0.3245
 2855TIP3    H1 8529   3.255   1.426   0.639 -0.7504  0.5616  0.2239
 2855TIP3    H2 8530   3.314   1.546   0.710  2.4773 -1.1038  0.5360
 2856TIP3   OH2 8531   2.086   3.061   2.703  0.8694  0.4197 -0.1948
 2856TIP3    H1 8532   2.041   2.992   2.752  2.7709 -0.2686  0.7038
 2856TIP3    H2 8533   2.131   3.016   2.633  3.0856  0.4919  1.0873
 2857TIP3   OH2 8534   1.340   0.942   4.044  0.0893  0.0370  0.0813
 2857TIP3    H1 8535   1.279   0.872   4.019 -2.5699  2.2622 -0.1020
 2857TIP3    H2 8536   1.304   0.977   4.125  1.4990  1.0928  0.2819
 2858TIP3   OH2 8537   2.167   4.330   1.726  0.1437 -0.1508 -0.0376
 2858TIP3    H1 8538   2.252   4.335   1.681 -0.4461  0.1505 -1.1478
 2858TIP3    H2 8539   2.190   4.329   1.819  1.3662  0.0276 -0.3140
 2859TIP3   OH2 8540   0.943   2.495   3.551 -0.0967 -0.1860 -0.3889
 2859TIP3    H1 8541   0.870   2.557   3.559  0.5054  0.3721  1.2914
 2859TIP3    H2 8542   0.993   2.525   3.476 -0.2418  0.9134 -0.0536
 2860TIP3   OH2 8543   4.688   6.664   4.361 -0.0431 -0.0285  0.2554
 2860TIP3    H1 8544   4.679   6.642   4.454  0.2807 -0.2404  0.2392
 2860TIP3    H2 8545   4.612   6.718   4.342 -0.8466 -1.0989  0.3093
 2861TIP3   OH2 8546   2.338   3.518   3.192  0.1461  0.3762 -0.3132
 2861TIP3    H1 8547   2.411   3.562   3.235 -0.4816 -0.0050  1.1982
 2861TIP3    H2 8548   2.264   3.528   3.252 -0.5202 -1.0094 -0.8543
 2862TIP3   OH2 8549   6.322   2.718   1.011  0.2792  0.4279 -0.8846
 2862TIP3    H1 8550   6.302   2.789   0.950 -0.9385  0.4067 -0.5451
 2862TIP3    H2 8551   6.258   2.650   0.990  0.1057  0.2641  0.1407
 2863TIP3   OH2 8552   1.371   2.207   3.933  0.2257 -0.1681  0.2658
 2863TIP3    H1 8553   1.406   2.163   4.011 -0.4641 -0.6471  0.3167
 2863TIP3    H2 8554   1.288   2.245   3.962  0.6782  0.9392  0.1421
 2864TIP3   OH2 8555   2.107   5.755   2.609 -0.8439  0.1978  0.1748
 2864TIP3    H1 8556   2.053   5.800   2.543  0.4205  0.7272 -0.5350
 2864TIP3    H2 8557   2.196   5.781   2.588 -0.0249 -2.5722 -0.2096
 2865TIP3   OH2 8558   4.427   5.460   2.334 -0.1302  0.2350  0.2655
 2865TIP3    H1 8559   4.425   5.413   2.417 -2.0098 -1.6032 -0.7371
 2865TIP3    H2 8560   4.356   5.523   2.340  0.2321  0.6440  0.3267
 2866TIP3   OH2 8561   5.868   2.130   3.928 -0.5116  0.3170 -0.2487
 2866TIP3    H1 8562   5.891   2.161   4.016 -0.8397  2.9926 -1.0178
 2866TIP3    H2 8563   5.941   2.156   3.873 -0.4366 -1.0912 -0.8533
 2867TIP3   OH2 8564   0.461   3.223   5.689 -0.1800  0.2357 -0.3910
 2867TIP3    H1 8565   0.408   3.298   5.716  0.1964  0.1894  0.5289
 2867TIP3    H2 8566   0.489   3.183   5.771  0.3839 -0.3716 -0.8679
 2868TIP3   OH2 8567   2.744   2.820   4.902  0.2792  0.1590 -0.0648
 2868TIP3    H1 8568   2.773   2.739   4.944  2.3185  0.7492 -0.2354
 2868TIP3    H2 8569   2.664   2.795   4.855  1.3867 -2.0213 -0.9334
 2869TIP3   OH2 8570   1.937   1.945   2.728  0.3793 -0.3420  0.4516
 2869TIP3    H1 8571   1.873   1.884   2.694  0.0583  0.4673 -0.4483
 2869TIP3    H2 8572   2.015   1.892   2.745 -0.1912 -1.1476  0.5908
 2870TIP3   OH2 8573   6.208   2.098   3.997  0.0402  0.2566  0.4122
 2870TIP3    H1 8574   6.284   2.121   3.944 -0.8821  0.8961 -0.6774
 2870TIP3    H2 8575   6.189   2.177   4.047  0.9817 -0.3827  1.8468
 2871TIP3   OH2 8576   6.225   4.471   3.107 -0.4176  0.2064 -0.2129
 2871TIP3    H1 8577   6.242   4.404   3.173  0.7023 -0.4730 -1.1505
 2871TIP3    H2 8578   6.200   4.422   3.029 -0.4599  0.9279 -0.6644
 2872TIP3   OH2 8579   5.216   6.392   3.159  0.2263 -0.0558 -0.0857
 2872TIP3    H1 8580   5.305   6.357   3.170 -0.1399 -1.4470 -1.2127
 2872TIP3    H2 8581   5.159   6.316   3.169 -0.8213  0.7503  0.2033
 2873TIP3   OH2 8582   1.217   1.498   2.543  0.0781 -0.1702 -0.5215
 2873TIP3    H1 8583   1.183   1.585   2.561  0.0013 -0.4292  0.6023
 2873TIP3    H2 8584   1.254   1.506   2.455 -0.8681  0.7049 -0.8669
 2874TIP3   OH2 8585   1.035   0.500   4.208  0.1164  0.2363  0.0494
 2874TIP3    H1 8586   1.118   0.512   4.163 -1.3361 -0.1685 -2.9647
 2874TIP3    H2 8587   1.001   0.588   4.220  0.4911  0.3464  0.3066
 2875TIP3   OH2 8588   0.109   1.119   4.286  0.1259  0.0891  0.0009
 2875TIP3    H1 8589   0.196   1.152   4.307  0.1113 -0.3625  0.7818
 2875TIP3    H2 8590   0.123   1.065   4.208  0.5702 -0.1294  0.2310
 2876TIP3   OH2 8591   6.672   1.833   1.811  0.1109  0.0100  0.3964
 2876TIP3    H1 8592   6.653   1.925   1.831  0.4768 -0.3682  2.6729
 2876TIP3    H2 8593   6.588   1.788   1.821  0.0747 -0.0307 -0.0465
 2877TIP3   OH2 8594   4.191   1.563   4.745  0.2391  0.1387 -0.0944
 2877TIP3    H1 8595   4.196   1.656   4.766  2.0405 -0.3378  1.8573
 2877TIP3    H2 8596   4.140   1.524   4.816  1.5425 -0.6843  0.4304
 2878TIP3   OH2 8597   3.699   5.378   2.369  0.0884  0.2655  0.1012
 2878TIP3    H1 8598   3.683   5.284   2.358  0.9888 -0.0036  0.9743
 2878TIP3    H2 8599   3.703   5.391   2.464  0.6667  1.0636 -0.0227
 2879TIP3   OH2 8600   3.224   0.256   1.468  0.3820 -0.0362  0.6215
 2879TIP3    H1 8601   3.300   0.231   1.415 -0.3811 -0.3217 -0.3604
 2879TIP3    H2 8602   3.192   0.337   1.426  0.2895  0.2193  1.1821
 2880TIP3   OH2 8603   6.342   5.800   1.496 -0.5654  0.0254 -0.0580
 2880TIP3    H1 8604   6.437   5.802   1.497 -0.5386  2.4422 -1.0242
 2880TIP3    H2 8605   6.320   5.719   1.451  1.1245  0.6776 -2.2521
 2881TIP3   OH2 8606   0.872   4.391   4.609  0.0102  0.3318 -0.7546
 2881TIP3    H1 8607   0.945   4.443   4.576  0.6694  0.6721  1.1024
 2881TIP3    H2 8608   0.879   4.307   4.565  0.6354  0.8555 -1.6825
 2882TIP3   OH2 8609   0.508   2.505   1.741  0.5495  0.2786  0.1891
 2882TIP3    H1 8610   0.487   2.439   1.807 -0.5363  1.8409  1.4876
 2882TIP3    H2 8611   0.423   2.543   1.717  1.1862  1.6532  0.0024
 2883TIP3   OH2 8612   4.279   5.195   2.192  0.4099 -0.2797 -0.0895
 2883TIP3    H1 8613   4.262   5.214   2.285  0.8160  0.5687 -0.1857
 2883TIP3    H2 8614   4.359   5.143   2.193  0.3152 -0.4260  0.0448
 2884TIP3   OH2 8615   0.436   6.464   0.101  0.3431 -0.3428 -0.1314
 2884TIP3    H1 8616   0.341   6.458   0.091  0.2244 -0.8495  1.0570
 2884TIP3    H2 8617   0.455   6.410   0.177  1.8312 -1.8192 -1.4854
 2885TIP3   OH2 8618   2.111   1.832   5.774  0.0898  0.2674 -0.0347
 2885TIP3    H1 8619   2.164   1.895   5.823  0.7708 -0.9847  0.9068
 2885TIP3    H2 8620   2.100   1.758   5.835 -1.0334 -0.3555 -0.9498
 2886TIP3   OH2 8621   6.402   1.848   1.187 -0.1543  0.4080 -0.0938
 2886TIP3    H1 8622   6.425   1.929   1.142 -1.0679  2.4387  2.8265
 2886TIP3    H2 8623   6.470   1.837   1.254 -0.6745 -0.6081  0.2953
 2887TIP3   OH2 8624   1.214   5.006   3.349 -0.3115 -0.3705 -0.1002
 2887TIP3    H1 8625   1.148   4.988   3.415  0.7827  1.1040  1.4900
 2887TIP3    H2 8626   1.252   4.920   3.328 -0.2615 -0.8090  1.6721
 2888TIP3   OH2 8627   5.964   2.635   2.632 -0.0239  0.0712  0.0784
 2888TIP3    H1 8628   5.973   2.576   2.707 -0.7967  0.4836  0.5125
 2888TIP3    H2 8629   5.946   2.577   2.558 -1.4854 -0.2210  0.6267
 2889TIP3   OH2 8630   1.039   0.152   5.263 -0.2356 -1.3544 -0.0814
 2889TIP3    H1 8631   0.979   0.195   5.201 -1.0147 -1.8367  0.3185
 2889TIP3    H2 8632   1.121   0.200   5.254 -1.5306  1.4625  1.6234
 2890TIP3   OH2 8633   1.610   5.620   1.165  0.2628  0.2410 -0.1270
 2890TIP3    H1 8634   1.564   5.538   1.148  0.8283 -0.1573  0.2339
 2890TIP3    H2 8635   1.575   5.650   1.249  1.8225 -0.9316  1.0139
 2891TIP3   OH2 8636   7.052   5.666   2.756 -0.4202 -0.6593 -0.1188
 2891TIP3    H1 8637   7.029   5.740   2.811  0.5709  1.0234 -1.8311
 2891TIP3    H2 8638   7.144   5.648   2.776 -0.8259 -1.9120  0.7583
 2892TIP3   OH2 8639   2.227   3.819   4.248  0.1244  0.0406 -0.0535
 2892TIP3    H1 8640   2.225   3.766   4.168  1.0098 -2.8714  1.6809
 2892TIP3    H2 8641   2.315   3.855   4.250  0.3125 -0.3993 -0.1155
 2893TIP3   OH2 8642   1.320   3.465   3.380  0.8740 -0.6515 -0.1884
 2893TIP3    H1 8643   1.287   3.409   3.311  2.3987 -1.5317 -0.2354
 2893TIP3    H2 8644   1.389   3.415   3.422  1.4056  0.6809  0.6182
 2894TIP3   OH2 8645   0.908   5.759   0.112 -0.0352  0.1601  0.5598
 2894TIP3    H1 8646   0.934   5.824   0.177 -2.8601  0.5026  1.4639
 2894TIP3    H2 8647   0.946   5.790   0.030 -1.7205  3.3401  0.8488
 2895TIP3   OH2 8648   5.409   4.186   1.865  0.7269 -0.2658  0.0509
 2895TIP3    H1 8649   5.394   4.107   1.814  2.7510 -0.1031 -0.8907
 2895TIP3    H2 8650   5.455   4.156   1.943 -0.9416 -0.3045  1.0846
 2896TIP3   OH2 8651   0.462   3.877   0.330 -0.0915  0.0892  0.1805
 2896TIP3    H1 8652   0.423   3.793   0.304 -1.5512  0.6428  0.4720
 2896TIP3    H2 8653   0.436   3.938   0.262  1.6328  0.1742 -0.4464
 2897TIP3   OH2 8654   0.406   6.466   2.306 -0.4361 -0.5088  0.4540
 2897TIP3    H1 8655   0.457   6.440   2.229  1.2575  3.2583  0.0558
 2897TIP3    H2 8656   0.402   6.561   2.301  1.3074  0.2069  5.8878
 2898TIP3   OH2 8657   3.165   0.412   0.202  0.9746 -0.0002 -0.7863
 2898TIP3    H1 8658   3.205   0.436   0.286 -2.4619 -0.0279  1.0525
 2898TIP3    H2 8659   3.103   0.482   0.185  0.9571 -0.4736 -2.8770
 2899TIP3   OH2 8660   4.452   4.634   4.768 -0.1939  0.0029 -0.0752
 2899TIP3    H1 8661   4.451   4.648   4.863  0.7133 -0.0362 -0.0445
 2899TIP3    H2 8662   4.427   4.543   4.757  1.4309 -0.5208  0.2681
 2900TIP3   OH2 8663   4.452   1.982   2.924  0.0318 -0.0703 -0.0005
 2900TIP3    H1 8664   4.399   2.035   2.982 -0.0667 -0.3052  0.1270
 2900TIP3    H2 8665   4.398   1.905   2.906  0.9754 -1.1263  1.4792
 2901TIP3   OH2 8666   0.917   3.389   5.512  0.8180  0.1450 -0.6845
 2901TIP3    H1 8667   0.891   3.481   5.517  1.3895  0.2870  0.0213
 2901TIP3    H2 8668   0.841   3.344   5.476  0.4421  0.8590 -0.8043
 2902TIP3   OH2 8669   2.397   0.393   3.511 -0.1065  0.2982  0.4813
 2902TIP3    H1 8670   2.366   0.446   3.585 -1.2959  1.2280 -0.6258
 2902TIP3    H2 8671   2.473   0.346   3.545  0.6295  2.2511  1.7037
 2903TIP3   OH2 8672   0.552   0.878   1.546 -0.0913 -0.2393  0.6958
 2903TIP3    H1 8673   0.551   0.972   1.528 -0.2954 -0.5995 -1.4894
 2903TIP3    H2 8674   0.505   0.868   1.629  0.0120  1.5820  1.0036
 2904TIP3   OH2 8675   5.328   5.940   3.479 -0.0394 -0.1772 -0.2538
 2904TIP3    H1 8676   5.273   5.888   3.537 -0.9153  0.5964 -0.3614
 2904TIP3    H2 8677   5.310   6.031   3.505  1.3365  0.0904 -0.1670
 2905TIP3   OH2 8678   3.999   6.258   2.959 -0.1833  0.2717  0.2180
 2905TIP3    H1 8679   4.039   6.344   2.947  0.5137  0.2727  2.1901
 2905TIP3    H2 8680   3.933   6.253   2.889  0.1888  2.1243 -0.3416
 2906TIP3   OH2 8681   5.506   0.090   1.171 -0.5767 -0.2253 -0.6719
 2906TIP3    H1 8682   5.564   0.040   1.114  1.1067  1.3374 -0.3896
 2906TIP3    H2 8683   5.462   0.023   1.224 -0.1230 -1.5233 -1.8618
 2907TIP3   OH2 8684   0.558   4.078   4.582  0.2750 -0.1159  0.3604
 2907TIP3    H1 8685   0.528   4.155   4.631 -0.6739  0.7333 -1.4396
 2907TIP3    H2 8686   0.650   4.094   4.564  0.0867  0.6012  0.0198
 2908TIP3   OH2 8687   1.118   1.791   0.058  0.0668  0.9320 -0.3755
 2908TIP3    H1 8688   1.094   1.849   0.130  3.1296  1.5394  0.2931
 2908TIP3    H2 8689   1.095   1.703   0.088 -1.4620  1.4387  0.0196
 2909TIP3   OH2 8690   5.372   5.093   0.853  0.0928  0.4604  0.1457
 2909TIP3    H1 8691   5.411   5.175   0.885  0.4075  0.4677 -0.2566
 2909TIP3    H2 8692   5.332   5.054   0.931 -0.3790  1.1743  0.2792
 2910TIP3   OH2 8693   5.953   1.790   4.928  0.1003 -0.1082  0.0814
 2910TIP3    H1 8694   5.944   1.865   4.987 -1.1833  0.0779 -0.3210
 2910TIP3    H2 8695   6.036   1.749   4.954 -0.1882  0.2499  1.6822
 2911TIP3   OH2 8696   7.058   3.140   2.946  0.3617 -0.2605  0.8466
 2911TIP3    H1 8697   7.009   3.058   2.952 -0.2327  0.1348  1.5437
 2911TIP3    H2 8698   7.099   3.137   2.860 -1.7915 -0.1039 -0.2635
 2912TIP3   OH2 8699   5.583   0.563   2.193  0.3732  0.6665  0.2737
 2912TIP3    H1 8700   5.548   0.526   2.112 -1.0975 -1.0391  1.6033
 2912TIP3    H2 8701   5.546   0.651   2.197  0.4081  0.7473 -0.8456
 2913TIP3   OH2 8702   2.245   2.868   2.563 -0.0286  0.3775 -0.2234
 2913TIP3    H1 8703   2.300   2.873   2.485  1.2076 -0.4202  0.5612
 2913TIP3    H2 8704   2.303   2.896   2.634 -0.9445  0.4706  0.4971
 2914TIP3   OH2 8705   6.074   1.370   3.978  0.3403 -0.0536  0.6861
 2914TIP3    H1 8706   6.001   1.318   3.944  0.2225 -0.7559  1.9428
 2914TIP3    H2 8707   6.151   1.316   3.964  0.5250  0.3665  0.0464
 2915TIP3   OH2 8708   6.579   0.183   5.918  0.9242  0.2421  0.7134
 2915TIP3    H1 8709   6.626   0.263   5.893 -0.4123  1.1782  1.1265
 2915TIP3    H2 8710   6.563   0.138   5.835  1.4014  0.5513  0.4471
 2916TIP3   OH2 8711   5.561   6.206   1.300  0.4099  0.2463  0.3282
 2916TIP3    H1 8712   5.619   6.180   1.371  1.0220 -0.1250 -0.2903
 2916TIP3    H2 8713   5.511   6.127   1.279  0.7798  0.1391 -0.1624
 2917TIP3   OH2 8714   6.770   0.002   5.358  0.2636 -0.3055 -0.2069
 2917TIP3    H1 8715   6.777   0.032   5.267  0.6766  0.4622  0.0736
 2917TIP3    H2 8716   6.853   0.027   5.398 -0.8686  1.7259  1.0535
 2918TIP3   OH2 8717   1.878   2.839   1.207  0.0233  0.1134 -0.3808
 2918TIP3    H1 8718   1.932   2.918   1.194  0.2755 -0.4131 -3.0088
 2918TIP3    H2 8719   1.927   2.787   1.270 -0.0087  1.8954  1.2051
 2919TIP3   OH2 8720   0.479   5.059   1.207 -1.2037  0.3307 -0.0938
 2919TIP3    H1 8721   0.516   4.977   1.175 -1.8424 -0.8004  1.9332
 2919TIP3    H2 8722   0.555   5.109   1.238 -0.8273  0.5056 -1.2312
 2920TIP3   OH2 8723   2.715   4.541   5.151  0.1223  0.8745  0.5034
 2920TIP3    H1 8724   2.787   4.481   5.171 -0.0182  0.3946 -0.4051
 2920TIP3    H2 8725   2.647   4.517   5.214  0.4053  0.6955  0.7467
 2921TIP3   OH2 8726   1.155   6.063   2.960  0.3978  0.0033  0.1066
 2921TIP3    H1 8727   1.223   6.057   3.026  0.5162  2.2888  0.2585
 2921TIP3    H2 8728   1.186   6.008   2.888  0.4187 -2.2699  1.7401
 2922TIP3   OH2 8729   3.770   2.219   4.111 -0.7483 -0.1902  0.2157
 2922TIP3    H1 8730   3.786   2.190   4.201  0.8422  0.0590  0.0474
 2922TIP3    H2 8731   3.794   2.311   4.111  1.1479 -0.6165 -0.8550
 2923TIP3   OH2 8732   2.668   5.870   4.058  0.5304 -0.5934 -0.4455
 2923TIP3    H1 8733   2.754   5.909   4.048  0.5643 -0.6632 -0.4241
 2923TIP3    H2 8734   2.669   5.793   4.002  0.0274  0.1323 -1.4717
 2924TIP3   OH2 8735   6.292   1.069   5.085 -0.6829  0.5934  0.4416
 2924TIP3    H1 8736   6.376   1.033   5.114 -1.0266  0.0049  0.7204
 2924TIP3    H2 8737   6.249   0.996   5.041 -0.0558  1.5286 -1.8567
 2925TIP3   OH2 8738   2.643   0.763   4.209  0.1863  0.1567 -0.5479
 2925TIP3    H1 8739   2.565   0.752   4.154 -0.0334 -1.1783  0.0092
 2925TIP3    H2 8740   2.673   0.674   4.227  0.8063  0.6004  0.7262
 2926TIP3   OH2 8741   2.788   1.171   4.156 -0.0841 -0.0474 -0.2540
 2926TIP3    H1 8742   2.793   1.240   4.090  1.1302  0.2212  0.1090
 2926TIP3    H2 8743   2.842   1.100   4.121  0.8084  0.2114  0.5751
 2927TIP3   OH2 8744   0.210   1.759   1.564  0.4095  0.6230 -0.5746
 2927TIP3    H1 8745   0.214   1.767   1.469 -2.0042  1.3967 -0.6819
 2927TIP3    H2 8746   0.275   1.693   1.585  0.8544  0.2777 -2.7875
 2928TIP3   OH2 8747   6.005   3.797   5.813  0.1317  0.5717  0.0233
 2928TIP3    H1 8748   5.927   3.819   5.762  0.1575  2.2815  0.6832
 2928TIP3    H2 8749   6.007   3.701   5.811 -1.6829  0.4948 -0.4501
 2929TIP3   OH2 8750   0.536   0.616   2.341 -0.0164  0.4869 -0.3447
 2929TIP3    H1 8751   0.444   0.632   2.320  0.6445  3.6811 -1.3731
 2929TIP3    H2 8752   0.555   0.676   2.414  1.5913  1.0085 -1.1478
 2930TIP3   OH2 8753   0.483   5.605   2.565 -0.0513  0.0865  0.2718
 2930TIP3    H1 8754   0.430   5.625   2.488 -1.0841 -0.6474  0.7641
 2930TIP3    H2 8755   0.546   5.676   2.570 -0.3387  0.4494 -0.9165
 2931TIP3   OH2 8756   2.667   0.495   1.091 -0.7736  0.0866 -0.7981
 2931TIP3    H1 8757   2.745   0.500   1.146 -1.1588 -1.5469 -0.0429
 2931TIP3    H2 8758   2.668   0.406   1.056 -1.4283  0.5774 -2.1155
 2932TIP3   OH2 8759   3.253   1.650   1.983 -0.2955  0.0879 -0.2876
 2932TIP3    H1 8760   3.162   1.673   2.002 -0.0856  0.7098 -0.0005
 2932TIP3    H2 8761   3.258   1.645   1.888 -0.6662 -0.0927 -0.2973
 2933TIP3   OH2 8762   2.141   6.067   1.040 -0.7600 -0.3054 -0.0526
 2933TIP3    H1 8763   2.152   5.973   1.028  1.6263 -0.1064  0.1145
 2933TIP3    H2 8764   2.162   6.082   1.132 -1.3909  0.3930 -0.0085
 2934TIP3   OH2 8765   0.557   1.500   1.481 -0.0422 -0.5388 -0.0777
 2934TIP3    H1 8766   0.475   1.476   1.524  0.6372  0.1198  1.6756
 2934TIP3    H2 8767   0.531   1.556   1.408 -1.1418  0.1586  0.8114
 2935TIP3   OH2 8768   1.744   0.401   3.596 -0.0258 -0.2288 -0.2873
 2935TIP3    H1 8769   1.700   0.486   3.583 -0.1270  0.0127  1.3966
 2935TIP3    H2 8770   1.674   0.343   3.625  0.3132 -0.5132 -0.0456
 2936TIP3   OH2 8771   4.541   3.626   0.088  0.4109  0.4401  0.2325
 2936TIP3    H1 8772   4.613   3.566   0.106  2.8090  2.1799 -2.5038
 2936TIP3    H2 8773   4.525   3.617  -0.006 -1.9111  1.2663  0.4857
 2937TIP3   OH2 8774   2.850   5.362   2.500 -0.0092 -0.6206 -0.2999
 2937TIP3    H1 8775   2.855   5.448   2.540  1.9234 -0.9128  0.1877
 2937TIP3    H2 8776   2.862   5.378   2.407  1.1903 -0.3968 -0.1271
 2938TIP3   OH2 8777   2.361   3.990   1.799  0.1057 -0.1297 -0.0023
 2938TIP3    H1 8778   2.325   3.901   1.792 -2.8732  1.0270 -0.9675
 2938TIP3    H2 8779   2.423   3.996   1.726  1.7654 -1.8908  1.1325
 2939TIP3   OH2 8780   2.909   1.789   5.623 -0.2426 -0.0866  0.0762
 2939TIP3    H1 8781   2.917   1.803   5.528  0.3757  3.2760  0.5271
 2939TIP3    H2 8782   2.836   1.728   5.631 -0.6037 -0.1402 -2.5432
 2940TIP3   OH2 8783   6.821   0.947   1.401  0.3972 -0.3141  0.0344
 2940TIP3    H1 8784   6.823   1.012   1.331 -0.4721  0.5488  0.7779
 2940TIP3    H2 8785   6.757   0.981   1.464  1.2167 -1.0013  1.2955
 2941TIP3   OH2 8786   0.088   6.797   2.058  0.5199 -0.1620  0.2558
 2941TIP3    H1 8787   0.023   6.742   2.102 -0.8278 -0.2482 -1.7132
 2941TIP3    H2 8788   0.120   6.743   1.986  0.5688  0.9550 -0.5864
 2942TIP3   OH2 8789   5.111   4.215   2.285  0.3009  0.2131  0.0160
 2942TIP3    H1 8790   5.145   4.274   2.352 -0.4009  0.3080  0.2975
 2942TIP3    H2 8791   5.170   4.139   2.288  1.2200  0.8906 -0.3618
 2943TIP3   OH2 8792   1.901   0.412   0.644  0.3738 -0.3324 -0.1951
 2943TIP3    H1 8793   1.971   0.438   0.583 -1.8634  0.4091 -2.6233
 2943TIP3    H2 8794   1.885   0.320   0.623 -0.6632  0.0288 -1.0683
 2944TIP3   OH2 8795   2.742   2.143   2.766  0.4515  0.1624 -0.4411
 2944TIP3    H1 8796   2.781   2.228   2.746  1.9638 -0.4445 -0.1709
 2944TIP3    H2 8797   2.647   2.158   2.760  0.4977  2.6371  2.5051
 2945TIP3   OH2 8798   4.038   6.190   1.478  0.0062 -0.2445  0.1113
 2945TIP3    H1 8799   3.969   6.186   1.544  0.4351 -0.4379  0.5549
 2945TIP3    H2 8800   4.088   6.270   1.500  0.1832 -0.3393  0.0591
 2946TIP3   OH2 8801   6.262   0.777   0.211  0.0920  0.2913  0.2527
 2946TIP3    H1 8802   6.351   0.805   0.232 -0.2473  1.9975 -0.3418
 2946TIP3    H2 8803   6.259   0.778   0.115 -0.3297 -0.5934  0.2470
 2947TIP3   OH2 8804   4.979   3.926   4.468  0.2321 -0.5992 -1.1575
 2947TIP3    H1 8805   4.959   3.833   4.481 -0.6216 -0.1672  1.0826
 2947TIP3    H2 8806   5.048   3.944   4.532 -1.8120  0.9843  0.7163
 2948TIP3   OH2 8807   6.985   0.762   3.050 -0.1653 -0.3093  0.3960
 2948TIP3    H1 8808   6.902   0.714   3.050 -1.1164  1.2491  1.0546
 2948TIP3    H2 8809   7.050   0.699   3.082 -1.3786 -1.1134  1.3606
 2949TIP3   OH2 8810   3.229   0.763   4.012  0.1411  0.2037 -0.1706
 2949TIP3    H1 8811   3.288   0.737   4.083 -0.9167 -0.0469  0.6368
 2949TIP3    H2 8812   3.167   0.690   4.004  0.1917  0.2725 -1.2981
 2950TIP3   OH2 8813   6.599   2.395   3.436  0.0391 -0.1461 -0.3311
 2950TIP3    H1 8814   6.581   2.473   3.488 -1.3450  0.1136 -1.1528
 2950TIP3    H2 8815   6.517   2.345   3.438  0.3457 -0.7195 -1.2390
 2951TIP3   OH2 8816   4.664   1.170   1.921 -0.0962 -0.1519  0.0031
 2951TIP3    H1 8817   4.710   1.086   1.926 -0.7702 -0.5913 -0.8233
 2951TIP3    H2 8818   4.672   1.196   1.829 -4.5615 -2.0604 -1.1689
 2952TIP3   OH2 8819   3.512   0.543   1.331  0.0571 -0.2537 -0.3939
 2952TIP3    H1 8820   3.513   0.638   1.333 -0.2728 -0.1999  2.7793
 2952TIP3    H2 8821   3.422   0.520   1.305  0.1050  0.2800 -1.0477
 2953TIP3   OH2 8822   0.882   5.005   2.304 -0.2069 -0.3318  0.3672
 2953TIP3    H1 8823   0.965   5.053   2.308  0.4608 -1.4182  0.0234
 2953TIP3    H2 8824   0.817   5.066   2.340  1.1275 -0.3229  3.0437
 2954TIP3   OH2 8825   3.882   4.740   3.552 -0.1611 -0.1712 -0.1069
 2954TIP3    H1 8826   3.913   4.651   3.536 -1.7423 -0.6141 -0.9544
 2954TIP3    H2 8827   3.943   4.776   3.617  0.9159 -1.6175 -0.2721
 2955TIP3   OH2 8828   5.622   3.090   1.512  0.6350  0.2868  0.1697
 2955TIP3    H1 8829   5.604   3.184   1.518  1.0911  0.4358 -0.5779
 2955TIP3    H2 8830   5.707   3.079   1.555  1.0736  0.3935 -0.6483
 2956TIP3   OH2 8831   6.956   6.527   4.002 -0.3068 -0.4461  0.0711
 2956TIP3    H1 8832   6.958   6.599   4.065  2.7721  0.4070 -0.8444
 2956TIP3    H2 8833   6.934   6.568   3.918  1.1677 -0.5621 -0.4018
 2957TIP3   OH2 8834   2.278   5.867   0.503  0.1301  0.3652 -0.1503
 2957TIP3    H1 8835   2.352   5.898   0.450  0.3545 -0.6736 -0.4630
 2957TIP3    H2 8836   2.273   5.929   0.575  2.6373 -0.6889  1.0572
 2958TIP3   OH2 8837   2.324   0.619   5.176  0.2343  0.0061  0.1359
 2958TIP3    H1 8838   2.370   0.567   5.110 -1.7233  0.1337 -1.4285
 2958TIP3    H2 8839   2.376   0.699   5.184  0.5775 -0.0635 -1.1665
 2959TIP3   OH2 8840   4.071   4.481   2.378 -0.0142  0.3729  0.3398
 2959TIP3    H1 8841   4.112   4.402   2.343  1.0346  1.0278  0.0443
 2959TIP3    H2 8842   3.984   4.482   2.338 -0.1388 -0.7489  0.5411
 2960TIP3   OH2 8843   4.789   3.820   2.593 -0.4677 -0.6453  0.5332
 2960TIP3    H1 8844   4.795   3.818   2.688 -3.2656  0.3329  0.8046
 2960TIP3    H2 8845   4.872   3.859   2.565  0.4634 -1.0570  2.5115
 2961TIP3   OH2 8846   6.011   4.318   5.358 -0.6027 -0.1475 -0.3508
 2961TIP3    H1 8847   6.002   4.400   5.406  0.7734 -0.2801  0.1747
 2961TIP3    H2 8848   6.056   4.259   5.418 -0.4669 -0.9021 -1.1643
 2962TIP3   OH2 8849   2.964   0.360   2.614  0.1011 -0.1867 -0.2705
 2962TIP3    H1 8850   3.006   0.363   2.527 -0.9018  2.5923 -0.7624
 2962TIP3    H2 8851   3.010   0.427   2.665 -0.2416 -0.8277  0.9109
 2963TIP3   OH2 8852   4.457   5.645   1.249 -0.5108 -0.1655 -0.2324
 2963TIP3    H1 8853   4.538   5.694   1.231  0.9793 -1.8382  1.5026
 2963TIP3    H2 8854   4.432   5.671   1.337 -1.6885  0.0111 -0.5918
 2964TIP3   OH2 8855   1.612   2.320   3.262 -0.3889 -0.4193 -0.2010
 2964TIP3    H1 8856   1.525   2.359   3.270  0.2768  0.9097  0.9695
 2964TIP3    H2 8857   1.645   2.315   3.352  0.7039 -0.9857 -0.6135
 2965TIP3   OH2 8858   0.599   2.097   1.081  0.1080 -1.0505  0.4607
 2965TIP3    H1 8859   0.675   2.149   1.054 -0.9542 -0.1291 -0.9252
 2965TIP3    H2 8860   0.548   2.155   1.136 -0.0937 -1.3238  0.5661
 2966TIP3   OH2 8861   2.768   1.897   0.678  0.2073 -0.1759 -0.4013
 2966TIP3    H1 8862   2.775   1.992   0.664 -1.3433 -0.1591 -1.3215
 2966TIP3    H2 8863   2.722   1.889   0.762  0.0111 -0.0981 -0.5000
 2967TIP3   OH2 8864   0.586   6.632   3.142  0.0025 -0.4115 -0.2155
 2967TIP3    H1 8865   0.657   6.690   3.113  0.9407 -1.8021 -0.8261
 2967TIP3    H2 8866   0.517   6.645   3.077  0.2219 -0.0265 -0.3807
 2968TIP3   OH2 8867   3.869   4.959   0.150  0.0351 -1.1944  0.1611
 2968TIP3    H1 8868   3.828   4.880   0.114  0.1816 -1.6529  0.9813
 2968TIP3    H2 8869   3.878   4.941   0.243 -1.5121  0.4537  0.6970
 2969TIP3   OH2 8870   4.491   6.464   0.652  0.5100 -0.6503  0.1531
 2969TIP3    H1 8871   4.526   6.552   0.646 -1.7189  0.3441  0.8805
 2969TIP3    H2 8872   4.513   6.435   0.740  0.2230 -0.3763  0.3117
 2970TIP3   OH2 8873   3.040   2.304   3.160  0.5713 -0.2634 -0.1278
 2970TIP3    H1 8874   3.068   2.236   3.222 -0.2158 -1.8525 -1.4282
 2970TIP3    H2 8875   3.074   2.385   3.197  2.8212 -1.5049  0.7683
 2971TIP3   OH2 8876   6.843   3.174   5.712 -0.1147  0.1437  0.3406
 2971TIP3    H1 8877   6.917   3.215   5.666  1.1862 -1.6950  0.6993
 2971TIP3    H2 8878   6.840   3.085   5.678 -1.3250 -0.2215  1.3361
 2972TIP3   OH2 8879   3.026   0.234   0.477  0.0748 -0.0217 -0.1539
 2972TIP3    H1 8880   3.031   0.238   0.573 -1.8212 -1.7113  0.0696
 2972TIP3    H2 8881   2.938   0.264   0.457 -0.0693 -1.1087 -1.2409
 2973TIP3   OH2 8882   6.452   5.828   5.195 -0.5776  0.0418 -0.7706
 2973TIP3    H1 8883   6.510   5.900   5.220 -2.0483  1.4852 -1.2764
 2973TIP3    H2 8884   6.476   5.809   5.105 -0.1157 -0.1629 -0.6047
 2974TIP3   OH2 8885   2.333   2.856   1.846  0.0502 -0.4539  0.2479
 2974TIP3    H1 8886   2.331   2.788   1.913 -0.5019 -2.0212 -1.3046
 2974TIP3    H2 8887   2.426   2.864   1.823  0.5816  1.6891  2.6677
 2975TIP3   OH2 8888   3.950   4.771   0.386  1.1094  0.5225 -0.4681
 2975TIP3    H1 8889   3.947   4.678   0.363 -0.2690  0.2471  0.7188
 2975TIP3    H2 8890   3.859   4.799   0.387  1.3052  1.2601  1.5788
 2976TIP3   OH2 8891   3.769   3.256   5.026 -0.2162 -0.1110  0.2069
 2976TIP3    H1 8892   3.687   3.298   5.000  0.0262  0.8310  0.9246
 2976TIP3    H2 8893   3.767   3.171   4.981 -1.3411  0.1042 -0.1928
 2977TIP3   OH2 8894   0.607   2.197   5.711 -0.4156 -0.5943  0.0074
 2977TIP3    H1 8895   0.533   2.142   5.686 -1.1146 -0.2005  1.1153
 2977TIP3    H2 8896   0.637   2.160   5.794 -0.4292  0.2276  0.3938
 2978TIP3   OH2 8897   4.600   6.230   5.715  0.1884  0.4843 -0.0451
 2978TIP3    H1 8898   4.589   6.245   5.621 -1.1915  0.6033  0.1162
 2978TIP3    H2 8899   4.612   6.318   5.752  4.5532  0.2951 -0.4584
 2979TIP3   OH2 8900   5.168   4.967   1.039  0.2985  0.4546 -0.0957
 2979TIP3    H1 8901   5.154   4.876   1.067 -2.7975 -0.5022 -3.8341
 2979TIP3    H2 8902   5.081   5.005   1.037  1.3829  3.1562  0.0441
 2980TIP3   OH2 8903   1.145   3.895   5.557 -0.3701  0.5561  0.0155
 2980TIP3    H1 8904   1.141   3.842   5.478 -0.5491 -0.5255  0.7322
 2980TIP3    H2 8905   1.058   3.935   5.564 -0.4234  0.4800 -0.2092
 2981TIP3   OH2 8906   2.524   3.325   2.224 -0.3259 -0.5397 -0.4732
 2981TIP3    H1 8907   2.566   3.281   2.298 -1.7431 -1.7302 -0.3458
 2981TIP3    H2 8908   2.469   3.257   2.184 -2.5797  1.0888 -0.2980
 2982TIP3   OH2 8909   2.537   0.055   0.374  0.2270  0.0175  0.6287
 2982TIP3    H1 8910   2.493   0.046   0.459  0.8571  0.7038  1.0459
 2982TIP3    H2 8911   2.473   0.025   0.310 -0.8620  0.9936  1.2200
 2983TIP3   OH2 8912   2.525   2.639   5.597 -0.0256 -0.0777  0.3851
 2983TIP3    H1 8913   2.502   2.621   5.505  2.3969  2.3380 -0.8501
 2983TIP3    H2 8914   2.616   2.610   5.605  0.2960  1.1447  1.5404
 2984TIP3   OH2 8915   4.261   3.542   4.815  0.7167 -0.0356  0.1117
 2984TIP3    H1 8916   4.277   3.518   4.906 -0.3453 -3.0098 -0.3649
 2984TIP3    H2 8917   4.232   3.633   4.819 -0.0016 -0.2917  2.8342
 2985TIP3   OH2 8918   6.034   0.181   3.095  0.4159 -0.2607 -0.0902
 2985TIP3    H1 8919   6.003   0.197   3.184 -1.1601  1.1502 -0.8313
 2985TIP3    H2 8920   6.116   0.231   3.089  1.5885 -1.9322  1.1050
 2986TIP3   OH2 8921   4.204   6.648   0.838  0.6632  0.3107 -0.6374
 2986TIP3    H1 8922   4.155   6.729   0.847 -2.1407 -1.3880  0.7224
 2986TIP3    H2 8923   4.292   6.669   0.869  0.2318  2.9371 -0.9674
 2987TIP3   OH2 8924   6.869   0.136   4.148  0.4193  0.0245 -0.2704
 2987TIP3    H1 8925   6.870   0.079   4.071  0.3853 -2.2523  1.3008
 2987TIP3    H2 8926   6.957   0.175   4.149  0.8210 -0.8147 -0.8476
 2988TIP3   OH2 8927   4.240   4.119   0.301  0.4384  0.3177  0.0739
 2988TIP3    H1 8928   4.333   4.115   0.320  0.6139 -0.4851 -0.8537
 2988TIP3    H2 8929   4.200   4.157   0.379  1.2907 -1.3102  1.3573
 2989TIP3   OH2 8930   1.938   5.102   5.462  0.3350 -0.4374  0.1443
 2989TIP3    H1 8931   2.020   5.148   5.476  0.3360  0.2152 -1.7682
 2989TIP3    H2 8932   1.875   5.170   5.437 -0.3277 -1.1489 -0.1834
 2990TIP3   OH2 8933   2.605   0.876   2.167 -0.1545 -0.3284 -0.5612
 2990TIP3    H1 8934   2.633   0.839   2.084 -1.1123  2.1245 -2.0918
 2990TIP3    H2 8935   2.514   0.848   2.176 -0.1853 -0.2302 -0.5663
 2991TIP3   OH2 8936   4.720   2.606   1.381  0.3014 -0.3626 -0.1984
 2991TIP3    H1 8937   4.701   2.542   1.449 -0.2317  0.5294  0.5125
 2991TIP3    H2 8938   4.646   2.600   1.321  0.1270 -0.2397  0.0029
 2992TIP3   OH2 8939   3.254   6.696   1.054  0.1388 -0.0708 -0.5392
 2992TIP3    H1 8940   3.288   6.718   0.967  1.3197  1.2056  0.2200
 2992TIP3    H2 8941   3.332   6.672   1.105 -0.3615  0.5963  0.5713
 2993TIP3   OH2 8942   3.671   4.596   4.347  0.1876 -0.0891 -0.4530
 2993TIP3    H1 8943   3.700   4.619   4.436 -1.8669  1.8430 -0.1781
 2993TIP3    H2 8944   3.750   4.563   4.304  1.8888  1.4041  1.2977
 2994TIP3   OH2 8945   3.160   4.343   2.421  0.1536  0.4155  0.0996
 2994TIP3    H1 8946   3.071   4.337   2.386 -0.2318 -1.6019  1.2078
 2994TIP3    H2 8947   3.214   4.295   2.358  0.0791 -0.1549  0.4649
 2995TIP3   OH2 8948   3.195   6.454   5.345  0.2785  0.1386  0.5830
 2995TIP3    H1 8949   3.240   6.487   5.266  1.0201 -2.6114 -0.2383
 2995TIP3    H2 8950   3.243   6.494   5.417  0.4978  1.5967 -0.3065
 2996TIP3   OH2 8951   1.527   0.683   5.429  0.3353 -0.2720 -0.2959
 2996TIP3    H1 8952   1.490   0.734   5.501 -1.9897  1.0648 -2.2970
 2996TIP3    H2 8953   1.583   0.744   5.382 -0.2400 -0.3446 -1.0975
 2997TIP3   OH2 8954   1.045   6.554   3.980 -0.0667  0.6430  0.3250
 2997TIP3    H1 8955   1.126   6.522   3.940 -1.1273  0.6589 -1.9903
 2997TIP3    H2 8956   0.979   6.490   3.954 -1.0892  1.4374  0.9058
 2998TIP3   OH2 8957   1.708   0.704   1.762 -0.3336  0.0960 -0.3326
 2998TIP3    H1 8958   1.802   0.711   1.744 -0.3772  0.9157 -0.2484
 2998TIP3    H2 8959   1.692   0.610   1.764  0.0023 -0.0854 -2.9024
 2999TIP3   OH2 8960   4.833   3.785   4.982  0.1981 -0.1192 -0.3511
 2999TIP3    H1 8961   4.821   3.766   4.888  0.7300  1.4270 -0.7567
 2999TIP3    H2 8962   4.798   3.873   4.994 -0.5106 -0.5694  1.0787
 3000TIP3   OH2 8963   4.160   1.084   5.183 -0.1200 -0.2336  0.1537
 3000TIP3    H1 8964   4.248   1.115   5.161 -0.8946  0.8689 -1.6519
 3000TIP3    H2 8965   4.123   1.155   5.236  0.4786 -1.2743  2.0467
 3001TIP3   OH2 8966   3.827   4.823   2.177 -0.0913 -0.0622  0.6709
 3001TIP3    H1 8967   3.801   4.825   2.085  0.4013 -0.8821  0.5045
 3001TIP3    H2 8968   3.833   4.916   2.202  1.2863  0.2373 -0.5672
 3002TIP3   OH2 8969   5.654   6.573   2.864 -0.1310 -0.2014 -0.0277
 3002TIP3    H1 8970   5.705   6.640   2.910 -0.0550 -2.0141  2.7810
 3002TIP3    H2 8971   5.570   6.615   2.846  0.9122  1.5521 -1.0694
 3003TIP3   OH2 8972   0.155   2.014   5.225 -0.2109  0.5037 -0.4893
 3003TIP3    H1 8973   0.070   2.021   5.267  1.1922  0.5393  2.6335
 3003TIP3    H2 8974   0.137   1.972   5.141 -3.3010  0.8607 -0.1162
 3004TIP3   OH2 8975   6.122   0.683   3.233  0.5455  0.2367  0.4619
 3004TIP3    H1 8976   6.183   0.689   3.161 -0.0641 -1.3401 -0.2450
 3004TIP3    H2 8977   6.154   0.610   3.286 -1.1069 -1.2125 -0.3963
 3005TIP3   OH2 8978   3.423   2.743   1.475 -0.0859 -0.2550 -0.1911
 3005TIP3    H1 8979   3.445   2.782   1.391  0.2496 -0.3954 -0.1705
 3005TIP3    H2 8980   3.329   2.724   1.469 -0.3117  0.7971 -0.0987
 3006TIP3   OH2 8981   6.767   5.994   4.790  0.0172  0.2126  0.5694
 3006TIP3    H1 8982   6.837   5.943   4.830  0.1467  0.1413  0.2590
 3006TIP3    H2 8983   6.789   5.995   4.697 -0.8970 -0.6008  0.3375
 3007TIP3   OH2 8984   1.699   5.487   2.292 -0.1511 -0.1993 -0.1580
 3007TIP3    H1 8985   1.682   5.397   2.266 -0.5979  0.4237 -2.2229
 3007TIP3    H2 8986   1.754   5.523   2.222  0.6883  0.9372  1.0088
 3008TIP3   OH2 8987   5.736   2.874   1.822 -0.2428  0.0317 -0.1507
 3008TIP3    H1 8988   5.753   2.949   1.765  0.7268 -0.4330 -0.5037
 3008TIP3    H2 8989   5.670   2.823   1.775  0.7975 -0.5296 -1.0720
 3009TIP3   OH2 8990   3.888   6.128   5.888  0.8213 -0.7639  0.0643
 3009TIP3    H1 8991   3.824   6.109   5.958  0.9219  0.1896  0.4298
 3009TIP3    H2 8992   3.836   6.126   5.808  0.3923 -0.3750  0.3221
 3010TIP3   OH2 8993   0.156   6.516   0.288  0.4840 -0.6227 -0.2838
 3010TIP3    H1 8994   0.071   6.476   0.269  1.2052 -1.5069 -1.8441
 3010TIP3    H2 8995   0.213   6.442   0.310  0.5704  0.0709  2.0479
 3011TIP3   OH2 8996   3.685   4.469   2.044 -0.5696 -0.1312 -0.2680
 3011TIP3    H1 8997   3.598   4.441   2.016 -1.4251  1.2897  0.8612
 3011TIP3    H2 8998   3.697   4.430   2.130 -0.1681 -0.1349 -0.3204
 3012TIP3   OH2 8999   0.155   2.772   4.372 -0.2916  0.6428  0.1801
 3012TIP3    H1 9000   0.172   2.782   4.278  1.7035 -2.5617  0.0501
 3012TIP3    H2 9001   0.174   2.680   4.390  0.5495  1.4008  3.9591
 3013TIP3   OH2 9002   5.839   2.889   2.669  0.2639 -0.2663  0.7237
 3013TIP3    H1 9003   5.759   2.837   2.668 -0.3678  0.6830 -0.1327
 3013TIP3    H2 9004   5.910   2.826   2.656 -0.5465 -0.8232 -1.3940
 3014TIP3   OH2 9005   5.836   0.514   4.474 -0.1289  0.0023 -0.2850
 3014TIP3    H1 9006   5.812   0.607   4.472 -0.2052 -0.0257 -1.0480
 3014TIP3    H2 9007   5.763   0.470   4.517 -0.0299  0.3125  0.2037
 3015TIP3   OH2 9008   6.952   3.779   2.768 -0.4973  0.6336 -0.4435
 3015TIP3    H1 9009   6.924   3.712   2.706 -1.2424  0.4111  0.1168
 3015TIP3    H2 9010   7.018   3.830   2.721  3.8997 -3.3960  0.5636
 3016TIP3   OH2 9011   2.663   4.840   5.751  0.0193  0.2284 -0.0602
 3016TIP3    H1 9012   2.668   4.782   5.675  1.4613  0.9974 -0.5900
 3016TIP3    H2 9013   2.744   4.823   5.800 -0.2196  0.7750  0.5411
 3017TIP3   OH2 9014   5.730   2.810   3.108  0.3887  0.0839  0.2854
 3017TIP3    H1 9015   5.775   2.883   3.067  1.6191  0.0032  1.4187
 3017TIP3    H2 9016   5.790   2.736   3.097 -0.1820 -0.4034  0.4114
 3018TIP3   OH2 9017   5.586   4.796   3.013 -0.1552 -0.0237  0.2849
 3018TIP3    H1 9018   5.671   4.759   2.993 -0.0767  0.0744  0.4362
 3018TIP3    H2 9019   5.524   4.725   2.997  0.0102 -0.2729  0.7244
 3019TIP3   OH2 9020   0.406   6.458   5.190  0.0281  0.1983  0.3417
 3019TIP3    H1 9021   0.377   6.386   5.246  1.2107 -1.7979 -1.4725
 3019TIP3    H2 9022   0.477   6.421   5.137 -0.7113  2.0698 -2.1605
 3020TIP3   OH2 9023   4.463   4.224   1.586  0.4662 -0.1891 -0.1324
 3020TIP3    H1 9024   4.388   4.283   1.579  0.5925 -0.0532 -0.3487
 3020TIP3    H2 9025   4.524   4.254   1.519  0.4587 -0.6785 -0.3599
 3021TIP3   OH2 9026   5.034   5.985   5.397 -0.3970  0.5301 -0.1031
 3021TIP3    H1 9027   5.104   6.049   5.381 -0.4920  0.5479 -0.4547
 3021TIP3    H2 9028   5.007   5.957   5.310 -1.9814  1.7559 -0.0569
 3022TIP3   OH2 9029   2.744   3.532   0.419 -0.0789 -0.1446  0.2755
 3022TIP3    H1 9030   2.830   3.505   0.387 -0.6865 -0.1379 -1.4799
 3022TIP3    H2 9031   2.738   3.625   0.397  0.0330  0.2491  1.7753
 3023TIP3   OH2 9032   5.348   6.609   2.108  0.1847  0.6041  0.3124
 3023TIP3    H1 9033   5.313   6.678   2.165  0.4358  0.5443  0.5388
 3023TIP3    H2 9034   5.421   6.572   2.157 -1.4685 -1.5326  1.3146
 3024TIP3   OH2 9035   6.692   2.761   0.018  0.3607  0.0615  0.4493
 3024TIP3    H1 9036   6.754   2.826   0.051  0.4271 -0.2297  0.9049
 3024TIP3    H2 9037   6.644   2.732   0.096 -0.7719  0.7220  0.0264
 3025TIP3   OH2 9038   5.528   0.893   4.758 -0.6798  0.2543 -0.0837
 3025TIP3    H1 9039   5.479   0.887   4.676 -1.0560  2.8483 -0.1346
 3025TIP3    H2 9040   5.615   0.922   4.732  0.3696 -2.3199  0.2102
 3026TIP3   OH2 9041   0.988   6.253   4.608 -0.2996  0.7359 -0.2039
 3026TIP3    H1 9042   1.083   6.262   4.610 -0.3061  0.8390 -0.3282
 3026TIP3    H2 9043   0.959   6.287   4.692 -0.3155  1.8031 -0.6307
 3027TIP3   OH2 9044   5.279   3.900   1.173 -0.3315 -0.3980  0.4662
 3027TIP3    H1 9045   5.368   3.881   1.144  0.4005  0.1740  2.1494
 3027TIP3    H2 9046   5.238   3.814   1.186  0.1145 -0.6699  0.0762
 3028TIP3   OH2 9047   0.064   2.271   1.961  0.3270  0.3329  0.2259
 3028TIP3    H1 9048   0.051   2.349   1.908 -1.2516  0.2918  0.4934
 3028TIP3    H2 9049   0.137   2.292   2.018  1.4731  0.7114 -1.3243
 3029TIP3   OH2 9050   6.168   6.096   5.490  0.1235  0.2669 -0.2020
 3029TIP3    H1 9051   6.261   6.076   5.477  0.1504  1.9267 -4.1542
 3029TIP3    H2 9052   6.126   6.012   5.505  2.1446 -0.5900  0.9982
 3030TIP3   OH2 9053   7.001   2.950   5.843  0.2690 -0.1368 -0.1618
 3030TIP3    H1 9054   7.092   2.922   5.853 -0.5204 -3.1408 -0.4263
 3030TIP3    H2 9055   6.991   2.969   5.750  0.1717 -1.8346 -0.5305
 3031TIP3   OH2 9056   3.718   1.969   5.314  0.5610  0.2883 -0.4984
 3031TIP3    H1 9057   3.743   1.888   5.269 -1.7225 -0.5880 -0.3203
 3031TIP3    H2 9058   3.777   2.035   5.277  1.5280 -1.1582 -1.7112
 3032TIP3   OH2 9059   4.254   2.244   1.580 -0.2696 -0.1541  0.1003
 3032TIP3    H1 9060   4.343   2.241   1.616 -0.7581 -1.8775  1.2648
 3032TIP3    H2 9061   4.218   2.157   1.597 -2.1139  0.4434 -0.5389
 3033TIP3   OH2 9062   5.432   6.144   2.986 -0.4217 -0.3693 -0.0937
 3033TIP3    H1 9063   5.496   6.174   2.921  0.0877  0.9672  0.9762
 3033TIP3    H2 9064   5.358   6.114   2.935 -0.4258  1.5586 -1.3048
 3034TIP3   OH2 9065   1.575   0.412   5.402  0.1582  0.6018 -0.1195
 3034TIP3    H1 9066   1.562   0.507   5.395 -1.3956  0.5372  1.2028
 3034TIP3    H2 9067   1.507   0.374   5.346  0.8899  0.2569 -0.7871
 3035TIP3   OH2 9068   0.441   1.017   5.123 -0.2041  0.6244  0.4036
 3035TIP3    H1 9069   0.527   0.985   5.151 -1.2112 -2.7033  0.0384
 3035TIP3    H2 9070   0.459   1.064   5.041  1.2553  0.0648  0.3748
 3036TIP3   OH2 9071   2.761   4.322   1.317 -0.1943  0.1022  0.1202
 3036TIP3    H1 9072   2.756   4.283   1.404  0.1125 -0.4420 -0.0941
 3036TIP3    H2 9073   2.753   4.247   1.257 -0.0893  0.4306 -0.3100
 3037TIP3   OH2 9074   5.493   4.084   5.299  0.3075  0.2105 -0.5768
 3037TIP3    H1 9075   5.554   4.158   5.302  1.1588 -0.5173  1.5313
 3037TIP3    H2 9076   5.540   4.016   5.252  0.9122 -0.1706  0.5786
 3038TIP3   OH2 9077   4.203   5.443   5.547 -0.1225 -0.0877  0.0663
 3038TIP3    H1 9078   4.164   5.407   5.468 -0.4319  0.0962  0.1361
 3038TIP3    H2 9079   4.145   5.515   5.573 -1.3394 -1.5967  1.7620
 3039TIP3   OH2 9080   1.735   4.754   1.302  0.5762  0.3459 -0.1787
 3039TIP3    H1 9081   1.709   4.706   1.380 -0.1234  1.4074  0.2631
 3039TIP3    H2 9082   1.831   4.751   1.304  0.5591 -1.5588 -0.5300
 3040TIP3   OH2 9083   5.656   3.837   3.911 -0.1251  0.0582 -0.1211
 3040TIP3    H1 9084   5.650   3.778   3.837  1.6212  0.1821 -0.4055
 3040TIP3    H2 9085   5.679   3.781   3.985  2.5085  0.4292 -0.5835
 3041TIP3   OH2 9086   1.998   5.357   4.587 -0.4747 -0.0764 -0.0496
 3041TIP3    H1 9087   1.988   5.264   4.569 -1.4191  0.1582 -0.8318
 3041TIP3    H2 9088   2.089   5.376   4.566 -0.6895 -0.5023 -1.4325
 3042TIP3   OH2 9089   1.079   2.612   1.858 -0.4217  0.3796 -0.6676
 3042TIP3    H1 9090   1.097   2.653   1.942 -0.4183  2.6749 -1.7214
 3042TIP3    H2 9091   0.985   2.594   1.859 -0.0925 -1.5532  0.5871
 3043TIP3   OH2 9092   4.417   0.372   5.787  0.3827  0.2883 -0.2737
 3043TIP3    H1 9093   4.469   0.340   5.861 -0.9354  0.5218  0.8071
 3043TIP3    H2 9094   4.332   0.330   5.798  0.4610 -0.4716 -2.2779
 3044TIP3   OH2 9095   4.117   3.603   0.067 -0.0797 -0.4630 -0.4953
 3044TIP3    H1 9096   4.101   3.612  -0.027 -0.2686  0.5310 -0.3748
 3044TIP3    H2 9097   4.111   3.692   0.101  1.5674 -0.5780  0.2084
 3045TIP3   OH2 9098   3.082   0.556   1.776  0.1234  0.5808 -0.9376
 3045TIP3    H1 9099   3.169   0.575   1.741  0.2473 -2.5310 -2.6455
 3045TIP3    H2 9100   3.097   0.489   1.842 -0.8118  1.6662  0.4291
 3046TIP3   OH2 9101   4.329   4.214   0.020  0.1547 -0.0994 -0.3211
 3046TIP3    H1 9102   4.287   4.188   0.102 -1.9676 -0.1397 -1.3506
 3046TIP3    H2 9103   4.355   4.305   0.034  1.0946 -0.5225  0.8446
 3047TIP3   OH2 9104   2.958   5.204   3.734 -0.7556  0.2015 -0.1833
 3047TIP3    H1 9105   2.918   5.250   3.808 -1.4326  0.1919 -0.5341
 3047TIP3    H2 9106   2.930   5.113   3.744 -0.9421  0.2207 -0.5077
 3048TIP3   OH2 9107   0.214   2.517   2.372  0.1738  0.2354 -0.2070
 3048TIP3    H1 9108   0.127   2.553   2.356  0.4961  2.3806  2.2984
 3048TIP3    H2 9109   0.266   2.549   2.298 -0.3364  2.1834  0.2322
 3049TIP3   OH2 9110   5.976   0.532   1.091 -0.1746  0.4984  0.2884
 3049TIP3    H1 9111   6.047   0.492   1.142 -0.3703 -0.3739 -0.1119
 3049TIP3    H2 9112   6.021   0.582   1.023  0.0812 -0.9374 -0.6433
 3050TIP3   OH2 9113   5.504   3.922   2.970  0.0100  0.4156  0.1046
 3050TIP3    H1 9114   5.542   3.932   3.058  0.9297  1.4913 -0.3926
 3050TIP3    H2 9115   5.486   3.829   2.963 -1.5942  0.5072  2.0367
 3051TIP3   OH2 9116   1.720   3.670   3.176  0.2331 -0.0672 -0.1603
 3051TIP3    H1 9117   1.785   3.600   3.186 -0.3284 -0.4626  0.9279
 3051TIP3    H2 9118   1.688   3.684   3.265 -1.0969  0.1963 -0.6710
 3052TIP3   OH2 9119   2.216   0.175   4.902  1.5094  0.0894  0.0846
 3052TIP3    H1 9120   2.122   0.159   4.909  1.3755  0.8830  0.1341
 3052TIP3    H2 9121   2.256   0.098   4.942  0.8879 -0.2792  0.0152
 3053TIP3   OH2 9122   6.395   1.301   5.530 -0.3996  0.0832 -0.3013
 3053TIP3    H1 9123   6.439   1.344   5.604 -0.5809  1.0464 -0.7299
 3053TIP3    H2 9124   6.457   1.308   5.458 -0.2468 -0.8041 -0.2656
 3054TIP3   OH2 9125   3.858   4.624   1.544 -0.2359 -0.0063 -0.0159
 3054TIP3    H1 9126   3.808   4.645   1.623 -0.6070 -1.1236  0.0660
 3054TIP3    H2 9127   3.929   4.568   1.575  1.1970  1.6717 -0.1101
 3055TIP3   OH2 9128   1.910   5.175   1.939  0.0475 -0.0133  0.4279
 3055TIP3    H1 9129   1.895   5.245   1.875  0.3724  0.7025  1.1209
 3055TIP3    H2 9130   1.908   5.095   1.887 -0.1628  0.5177 -0.4084
 3056TIP3   OH2 9131   3.522   1.106   3.493  0.0867 -0.5946  0.1314
 3056TIP3    H1 9132   3.467   1.037   3.531 -0.6129 -1.2071 -1.8781
 3056TIP3    H2 9133   3.461   1.160   3.443  0.9730  0.1562 -0.1692
 3057TIP3   OH2 9134   1.388   1.820   3.958  0.7702  0.0607  0.2142
 3057TIP3    H1 9135   1.427   1.871   3.887  0.3112  0.8233  0.4936
 3057TIP3    H2 9136   1.294   1.839   3.953  0.7378  0.1633  1.0464
 3058TIP3   OH2 9137   1.804   1.448   0.891  0.1344  0.2335 -0.5396
 3058TIP3    H1 9138   1.864   1.443   0.816  0.2887 -0.6922 -0.3684
 3058TIP3    H2 9139   1.810   1.362   0.932  1.8628  1.4276  1.9580
 3059TIP3   OH2 9140   1.815   3.517   1.177 -0.1001  0.0599 -0.3809
 3059TIP3    H1 9141   1.744   3.530   1.114  0.1078 -0.4479 -0.7282
 3059TIP3    H2 9142   1.806   3.426   1.205 -0.3346  0.3427  0.5129
 3060TIP3   OH2 9143   0.725   4.818   3.456 -0.5147  0.5767 -0.0825
 3060TIP3    H1 9144   0.694   4.804   3.366 -0.1240  0.0660 -0.1417
 3060TIP3    H2 9145   0.805   4.767   3.462  0.5108  2.1399 -0.0130
 3061TIP3   OH2 9146   2.095   6.047   0.115  0.5304 -0.2199 -0.5043
 3061TIP3    H1 9147   2.077   5.987   0.188 -1.9693 -3.0499 -3.1615
 3061TIP3    H2 9148   2.179   6.018   0.080  1.3652  0.6624  0.6495
 3062TIP3   OH2 9149   2.167   5.861   5.451 -0.2100  0.9273  0.6325
 3062TIP3    H1 9150   2.173   5.956   5.442 -0.7507  0.8524 -0.8040
 3062TIP3    H2 9151   2.075   5.845   5.473 -0.7841  0.6067 -1.7656
 3063TIP3   OH2 9152   3.122   5.275   2.669  0.4656 -0.0808 -0.0234
 3063TIP3    H1 9153   3.053   5.219   2.634  2.7177 -1.1511 -3.3390
 3063TIP3    H2 9154   3.163   5.223   2.738  0.8828 -1.4995 -1.2870
 3064TIP3   OH2 9155   6.749   1.374   1.218  0.4489  0.1882  0.6501
 3064TIP3    H1 9156   6.796   1.298   1.183  1.0468  0.6050  0.5385
 3064TIP3    H2 9157   6.690   1.337   1.283  0.4209 -0.4251  0.2831
 3065TIP3   OH2 9158   1.798   3.328   0.144 -0.2688 -0.4416 -0.5907
 3065TIP3    H1 9159   1.717   3.285   0.172 -0.9334 -0.5889 -2.5960
 3065TIP3    H2 9160   1.769   3.410   0.105  0.7707  0.5701  0.6931
 3066TIP3   OH2 9161   1.434   0.790   4.332  0.1478 -0.0512 -0.6045
 3066TIP3    H1 9162   1.483   0.819   4.409 -1.0910  0.9163 -0.1397
 3066TIP3    H2 9163   1.469   0.843   4.260  1.1126 -0.7565 -0.6700
 3067TIP3   OH2 9164   1.276   3.312   4.493 -0.3370 -0.4193  0.1198
 3067TIP3    H1 9165   1.252   3.360   4.572 -0.3313  1.2368 -0.8299
 3067TIP3    H2 9166   1.359   3.351   4.465 -1.3712  0.5457 -1.8399
 3068TIP3   OH2 9167   4.920   4.024   3.133  0.2524  0.1635  0.3396
 3068TIP3    H1 9168   4.951   4.068   3.212 -0.6160  1.9120 -0.2284
 3068TIP3    H2 9169   4.996   4.026   3.074  0.2400  0.9067  0.3368
 3069TIP3   OH2 9170   5.997   3.085   3.565 -0.0066  0.0342  0.0800
 3069TIP3    H1 9171   5.997   3.176   3.593 -0.0551 -0.2490  1.0704
 3069TIP3    H2 9172   6.066   3.044   3.617 -0.4504 -0.6238  0.1720
 3070TIP3   OH2 9173   3.539   4.834   2.008 -0.5811  0.4448  0.7439
 3070TIP3    H1 9174   3.564   4.775   1.937  0.5323  0.6628  0.9352
 3070TIP3    H2 9175   3.529   4.920   1.965 -0.3019  0.4978  0.7851
 3071TIP3   OH2 9176   4.824   3.184   0.389  0.0492  0.3285  0.5373
 3071TIP3    H1 9177   4.854   3.168   0.299  1.7200  2.0294  0.7131
 3071TIP3    H2 9178   4.865   3.115   0.441  2.2410  1.4947  0.4750
 3072TIP3   OH2 9179   0.343   3.537   1.246  0.3112 -0.3155  0.2850
 3072TIP3    H1 9180   0.353   3.558   1.339 -0.4398 -0.1852  0.3416
 3072TIP3    H2 9181   0.426   3.495   1.222 -0.4434 -2.7291  1.6390
 3073TIP3   OH2 9182   0.732   1.105   2.147  0.0466  0.3526  0.2233
 3073TIP3    H1 9183   0.663   1.141   2.091  0.1153  0.4712  0.2141
 3073TIP3    H2 9184   0.688   1.042   2.204  0.0152  0.0404 -0.1381
 3074TIP3   OH2 9185   1.584   1.695   5.212  0.2816  0.1288 -0.5456
 3074TIP3    H1 9186   1.512   1.639   5.241  1.2798 -1.6009 -1.2700
 3074TIP3    H2 9187   1.554   1.732   5.129  0.8304 -1.9445 -1.7302
 3075TIP3   OH2 9188   2.153   2.450   4.253 -0.2880  0.4266 -0.1829
 3075TIP3    H1 9189   2.086   2.505   4.212 -0.7380  1.2965  1.6076
 3075TIP3    H2 9190   2.236   2.490   4.228 -0.5553  0.9302 -0.2750
 3076TIP3   OH2 9191   6.790   4.253   1.556  0.0221 -0.3317 -0.2696
 3076TIP3    H1 9192   6.714   4.201   1.527 -0.3077  0.4054 -0.7441
 3076TIP3    H2 9193   6.752   4.334   1.589  0.6426  0.3227 -1.1363
 3077TIP3   OH2 9194   4.035   4.378   3.245 -0.0024 -0.3461  0.1926
 3077TIP3    H1 9195   4.050   4.304   3.187 -0.4926 -0.1910 -0.1345
 3077TIP3    H2 9196   3.965   4.428   3.204 -0.3690 -0.2412  0.9300
 3078TIP3   OH2 9197   1.221   1.194   1.499 -0.4550  0.4116  0.1435
 3078TIP3    H1 9198   1.136   1.220   1.534 -0.3143  0.2598  0.6004
 3078TIP3    H2 9199   1.268   1.156   1.574  0.5928  1.8766  0.2644
 3079TIP3   OH2 9200   3.433   4.106  -0.003 -0.0826  0.0006 -0.2441
 3079TIP3    H1 9201   3.484   4.121   0.076  0.3135  0.5749 -0.5979
 3079TIP3    H2 9202   3.352   4.155   0.010 -0.1821 -0.2209 -0.0342
 3080TIP3   OH2 9203   5.690   2.879   4.496  0.2348 -0.2230 -0.2592
 3080TIP3    H1 9204   5.599   2.907   4.484  0.4563  0.3924 -0.5816
 3080TIP3    H2 9205   5.736   2.960   4.519  0.4658 -0.7607  1.2422
 3081TIP3   OH2 9206   1.271   1.592   3.817 -0.3056 -0.0428  0.6628
 3081TIP3    H1 9207   1.299   1.517   3.764 -0.1488  1.4265 -1.4624
 3081TIP3    H2 9208   1.269   1.559   3.906 -0.0559 -2.5165 -0.1761
 3082TIP3   OH2 9209   5.886   2.245   0.390 -0.2084  0.5115  0.3140
 3082TIP3    H1 9210   5.805   2.194   0.382 -0.5660  0.3356  3.6807
 3082TIP3    H2 9211   5.955   2.180   0.385 -0.3806  0.3713 -0.3606
 3083TIP3   OH2 9212   6.767   5.871   2.272  0.3961  0.4753 -0.0928
 3083TIP3    H1 9213   6.698   5.880   2.337 -1.8677 -1.8400 -1.9640
 3083TIP3    H2 9214   6.751   5.942   2.209  1.5016  1.6189  0.8531
 3084TIP3   OH2 9215   6.125   2.108   2.783  0.1271 -0.4629  0.0283
 3084TIP3    H1 9216   6.139   2.050   2.857  1.2393  1.0993  1.1229
 3084TIP3    H2 9217   6.212   2.120   2.745 -0.3423 -0.7769 -1.1817
 3085TIP3   OH2 9218   2.717   6.271   3.085 -0.2525 -0.5729 -0.4365
 3085TIP3    H1 9219   2.800   6.235   3.117 -0.8323 -0.4313  1.3247
 3085TIP3    H2 9220   2.662   6.195   3.070 -0.2929 -0.6012 -0.1559
 3086TIP3   OH2 9221   2.175   2.439   2.297  0.0085  0.2500  0.2330
 3086TIP3    H1 9222   2.263   2.407   2.282  0.8645  1.9948  1.1926
 3086TIP3    H2 9223   2.186   2.514   2.356 -2.2131 -0.1939  1.3341
 3087TIP3   OH2 9224   7.168   0.598   1.816  0.0005  0.0700 -0.1756
 3087TIP3    H1 9225   7.174   0.604   1.720 -1.1397  1.1414 -0.1943
 3087TIP3    H2 9226   7.125   0.513   1.831  1.4584 -0.7730 -0.5306
 3088TIP3   OH2 9227   0.155   1.164   1.460  0.2440  0.5151 -0.1515
 3088TIP3    H1 9228   0.109   1.224   1.519  1.2862  0.8975  0.2962
 3088TIP3    H2 9229   0.201   1.221   1.399 -0.1238  0.1317 -0.8023
 3089TIP3   OH2 9230   1.833   5.351   5.415  0.5403 -0.8249 -0.2210
 3089TIP3    H1 9231   1.824   5.442   5.442  0.3898 -1.5615  2.5150
 3089TIP3    H2 9232   1.747   5.327   5.381  0.5194 -0.0189 -0.7542
 3090TIP3   OH2 9233   3.026   2.496   0.443 -0.2228 -0.0893 -0.1407
 3090TIP3    H1 9234   3.049   2.403   0.453  2.5995  0.6065  0.7062
 3090TIP3    H2 9235   3.089   2.530   0.380 -2.5427  0.8854 -2.0833
 3091TIP3   OH2 9236   3.171   6.588   3.961 -0.3124 -0.4876 -0.3597
 3091TIP3    H1 9237   3.162   6.494   3.980  0.4633 -0.9604 -2.1398
 3091TIP3    H2 9238   3.155   6.595   3.867 -0.5684  1.2125 -0.2170
 3092TIP3   OH2 9239   5.047   1.583   2.591  0.5515 -0.4187 -0.0049
 3092TIP3    H1 9240   5.137   1.551   2.580  1.0115  0.7327  0.2075
 3092TIP3    H2 9241   5.022   1.557   2.680 -0.1266 -2.5704 -0.7756
 3093TIP3   OH2 9242   2.611   2.032   0.915 -0.2816  0.1593 -0.0653
 3093TIP3    H1 9243   2.633   1.980   0.993  0.3313  0.4950 -0.0061
 3093TIP3    H2 9244   2.623   2.123   0.943  3.6614  0.2892 -1.5482
 3094TIP3   OH2 9245   7.070   1.529   5.346  0.0232  0.1023  0.4246
 3094TIP3    H1 9246   6.976   1.550   5.341  0.5121  2.6424  0.7267
 3094TIP3    H2 9247   7.088   1.523   5.440  0.1420 -0.6375  0.3618
 3095TIP3   OH2 9248   5.520   6.630   3.728  0.3453 -0.2922 -0.2364
 3095TIP3    H1 9249   5.598   6.669   3.689 -0.5050  1.2100 -0.5310
 3095TIP3    H2 9250   5.473   6.704   3.766 -0.8499 -1.1806  0.0696
 3096TIP3   OH2 9251   6.848   4.246   3.257  0.1123  0.4546 -0.1832
 3096TIP3    H1 9252   6.860   4.156   3.227 -0.7237  0.7955 -1.6271
 3096TIP3    H2 9253   6.880   4.300   3.185  1.9877  1.3540  1.2475
 3097TIP3   OH2 9254   5.392   2.766   5.040  0.8670  0.6762  0.2146
 3097TIP3    H1 9255   5.426   2.812   5.117 -0.8809 -0.2610  1.6384
 3097TIP3    H2 9256   5.297   2.775   5.047  0.4819 -2.0926 -0.0437
 3098TIP3   OH2 9257   3.989   6.764   5.429 -0.2531 -0.8306 -0.0821
 3098TIP3    H1 9258   4.058   6.697   5.426 -0.7364 -1.4120  1.2902
 3098TIP3    H2 9259   3.949   6.760   5.342  0.4961 -1.4907 -0.4180
 3099TIP3   OH2 9260   7.109   5.124   2.198  0.3384 -0.4680  0.4322
 3099TIP3    H1 9261   7.066   5.165   2.274  0.4434 -0.4194  0.4657
 3099TIP3    H2 9262   7.198   5.159   2.200  0.7830 -1.5688  1.1374
 3100TIP3   OH2 9263   6.255   4.109   2.761 -0.2143 -0.1448  0.0439
 3100TIP3    H1 9264   6.319   4.119   2.690 -1.2606 -2.0685 -1.2539
 3100TIP3    H2 9265   6.171   4.102   2.716 -1.0147 -0.4791  1.5491
 3101TIP3   OH2 9266   0.638   4.249   5.387 -0.0513 -0.8089  0.3720
 3101TIP3    H1 9267   0.688   4.172   5.361 -1.6874 -2.4935  1.8501
 3101TIP3    H2 9268   0.604   4.285   5.305  0.4545 -1.9025 -0.3423
 3102TIP3   OH2 9269   2.365   3.246   5.196  0.4946 -0.6222 -0.5362
 3102TIP3    H1 9270   2.399   3.256   5.285 -1.0558 -0.6671  0.1069
 3102TIP3    H2 9271   2.414   3.172   5.160 -0.6820 -2.4166  1.2843
 3103TIP3   OH2 9272   5.850   6.514   4.476 -0.2576  0.7754  0.0970
 3103TIP3    H1 9273   5.918   6.581   4.467 -0.2645  0.5869 -1.9855
 3103TIP3    H2 9274   5.895   6.432   4.455 -0.6417  0.3399  0.9226
 3104TIP3   OH2 9275   6.644   6.526   0.196 -0.0608 -0.2180 -0.3812
 3104TIP3    H1 9276   6.633   6.530   0.291 -1.5737  0.3745 -0.5580
 3104TIP3    H2 9277   6.633   6.433   0.175  1.5161 -0.5523  0.1239
 3105TIP3   OH2 9278   2.574   0.870   3.898 -0.5966  0.0908 -0.1497
 3105TIP3    H1 9279   2.517   0.824   3.960 -2.1823  0.7022 -1.1192
 3105TIP3    H2 9280   2.532   0.860   3.813  0.3068  1.2750 -0.7750
 3106TIP3   OH2 9281   4.221   4.880   3.620  0.3534 -0.1809 -0.5535
 3106TIP3    H1 9282   4.280   4.953   3.634 -0.3641  0.5773 -1.3942
 3106TIP3    H2 9283   4.174   4.901   3.539  0.2567 -1.6518 -0.9190
 3107TIP3   OH2 9284   0.049   0.765   4.719 -0.0619  0.2411 -0.2458
 3107TIP3    H1 9285   0.111   0.816   4.771 -0.5651  0.1796  0.4343
 3107TIP3    H2 9286  -0.037   0.790   4.754 -0.4459  0.5586 -1.3772
 3108TIP3   OH2 9287   6.464   6.705   1.521  0.0717 -0.2900  0.5558
 3108TIP3    H1 9288   6.387   6.737   1.567 -0.4571  0.1880 -0.6380
 3108TIP3    H2 9289   6.433   6.628   1.473  0.0454  0.5230 -0.7836
 3109TIP3   OH2 9290   6.505   1.686   3.782  0.2656  0.6091  0.1078
 3109TIP3    H1 9291   6.499   1.687   3.687  1.6717 -3.0438 -0.2152
 3109TIP3    H2 9292   6.417   1.665   3.812  0.1781  0.0002 -0.5509
 3110TIP3   OH2 9293   3.023   0.791   1.451  0.2734 -0.5997 -0.1131
 3110TIP3    H1 9294   2.939   0.755   1.424  0.5236 -1.3269  0.0733
 3110TIP3    H2 9295   3.066   0.814   1.368 -0.2453  0.1229 -0.1983
 3111TIP3   OH2 9296   0.745   1.480   5.646 -0.4525 -0.0705  0.0421
 3111TIP3    H1 9297   0.680   1.488   5.716 -0.2717  1.0404  0.1078
 3111TIP3    H2 9298   0.702   1.518   5.569 -0.8080 -1.6710 -0.5884
 3112TIP3   OH2 9299   0.660   3.493   4.751  0.6033  0.3592  0.1117
 3112TIP3    H1 9300   0.595   3.422   4.746 -0.4683  1.2044  1.4821
 3112TIP3    H2 9301   0.743   3.451   4.726 -0.0435 -1.3321  0.6624
 3113TIP3   OH2 9302   3.017   0.578   4.289  0.1444 -0.1409 -0.4136
 3113TIP3    H1 9303   3.010   0.583   4.194 -0.8263 -1.2591 -0.4180
 3113TIP3    H2 9304   2.959   0.507   4.314  0.6217 -0.0673  0.9987
 3114TIP3   OH2 9305   0.266   2.739   3.859  0.6686 -0.2791 -0.3672
 3114TIP3    H1 9306   0.354   2.776   3.873  0.1295  1.3501 -1.0508
 3114TIP3    H2 9307   0.282   2.655   3.816  1.9567 -1.0314  1.4603
 3115TIP3   OH2 9308   3.643   4.870   5.245 -0.0940  0.2207  0.3554
 3115TIP3    H1 9309   3.589   4.949   5.249 -0.0205  0.2593  0.5911
 3115TIP3    H2 9310   3.609   4.814   5.316 -0.3157 -0.0666  0.0291
 3116TIP3   OH2 9311   1.137   2.639   5.799  0.0916  0.2953  0.8619
 3116TIP3    H1 9312   1.119   2.696   5.873  1.4175  0.3050  1.2034
 3116TIP3    H2 9313   1.227   2.608   5.813 -0.4528 -1.5964  0.4983
 3117TIP3   OH2 9314   2.911   3.811   5.082 -0.4424 -0.4923  0.1129
 3117TIP3    H1 9315   2.956   3.783   5.162  0.6112 -0.3424 -0.4069
 3117TIP3    H2 9316   2.845   3.873   5.112 -0.4634 -0.8933  0.9236
 3118TIP3   OH2 9317   0.058   4.714   3.486 -0.0055  0.4549 -0.3318
 3118TIP3    H1 9318  -0.018   4.769   3.466 -0.3575  0.3403  0.6083
 3118TIP3    H2 9319   0.122   4.776   3.521  0.5409  0.6304 -1.6139
 3119TIP3   OH2 9320   5.664   5.711   2.435 -0.5958 -0.4027  0.1697
 3119TIP3    H1 9321   5.575   5.727   2.405 -0.6330  0.3332  0.6530
 3119TIP3    H2 9322   5.663   5.734   2.528  0.5265  1.3305 -0.2109
 3120TIP3   OH2 9323   6.537   4.380   4.690  0.0357 -0.5259 -0.1034
 3120TIP3    H1 9324   6.442   4.390   4.701 -0.0148 -2.3117  1.6485
 3120TIP3    H2 9325   6.547   4.298   4.642  0.7031  1.1517 -3.1020
 3121TIP3   OH2 9326   5.238   3.805   3.835  0.3988  0.1678  0.5651
 3121TIP3    H1 9327   5.290   3.749   3.778  1.0799 -2.3620  3.4198
 3121TIP3    H2 9328   5.302   3.860   3.880  0.3962 -1.0305  2.0994
 3122TIP3   OH2 9329   6.365   2.195   1.277  0.3790  0.4300 -0.0314
 3122TIP3    H1 9330   6.452   2.235   1.275  0.3508  0.4687 -1.6367
 3122TIP3    H2 9331   6.346   2.172   1.186 -1.5874  1.0596  0.1582
 3123TIP3   OH2 9332   5.190   6.360   1.197 -0.2762  0.1100 -0.1813
 3123TIP3    H1 9333   5.268   6.386   1.149  0.2279  0.3179  0.7186
 3123TIP3    H2 9334   5.201   6.401   1.283  0.1518 -2.4298  1.0419
 3124TIP3   OH2 9335   6.764   0.099   4.884 -0.2547 -0.1763 -0.1124
 3124TIP3    H1 9336   6.812   0.092   4.801  0.9782  1.5652  0.3939
 3124TIP3    H2 9337   6.726   0.187   4.883 -3.8417 -1.5597 -0.6126
 3125TIP3   OH2 9338   4.133   5.640   2.625 -0.3612  0.8243  0.1707
 3125TIP3    H1 9339   4.118   5.579   2.698  0.3052  1.8620  1.2188
 3125TIP3    H2 9340   4.166   5.719   2.667 -0.6021  1.6918 -1.2226
 3126TIP3   OH2 9341   3.317   5.628   4.301  0.4295 -0.2007 -0.0595
 3126TIP3    H1 9342   3.285   5.663   4.384 -0.8851 -0.3063 -0.5067
 3126TIP3    H2 9343   3.337   5.705   4.248  0.6427 -0.1362  0.1114
 3127TIP3   OH2 9344   4.856   5.752   2.075 -0.4347  0.4858 -0.9846
 3127TIP3    H1 9345   4.917   5.744   2.149  0.1662  0.7153 -1.4505
 3127TIP3    H2 9346   4.776   5.708   2.105 -0.5104  1.3446  0.1360
 3128TIP3   OH2 9347   2.772   0.557   3.281  0.3771 -0.5586  0.2082
 3128TIP3    H1 9348   2.747   0.583   3.191  0.9383  0.2690  0.2827
 3128TIP3    H2 9349   2.811   0.636   3.318  0.3624 -0.9711  1.1125
 3129TIP3   OH2 9350   1.844   6.196   0.036  0.1143  0.2340  0.5756
 3129TIP3    H1 9351   1.770   6.143   0.067 -1.2759  0.6763 -1.7865
 3129TIP3    H2 9352   1.887   6.141  -0.029  1.5056  0.2721  1.4165
 3130TIP3   OH2 9353   0.387   0.836   4.358 -0.6743  0.0754 -0.0297
 3130TIP3    H1 9354   0.356   0.926   4.354 -1.1663 -0.0209  1.1497
 3130TIP3    H2 9355   0.469   0.841   4.407  0.5937  0.1611 -2.0309
 3131TIP3   OH2 9356   2.075   4.227   0.760  0.6323 -0.1188  0.1545
 3131TIP3    H1 9357   2.121   4.212   0.843 -0.3633 -0.8234  0.6079
 3131TIP3    H2 9358   2.080   4.321   0.746  1.7161 -0.1190  0.4776
 3132TIP3   OH2 9359   4.481   0.579   0.820 -0.4569 -0.1471  0.1519
 3132TIP3    H1 9360   4.507   0.552   0.908  0.4050  3.5468  1.2223
 3132TIP3    H2 9361   4.385   0.585   0.823 -0.3844  0.8554  1.2216
 3133TIP3   OH2 9362   1.043   3.685   3.038 -0.1920  0.3347 -0.6707
 3133TIP3    H1 9363   1.044   3.677   3.133  0.3690 -1.0956 -0.7651
 3133TIP3    H2 9364   1.045   3.779   3.021 -2.7069  0.7236  0.7198
 3134TIP3   OH2 9365   1.498   3.020   3.292 -0.3933 -0.4879  0.1790
 3134TIP3    H1 9366   1.550   3.095   3.319 -1.3500  0.3509 -0.2278
 3134TIP3    H2 9367   1.562   2.951   3.274  0.6565  0.7956 -1.2724
 3135TIP3   OH2 9368   4.190   3.836   4.844  0.0715 -0.0706 -0.6163
 3135TIP3    H1 9369   4.197   3.916   4.896  1.8094 -0.0160 -0.8892
 3135TIP3    H2 9370   4.098   3.812   4.851  0.1210  0.2184  2.0490
 3136TIP3   OH2 9371   6.461   1.324   4.856  0.5132  0.3758  0.0682
 3136TIP3    H1 9372   6.367   1.336   4.845  0.6967  1.0049 -1.0390
 3136TIP3    H2 9373   6.483   1.374   4.934  0.3414  2.7532 -1.2940
 3137TIP3   OH2 9374   5.813   2.090   3.147  0.0103  0.2549  0.2393
 3137TIP3    H1 9375   5.736   2.076   3.202  0.0892 -1.0563  0.0546
 3137TIP3    H2 9376   5.884   2.047   3.194  0.7580  1.8348  0.6237
 3138TIP3   OH2 9377   1.812   2.652   1.586 -0.4958  0.0360 -0.4702
 3138TIP3    H1 9378   1.797   2.623   1.496 -0.1085 -1.0544 -0.2026
 3138TIP3    H2 9379   1.759   2.593   1.639 -0.8690  0.7953  0.0112
 3139TIP3   OH2 9380   4.606   2.492   2.794 -0.4995  0.2557  0.0824
 3139TIP3    H1 9381   4.609   2.396   2.793  1.4583  0.2062 -2.8693
 3139TIP3    H2 9382   4.513   2.513   2.794 -0.9673 -1.6437  0.7603
 3140TIP3   OH2 9383   7.053   0.821   0.596  0.3850  0.0968 -0.1791
 3140TIP3    H1 9384   6.990   0.776   0.652  1.3943 -0.4739  0.5283
 3140TIP3    H2 9385   7.097   0.882   0.655 -1.0631  2.1991 -1.1409
 3141TIP3   OH2 9386   4.932   0.377   3.272 -0.3902 -0.4018 -0.2545
 3141TIP3    H1 9387   4.986   0.443   3.228  1.9278 -0.7877  1.8008
 3141TIP3    H2 9388   4.866   0.353   3.207  0.3199  1.9909 -1.9990
 3142TIP3   OH2 9389   4.675   4.513   2.579 -0.1425 -0.0037 -0.4473
 3142TIP3    H1 9390   4.675   4.608   2.595  0.2556 -0.3545  2.0623
 3142TIP3    H2 9391   4.595   4.498   2.529 -0.0223  1.6946 -1.2346
 3143TIP3   OH2 9392   5.794   0.605   2.760 -0.1941 -0.6607 -0.5425
 3143TIP3    H1 9393   5.783   0.586   2.667 -1.1595  0.3176 -0.6517
 3143TIP3    H2 9394   5.743   0.685   2.774 -0.1310 -0.8390  0.8466
 3144TIP3   OH2 9395   3.853   6.029   0.736 -0.1062  0.2201 -0.4721
 3144TIP3    H1 9396   3.836   6.089   0.808  0.3352  0.1624 -0.3194
 3144TIP3    H2 9397   3.766   5.999   0.709 -0.2145 -1.7331  1.6991
 3145TIP3   OH2 9398   1.850   2.208   2.872  0.4372 -0.4842 -0.2547
 3145TIP3    H1 9399   1.898   2.130   2.899  1.2371 -0.3866 -1.3450
 3145TIP3    H2 9400   1.912   2.280   2.884 -0.0698 -0.1007  0.1059
 3146TIP3   OH2 9401   0.926   4.011   5.648 -0.1938  0.2100 -0.2235
 3146TIP3    H1 9402   0.851   3.955   5.671 -1.2661  0.8375 -2.0009
 3146TIP3    H2 9403   0.906   4.095   5.688 -0.1949  0.2442 -0.2970
 3147TIP3   OH2 9404   2.701   3.745   1.158 -0.2213  0.5066 -0.4740
 3147TIP3    H1 9405   2.636   3.806   1.123 -0.7592  0.4370  0.3874
 3147TIP3    H2 9406   2.663   3.658   1.145 -0.3628  0.4720  0.1406
 3148TIP3   OH2 9407   6.488   0.933   4.317 -0.4158  0.3076  0.3036
 3148TIP3    H1 9408   6.458   1.014   4.357 -1.2544 -0.5932  1.5696
 3148TIP3    H2 9409   6.455   0.863   4.374 -0.9971 -1.0060 -1.5195
 3149TIP3   OH2 9410   1.371   5.176   2.286 -0.1833  0.1440  0.1043
 3149TIP3    H1 9411   1.460   5.189   2.254 -0.3657 -0.2388 -0.5827
 3149TIP3    H2 9412   1.374   5.094   2.335  0.0891  0.7136  1.0576
 3150TIP3   OH2 9413   6.210   6.093   1.934  0.3704 -0.0861 -0.2187
 3150TIP3    H1 9414   6.248   6.058   1.853  0.3458 -0.4568 -0.0743
 3150TIP3    H2 9415   6.277   6.076   2.000  0.4603  0.3690 -0.1941
 3151TIP3   OH2 9416   6.766   0.366   4.809 -0.5174  0.2155  0.1003
 3151TIP3    H1 9417   6.704   0.438   4.816 -1.2803 -0.4836  0.6159
 3151TIP3    H2 9418   6.798   0.372   4.719 -1.2249  0.6668 -0.1335
 3152TIP3   OH2 9419   1.970   5.107   4.475 -0.2755 -0.1365  0.0882
 3152TIP3    H1 9420   2.041   5.052   4.507 -0.6709 -0.2274  0.8330
 3152TIP3    H2 9421   1.916   5.047   4.423 -0.2486 -0.2565  0.1969
 3153TIP3   OH2 9422   4.483   2.079   3.637 -0.5184 -0.8972 -0.3598
 3153TIP3    H1 9423   4.553   2.133   3.673 -0.9689  0.3999 -1.3589
 3153TIP3    H2 9424   4.407   2.100   3.691 -1.0106  0.4907 -1.5294
 3154TIP3   OH2 9425   0.283   2.704   1.737  0.2141  0.0203  0.6076
 3154TIP3    H1 9426   0.314   2.746   1.656 -1.1836 -0.4725 -0.2274
 3154TIP3    H2 9427   0.222   2.766   1.774 -0.0197 -0.2425  0.6647
 3155TIP3   OH2 9428   2.156   2.423   4.525 -0.1368  0.7361 -0.1834
 3155TIP3    H1 9429   2.170   2.434   4.431 -2.5585 -1.1499 -0.8632
 3155TIP3    H2 9430   2.204   2.343   4.548 -1.0590  0.1552 -0.2431
 3156TIP3   OH2 9431   3.289   3.235   0.599 -0.3394 -0.1675  0.4193
 3156TIP3    H1 9432   3.356   3.299   0.623 -0.5039  0.2325 -0.1598
 3156TIP3    H2 9433   3.223   3.286   0.552  0.2430 -0.9886 -1.3735
 3157TIP3   OH2 9434   0.626   6.653   0.023  0.3279 -0.0532  0.3018
 3157TIP3    H1 9435   0.666   6.603  -0.049  0.7589 -0.2934  0.6995
 3157TIP3    H2 9436   0.556   6.597   0.055 -0.0769  0.1956 -0.1407
 3158TIP3   OH2 9437   3.900   2.877   0.314 -0.6189 -0.3955 -0.0712
 3158TIP3    H1 9438   3.817   2.869   0.267 -0.3590 -0.7197 -0.4944
 3158TIP3    H2 9439   3.878   2.862   0.405 -1.2957  1.2230  0.0622
 3159TIP3   OH2 9440   1.800   1.541   5.218  0.4257 -0.1192 -0.4669
 3159TIP3    H1 9441   1.730   1.606   5.212  0.8087  0.4880  1.0837
 3159TIP3    H2 9442   1.849   1.565   5.297  0.0421 -2.7986  0.7307
 3160TIP3   OH2 9443   5.502   3.482   2.599 -0.3367 -0.0460  0.1507
 3160TIP3    H1 9444   5.427   3.479   2.659 -0.1014 -0.5310  0.4324
 3160TIP3    H2 9445   5.516   3.390   2.574 -0.2441  0.1201 -0.4120
 3161TIP3   OH2 9446   0.564   2.736   0.348 -0.1451  0.3956  0.2034
 3161TIP3    H1 9447   0.586   2.651   0.387  0.6239 -0.0683 -1.2037
 3161TIP3    H2 9448   0.534   2.715   0.260  0.6995  1.6442 -0.4000
 3162TIP3   OH2 9449   5.618   5.840   4.279  0.0329  0.2632  0.3443
 3162TIP3    H1 9450   5.536   5.878   4.246  0.3317  0.8981  0.3274
 3162TIP3    H2 9451   5.609   5.843   4.374 -0.1362 -0.0477  0.3384
 3163TIP3   OH2 9452   1.291   4.612   5.774  0.2339  0.0502 -0.2315
 3163TIP3    H1 9453   1.356   4.625   5.842 -1.5235  0.8163  1.3724
 3163TIP3    H2 9454   1.251   4.526   5.793  1.0393 -0.6463 -1.4901
 3164TIP3   OH2 9455   0.757   2.485   0.665  0.4566 -0.1365 -0.4388
 3164TIP3    H1 9456   0.749   2.497   0.570  0.8444  0.0332 -0.4540
 3164TIP3    H2 9457   0.702   2.409   0.685 -1.7477  1.3952 -0.4097
 3165TIP3   OH2 9458   6.289   0.105   2.811  0.0097  0.5125 -0.0614
 3165TIP3    H1 9459   6.259   0.082   2.899  1.8915  1.5712  0.8939
 3165TIP3    H2 9460   6.218   0.158   2.775 -0.7796  0.0775  0.7976
 3166TIP3   OH2 9461   3.430   4.085   3.318  1.2865  0.4218  0.9704
 3166TIP3    H1 9462   3.407   4.001   3.357  2.7658 -0.8839 -0.7862
 3166TIP3    H2 9463   3.389   4.150   3.375 -0.5043 -1.4822  2.0017
 3167TIP3   OH2 9464   2.325   6.737   3.622  0.5562 -0.8470 -0.2605
 3167TIP3    H1 9465   2.266   6.703   3.555  0.4504 -2.4942  0.6038
 3167TIP3    H2 9466   2.274   6.803   3.669  0.5132  0.0581 -1.5416
 3168TIP3   OH2 9467   4.814   2.976   4.765 -1.0527  0.4814 -0.1477
 3168TIP3    H1 9468   4.773   3.025   4.693 -0.1819  0.8588 -0.4037
 3168TIP3    H2 9469   4.887   3.032   4.794  0.1368 -0.7511 -0.6223
 3169TIP3   OH2 9470   5.501   4.052   2.744  0.0316 -0.0312  0.1616
 3169TIP3    H1 9471   5.453   4.132   2.768 -0.4374 -0.5026  0.8284
 3169TIP3    H2 9472   5.505   4.002   2.826  0.4312 -0.6346 -0.2272
 3170TIP3   OH2 9473   2.915   1.162   1.375 -0.0708 -0.0025  0.5450
 3170TIP3    H1 9474   2.957   1.225   1.433 -0.7408  0.7427  0.2519
 3170TIP3    H2 9475   2.821   1.176   1.389 -0.2271 -1.1789  0.7193
 3171TIP3   OH2 9476   0.155   6.573   3.576 -0.0090 -0.5359  0.1898
 3171TIP3    H1 9477   0.165   6.637   3.505  2.4983  0.2369  1.1060
 3171TIP3    H2 9478   0.188   6.491   3.540  0.4504 -0.3465  0.1663
 3172TIP3   OH2 9479   3.714   4.851   0.740  0.0041  0.4579  0.1295
 3172TIP3    H1 9480   3.623   4.838   0.713 -0.1462  1.2214  0.2591
 3172TIP3    H2 9481   3.708   4.897   0.823  0.5147  0.5678  0.1087
 3173TIP3   OH2 9482   3.304   2.456   4.793  0.4424 -0.8113  0.5047
 3173TIP3    H1 9483   3.305   2.457   4.889  0.7125 -1.1144  0.5087
 3173TIP3    H2 9484   3.387   2.415   4.769  1.2059  0.9133  0.0914
 3174TIP3   OH2 9485   4.422   6.705   0.985  0.4614  0.3365 -0.1920
 3174TIP3    H1 9486   4.430   6.786   1.035 -0.5987  0.6812 -0.5546
 3174TIP3    H2 9487   4.488   6.647   1.023 -0.2611  0.5900  1.5875
 3175TIP3   OH2 9488   1.661   0.472   4.334  0.1041 -0.1376  0.0888
 3175TIP3    H1 9489   1.707   0.448   4.253  3.7664  0.6278  1.7576
 3175TIP3    H2 9490   1.623   0.558   4.316  0.9543  0.0651 -0.8020
 3176TIP3   OH2 9491   0.969   5.680   1.680  0.7528  0.0615 -0.3057
 3176TIP3    H1 9492   1.046   5.641   1.721  1.3775  0.1536 -1.3645
 3176TIP3    H2 9493   0.913   5.705   1.754  1.9058  0.3551  0.5004
 3177TIP3   OH2 9494   5.873   5.906   4.544 -0.0508  0.3104  0.1439
 3177TIP3    H1 9495   5.911   5.865   4.466 -0.3459 -1.1078  0.7079
 3177TIP3    H2 9496   5.945   5.912   4.606  0.0825  1.0471 -0.0662
 3178TIP3   OH2 9497   6.563   3.455   4.711  0.5373 -0.1372 -0.0791
 3178TIP3    H1 9498   6.600   3.505   4.638  1.5088  0.2629  0.6704
 3178TIP3    H2 9499   6.556   3.518   4.782  0.6484 -0.7793  0.5071
 3179TIP3   OH2 9500   4.440   5.090   1.680 -0.2640 -0.6442  0.3609
 3179TIP3    H1 9501   4.371   5.116   1.618  0.3737 -0.7899 -0.4293
 3179TIP3    H2 9502   4.396   5.086   1.764 -0.7729  1.3259  0.2305
 3180TIP3   OH2 9503   3.226   3.350   5.110 -0.4059 -0.1850 -0.0812
 3180TIP3    H1 9504   3.171   3.419   5.073  0.5729  0.2156 -0.8411
 3180TIP3    H2 9505   3.276   3.316   5.036  2.8765  1.8182  0.9739
 3181TIP3   OH2 9506   1.307   5.613   1.027  0.0674 -0.0254 -0.3307
 3181TIP3    H1 9507   1.248   5.581   0.959  0.5994 -0.9407 -0.3723
 3181TIP3    H2 9508   1.315   5.541   1.088  0.9197  0.1823 -0.1803
 3182TIP3   OH2 9509   1.460   2.986   4.283  0.2374  0.2722  0.0272
 3182TIP3    H1 9510   1.479   3.059   4.225  0.3211 -0.3532 -0.7446
 3182TIP3    H2 9511   1.483   3.018   4.371 -0.1791  1.3296 -0.2309
 3183TIP3   OH2 9512   2.751   5.556   1.922 -0.0540  0.3160 -0.1709
 3183TIP3    H1 9513   2.829   5.612   1.916 -0.4048  0.7503 -0.7577
 3183TIP3    H2 9514   2.771   5.496   1.994 -0.1611  1.9557  1.2946
 3184TIP3   OH2 9515   3.015   3.925   0.145  0.2227  0.3739 -0.1073
 3184TIP3    H1 9516   2.982   3.847   0.099 -0.8455  0.3620  0.6420
 3184TIP3    H2 9517   3.098   3.945   0.101 -0.3420 -0.1354 -1.4751
 3185TIP3   OH2 9518   6.595   3.661   2.822  0.4238 -0.6035 -0.1684
 3185TIP3    H1 9519   6.625   3.594   2.884  0.6808 -1.8179 -1.5439
 3185TIP3    H2 9520   6.562   3.732   2.877  0.5276 -1.6812  1.3453
 3186TIP3   OH2 9521   6.417   1.087   4.522  0.2660 -0.4046 -0.4153
 3186TIP3    H1 9522   6.400   1.180   4.508 -0.0734 -0.2896  0.6490
 3186TIP3    H2 9523   6.482   1.085   4.593 -0.2610 -0.9884  0.0654
 3187TIP3   OH2 9524   4.340   1.461   2.267  0.0135  0.6933  0.0599
 3187TIP3    H1 9525   4.344   1.478   2.361 -0.9740  2.3744 -0.1692
 3187TIP3    H2 9526   4.247   1.444   2.249  0.3517 -0.8636 -0.4539
 3188TIP3   OH2 9527   3.848   0.956   4.091 -0.2924  0.5354 -0.6837
 3188TIP3    H1 9528   3.866   0.872   4.048 -2.2495 -0.1909 -0.2052
 3188TIP3    H2 9529   3.791   0.933   4.164  0.8318  2.0601  0.7498
 3189TIP3   OH2 9530   6.636   0.193   3.255 -0.5131 -0.5873  0.4495
 3189TIP3    H1 9531   6.577   0.206   3.329 -2.4057  0.2142 -1.1388
 3189TIP3    H2 9532   6.596   0.122   3.205  0.3742 -0.6473 -0.1925
 3190TIP3   OH2 9533   3.518   1.470   5.361  0.2335 -0.4834  0.1164
 3190TIP3    H1 9534   3.506   1.523   5.282 -0.7565 -0.8455  0.0128
 3190TIP3    H2 9535   3.440   1.415   5.365  0.4519 -0.7337  1.1520
 3191TIP3   OH2 9536   2.891   1.162   0.432  0.9072 -0.3711 -0.6133
 3191TIP3    H1 9537   2.836   1.240   0.430  1.5203  0.0737 -0.2019
 3191TIP3    H2 9538   2.978   1.192   0.407  0.9709 -1.0855 -1.3327
 3192TIP3   OH2 9539   5.207   6.470   2.639 -0.4331 -0.0243 -0.3164
 3192TIP3    H1 9540   5.192   6.524   2.716  0.5490 -0.6947  0.3715
 3192TIP3    H2 9541   5.123   6.428   2.622 -0.5954 -0.0561  0.5419
 3193TIP3   OH2 9542   0.908   3.963   2.652 -0.1292  0.1484 -0.2053
 3193TIP3    H1 9543   0.968   3.947   2.725 -0.1726  0.6946 -0.0433
 3193TIP3    H2 9544   0.828   3.996   2.693 -0.5465 -0.5678 -0.4221
 3194TIP3   OH2 9545   2.603   5.112   4.290 -0.4565  0.6379  0.1253
 3194TIP3    H1 9546   2.659   5.105   4.368  1.1969  0.7913 -0.9996
 3194TIP3    H2 9547   2.568   5.024   4.278 -0.6398  0.5820  0.9618
 3195TIP3   OH2 9548   0.863   3.694   2.830 -0.1356 -0.1857  0.3768
 3195TIP3    H1 9549   0.939   3.664   2.880 -1.1752 -0.9626  1.5550
 3195TIP3    H2 9550   0.826   3.613   2.793  0.2122  0.3007 -1.1015
 3196TIP3   OH2 9551   4.825   6.557   1.757  0.2808 -0.4342  0.4100
 3196TIP3    H1 9552   4.749   6.523   1.709 -1.2436 -1.0879  3.0695
 3196TIP3    H2 9553   4.899   6.545   1.697 -1.3384 -1.8956 -1.4273
 3197TIP3   OH2 9554   5.746   1.570   3.610  0.0119 -0.2690  0.6885
 3197TIP3    H1 9555   5.776   1.518   3.535 -1.0632 -1.3636  0.9847
 3197TIP3    H2 9556   5.817   1.562   3.674  0.9842  0.7526 -0.2135
 3198TIP3   OH2 9557   5.126   4.710   4.230 -0.2821  0.5094 -0.2948
 3198TIP3    H1 9558   5.145   4.802   4.246  0.2311  0.2449  0.7134
 3198TIP3    H2 9559   5.038   4.697   4.267  1.0647 -0.1982  2.9874
 3199TIP3   OH2 9560   1.056   6.784   2.530 -0.5690 -0.0671 -0.4401
 3199TIP3    H1 9561   1.094   6.696   2.528 -0.0315  0.1763 -1.6237
 3199TIP3    H2 9562   1.120   6.839   2.486 -1.2269  0.7991 -0.3418
 3200TIP3   OH2 9563   3.084   2.615   4.118  0.7623  0.0475  0.1416
 3200TIP3    H1 9564   3.165   2.564   4.129  1.0881  0.4819 -0.2110
 3200TIP3    H2 9565   3.015   2.557   4.150  1.3473  0.1663  1.7352
 3201TIP3   OH2 9566   1.802   2.315   3.779  0.1715 -0.0973  0.0622
 3201TIP3    H1 9567   1.754   2.249   3.830  0.8249  0.8690  2.0250
 3201TIP3    H2 9568   1.861   2.356   3.843 -0.2767  2.4529 -1.0662
 3202TIP3   OH2 9569   2.754   6.157   5.756 -0.7133  1.0230  0.3448
 3202TIP3    H1 9570   2.685   6.115   5.807 -0.3450 -0.0892 -0.0531
 3202TIP3    H2 9571   2.732   6.138   5.665  0.4782  0.0552  0.2330
 3203TIP3   OH2 9572   6.115   3.717   5.534  0.4870  0.4835 -0.1019
 3203TIP3    H1 9573   6.039   3.702   5.590  0.7283 -2.2451 -0.3592
 3203TIP3    H2 9574   6.079   3.734   5.447  0.1288 -0.9725 -0.2577
 3204TIP3   OH2 9575   3.067   3.095   1.283 -0.4802  0.8820 -0.0930
 3204TIP3    H1 9576   3.043   3.008   1.249 -2.2260  0.8541  1.0588
 3204TIP3    H2 9577   3.067   3.151   1.206 -0.6023  0.1020 -0.6794
 3205TIP3   OH2 9578   5.681   0.140   1.855 -0.0565 -0.2047  0.4697
 3205TIP3    H1 9579   5.620   0.125   1.927 -0.3127 -0.6050  0.1731
 3205TIP3    H2 9580   5.696   0.234   1.856  0.3049 -0.2659  1.3393
 3206TIP3   OH2 9581   5.748   3.700   5.339  0.2530  0.2611 -0.6274
 3206TIP3    H1 9582   5.661   3.690   5.302 -0.3793  2.2289  0.2170
 3206TIP3    H2 9583   5.757   3.628   5.401 -0.5062 -0.3140 -1.1711
 3207TIP3   OH2 9584   4.004   5.073   1.902  0.1505 -0.0871 -0.4392
 3207TIP3    H1 9585   3.976   4.983   1.911  1.4453 -0.3817  1.0521
 3207TIP3    H2 9586   3.936   5.125   1.945 -2.1853  0.0301 -3.8951
 3208TIP3   OH2 9587   7.131   5.981   3.960 -0.1051 -0.7993  0.2918
 3208TIP3    H1 9588   7.215   5.936   3.965  0.7969  0.5100 -1.8188
 3208TIP3    H2 9589   7.133   6.044   4.033  0.4543 -1.2115  0.6382
 3209TIP3   OH2 9590   6.786   3.672   5.292  0.0054  0.2327  0.5699
 3209TIP3    H1 9591   6.717   3.736   5.273  0.3343  0.6521  0.7666
 3209TIP3    H2 9592   6.738   3.591   5.313 -0.3881  0.1543 -0.5721
 3210TIP3   OH2 9593   3.088   3.677   1.004 -0.1271  0.3139  0.2962
 3210TIP3    H1 9594   3.180   3.660   1.025 -0.0441  0.8164  0.3681
 3210TIP3    H2 9595   3.048   3.590   0.998  0.2041  0.1088  0.9501
 3211TIP3   OH2 9596   4.792   0.498   0.909  0.1829 -0.0900 -0.2062
 3211TIP3    H1 9597   4.820   0.414   0.944 -0.3265  0.2271  1.0091
 3211TIP3    H2 9598   4.711   0.518   0.955 -0.8663  0.0724 -2.0335
 3212TIP3   OH2 9599   5.546   6.726   4.824  0.2942 -0.3673 -0.0595
 3212TIP3    H1 9600   5.558   6.776   4.743 -0.1246  0.5773  0.4428
 3212TIP3    H2 9601   5.621   6.667   4.828  2.0077  1.7389  0.3989
 3213TIP3   OH2 9602   2.794   4.737   0.577  0.7189 -0.1360  0.0133
 3213TIP3    H1 9603   2.734   4.689   0.635 -0.1287 -0.8016 -1.3599
 3213TIP3    H2 9604   2.881   4.721   0.614  0.1912 -0.3969  1.1891
 3214TIP3   OH2 9605   3.406   4.851   0.123  0.5109 -0.2747 -0.0960
 3214TIP3    H1 9606   3.420   4.840   0.217 -0.0534 -1.3702 -0.1127
 3214TIP3    H2 9607   3.314   4.826   0.110  0.3249  0.7412 -0.8126
 3215TIP3   OH2 9608   1.841   0.476   1.874 -0.4334 -0.9905 -0.0447
 3215TIP3    H1 9609   1.759   0.438   1.843 -1.2388  0.1554  0.5554
 3215TIP3    H2 9610   1.880   0.409   1.930 -2.0852 -0.7915  1.4330
 3216TIP3   OH2 9611   1.357   5.792   1.845 -0.1528  0.4127  0.2314
 3216TIP3    H1 9612   1.355   5.699   1.865  1.3487  0.0089 -1.2277
 3216TIP3    H2 9613   1.357   5.835   1.931  1.3444 -1.0145  1.0072
 3217TIP3   OH2 9614   4.245   3.221   1.476  0.3443  0.6671 -0.4094
 3217TIP3    H1 9615   4.205   3.134   1.478  1.5226  0.1151 -0.2253
 3217TIP3    H2 9616   4.237   3.248   1.384  1.5506 -0.4086 -0.8588
 3218TIP3   OH2 9617   3.222   3.554   5.871  0.3547 -0.1920 -0.4892
 3218TIP3    H1 9618   3.220   3.461   5.847 -0.8329  0.0240 -1.3255
 3218TIP3    H2 9619   3.181   3.599   5.797 -0.0095  0.9074  0.3520
 3219TIP3   OH2 9620   1.518   3.947   2.877  0.2858  0.3757 -0.1484
 3219TIP3    H1 9621   1.596   3.961   2.824 -0.8139  0.7617 -1.7342
 3219TIP3    H2 9622   1.451   3.919   2.815 -0.9597  0.4418  1.1034
 3220TIP3   OH2 9623   5.198   2.369   3.485  0.3724 -0.3925 -0.2703
 3220TIP3    H1 9624   5.250   2.385   3.564  0.1664 -0.0618 -0.1985
 3220TIP3    H2 9625   5.156   2.453   3.467  1.3424 -0.1104 -1.4143
 3221TIP3   OH2 9626   2.724   4.139   2.717 -0.2865 -0.3802 -0.0484
 3221TIP3    H1 9627   2.655   4.164   2.656  0.1470  2.3872  0.4723
 3221TIP3    H2 9628   2.678   4.117   2.798 -0.6573  0.7720  0.0797
 3222TIP3   OH2 9629   5.114   5.875   1.594 -0.5378  0.4444 -0.0859
 3222TIP3    H1 9630   5.055   5.841   1.662  0.6253  0.5024  1.0049
 3222TIP3    H2 9631   5.123   5.803   1.533  0.7241 -0.7609  1.4238
 3223TIP3   OH2 9632   4.678   4.568   2.033 -0.0271  0.9099  0.1335
 3223TIP3    H1 9633   4.758   4.517   2.024 -0.6333 -0.6239  2.4907
 3223TIP3    H2 9634   4.684   4.607   2.121 -1.2924  1.8306 -0.1477
 3224TIP3   OH2 9635   1.659   6.500   0.891 -0.5037 -0.2348 -0.1917
 3224TIP3    H1 9636   1.752   6.491   0.911 -0.7053  0.4744  1.1938
 3224TIP3    H2 9637   1.644   6.443   0.815  1.0649 -0.2892 -0.4795
 3225TIP3   OH2 9638   1.147   2.685   0.755  0.4189  0.6381 -0.4812
 3225TIP3    H1 9639   1.075   2.669   0.816  0.1554  1.5618 -0.5384
 3225TIP3    H2 9640   1.169   2.598   0.721  0.1378  0.1964  0.4370
 3226TIP3   OH2 9641   4.605   0.246   3.193  0.0805  0.0756  0.3520
 3226TIP3    H1 9642   4.520   0.290   3.185 -1.1725 -2.0769  0.8777
 3226TIP3    H2 9643   4.609   0.220   3.285  1.5226  0.5204  0.4260
 3227TIP3   OH2 9644   1.863   6.002   4.970  0.0935 -0.3259  0.0400
 3227TIP3    H1 9645   1.810   5.958   4.904  1.0815 -2.6846  0.6758
 3227TIP3    H2 9646   1.909   6.071   4.923 -1.2726 -0.1947 -1.1328
 3228TIP3   OH2 9647   6.420   3.556   2.121 -0.0931 -0.1331 -0.2130
 3228TIP3    H1 9648   6.408   3.496   2.195 -0.5646 -0.0542 -0.2213
 3228TIP3    H2 9649   6.514   3.574   2.120  0.1660 -1.3926 -0.6118
 3229TIP3   OH2 9650   6.020   6.486   0.172 -0.4440 -0.2443 -0.2314
 3229TIP3    H1 9651   5.953   6.418   0.177 -0.7401  0.0691  0.2193
 3229TIP3    H2 9652   6.074   6.472   0.250 -0.9441  0.4706  0.2593
 3230TIP3   OH2 9653   3.295   6.709   1.496 -0.2271  0.3094 -0.4337
 3230TIP3    H1 9654   3.265   6.788   1.541  0.4729 -0.1081  0.8373
 3230TIP3    H2 9655   3.219   6.650   1.496  0.2182 -0.4060  1.9666
 3231TIP3   OH2 9656   3.301   2.324   3.946  0.3418 -0.0453 -0.1170
 3231TIP3    H1 9657   3.317   2.375   4.026 -1.0928 -0.7382  0.6505
 3231TIP3    H2 9658   3.257   2.245   3.977  0.5493 -0.7434 -1.5207
 3232TIP3   OH2 9659   7.161   0.542   4.579  0.4188 -0.5238  0.7640
 3232TIP3    H1 9660   7.214   0.621   4.588  0.2455 -0.2529 -0.4320
 3232TIP3    H2 9661   7.138   0.539   4.486 -0.8458 -1.1626  1.0807
 3233TIP3   OH2 9662   4.589   5.604   5.065  0.1344  0.1075  0.0747
 3233TIP3    H1 9663   4.605   5.528   5.009 -1.2029 -1.0831  1.2438
 3233TIP3    H2 9664   4.528   5.659   5.015 -1.8581 -1.4308  0.6885
 3234TIP3   OH2 9665   2.156   6.594   1.930  0.2807  0.5576 -0.4967
 3234TIP3    H1 9666   2.213   6.522   1.903 -1.1340 -1.0047  0.4658
 3234TIP3    H2 9667   2.071   6.573   1.890 -0.6040  0.7431  1.2064
 3235TIP3   OH2 9668   1.823   2.841   4.276  0.2076  0.3894 -0.2537
 3235TIP3    H1 9669   1.737   2.803   4.291  0.2017  0.1657 -0.8172
 3235TIP3    H2 9670   1.813   2.933   4.301 -0.1249  0.3042 -0.0705
 3236TIP3   OH2 9671   7.167   5.197   3.871  0.3638  0.3634  0.1930
 3236TIP3    H1 9672   7.237   5.260   3.891  0.0934  0.2704  1.5140
 3236TIP3    H2 9673   7.197   5.153   3.791  2.0785 -0.0352  1.0043
 3237TIP3   OH2 9674   1.698   0.513   3.232  0.5117  0.3952 -0.5115
 3237TIP3    H1 9675   1.753   0.575   3.280 -0.6894  0.5222  0.7800
 3237TIP3    H2 9676   1.644   0.568   3.175  1.2425  0.3211 -1.2867
 3238TIP3   OH2 9677   2.959   4.434   3.466  0.3579  0.0520 -0.5963
 3238TIP3    H1 9678   2.903   4.463   3.394 -1.2901 -1.3577  0.0537
 3238TIP3    H2 9679   3.012   4.511   3.488  0.4544  0.7039 -2.8672
 3239TIP3   OH2 9680   1.329   3.725   1.546  0.1672  0.2156 -0.2036
 3239TIP3    H1 9681   1.306   3.632   1.553  2.7215 -0.5698 -0.8694
 3239TIP3    H2 9682   1.259   3.764   1.495  0.5427 -2.0872 -2.7116
 3240TIP3   OH2 9683   3.210   5.535   1.205 -0.4120 -0.5418  0.0691
 3240TIP3    H1 9684   3.193   5.451   1.163 -0.9733  0.0017 -0.7981
 3240TIP3    H2 9685   3.203   5.599   1.135  1.4812  0.1002  0.4154
 3241TIP3   OH2 9686   7.202   1.547   0.134  0.1016  0.0477  0.5159
 3241TIP3    H1 9687   7.123   1.493   0.148 -0.4179  1.0123  1.3880
 3241TIP3    H2 9688   7.244   1.551   0.220  0.0570  1.1306  0.5013
 3242TIP3   OH2 9689   2.097   0.020   4.125  0.0385  0.0175 -0.3212
 3242TIP3    H1 9690   2.168   0.049   4.068 -0.8793  0.4210 -1.2908
 3242TIP3    H2 9691   2.030   0.089   4.118  0.5464  0.9481  2.5701
 3243TIP3   OH2 9692   5.225   5.621   3.353  0.0788  0.1977 -0.3066
 3243TIP3    H1 9693   5.155   5.559   3.371 -3.3087  3.4814 -0.8813
 3243TIP3    H2 9694   5.258   5.596   3.267 -0.8409 -1.0431 -0.3193
 3244TIP3   OH2 9695   0.031   6.579   5.366  0.0302 -0.3322  0.1170
 3244TIP3    H1 9696   0.055   6.662   5.325  0.3850 -0.1914  0.6081
 3244TIP3    H2 9697   0.091   6.570   5.440  0.0691 -1.0868 -0.0042
 3245TIP3   OH2 9698   2.776   3.718   3.960  0.1016  0.0007 -0.0277
 3245TIP3    H1 9699   2.725   3.664   4.021 -2.9720  2.0331 -0.5689
 3245TIP3    H2 9700   2.804   3.657   3.892  0.2757 -1.5952  1.3958
 3246TIP3   OH2 9701   2.732   2.265   0.978 -0.4119  0.6612  0.0294
 3246TIP3    H1 9702   2.752   2.300   0.892 -1.3243  0.5154 -0.2568
 3246TIP3    H2 9703   2.817   2.246   1.018  0.0111 -0.8913 -1.5054
 3247TIP3   OH2 9704   2.059   2.911   5.661 -0.2189 -0.5673 -0.2563
 3247TIP3    H1 9705   1.992   2.935   5.725 -0.2399 -0.2837 -0.3838
 3247TIP3    H2 9706   2.120   2.855   5.709 -1.6195 -2.5202 -0.6122
 3248TIP3   OH2 9707   6.005   3.284   0.039 -0.5254  0.1856 -0.2209
 3248TIP3    H1 9708   6.058   3.205   0.030 -1.5824 -0.5778 -0.0046
 3248TIP3    H2 9709   6.052   3.338   0.102  0.7833  0.2447 -1.1984
 3249TIP3   OH2 9710   2.123   5.268   5.759  0.1830  0.3709  0.9244
 3249TIP3    H1 9711   2.184   5.201   5.729  0.0925  0.3278  0.8387
 3249TIP3    H2 9712   2.100   5.242   5.848 -0.0040  0.1823  0.8212
 3250TIP3   OH2 9713   4.796   2.123   3.209  0.4702 -0.4009 -0.5127
 3250TIP3    H1 9714   4.885   2.155   3.191 -0.0053  0.2245 -1.9072
 3250TIP3    H2 9715   4.742   2.202   3.211 -0.2390 -0.8649 -0.8978
 3251TIP3   OH2 9716   3.977   5.351   2.236  0.2513  0.4537 -0.4038
 3251TIP3    H1 9717   4.061   5.341   2.281  0.1870  0.8851 -0.1762
 3251TIP3    H2 9718   3.914   5.362   2.307 -0.1832 -1.0226 -0.5290
 3252TIP3   OH2 9719   4.300   6.369   3.742 -0.3820 -0.4134 -0.1036
 3252TIP3    H1 9720   4.237   6.335   3.679 -1.3137 -0.3858  0.7996
 3252TIP3    H2 9721   4.274   6.460   3.757  0.0319 -0.3209  0.0873
 3253TIP3   OH2 9722   4.890   2.288   2.980 -0.4955 -0.2098  0.1948
 3253TIP3    H1 9723   4.837   2.305   2.902 -1.4445 -0.2037  0.8245
 3253TIP3    H2 9724   4.947   2.215   2.954  0.7667  1.1904 -1.1963
 3254TIP3   OH2 9725   4.801   4.755   4.703 -0.1615 -0.2013 -0.3669
 3254TIP3    H1 9726   4.786   4.671   4.747  1.0145 -0.5075 -0.5305
 3254TIP3    H2 9727   4.752   4.818   4.756 -0.4595 -0.8778  0.1796
 3255TIP3   OH2 9728   7.036   4.906   4.098  0.1001  0.0723  0.3077
 3255TIP3    H1 9729   7.038   4.916   4.194 -0.5291  1.0113  0.2286
 3255TIP3    H2 9730   6.955   4.859   4.080  0.7056 -0.9957  0.3003
 3256TIP3   OH2 9731   1.903   4.589   0.881  0.0887  0.6481 -0.3969
 3256TIP3    H1 9732   1.975   4.561   0.824  0.4052 -0.1098  0.3503
 3256TIP3    H2 9733   1.853   4.651   0.828  0.8404  0.5814 -1.2065
 3257TIP3   OH2 9734   6.567   1.395   0.459 -0.0318  0.1623 -1.0236
 3257TIP3    H1 9735   6.480   1.428   0.440 -0.6535 -0.9923 -0.3012
 3257TIP3    H2 9736   6.556   1.300   0.465  1.3921 -0.0716 -1.5436
 3258TIP3   OH2 9737   0.283   5.314   1.816  0.8417 -0.5408  0.0637
 3258TIP3    H1 9738   0.276   5.234   1.867  0.8003  0.6944  2.1103
 3258TIP3    H2 9739   0.321   5.286   1.733  0.7014 -2.6800  0.6532
 3259TIP3   OH2 9740   2.383   0.515   3.781 -0.2148  0.2681 -0.3020
 3259TIP3    H1 9741   2.436   0.444   3.817 -0.3355 -0.4312 -1.4436
 3259TIP3    H2 9742   2.438   0.592   3.789  0.6600 -0.2957 -0.7087
 3260TIP3   OH2 9743   4.954   1.697   3.054  0.1706  0.2711 -0.1685
 3260TIP3    H1 9744   4.866   1.720   3.023  0.4512  0.3146 -0.9488
 3260TIP3    H2 9745   5.002   1.672   2.975  1.0118  0.7241  0.1892
 3261TIP3   OH2 9746   1.398   4.126   1.951  0.1723 -0.3776 -0.0864
 3261TIP3    H1 9747   1.444   4.124   1.867  1.7236  1.4647  0.6301
 3261TIP3    H2 9748   1.464   4.097   2.015  0.2973  1.8881  0.9161
 3262TIP3   OH2 9749   6.281   4.916   3.127 -0.5437  0.6175 -0.3966
 3262TIP3    H1 9750   6.217   4.945   3.191  0.5811 -0.0282  1.0646
 3262TIP3    H2 9751   6.298   4.994   3.074 -2.0725  0.9468 -0.4617
 3263TIP3   OH2 9752   3.675   0.437   5.463  0.3939  0.2291 -0.1809
 3263TIP3    H1 9753   3.754   0.492   5.465 -0.3391  1.2857  0.8326
 3263TIP3    H2 9754   3.704   0.356   5.422  1.9015  0.7710 -0.2572
 3264TIP3   OH2 9755   0.433   2.471   0.608 -0.4485 -0.0308  0.2257
 3264TIP3    H1 9756   0.448   2.411   0.535 -1.1392  0.0996 -0.0328
 3264TIP3    H2 9757   0.415   2.413   0.682  0.7178 -0.1737  0.4106
 3265TIP3   OH2 9758   6.472   5.976   0.838  0.0603  1.3504 -0.6599
 3265TIP3    H1 9759   6.523   5.988   0.918 -2.0223  3.5472  0.4626
 3265TIP3    H2 9760   6.538   5.969   0.768  1.9314 -0.7215  1.1585
 3266TIP3   OH2 9761   6.678   3.943   1.798 -0.0259 -0.0267  0.3370
 3266TIP3    H1 9762   6.724   4.027   1.806  1.4121 -0.7850  0.3703
 3266TIP3    H2 9763   6.585   3.966   1.802  0.3319  1.5965 -0.0412
 3267TIP3   OH2 9764   4.913   6.537   0.819 -0.2573 -0.3265  0.0149
 3267TIP3    H1 9765   4.844   6.548   0.753  0.0857 -0.1532 -0.3234
 3267TIP3    H2 9766   4.965   6.617   0.812  0.7633 -1.0269 -0.6676
 3268TIP3   OH2 9767   6.162   6.767   5.095 -0.3264  0.1557 -0.1637
 3268TIP3    H1 9768   6.241   6.723   5.125 -0.3165 -0.4610 -1.0502
 3268TIP3    H2 9769   6.093   6.701   5.103 -0.3953  0.0959 -1.0961
 3269TIP3   OH2 9770   6.057   0.243   3.388 -0.4629 -0.4348  0.0176
 3269TIP3    H1 9771   6.078   0.208   3.475 -2.3440 -1.7360 -0.0049
 3269TIP3    H2 9772   5.982   0.301   3.402  0.1869  0.5850 -0.5477
 3270TIP3   OH2 9773   3.205   1.804   4.652 -0.7998  0.0681 -0.6374
 3270TIP3    H1 9774   3.167   1.731   4.700  1.9579 -0.8485  0.3337
 3270TIP3    H2 9775   3.206   1.876   4.715  2.0147 -0.8902  0.5928
 3271TIP3   OH2 9776   4.902   4.131   0.828  0.1193 -0.6934  0.1827
 3271TIP3    H1 9777   4.992   4.157   0.847  0.1335  0.9134 -1.7985
 3271TIP3    H2 9778   4.857   4.140   0.912  1.3304  0.5808  0.7352
 3272TIP3   OH2 9779   5.995   1.605   2.701  0.0616 -0.0163 -0.2318
 3272TIP3    H1 9780   6.046   1.594   2.621 -0.0459  0.6574 -0.4025
 3272TIP3    H2 9781   6.060   1.623   2.769  0.1819 -0.9794 -0.0875
 3273TIP3   OH2 9782   2.722   2.271   5.878 -0.1711 -0.1145  0.2965
 3273TIP3    H1 9783   2.679   2.284   5.794  2.9060  1.7693 -1.1525
 3273TIP3    H2 9784   2.748   2.179   5.877 -0.0695 -0.0862 -0.8658
 3274TIP3   OH2 9785   1.367   2.459   5.820  0.8058 -0.4209  0.2950
 3274TIP3    H1 9786   1.291   2.402   5.814  0.1799  0.4016  0.3221
 3274TIP3    H2 9787   1.442   2.400   5.807  0.1688 -1.2108  0.1340
 3275TIP3   OH2 9788   4.624   1.223   3.628 -0.6630 -0.0513 -0.1431
 3275TIP3    H1 9789   4.618   1.318   3.637  0.7684  0.0303  0.1252
 3275TIP3    H2 9790   4.607   1.190   3.716  3.6188  0.2586  0.9982
 3276TIP3   OH2 9791   1.460   4.236   3.792  0.1544  0.5010 -0.4895
 3276TIP3    H1 9792   1.415   4.170   3.739  1.7015 -0.4086 -0.7601
 3276TIP3    H2 9793   1.536   4.260   3.739  1.3995  0.0564  1.0206
 3277TIP3   OH2 9794   4.824   3.975   2.013  0.0240  0.5194  0.2989
 3277TIP3    H1 9795   4.862   3.891   2.039 -0.7278 -0.5351 -1.7263
 3277TIP3    H2 9796   4.794   3.960   1.923  0.4395  3.1636 -0.3616
 3278TIP3   OH2 9797   4.279   6.452   1.832  0.0701  0.0595  0.0019
 3278TIP3    H1 9798   4.224   6.381   1.797  0.4634 -0.6182  0.7371
 3278TIP3    H2 9799   4.361   6.409   1.856 -0.2272  0.4647  1.8761
 3279TIP3   OH2 9800   6.206   6.626   0.021 -0.4218 -0.4491  0.0044
 3279TIP3    H1 9801   6.154   6.555   0.059 -0.3855 -1.0585 -1.0474
 3279TIP3    H2 9802   6.235   6.677   0.096 -1.1888 -1.0363  0.7191
 3280TIP3   OH2 9803   5.209   2.024   5.002  0.1555 -0.3392 -0.2386
 3280TIP3    H1 9804   5.161   1.949   5.036  0.1098 -0.3562 -0.3408
 3280TIP3    H2 9805   5.239   2.071   5.080 -1.9406  0.9240 -0.1224
 3281TIP3   OH2 9806   0.757   3.578   1.940  0.6600  0.2655  0.0871
 3281TIP3    H1 9807   0.835   3.633   1.938  0.3450  0.7232  0.3619
 3281TIP3    H2 9808   0.724   3.585   2.029  0.8208 -0.6631  0.2315
 3282TIP3   OH2 9809   2.943   5.082   2.765  0.6297 -0.3235 -0.4229
 3282TIP3    H1 9810   2.923   4.993   2.736  0.1238 -0.0710 -0.8833
 3282TIP3    H2 9811   3.000   5.071   2.841  0.0824 -1.0507 -0.1050
 3283TIP3   OH2 9812   3.725   6.401   3.889 -0.0301  0.0655 -0.0788
 3283TIP3    H1 9813   3.709   6.362   3.803  1.8989  1.2872 -1.0609
 3283TIP3    H2 9814   3.673   6.481   3.888 -0.5202 -0.2455  0.1700
 3284TIP3   OH2 9815   4.938   2.188   2.115  0.2017 -0.8191  0.3286
 3284TIP3    H1 9816   4.908   2.111   2.164  0.9950 -0.9715  0.6036
 3284TIP3    H2 9817   5.005   2.153   2.056  0.4141 -0.3744  0.3020
 3285TIP3   OH2 9818   1.747   4.815   0.828 -0.2784 -0.1188  0.1291
 3285TIP3    H1 9819   1.785   4.838   0.913  1.1892 -0.6845 -0.3506
 3285TIP3    H2 9820   1.653   4.809   0.845 -0.1620  1.1403  1.3950
 3286TIP3   OH2 9821   0.377   3.860   4.720 -0.4341 -0.1644  0.1926
 3286TIP3    H1 9822   0.305   3.918   4.698  0.9465  2.0992  1.2277
 3286TIP3    H2 9823   0.444   3.880   4.654  0.4261  0.1773  1.1517
 3287TIP3   OH2 9824   0.120   2.401   3.916 -0.0556  0.1087 -0.5892
 3287TIP3    H1 9825   0.088   2.486   3.947  0.2685  0.5361 -1.3948
 3287TIP3    H2 9826   0.062   2.337   3.958 -0.4281  0.7326 -0.1265
 3288TIP3   OH2 9827   3.632   0.102   4.988 -0.3409  0.2817  0.3421
 3288TIP3    H1 9828   3.637   0.048   5.067  0.7550  0.6031  0.5070
 3288TIP3    H2 9829   3.560   0.162   5.005  0.0435  0.5167  1.2140
 3289TIP3   OH2 9830   3.798   5.355   1.480  0.0192 -0.2758 -0.4660
 3289TIP3    H1 9831   3.854   5.387   1.409 -0.3955  1.9536  0.1487
 3289TIP3    H2 9832   3.857   5.305   1.536  1.2001  1.1519 -0.3792
 3290TIP3   OH2 9833   5.828   4.374   5.648  0.5901  0.3176  0.3881
 3290TIP3    H1 9834   5.801   4.292   5.688 -1.2653  1.6318  2.0470
 3290TIP3    H2 9835   5.776   4.380   5.568  0.7246 -0.1184  0.2668
 3291TIP3   OH2 9836   1.702   0.943   2.354 -0.1504  0.0077  0.1223
 3291TIP3    H1 9837   1.722   0.864   2.404  1.4382  0.3147  0.0240
 3291TIP3    H2 9838   1.663   1.003   2.417 -0.5862 -0.5523  0.3877
 3292TIP3   OH2 9839   6.605   1.886   3.942 -0.0963 -0.0227  0.1323
 3292TIP3    H1 9840   6.586   1.839   3.861 -0.3520  1.7069 -0.8634
 3292TIP3    H2 9841   6.524   1.881   3.992 -0.8003  1.0004 -0.8490
 3293TIP3   OH2 9842   1.292   3.077   0.394 -0.0683  0.1608  0.3820
 3293TIP3    H1 9843   1.276   3.086   0.488 -0.2683  0.1928  0.3461
 3293TIP3    H2 9844   1.244   3.150   0.355 -1.3203 -0.7567  0.1277
 3294TIP3   OH2 9845   3.768   2.860   2.460 -0.1337  0.2216  0.8134
 3294TIP3    H1 9846   3.858   2.846   2.433 -0.5798 -1.9458  0.2421
 3294TIP3    H2 9847   3.746   2.948   2.428  0.8054 -0.4328 -1.8500
 3295TIP3   OH2 9848   2.873   5.556   4.675 -0.2707 -0.1985  0.2181
 3295TIP3    H1 9849   2.840   5.545   4.586  2.6737 -0.9101 -0.8846
 3295TIP3    H2 9850   2.885   5.651   4.684 -1.8597  0.0170  0.4255
 3296TIP3   OH2 9851   1.582   5.633   0.241 -0.1032  0.4411 -0.1987
 3296TIP3    H1 9852   1.615   5.558   0.290  2.6424  2.1030  0.6889
 3296TIP3    H2 9853   1.593   5.608   0.149  0.2953 -0.4373  0.0723
 3297TIP3   OH2 9854   0.703   4.626   5.671  0.0732  0.4707 -0.2124
 3297TIP3    H1 9855   0.613   4.650   5.647  0.3935  0.6877 -1.2479
 3297TIP3    H2 9856   0.752   4.708   5.666  0.3237  0.3643  0.4036
 3298TIP3   OH2 9857   1.125   1.418   5.255  0.6034 -0.2723  0.0055
 3298TIP3    H1 9858   1.131   1.337   5.204 -2.4333  0.6529 -2.1099
 3298TIP3    H2 9859   1.041   1.412   5.300  1.5193  0.6334  1.9451
 3299TIP3   OH2 9860   0.447   2.038   2.871 -0.0141  0.0547  0.2023
 3299TIP3    H1 9861   0.448   1.943   2.861 -1.8520 -0.0624  0.7796
 3299TIP3    H2 9862   0.505   2.055   2.945  1.5312 -0.4497 -0.8503
 3300TIP3   OH2 9863   0.515   5.482   2.795  0.1107  0.1085 -0.0575
 3300TIP3    H1 9864   0.435   5.498   2.846  0.7344  1.0483  0.6608
 3300TIP3    H2 9865   0.506   5.540   2.719  0.8527  1.5234  0.8807
 3301TIP3   OH2 9866   6.496   4.151   1.723  0.2279  0.3687 -0.2916
 3301TIP3    H1 9867   6.525   4.229   1.770 -2.0704  0.8440  0.4411
 3301TIP3    H2 9868   6.446   4.101   1.788  0.3129 -0.9409 -1.1928
 3302TIP3   OH2 9869   4.350   3.786   3.140  0.4591  0.6325 -0.4116
 3302TIP3    H1 9870   4.414   3.716   3.130 -2.7298 -2.3495 -1.9524
 3302TIP3    H2 9871   4.337   3.793   3.235  2.2999  0.6632 -0.1239
 3303TIP3   OH2 9872   3.100   6.766   4.602  0.3709 -0.0726 -0.0989
 3303TIP3    H1 9873   3.034   6.803   4.660 -0.5061 -0.0385 -1.0993
 3303TIP3    H2 9874   3.068   6.783   4.514  1.0745 -1.2081 -0.6037
 3304TIP3   OH2 9875   5.331   0.381   2.514  0.4822  0.5200 -0.1959
 3304TIP3    H1 9876   5.256   0.433   2.484 -1.7210 -1.5065  1.4237
 3304TIP3    H2 9877   5.404   0.443   2.515 -1.4959  3.0108 -0.3643
 3305TIP3   OH2 9878   4.450   5.182   1.309 -0.1706  0.1716  0.8457
 3305TIP3    H1 9879   4.428   5.242   1.238 -1.4312 -0.4818  0.6523
 3305TIP3    H2 9880   4.546   5.182   1.312 -0.1055  0.6437 -0.4771
 3306TIP3   OH2 9881   5.673   1.821   3.515 -0.1313  0.0841  0.4909
 3306TIP3    H1 9882   5.691   1.748   3.575 -0.7691  1.0012  1.8636
 3306TIP3    H2 9883   5.728   1.892   3.547 -0.1507  0.4617 -0.3013
 3307TIP3   OH2 9884   5.104   0.212   5.008  0.3785 -0.0821  0.2343
 3307TIP3    H1 9885   5.143   0.166   4.935 -0.9977 -2.3434  0.8042
 3307TIP3    H2 9886   5.013   0.181   5.010  0.2723  0.1383  2.6551
 3308TIP3   OH2 9887   7.000   5.334   3.682 -0.5096 -0.4712 -0.0973
 3308TIP3    H1 9888   7.042   5.302   3.761 -1.7491 -0.8574  0.4377
 3308TIP3    H2 9889   7.060   5.400   3.647  1.0592 -1.7970 -0.0103
 3309TIP3   OH2 9890   6.590   5.071   3.357  0.5605 -0.1530  0.4270
 3309TIP3    H1 9891   6.584   5.011   3.284 -0.1440  1.1283 -0.6154
 3309TIP3    H2 9892   6.555   5.022   3.432 -0.8729 -0.7276 -0.5846
 3310TIP3   OH2 9893   0.147   4.232   3.835  0.1153  0.2990  0.1211
 3310TIP3    H1 9894   0.126   4.296   3.767 -0.5549  1.5719  1.4782
 3310TIP3    H2 9895   0.205   4.279   3.894  1.6661 -1.1678 -0.1541
 3311TIP3   OH2 9896   6.163   2.452   1.023 -0.1671  0.3597  0.4225
 3311TIP3    H1 9897   6.082   2.442   1.072 -1.1614  2.1014 -0.7602
 3311TIP3    H2 9898   6.137   2.448   0.931  1.4544 -1.4420 -0.0204
 3312TIP3   OH2 9899   2.781   3.028   5.405 -0.2193 -0.5630 -0.0346
 3312TIP3    H1 9900   2.705   2.990   5.361 -1.0294 -0.2811  1.0752
 3312TIP3    H2 9901   2.751   3.115   5.434  0.8979  0.0365 -0.5869
 3313TIP3   OH2 9902   2.260   0.226   1.742 -0.3135 -0.5416 -0.6735
 3313TIP3    H1 9903   2.331   0.212   1.805 -1.3913  1.3387  1.0781
 3313TIP3    H2 9904   2.304   0.228   1.657  1.6771 -0.0387  0.2947
 3314TIP3   OH2 9905   3.652   2.976   0.600 -0.6577  0.5104 -0.3292
 3314TIP3    H1 9906   3.731   2.934   0.633 -1.0978 -1.5509 -1.6905
 3314TIP3    H2 9907   3.677   3.009   0.513 -0.8285  1.4188 -0.0388
 3315TIP3   OH2 9908   7.135   1.724   4.710 -0.3498  0.3614 -0.3182
 3315TIP3    H1 9909   7.047   1.744   4.681 -0.2540  1.1851 -0.0851
 3315TIP3    H2 9910   7.124   1.692   4.800 -0.6467 -2.1985 -1.1956
 3316TIP3   OH2 9911   4.174   0.899   0.042  0.6171  0.0732 -1.0361
 3316TIP3    H1 9912   4.203   0.915  -0.048  1.2471  0.4338 -0.7742
 3316TIP3    H2 9913   4.141   0.809   0.041 -0.9392  0.6170 -2.0108
 3317TIP3   OH2 9914   5.890   5.680   3.027  0.1040  0.3294  0.2528
 3317TIP3    H1 9915   5.892   5.732   3.107  0.7383 -0.7282  0.9548
 3317TIP3    H2 9916   5.804   5.639   3.028 -0.3010  1.1566 -0.1734
 3318TIP3   OH2 9917   5.436   5.218   5.358 -1.0196  0.3108  0.5439
 3318TIP3    H1 9918   5.513   5.188   5.406  0.1451  0.9964 -0.8100
 3318TIP3    H2 9919   5.374   5.145   5.363 -0.6309  0.0706  2.3618
 3319TIP3   OH2 9920   3.159   5.539   2.645 -0.5358 -0.2505  0.3751
 3319TIP3    H1 9921   3.151   5.445   2.659 -0.5026 -0.2290  0.5351
 3319TIP3    H2 9922   3.125   5.553   2.556 -1.1575 -0.3246  0.5964
 3320TIP3   OH2 9923   2.010   1.777   1.111 -0.7649  0.1995 -0.2351
 3320TIP3    H1 9924   1.986   1.704   1.168  0.2419 -0.1139 -0.1951
 3320TIP3    H2 9925   2.076   1.741   1.053 -0.0840  1.1454 -0.0576
 3321TIP3   OH2 9926   2.061   1.886   3.326  0.4037  0.2903 -0.4023
 3321TIP3    H1 9927   1.991   1.849   3.273  1.2789 -0.0322 -1.3653
 3321TIP3    H2 9928   2.044   1.980   3.327  0.6331  0.3563 -1.6690
 3322TIP3   OH2 9929   4.496   0.660   0.089 -0.0556 -0.2106 -0.4226
 3322TIP3    H1 9930   4.532   0.608   0.161 -1.7560  1.4844  1.8159
 3322TIP3    H2 9931   4.429   0.604   0.049 -0.6128 -0.4272  0.7812
 3323TIP3   OH2 9932   5.856   4.769   1.828 -0.2075 -0.1253 -0.1816
 3323TIP3    H1 9933   5.868   4.828   1.754 -0.2384 -0.4665 -0.4639
 3323TIP3    H2 9934   5.936   4.779   1.880 -0.4054  0.4852  0.0017
 3324TIP3   OH2 9935   4.271   0.784   1.326  0.0302 -0.3170 -0.3682
 3324TIP3    H1 9936   4.340   0.734   1.282  0.6277  0.7687 -0.7122
 3324TIP3    H2 9937   4.310   0.814   1.408 -0.9847 -2.0744  0.8301
 3325TIP3   OH2 9938   1.774   1.318   0.320  0.2610 -0.2340  0.4169
 3325TIP3    H1 9939   1.849   1.329   0.262  0.8393  1.0428  1.3631
 3325TIP3    H2 9940   1.802   1.252   0.384  0.8993  0.7756  1.2180
 3326TIP3   OH2 9941   0.553   5.103   1.973 -0.8209 -0.2770 -0.5151
 3326TIP3    H1 9942   0.552   5.052   1.892  2.5760  0.0119 -0.8832
 3326TIP3    H2 9943   0.645   5.110   1.996 -1.3301  3.2219  1.1481
 3327TIP3   OH2 9944   5.922   1.371   1.745  0.0871 -0.1542 -0.7866
 3327TIP3    H1 9945   5.911   1.287   1.789  0.8783  0.5270  0.7664
 3327TIP3    H2 9946   5.974   1.424   1.805 -1.2793  1.8340 -1.2303
 3328TIP3   OH2 9947   1.971   6.036   1.682 -0.0144 -0.6403 -0.5052
 3328TIP3    H1 9948   1.992   5.951   1.721 -2.1940 -1.9166 -1.8905
 3328TIP3    H2 9949   1.878   6.030   1.660  0.3948  1.0426 -3.1873
 3329TIP3   OH2 9950   5.629   5.663   3.053 -0.5263 -0.1738 -0.0529
 3329TIP3    H1 9951   5.581   5.607   2.993  0.1981 -0.9243  0.0478
 3329TIP3    H2 9952   5.581   5.746   3.053 -2.9906 -1.4901  1.6065
 3330TIP3   OH2 9953   1.016   3.456   5.010  0.4052  0.5646  0.0007
 3330TIP3    H1 9954   0.920   3.463   5.008  0.3011  0.1402  1.9114
 3330TIP3    H2 9955   1.035   3.372   4.970 -0.0082  0.6612 -0.4136
 3331TIP3   OH2 9956   4.272   5.672   5.772 -0.1438  1.0570  0.2301
 3331TIP3    H1 9957   4.191   5.717   5.745 -1.1341  0.5191  2.1602
 3331TIP3    H2 9958   4.257   5.580   5.746 -0.4877  0.8189  1.2263
 3332TIP3   OH2 9959   6.825   2.339   0.281 -0.7217  0.1698  0.1898
 3332TIP3    H1 9960   6.904   2.363   0.232 -1.0047  1.0787  0.1601
 3332TIP3    H2 9961   6.799   2.255   0.244 -0.6122  0.5765 -0.8463
 3333TIP3   OH2 9962   5.864   0.502   2.151 -0.2299  0.4361  0.0966
 3333TIP3    H1 9963   5.871   0.408   2.167  0.4525  0.4924  0.1486
 3333TIP3    H2 9964   5.770   0.521   2.163 -0.5387 -0.3982 -0.8322
 3334TIP3   OH2 9965   3.078   4.116   4.779 -0.0496  0.1161  0.3132
 3334TIP3    H1 9966   3.081   4.210   4.795  2.3393  0.0346  0.6268
 3334TIP3    H2 9967   3.109   4.076   4.860  1.1101 -0.8192 -0.5477
 3335TIP3   OH2 9968   5.353   3.470   5.738  0.2238 -0.1597 -0.2223
 3335TIP3    H1 9969   5.309   3.515   5.810 -1.5768 -0.4596 -1.0936
 3335TIP3    H2 9970   5.381   3.387   5.776  2.6074  1.1208  1.0926
 3336TIP3   OH2 9971   0.199   2.081   3.017  0.1549  0.1747  0.3483
 3336TIP3    H1 9972   0.254   2.110   3.091 -0.0047  1.8446 -0.1678
 3336TIP3    H2 9973   0.260   2.075   2.943 -0.4333  2.8802 -0.4418
 3337TIP3   OH2 9974   1.805   6.350   2.628 -0.0169 -0.3792  0.2656
 3337TIP3    H1 9975   1.779   6.374   2.539 -2.9326 -1.7833  0.6039
 3337TIP3    H2 9976   1.821   6.434   2.671  0.2007  0.3823 -1.2471
 3338TIP3   OH2 9977   0.856   1.813   1.377  0.6020 -0.1197 -0.4303
 3338TIP3    H1 9978   0.946   1.838   1.356  0.2836  0.3865 -1.2546
 3338TIP3    H2 9979   0.860   1.780   1.467  1.7820 -1.0385 -0.8046
 3339TIP3   OH2 9980   2.750   4.700   0.064 -0.9571  0.5152 -0.0242
 3339TIP3    H1 9981   2.667   4.733   0.099 -0.5081  1.7910 -0.1052
 3339TIP3    H2 9982   2.729   4.671  -0.025 -1.5998 -0.5136  0.4391
 3340TIP3   OH2 9983   5.383   2.969   3.177  0.1473  0.5665 -0.3298
 3340TIP3    H1 9984   5.389   2.969   3.081 -0.4196 -3.5115 -0.5431
 3340TIP3    H2 9985   5.290   2.981   3.194 -0.1681 -1.3126 -0.5123
 3341TIP3   OH2 9986   2.566   1.558   3.129  0.6852  0.0639 -0.2066
 3341TIP3    H1 9987   2.477   1.530   3.108  1.3321 -1.6102 -0.8769
 3341TIP3    H2 9988   2.560   1.592   3.219 -0.6770  0.3029 -0.3743
 3342TIP3   OH2 9989   6.454   2.416   4.598 -0.0572  0.3129 -0.7671
 3342TIP3    H1 9990   6.533   2.410   4.652 -0.7676  0.1815  0.2834
 3342TIP3    H2 9991   6.487   2.414   4.508  1.1598  0.6255 -0.3522
 3343TIP3   OH2 9992   2.850   4.743   3.330  0.7785  0.1289  0.6239
 3343TIP3    H1 9993   2.813   4.831   3.324 -0.3870 -0.3661  0.0341
 3343TIP3    H2 9994   2.780   4.691   3.370  0.5431 -0.9646 -1.0747
 3344TIP3   OH2 9995   2.722   2.172   3.310  0.8779 -0.6512  0.3227
 3344TIP3    H1 9996   2.737   2.245   3.370 -0.4422  0.4218 -0.6054
 3344TIP3    H2 9997   2.745   2.206   3.224 -2.1584 -0.3991 -0.5105
 3345TIP3   OH2 9998   6.979   4.628   5.747 -0.2943  0.3916  0.5176
 3345TIP3    H1 9999   7.035   4.702   5.721  1.4357 -1.5142 -1.6053
 3345TIP3    H210000   7.040   4.561   5.777 -1.4974 -1.3057 -0.6138
 3346TIP3   OH210001   0.563   4.611   5.010  0.1491 -0.1752  0.0963
 3346TIP3    H110002   0.633   4.587   4.949  1.3536  1.2347  0.8620
 3346TIP3    H210003   0.510   4.674   4.961  1.4477  1.3998  0.6314
 3347TIP3   OH210004   0.525   4.796   1.157  0.6027  0.2536  0.2121
 3347TIP3    H110005   0.545   4.795   1.063  0.8135  0.3069  0.2568
 3347TIP3    H210006   0.442   4.749   1.164  0.2954  0.7520 -0.0658
 3348TIP3   OH210007   1.693   4.663   3.950 -0.0338  0.8942 -0.0781
 3348TIP3    H110008   1.659   4.672   4.038  1.6421  3.0800  0.4516
 3348TIP3    H210009   1.672   4.574   3.924  0.0285 -0.0455  2.7904
 3349TIP3   OH210010   1.216   2.882   2.213  0.8883 -0.7290 -0.2372
 3349TIP3    H110011   1.186   2.871   2.303  2.5582 -1.3457  0.2888
 3349TIP3    H210012   1.154   2.832   2.161 -0.5361  0.2457  0.4637
 3350TIP3   OH210013   0.485   3.975   3.027  0.1240 -0.4820  0.4342
 3350TIP3    H110014   0.475   4.014   2.940  2.6609  0.3477  0.4464
 3350TIP3    H210015   0.577   3.951   3.032 -0.3238 -2.0650  2.2964
 3351TIP3   OH210016   6.291   5.026   1.442  0.0925  0.2802 -0.0894
 3351TIP3    H110017   6.241   5.085   1.499 -0.8511 -0.6850  0.0968
 3351TIP3    H210018   6.336   4.967   1.501  0.1349  0.0858 -0.3138
 3352TIP3   OH210019   5.047   6.294   5.831 -0.7219  0.4079 -0.1489
 3352TIP3    H110020   4.973   6.239   5.856 -1.1412  1.6016  1.4386
 3352TIP3    H210021   5.011   6.383   5.829  0.5537  0.9572  0.2143
 3353TIP3   OH210022   5.310   6.769   0.759 -0.0535  0.9002 -0.2329
 3353TIP3    H110023   5.368   6.784   0.834  0.4722  1.5228 -0.7586
 3353TIP3    H210024   5.222   6.772   0.796  0.2282 -1.1623  0.7936
 3354TIP3   OH210025   2.345   5.189   4.384 -0.7505 -0.3711 -0.5885
 3354TIP3    H110026   2.335   5.104   4.425  0.6236  0.0757  0.7837
 3354TIP3    H210027   2.440   5.202   4.378 -0.9080  1.3686 -0.0383
 3355TIP3   OH210028   1.642   4.214   5.553  0.8993 -0.3908 -0.3499
 3355TIP3    H110029   1.737   4.228   5.557  1.1649 -1.9565 -0.5284
 3355TIP3    H210030   1.630   4.151   5.481 -0.4227  0.8125 -1.2381
 3356TIP3   OH210031   3.917   4.662   4.837  0.0048 -0.2915  0.0543
 3356TIP3    H110032   3.865   4.729   4.880  0.6655 -0.0626  0.5091
 3356TIP3    H210033   3.904   4.583   4.889 -1.5389 -0.7929 -1.0250
 3357TIP3   OH210034   7.029   0.250   0.758 -0.3471 -0.2330 -0.6567
 3357TIP3    H110035   7.045   0.283   0.847 -1.4261  0.8644 -0.8428
 3357TIP3    H210036   6.971   0.175   0.770  0.1544 -0.5866 -0.3921
 3358TIP3   OH210037   1.685   5.605   2.534  0.2219  0.2143 -0.8714
 3358TIP3    H110038   1.754   5.671   2.526  1.4548 -0.7092  1.3335
 3358TIP3    H210039   1.683   5.563   2.448  0.2773  2.2247 -1.9242
 3359TIP3   OH210040   4.085   0.930   1.187 -0.6386  0.0144  0.3500
 3359TIP3    H110041   4.028   0.854   1.189 -1.1914  0.3977  3.0695
 3359TIP3    H210042   4.163   0.904   1.236  1.1457 -0.1184 -2.3279
 3360TIP3   OH210043   4.343   1.879   0.694  0.2901 -0.3456 -0.6258
 3360TIP3    H110044   4.436   1.871   0.673  0.4318 -0.9977  0.2292
 3360TIP3    H210045   4.304   1.914   0.614  1.6008  2.1096 -0.3041
 3361TIP3   OH210046   2.478   2.827   5.788  0.7299  0.6059 -0.1174
 3361TIP3    H110047   2.482   2.752   5.729 -0.8934 -0.7382  1.3773
 3361TIP3    H210048   2.494   2.903   5.731 -0.8004 -0.6021 -2.3114
 3362TIP3   OH210049   1.207   6.035   4.233 -0.6715  0.3744  0.2922
 3362TIP3    H110050   1.134   6.079   4.279 -2.4748 -1.2155 -0.9014
 3362TIP3    H210051   1.164   5.970   4.177  1.4727  1.3285 -2.7158
 3363TIP3   OH210052   0.457   4.825   4.327 -0.2556 -0.2809 -0.4278
 3363TIP3    H110053   0.367   4.822   4.294 -0.9231  0.6225  1.2341
 3363TIP3    H210054   0.458   4.898   4.388  1.1421 -1.3810  0.9377
 3364TIP3   OH210055   4.435   2.292   5.707 -0.7929 -0.0130  0.1331
 3364TIP3    H110056   4.509   2.320   5.653  0.1314  0.1314  1.4179
 3364TIP3    H210057   4.454   2.328   5.793 -1.6820 -1.1374  0.8271
 3365TIP3   OH210058   7.085   5.222   5.321 -0.6718  0.1166 -0.1004
 3365TIP3    H110059   7.101   5.259   5.408 -0.6775 -1.5922  0.6750
 3365TIP3    H210060   7.036   5.289   5.275 -1.0511  0.8973  1.3712
 3366TIP3   OH210061   4.893   5.303   3.307  0.0577  0.2375  0.1332
 3366TIP3    H110062   4.865   5.259   3.387  0.2832  2.3855  1.4620
 3366TIP3    H210063   4.988   5.296   3.307 -0.0307 -1.4072 -0.9848
 3367TIP3   OH210064   0.541   6.138   4.236 -0.0289  0.9230 -0.2215
 3367TIP3    H110065   0.512   6.168   4.322  1.4129  1.4822  0.1048
 3367TIP3    H210066   0.632   6.110   4.250  0.9490  2.9920 -1.9369
 3368TIP3   OH210067   0.657   6.130   4.642 -0.1054 -0.2221 -0.1990
 3368TIP3    H110068   0.627   6.163   4.727  0.1265 -0.2755 -0.0945
 3368TIP3    H210069   0.729   6.188   4.618 -1.1874  0.7814 -1.1227
 3369TIP3   OH210070   5.985   5.074   2.529 -0.0922 -0.2001 -0.3957
 3369TIP3    H110071   5.897   5.071   2.491 -0.9241 -0.8742  1.4424
 3369TIP3    H210072   6.035   5.130   2.470 -2.1440  1.3841 -0.7583
 3370TIP3   OH210073   2.028   4.111   1.693 -0.5436 -0.4527  0.1893
 3370TIP3    H110074   2.069   4.197   1.703  0.9573 -0.9708 -1.1049
 3370TIP3    H210075   2.044   4.068   1.777  3.1101 -1.1890 -0.6897
 3371TIP3   OH210076   5.853   5.480   4.417  0.0992 -0.0803 -0.3923
 3371TIP3    H110077   5.884   5.571   4.417 -3.3414  1.3124 -1.9482
 3371TIP3    H210078   5.795   5.474   4.493 -0.3238 -0.6858 -0.7498
 3372TIP3   OH210079   1.656   4.408   0.688 -0.3332  0.1539 -0.2928
 3372TIP3    H110080   1.717   4.474   0.654 -1.4164  1.0546 -0.5696
 3372TIP3    H210081   1.570   4.434   0.653 -0.9205 -0.9526  0.2476
 3373TIP3   OH210082   3.770   3.781   1.412  0.7978  0.3262 -0.0870
 3373TIP3    H110083   3.681   3.796   1.441  0.8522  1.0691 -0.2972
 3373TIP3    H210084   3.820   3.855   1.445  1.7834 -1.0939  1.8363
 3374TIP3   OH210085   3.626   4.696   3.613 -0.3128 -0.0048 -0.1474
 3374TIP3    H110086   3.718   4.694   3.586 -0.5814 -3.0486 -1.3493
 3374TIP3    H210087   3.619   4.629   3.681 -1.5974  0.3015  0.0613
 3375TIP3   OH210088   6.938   0.138   1.919  0.2415  0.1450  0.1929
 3375TIP3    H110089   6.984   0.169   1.997 -0.2825  0.0790  0.5315
 3375TIP3    H210090   6.957   0.044   1.916 -0.1288  0.0580  0.5123
 3376TIP3   OH210091   0.680   1.601   0.113  0.5793  0.2098  0.1362
 3376TIP3    H110092   0.720   1.656   0.180 -0.0660 -0.0109  0.7091
 3376TIP3    H210093   0.754   1.562   0.067  1.0335  0.7594  0.3823
 3377TIP3   OH210094   1.405   0.136   3.057  0.4980  0.2274  0.1462
 3377TIP3    H110095   1.429   0.205   2.995  0.1536  1.7471  1.5990
 3377TIP3    H210096   1.433   0.170   3.142 -0.2528 -1.1658  0.9962
 3378TIP3   OH210097   4.858   4.579   3.381  0.2415 -0.0424  0.2772
 3378TIP3    H110098   4.775   4.626   3.377 -0.0235  0.0148  3.6170
 3378TIP3    H210099   4.846   4.506   3.321 -1.3269  1.2065 -1.0408
 3379TIP3   OH210100   4.067   3.742   1.711 -0.6499 -0.7013  0.0886
 3379TIP3    H110101   4.157   3.755   1.682 -1.0074 -0.8457 -1.1446
 3379TIP3    H210102   4.034   3.830   1.728 -0.2850 -0.6486  0.5494
 3380TIP3   OH210103   1.580   5.119   0.657  0.1818  0.1938  0.2724
 3380TIP3    H110104   1.594   5.051   0.590 -0.8362  1.1566 -0.9941
 3380TIP3    H210105   1.652   5.181   0.644  0.1345  0.2412  0.2302
 3381TIP3   OH210106   5.771   4.245   4.721  0.1014  0.2732  0.5837
 3381TIP3    H110107   5.859   4.210   4.731 -0.5032 -1.2269  0.9628
 3381TIP3    H210108   5.763   4.312   4.789 -0.3089 -2.2657  3.2232
 3382TIP3   OH210109   6.207   2.356   4.192 -0.4474 -0.2028 -0.0601
 3382TIP3    H110110   6.232   2.417   4.122 -0.1681  0.3194  0.4807
 3382TIP3    H210111   6.170   2.412   4.260 -1.7303 -0.8243 -0.2304
 3383TIP3   OH210112   1.106   3.925   4.474  0.1903  0.1977  0.0600
 3383TIP3    H110113   1.171   3.995   4.466  1.4838 -1.0751 -1.3100
 3383TIP3    H210114   1.042   3.944   4.406  0.8409 -0.2132 -0.6866
 3384TIP3   OH210115   1.654   1.349   1.824 -0.2302  0.3120 -0.9570
 3384TIP3    H110116   1.638   1.275   1.883  0.3321 -0.8436 -2.1903
 3384TIP3    H210117   1.669   1.424   1.882  2.9027 -1.2495  0.4861
 3385TIP3   OH210118   6.986   4.960   2.995  0.1323 -0.2081 -0.0094
 3385TIP3    H110119   6.959   5.052   2.994 -0.1687 -0.2857 -1.5716
 3385TIP3    H210120   6.964   4.927   2.908 -0.4385 -1.9728  0.7456
 3386TIP3   OH210121   5.146   2.557   4.396  0.3604 -0.0178  0.1444
 3386TIP3    H110122   5.138   2.570   4.491  1.3663  1.3697  0.0708
 3386TIP3    H210123   5.061   2.583   4.362 -0.0952 -0.7630  0.6685
 3387TIP3   OH210124   6.019   0.474   1.915  0.5128 -0.5553  0.1646
 3387TIP3    H110125   6.028   0.567   1.938 -0.3856 -0.5909  0.7021
 3387TIP3    H210126   5.987   0.432   1.995 -1.3283 -0.9182 -0.7045
 3388TIP3   OH210127   5.719   2.542   2.421 -0.9207 -0.7128  0.4178
 3388TIP3    H110128   5.759   2.485   2.486  0.3068 -1.7199 -1.1357
 3388TIP3    H210129   5.763   2.520   2.339  0.6362  3.4024 -0.1090
 3389TIP3   OH210130   5.298   1.731   2.390 -0.4244 -0.3198 -0.3201
 3389TIP3    H110131   5.345   1.649   2.380  0.7737  0.3083 -0.0683
 3389TIP3    H210132   5.365   1.794   2.419 -1.6977  0.2828  1.4528
 3390TIP3   OH210133   5.995   3.749   5.274 -0.2728  0.8974 -0.4889
 3390TIP3    H110134   5.992   3.843   5.258 -1.7218  1.1671  1.1138
 3390TIP3    H210135   5.905   3.725   5.294  0.1828 -0.7296 -0.2575
 3391TIP3   OH210136   1.219   0.992   0.957 -0.1063  0.0230 -0.0422
 3391TIP3    H110137   1.279   0.932   0.914 -1.7193 -1.1052 -0.8308
 3391TIP3    H210138   1.177   0.940   1.025  0.5259  1.0775  1.1820
 3392TIP3   OH210139   1.130   2.301   0.311 -0.9396  0.2954 -0.3517
 3392TIP3    H110140   1.108   2.286   0.403 -3.2455  0.2226 -0.8445
 3392TIP3    H210141   1.209   2.355   0.313  0.1276 -1.2277  1.6225
 3393TIP3   OH210142   4.652   3.280   3.093 -0.1726 -0.7253  0.9092
 3393TIP3    H110143   4.654   3.252   3.001  2.1003 -2.3615  1.3535
 3393TIP3    H210144   4.576   3.236   3.130 -0.4058 -1.0422  0.0748
 3394TIP3   OH210145   0.556   5.552   5.268 -0.3217  0.2393  0.6580
 3394TIP3    H110146   0.486   5.552   5.203  0.4854  0.7584 -0.2309
 3394TIP3    H210147   0.535   5.478   5.326 -1.3251  0.0867  0.1175
 3395TIP3   OH210148   2.831   0.915   4.890  0.3353  0.6342  0.4118
 3395TIP3    H110149   2.871   0.975   4.827  1.5243 -0.5859 -0.0152
 3395TIP3    H210150   2.742   0.901   4.856  1.5920 -1.6832 -2.2823
 3396TIP3   OH210151   6.641   3.210   4.784 -0.3702 -0.2055 -0.2422
 3396TIP3    H110152   6.621   3.300   4.762  0.7735  0.1113 -0.0354
 3396TIP3    H210153   6.685   3.175   4.707  1.2872  0.1327  0.4962
 3397TIP3   OH210154   6.814   1.651   5.441  0.0672  0.0563 -0.7322
 3397TIP3    H110155   6.815   1.695   5.526  1.0135  0.6375 -1.0366
 3397TIP3    H210156   6.727   1.610   5.436 -0.7997  1.7751 -0.3773
 3398TIP3   OH210157   2.596   2.901   3.330 -0.8538 -0.3479 -0.1659
 3398TIP3    H110158   2.535   2.922   3.259  0.3462  0.0971 -1.0955
 3398TIP3    H210159   2.678   2.944   3.305  0.0447 -1.4690  0.7293
 3399TIP3   OH210160   1.465   1.688   4.634  0.1078 -0.0934  0.0144
 3399TIP3    H110161   1.387   1.646   4.597 -0.2303  0.4827  0.0547
 3399TIP3    H210162   1.538   1.634   4.605 -0.3375 -0.8107  0.2234
 3400TIP3   OH210163   6.827   5.357   4.141  0.4141  0.0038  0.1894
 3400TIP3    H110164   6.735   5.356   4.116 -0.1127  0.2207  2.0153
 3400TIP3    H210165   6.871   5.304   4.074 -1.4737 -2.6890  0.9360
 3401TIP3   OH210166   2.352   4.175   5.774  0.0150  0.5647  0.3012
 3401TIP3    H110167   2.293   4.182   5.699 -1.2336  1.2795  1.3048
 3401TIP3    H210168   2.311   4.229   5.842  1.1033 -0.0665  1.5060
 3402TIP3   OH210169   2.371   3.040   0.135 -0.4667  0.1779 -0.1335
 3402TIP3    H110170   2.303   3.019   0.072  1.1485 -0.3364 -1.7766
 3402TIP3    H210171   2.444   3.073   0.083  0.5944  0.6714  1.5559
 3403TIP3   OH210172   0.611   0.255   1.257  0.3603 -0.0885 -0.1668
 3403TIP3    H110173   0.552   0.328   1.238  0.0733 -0.0307  0.9226
 3403TIP3    H210174   0.556   0.177   1.252  0.8762 -0.3842 -2.3931
 3404TIP3   OH210175   2.524   5.789   4.308 -0.6460  0.0843  0.0003
 3404TIP3    H110176   2.446   5.738   4.288 -1.9457  1.5810  1.0357
 3404TIP3    H210177   2.575   5.788   4.227 -2.2971  0.0251 -1.0826
 3405TIP3   OH210178   4.852   2.458   5.805 -0.0206 -0.3468 -0.3119
 3405TIP3    H110179   4.941   2.482   5.781 -0.5893  3.4078  0.7090
 3405TIP3    H210180   4.849   2.471   5.900 -1.9249  0.8096 -0.4807
 3406TIP3   OH210181   1.751   2.691   0.376 -0.0375 -0.2751  0.3552
 3406TIP3    H110182   1.709   2.655   0.297 -0.5242 -2.5375  1.5648
 3406TIP3    H210183   1.695   2.765   0.400  0.6339  1.0741 -1.8667
 3407TIP3   OH210184   1.641   5.730   1.743 -0.1039 -0.1086 -0.0311
 3407TIP3    H110185   1.704   5.794   1.711  1.4286 -1.3923  0.2606
 3407TIP3    H210186   1.571   5.730   1.678 -0.8135  2.7093  0.5988
 3408TIP3   OH210187   1.557   5.282   1.835 -0.0456  0.0336 -0.6401
 3408TIP3    H110188   1.507   5.231   1.771 -2.9117  1.7255  0.0710
 3408TIP3    H210189   1.632   5.314   1.786 -1.2503 -0.0979 -2.7149
 3409TIP3   OH210190   4.295   3.720   2.354 -0.1367 -0.1501  0.0303
 3409TIP3    H110191   4.264   3.635   2.322  1.6696 -1.2167  0.9210
 3409TIP3    H210192   4.261   3.726   2.443 -1.4384  0.7534 -0.4985
 3410TIP3   OH210193   0.035   5.317   5.859  0.0479  0.1593  0.8610
 3410TIP3    H110194   0.085   5.282   5.933 -0.8704  0.2893  1.5591
 3410TIP3    H210195   0.054   5.411   5.860  0.7260  0.0357  0.3793
 3411TIP3   OH210196   3.546   3.565   1.995 -0.1406  0.3294 -0.2191
 3411TIP3    H110197   3.485   3.636   1.975 -2.5368 -0.8568  2.1890
 3411TIP3    H210198   3.527   3.497   1.931 -0.2605  0.5484 -0.4154
 3412TIP3   OH210199   6.937   1.108   0.533 -0.0266  0.4750 -0.7017
 3412TIP3    H110200   6.904   1.058   0.608 -1.7577  1.5354 -0.6996
 3412TIP3    H210201   6.907   1.198   0.549  2.4144  1.4167 -1.0416
 3413TIP3   OH210202   6.140   3.910   0.346  0.5980 -0.4671 -0.0769
 3413TIP3    H110203   6.077   3.892   0.276 -0.8523 -0.8240  1.2647
 3413TIP3    H210204   6.163   4.002   0.335 -0.0142 -0.3829 -0.7161
 3414TIP3   OH210205   2.653   0.120   5.871  0.6646  0.1471 -0.0172
 3414TIP3    H110206   2.745   0.098   5.855  0.7757  1.0119 -0.6492
 3414TIP3    H210207   2.605   0.079   5.799  0.7048  0.7070 -0.3707
 3415TIP3   OH210208   4.186   2.919   2.092 -0.5040 -0.0078  0.9077
 3415TIP3    H110209   4.100   2.959   2.106 -0.4216  0.4336  0.2063
 3415TIP3    H210210   4.238   2.949   2.166 -0.4814  1.1172  0.4723
 3416TIP3   OH210211   3.506   4.707   5.424  0.3227  0.4164  0.0023
 3416TIP3    H110212   3.450   4.630   5.415  1.4210 -0.2639 -1.5003
 3416TIP3    H210213   3.584   4.675   5.470  1.3072  0.2997 -1.6770
 3417TIP3   OH210214   6.216   2.253   0.568 -0.0032  0.1017  0.1772
 3417TIP3    H110215   6.173   2.192   0.509 -1.5293  0.8305  0.4968
 3417TIP3    H210216   6.281   2.200   0.614  0.2178 -0.7785 -1.1121
 3418TIP3   OH210217   2.393   6.155   5.512  0.5069  0.6247  0.2246
 3418TIP3    H110218   2.391   6.246   5.543 -0.0152  1.0328 -0.9118
 3418TIP3    H210219   2.386   6.163   5.416 -1.4567 -0.6596  0.1948
 3419TIP3   OH210220   0.161   6.549   5.609  0.1779  0.1447  0.0728
 3419TIP3    H110221   0.092   6.485   5.630 -1.1579  1.2172 -0.8728
 3419TIP3    H210222   0.127   6.632   5.641  0.9117  0.7394 -0.6595
 3420TIP3   OH210223   5.189   6.162   0.122  0.0488  0.3274  0.0509
 3420TIP3    H110224   5.185   6.257   0.110  3.5215  0.9519  2.3383
 3420TIP3    H210225   5.277   6.139   0.092  0.1443 -1.7593  1.7420
 3421TIP3   OH210226   5.344   5.913   4.251 -0.7205  0.3594  0.2209
 3421TIP3    H110227   5.322   5.990   4.305 -0.7659 -0.4515  1.4030
 3421TIP3    H210228   5.263   5.863   4.245 -0.5030  0.0163  0.1102
 3422TIP3   OH210229   1.450   2.458   2.300  0.0417  0.5297  0.0619
 3422TIP3    H110230   1.372   2.485   2.252 -0.8351  0.6211  1.4775
 3422TIP3    H210231   1.433   2.484   2.390  1.2552 -0.4142  0.5975
 3423TIP3   OH210232   4.114   3.017   1.607 -0.2974 -0.4174 -0.2001
 3423TIP3    H110233   4.142   3.079   1.674 -0.0399 -1.3551  0.5856
 3423TIP3    H210234   4.022   3.000   1.627 -0.2467 -0.6272 -0.1491
 3424TIP3   OH210235   0.175   4.830   1.317 -0.6627 -0.4230  0.3466
 3424TIP3    H110236   0.083   4.852   1.303 -0.0045  1.7325 -1.2383
 3424TIP3    H210237   0.222   4.880   1.250  1.6302 -1.9548  0.6836
 3425TIP3   OH210238   5.113   3.525   4.937 -0.1369  0.2518  0.0506
 3425TIP3    H110239   5.064   3.608   4.940  0.1556  0.4557 -0.6979
 3425TIP3    H210240   5.203   3.550   4.955 -0.2586 -0.0985  1.2265
 3426TIP3   OH210241   0.993   0.559   2.561  0.0387  0.3290  0.4357
 3426TIP3    H110242   0.943   0.482   2.535 -0.4366  1.1257 -1.1809
 3426TIP3    H210243   1.061   0.567   2.494  1.7423 -0.1493  2.0356
 3427TIP3   OH210244   2.336   3.852   3.081 -0.4296 -0.3707  0.0848
 3427TIP3    H110245   2.242   3.850   3.096 -0.2740 -1.5237  1.0301
 3427TIP3    H210246   2.357   3.945   3.073 -1.9659 -0.1481 -2.4360
 3428TIP3   OH210247   0.789   1.430   1.700  0.1490 -0.3261 -0.1006
 3428TIP3    H110248   0.751   1.351   1.739 -0.2276 -0.7578 -1.2948
 3428TIP3    H210249   0.735   1.447   1.623 -0.2760  1.5809  0.5568
 3429TIP3   OH210250   5.136   4.994   4.649  0.3616 -0.3922 -0.3280
 3429TIP3    H110251   5.132   5.002   4.744 -0.9150 -0.7230 -0.3363
 3429TIP3    H210252   5.187   4.914   4.634 -0.4897 -1.0329  0.1201
 3430TIP3   OH210253   2.189   0.453   3.965  0.2806  0.6853  0.0374
 3430TIP3    H110254   2.184   0.361   3.938  1.3282  0.4278  0.7002
 3430TIP3    H210255   2.256   0.490   3.908  1.1397  0.5986  0.9825
 3431TIP3   OH210256   1.800   0.095   3.968 -0.0627 -0.4760 -0.0877
 3431TIP3    H110257   1.843   0.179   3.983 -0.4501  0.0277 -1.5899
 3431TIP3    H210258   1.707   0.117   3.965 -0.0844 -0.6899 -1.9303
 3432TIP3   OH210259   5.796   5.820   3.513  0.5014 -0.3834  0.3160
 3432TIP3    H110260   5.717   5.858   3.474  1.9302  1.5192 -0.9204
 3432TIP3    H210261   5.780   5.726   3.514 -2.8511  0.0414  2.6171
 3433TIP3   OH210262   0.320   5.764   5.431 -0.5302 -0.5072  0.1773
 3433TIP3    H110263   0.324   5.790   5.339  0.4144 -0.0043  0.3448
 3433TIP3    H210264   0.269   5.683   5.431 -0.5297 -0.5194 -0.7884
 3434TIP3   OH210265   7.093   3.045   2.589  0.0660 -0.2801  0.3264
 3434TIP3    H110266   7.017   2.993   2.616 -0.3363 -0.1184 -0.4519
 3434TIP3    H210267   7.056   3.132   2.569  0.2239 -0.5654 -1.3334
 3435TIP3   OH210268   2.003   0.585   2.252 -0.1374 -0.4755  0.0605
 3435TIP3    H110269   2.016   0.678   2.235 -0.0325 -0.0536  2.1760
 3435TIP3    H210270   1.909   0.572   2.242  0.0378 -0.5443 -1.8601
 3436TIP3   OH210271   1.432   5.201   4.787  0.0593 -0.0176  0.1872
 3436TIP3    H110272   1.370   5.175   4.854 -0.1712 -2.2156 -0.7952
 3436TIP3    H210273   1.510   5.147   4.803 -0.3371 -1.2952 -1.7951
 3437TIP3   OH210274   6.913   5.012   0.855  0.6161 -0.3525 -0.1713
 3437TIP3    H110275   6.870   4.964   0.785 -0.3359 -0.7780  0.6787
 3437TIP3    H210276   6.886   5.103   0.842  0.9647 -0.3227 -0.7234
 3438TIP3   OH210277   0.233   1.252   1.054 -0.1021  0.3096 -0.0058
 3438TIP3    H110278   0.228   1.272   1.148 -0.8280 -3.6105  0.9910
 3438TIP3    H210279   0.152   1.204   1.036 -0.0355  1.0810 -2.7268
 3439TIP3   OH210280   5.811   3.402   4.077 -0.5698 -0.4636 -0.3238
 3439TIP3    H110281   5.807   3.315   4.117  1.7779 -1.1927 -1.4832
 3439TIP3    H210282   5.879   3.394   4.009 -0.6908  2.1322 -0.8491
 3440TIP3   OH210283   7.158   0.557   1.230  0.5087 -0.8446  0.0666
 3440TIP3    H110284   7.125   0.630   1.282  0.3084  0.5558 -1.8971
 3440TIP3    H210285   7.096   0.486   1.246 -0.5441  0.1126  0.3577
 3441TIP3   OH210286   0.202   5.511   4.856 -0.0256  0.7644  0.2824
 3441TIP3    H110287   0.281   5.512   4.802 -0.3942  1.1948 -0.2642
 3441TIP3    H210288   0.194   5.421   4.885  0.7387  0.7442  0.4465
 3442TIP3   OH210289   6.395   3.073   5.906  0.2349  0.4476 -0.3919
 3442TIP3    H110290   6.484   3.096   5.934  0.4540  0.5775 -1.1877
 3442TIP3    H210291   6.397   3.080   5.811 -0.5824  0.2695 -0.4267
 3443TIP3   OH210292   6.288   0.765   4.636  0.3527  0.1380 -0.0355
 3443TIP3    H110293   6.211   0.809   4.599  1.0313  1.5264  0.1185
 3443TIP3    H210294   6.252   0.693   4.688 -0.7478 -0.2124 -1.2212
 3444TIP3   OH210295   6.926   0.520   0.152  0.0117  0.0139  0.1684
 3444TIP3    H110296   6.977   0.561   0.222  1.6134 -0.4768 -0.6472
 3444TIP3    H210297   6.992   0.483   0.094 -1.2760  0.2545 -1.5161
 3445TIP3   OH210298   3.187   4.694   2.643  0.2332  0.3724  0.4546
 3445TIP3    H110299   3.257   4.685   2.707 -1.0519  0.0807  1.8833
 3445TIP3    H210300   3.220   4.758   2.580  1.3025  1.1624  1.7638
 3446TIP3   OH210301   0.208   4.380   2.621 -0.5210 -0.1283 -0.1217
 3446TIP3    H110302   0.301   4.396   2.606 -0.4536 -0.3372  0.0637
 3446TIP3    H210303   0.169   4.384   2.534 -0.6062  1.6160 -0.0272
 3447TIP3   OH210304   2.793   2.404   3.484  0.5460  0.0505 -0.0973
 3447TIP3    H110305   2.772   2.497   3.481  1.8003  0.3348 -1.6476
 3447TIP3    H210306   2.888   2.401   3.497  0.4079 -1.0390  0.8039
 3448TIP3   OH210307   5.009   1.424   4.637 -0.6392 -0.1464 -0.0171
 3448TIP3    H110308   5.068   1.420   4.712 -0.9973 -1.9674  0.2186
 3448TIP3    H210309   4.977   1.514   4.636  0.1677  0.1772  1.3882
 3449TIP3   OH210310   6.955   5.580   5.122  0.0021  0.5852  0.0916
 3449TIP3    H110311   6.921   5.500   5.162  0.5835  0.1111 -0.3709
 3449TIP3    H210312   6.897   5.596   5.048  0.0782  0.4225 -0.0027
 3450TIP3   OH210313   5.834   1.463   4.138 -0.2722  0.1714  0.1190
 3450TIP3    H110314   5.875   1.421   4.213 -1.0129 -0.7750  0.0172
 3450TIP3    H210315   5.839   1.398   4.068 -1.0296  0.4185 -0.1824
 3451TIP3   OH210316   3.466   0.280   2.711 -0.2759 -0.5409  0.2262
 3451TIP3    H110317   3.481   0.337   2.786  0.7735  0.1128 -0.4589
 3451TIP3    H210318   3.404   0.328   2.656 -0.7347 -0.8425  0.4734
 3452TIP3   OH210319   6.006   5.851   3.669  0.0269 -0.6522 -0.4640
 3452TIP3    H110320   5.930   5.849   3.611 -0.4611 -0.5537  0.1699
 3452TIP3    H210321   5.987   5.786   3.737 -0.3589  0.6899  0.7619
 3453TIP3   OH210322   2.237   0.170   2.603  0.2723 -0.2623  0.5730
 3453TIP3    H110323   2.144   0.158   2.618 -0.0226  1.7576  0.5724
 3453TIP3    H210324   2.277   0.088   2.635 -1.5620 -1.7065 -0.6467
 3454TIP3   OH210325   2.028   6.160   4.820 -0.0152  0.5837  0.5826
 3454TIP3    H110326   1.976   6.217   4.764  0.1843 -0.2583 -0.5071
 3454TIP3    H210327   2.065   6.095   4.760  0.4078 -0.2110  1.6618
 3455TIP3   OH210328   2.537   1.106   2.701  0.1599  0.0018 -0.1288
 3455TIP3    H110329   2.471   1.174   2.715 -1.1750 -1.5567  1.8907
 3455TIP3    H210330   2.617   1.153   2.678 -1.2809  2.0585 -1.2454
 3456TIP3   OH210331   0.231   1.407   1.292  0.0733 -0.2325 -0.3985
 3456TIP3    H110332   0.306   1.466   1.289  0.1008 -0.2843 -0.7303
 3456TIP3    H210333   0.158   1.463   1.317  0.0707 -0.0267 -0.8574
 3457TIP3   OH210334   0.975   5.099   0.080  0.1918 -0.0958  0.7676
 3457TIP3    H110335   0.979   5.116   0.174 -0.5798  4.3958  0.1971
 3457TIP3    H210336   1.063   5.117   0.048 -0.4676  2.4952  0.2243
 3458TIP3   OH210337   5.022   4.262   3.601  0.2582  0.0929  0.1450
 3458TIP3    H110338   5.067   4.339   3.636  0.3937 -0.0209  0.2236
 3458TIP3    H210339   5.061   4.188   3.649  2.2954 -0.3584 -2.0282
 3459TIP3   OH210340   4.081   3.845   5.686 -0.8412 -0.1732 -0.0614
 3459TIP3    H110341   3.987   3.828   5.682 -0.8621  0.2282 -2.6778
 3459TIP3    H210342   4.118   3.795   5.614  0.8496  0.4517  0.3190
 3460TIP3   OH210343   5.092   2.089   1.798 -0.3384 -0.1316  0.0517
 3460TIP3    H110344   5.141   2.165   1.830 -0.4928  0.1485 -0.3802
 3460TIP3    H210345   5.026   2.125   1.740 -0.0323 -0.6440 -0.6235
 3461TIP3   OH210346   5.230   0.801   3.461 -0.0753 -0.6645 -0.0462
 3461TIP3    H110347   5.149   0.796   3.512  1.2230 -3.4137  1.9804
 3461TIP3    H210348   5.297   0.828   3.524  0.9388 -0.1832 -1.2697
 3462TIP3   OH210349   0.690   4.452   3.605  0.5847 -0.1720 -0.3668
 3462TIP3    H110350   0.619   4.503   3.565  0.5058  0.0250  0.0207
 3462TIP3    H210351   0.739   4.515   3.657  0.1659 -0.5746  0.5538
 3463TIP3   OH210352   4.758   4.101   0.319  0.0773  0.3097  0.4069
 3463TIP3    H110353   4.802   4.151   0.251  0.6615 -0.1938  0.4145
 3463TIP3    H210354   4.802   4.126   0.400 -1.8639  2.4051  0.9297
 3464TIP3   OH210355   6.202   6.439   0.372 -0.2985  0.1571 -0.3911
 3464TIP3    H110356   6.205   6.425   0.466 -0.7412  0.4023 -0.3397
 3464TIP3    H210357   6.272   6.383   0.337 -1.2806 -1.3227 -0.0905
 3465TIP3   OH210358   3.317   4.853   2.457  0.6323  0.9772  0.0569
 3465TIP3    H110359   3.335   4.819   2.370  2.1081 -0.3191  0.8117
 3465TIP3    H210360   3.391   4.910   2.477 -0.5512  2.6670 -0.1689
 3466TIP3   OH210361   1.000   1.863   5.802  0.3884  0.0742  0.0768
 3466TIP3    H110362   1.039   1.776   5.796  1.8620  0.5930  1.2924
 3466TIP3    H210363   0.907   1.849   5.789  0.8337 -1.3738 -2.0033
 3467TIP3   OH210364   2.350   2.972   0.961  0.0340 -0.3778  0.3550
 3467TIP3    H110365   2.385   3.056   0.934 -4.0267  1.0490 -1.3108
 3467TIP3    H210366   2.263   2.968   0.921 -1.6397 -3.6142  3.6568
 3468TIP3   OH210367   7.087   1.057   3.379  0.3472  0.6958 -0.1808
 3468TIP3    H110368   7.120   0.980   3.425 -0.9734  0.4357  0.3630
 3468TIP3    H210369   7.038   1.021   3.304  1.3253  1.0783 -1.0362
 3469TIP3   OH210370   1.569   1.374   5.402  0.2642  0.1549  0.0740
 3469TIP3    H110371   1.542   1.425   5.478  0.7876 -0.2922  0.5724
 3469TIP3    H210372   1.487   1.340   5.365 -0.0712  1.1891 -0.1558
 3470TIP3   OH210373   6.842   6.545   1.505  0.6890 -0.1559  0.5156
 3470TIP3    H110374   6.923   6.541   1.454  0.7610 -1.6548  0.7153
 3470TIP3    H210375   6.836   6.460   1.548 -0.0994  0.5595  1.8932
 3471TIP3   OH210376   2.712   5.323   4.679 -0.5639  0.3361 -0.1191
 3471TIP3    H110377   2.767   5.400   4.694 -0.0246  0.3715 -2.0349
 3471TIP3    H210378   2.760   5.271   4.615 -1.3040 -1.2194  0.5236
 3472TIP3   OH210379   0.542   1.371   0.070 -0.3048 -0.0735  0.9840
 3472TIP3    H110380   0.598   1.435   0.114  0.3657  0.8713 -1.0878
 3472TIP3    H210381   0.603   1.315   0.022 -1.0198 -0.5800  0.6532
 3473TIP3   OH210382   0.840   6.012   1.650  0.5474 -0.0903  0.0073
 3473TIP3    H110383   0.933   6.031   1.642  0.3560  0.2279 -1.6998
 3473TIP3    H210384   0.796   6.096   1.639  0.0064 -0.4316 -0.5545
 3474TIP3   OH210385   4.233   5.473   0.996 -0.0210  0.3445  0.2253
 3474TIP3    H110386   4.310   5.431   1.036  0.0083  0.9263  0.7959
 3474TIP3    H210387   4.216   5.549   1.051  1.0244  2.1581 -1.8126
 3475TIP3   OH210388   0.262   6.041   1.164  0.3402 -0.0077  0.3311
 3475TIP3    H110389   0.201   6.081   1.102  1.2750  0.6791 -0.1847
 3475TIP3    H210390   0.284   6.112   1.225  1.8975  0.2805 -0.4953
 3476TIP3   OH210391   4.805   5.706   5.238  0.4505 -0.2327 -0.0554
 3476TIP3    H110392   4.815   5.778   5.176 -1.4884  1.8969  1.8915
 3476TIP3    H210393   4.730   5.656   5.205 -0.7036  1.0099  0.5822
 3477TIP3   OH210394   3.013   6.302   1.006 -0.3146 -0.4165 -0.0752
 3477TIP3    H110395   3.012   6.238   0.935  1.2833 -0.8070  0.2148
 3477TIP3    H210396   2.933   6.353   0.994 -1.2324 -1.9442 -0.7895
 3478TIP3   OH210397   2.122   4.480   2.939  0.5656  0.3940  0.0349
 3478TIP3    H110398   2.099   4.539   3.011 -0.0839  0.3906 -0.1588
 3478TIP3    H210399   2.063   4.505   2.868 -0.1969 -0.9249  0.1651
 3479TIP3   OH210400   6.029   5.542   2.789  0.3755  0.1311  0.3822
 3479TIP3    H110401   5.994   5.454   2.774  1.7696 -0.3297 -0.2824
 3479TIP3    H210402   6.003   5.562   2.879 -0.1843 -0.8494  0.4627
 3480TIP3   OH210403   0.437   2.989   3.061  0.4448 -0.0140  0.3711
 3480TIP3    H110404   0.498   3.006   3.133  0.5202 -0.0051  0.3056
 3480TIP3    H210405   0.466   3.048   2.991  0.2600  0.1076  0.3970
 3481TIP3   OH210406   3.298   1.832   3.175 -0.1104 -0.7117 -0.0105
 3481TIP3    H110407   3.249   1.915   3.180  1.9892  0.5287  1.6474
 3481TIP3    H210408   3.233   1.765   3.196 -1.4074  0.7185  0.7622
 3482TIP3   OH210409   5.367   1.000   3.593 -0.0887 -0.0650 -0.1455
 3482TIP3    H110410   5.451   1.038   3.617  0.7947 -2.2297  0.4754
 3482TIP3    H210411   5.362   1.009   3.498 -0.0302  1.6975 -0.0043
 3483TIP3   OH210412   5.787   5.929   2.966 -0.5060 -0.1148  0.6658
 3483TIP3    H110413   5.763   5.924   2.874  0.1011  0.9030  0.4418
 3483TIP3    H210414   5.827   5.844   2.985 -1.6870 -0.7724  0.3173
 3484TIP3   OH210415   4.834   0.535   2.191  0.0707 -0.1501 -0.0464
 3484TIP3    H110416   4.908   0.476   2.204 -0.6653 -1.4904 -1.5500
 3484TIP3    H210417   4.799   0.550   2.279  1.8625  0.2189  0.6448
 3485TIP3   OH210418   3.473   1.063   0.729 -0.1382 -0.1552  0.6906
 3485TIP3    H110419   3.443   1.025   0.646 -3.0295  0.8496  1.1386
 3485TIP3    H210420   3.496   1.153   0.707 -1.7912  0.3977  1.0407
 3486TIP3   OH210421   5.223   1.373   3.585  0.2532 -0.0210  0.2319
 3486TIP3    H110422   5.218   1.312   3.658  1.5702 -0.1518  0.2365
 3486TIP3    H210423   5.300   1.426   3.603 -0.1022  0.7515 -0.4576
 3487TIP3   OH210424   4.886   4.544   0.161 -0.2280  0.3943 -0.2681
 3487TIP3    H110425   4.973   4.525   0.195 -0.3903 -1.0676 -0.6066
 3487TIP3    H210426   4.901   4.566   0.069 -0.2231 -0.0286 -0.3714
 3488TIP3   OH210427   0.459   1.890   5.136  0.0903  0.4541 -0.4928
 3488TIP3    H110428   0.412   1.807   5.130  1.1384 -0.2366  0.3782
 3488TIP3    H210429   0.498   1.902   5.050  1.4521 -0.9298 -0.1107
 3489TIP3   OH210430   1.497   2.866   1.550  0.1700 -0.0685 -0.1054
 3489TIP3    H110431   1.542   2.834   1.472 -1.9221  0.8867 -1.8269
 3489TIP3    H210432   1.413   2.898   1.518 -0.5966  0.8403  2.5004
 3490TIP3   OH210433   5.086   0.978   0.768  0.3672 -0.5282  0.1465
 3490TIP3    H110434   5.151   0.920   0.727  2.0905 -0.0177  1.9976
 3490TIP3    H210435   5.121   1.066   0.754  0.0933 -0.2456  1.1637
 3491TIP3   OH210436   7.088   4.763   4.582 -0.1915  0.1582  0.4968
 3491TIP3    H110437   7.160   4.741   4.641 -0.0236  2.0743  1.0912
 3491TIP3    H210438   7.096   4.701   4.510  0.3842 -1.4205  1.8366
 3492TIP3   OH210439   2.847   1.829   0.228  0.1685  0.3153  0.0485
 3492TIP3    H110440   2.877   1.904   0.177  0.8301 -1.4663 -2.3723
 3492TIP3    H210441   2.886   1.842   0.314  1.0453  2.2466 -0.5741
 3493TIP3   OH210442   3.238   4.166   2.225  0.0865 -1.1633  0.2637
 3493TIP3    H110443   3.150   4.148   2.192  0.8010 -0.8406 -2.0445
 3493TIP3    H210444   3.293   4.100   2.183  1.1272 -0.4833  0.5347
 3494TIP3   OH210445   4.586   1.444   2.689  0.2859  0.3119  0.2537
 3494TIP3    H110446   4.643   1.519   2.708  1.3781 -0.7357  1.2687
 3494TIP3    H210447   4.647   1.373   2.669 -0.7374 -0.3007 -0.7997
 3495TIP3   OH210448   2.911   4.349   2.278  0.1203  0.6675  0.0332
 3495TIP3    H110449   2.824   4.372   2.245 -1.5120 -0.0962  3.3553
 3495TIP3    H210450   2.960   4.322   2.200 -2.2634  2.0423 -2.0921
 3496TIP3   OH210451   6.190   0.578   5.591  0.2939 -0.0603  0.3597
 3496TIP3    H110452   6.145   0.554   5.510  0.2094 -0.1840  0.4431
 3496TIP3    H210453   6.120   0.596   5.653  0.3379 -1.5583  0.8865
 3497TIP3   OH210454   6.412   4.241   3.745 -0.0034 -0.1369  0.3434
 3497TIP3    H110455   6.499   4.221   3.778  0.5432  0.2717 -0.7867
 3497TIP3    H210456   6.364   4.159   3.750  0.1366 -0.1606  1.8260
 3498TIP3   OH210457   2.583   2.110   4.680  0.2299  0.4142  0.4277
 3498TIP3    H110458   2.594   2.030   4.731  0.7954  0.9894  1.2433
 3498TIP3    H210459   2.640   2.099   4.604 -0.4959 -0.3856 -0.0208
 3499TIP3   OH210460   6.184   3.555   1.960  0.6051  0.0802 -0.0048
 3499TIP3    H110461   6.268   3.536   2.002  0.0648 -0.6257  0.8079
 3499TIP3    H210462   6.145   3.468   1.945  0.1385  0.3877 -0.6156
 3500TIP3   OH210463   3.004   0.481   5.357 -0.6026 -0.0288 -0.4803
 3500TIP3    H110464   3.025   0.541   5.429 -0.6121 -0.8936  0.2546
 3500TIP3    H210465   3.084   0.478   5.305  0.6132 -1.9631  1.3533
 3501TIP3   OH210466   4.684   1.144   2.949 -0.4031 -0.3558 -0.0205
 3501TIP3    H110467   4.647   1.101   3.026  0.7751  0.0086  0.7844
 3501TIP3    H210468   4.716   1.229   2.981  0.5853 -0.4142 -0.7812
 3502TIP3   OH210469   0.891   2.397   0.186 -0.2676  0.4275 -0.4829
 3502TIP3    H110470   0.844   2.354   0.258 -2.2768  0.6028 -1.6174
 3502TIP3    H210471   0.981   2.366   0.195 -1.1191 -2.1119  0.2068
 3503TIP3   OH210472   4.180   3.084   4.517 -0.1285 -0.0370  0.2369
 3503TIP3    H110473   4.095   3.071   4.476 -1.0707 -0.3834  2.1563
 3503TIP3    H210474   4.164   3.067   4.610  1.7893  1.0306  0.8132
 3504TIP3   OH210475   5.355   2.143   5.711 -0.3078  0.1916 -0.5367
 3504TIP3    H110476   5.358   2.208   5.641  0.8951  1.6328  0.7829
 3504TIP3    H210477   5.282   2.086   5.687 -0.1133  0.8026 -2.7873
 3505TIP3   OH210478   3.101   3.186   0.026 -0.1037 -0.1591 -0.2659
 3505TIP3    H110479   3.019   3.229   0.051 -0.7675 -0.8665 -1.1546
 3505TIP3    H210480   3.151   3.254  -0.019  0.5728  0.7695  1.7677
 3506TIP3   OH210481   2.878   5.767   5.216  0.6000  0.3916  0.1603
 3506TIP3    H110482   2.940   5.839   5.208 -1.4160  2.0992 -1.2991
 3506TIP3    H210483   2.859   5.761   5.310  0.2767  2.2691  0.2407
 3507TIP3   OH210484   5.496   0.095   2.053  0.0239 -0.0917 -0.6258
 3507TIP3    H110485   5.463   0.024   2.108 -0.1876  1.1954  0.9686
 3507TIP3    H210486   5.500   0.171   2.111 -0.8686  1.5108 -2.5337
 3508TIP3   OH210487   1.966   2.966   2.394 -0.2251  0.5179  0.2470
 3508TIP3    H110488   1.958   2.946   2.301 -1.6392  1.3677  0.1711
 3508TIP3    H210489   1.895   3.026   2.412  0.2973  0.7062  1.7985
 3509TIP3   OH210490   6.808   5.879   5.114 -0.1238  0.3173  0.2361
 3509TIP3    H110491   6.903   5.870   5.114 -0.0929  0.5704 -0.8137
 3509TIP3    H210492   6.791   5.951   5.174  0.1997 -0.9214  1.8895
 3510TIP3   OH210493   4.893   1.431   1.078  0.1385  0.1750  0.3229
 3510TIP3    H110494   4.919   1.412   0.988 -0.4092  0.9607 -0.0191
 3510TIP3    H210495   4.838   1.357   1.103 -0.2007  0.2373 -0.2103
 3511TIP3   OH210496   6.725   4.416   5.359  0.0522  0.4254  0.2690
 3511TIP3    H110497   6.714   4.427   5.265 -2.9962  1.7913  0.6562
 3511TIP3    H210498   6.638   4.434   5.396  1.4777  1.6087  3.4809
 3512TIP3   OH210499   5.716   6.068   1.086  0.2333  0.2761 -0.0267
 3512TIP3    H110500   5.668   6.121   1.150 -0.0152 -0.2033  0.1924
 3512TIP3    H210501   5.796   6.117   1.069  0.9799 -0.2726  1.7327
 3513TIP3   OH210502   0.900   0.467   1.148  0.3763 -0.3490  0.2840
 3513TIP3    H110503   0.989   0.499   1.168  0.1062  0.6809 -0.0732
 3513TIP3    H210504   0.846   0.546   1.152 -0.6672 -1.0914  1.2801
 3514TIP3   OH210505   0.070   4.000   1.102  0.0146  0.7754 -0.1957
 3514TIP3    H110506   0.080   4.060   1.029  1.4295 -2.4959 -2.9816
 3514TIP3    H210507   0.151   4.010   1.153  0.3601  1.0526 -0.7933
 3515TIP3   OH210508   4.391   4.183   1.238  0.0958  0.7055  0.0526
 3515TIP3    H110509   4.481   4.207   1.262  0.2573 -0.1447  0.3175
 3515TIP3    H210510   4.360   4.132   1.313 -0.2396  0.0982 -0.5006
 3516TIP3   OH210511   6.495  -0.024   4.948 -0.2080  0.1020  0.1228
 3516TIP3    H110512   6.581   0.014   4.929  0.8004 -2.5923 -1.1808
 3516TIP3    H210513   6.467   0.020   5.029  2.3767  1.0512  0.5984
 3517TIP3   OH210514   5.839   3.511   0.082 -0.0063  0.7222  0.3231
 3517TIP3    H110515   5.891   3.433   0.061 -0.8182  0.1993  0.1991
 3517TIP3    H210516   5.750   3.488   0.056 -0.5424  1.1161  1.6941
 3518TIP3   OH210517   4.020   1.816   5.065 -0.1547 -0.2944  0.0333
 3518TIP3    H110518   4.068   1.881   5.116 -1.0914 -0.6767  1.4581
 3518TIP3    H210519   4.078   1.739   5.063 -0.6707 -0.7613  1.7548
 3519TIP3   OH210520   3.839   0.697   4.393 -0.1449  0.1024  0.5015
 3519TIP3    H110521   3.844   0.603   4.412  0.9363  0.0213 -0.0905
 3519TIP3    H210522   3.920   0.716   4.347  0.0353  1.5051  1.3369
 3520TIP3   OH210523   0.770   2.203   3.734 -0.1590  0.0244  0.1958
 3520TIP3    H110524   0.750   2.111   3.750  1.4893 -0.3284  0.4592
 3520TIP3    H210525   0.824   2.202   3.655  1.3091  0.5471  1.1460
 3521TIP3   OH210526   5.432   2.951   4.491 -0.0823  0.4282 -0.2044
 3521TIP3    H110527   5.428   2.985   4.402  2.0019  2.1608  0.2903
 3521TIP3    H210528   5.393   3.020   4.545  1.3120  0.6950  0.4927
 3522TIP3   OH210529   0.417   0.375   1.835  0.7165  0.2888  0.0630
 3522TIP3    H110530   0.494   0.432   1.832  2.1350 -1.2267  2.8789
 3522TIP3    H210531   0.452   0.288   1.855 -1.5871 -1.0260 -1.1314
 3523TIP3   OH210532   4.389   2.669   1.438  0.0224  0.2526 -1.3542
 3523TIP3    H110533   4.425   2.624   1.362 -0.9352 -0.1683 -1.5800
 3523TIP3    H210534   4.326   2.606   1.475  1.7274 -0.2988  0.8480
 3524TIP3   OH210535   4.308   2.019   2.555  0.6933 -0.1057 -0.0870
 3524TIP3    H110536   4.286   1.996   2.465 -0.8370 -1.4768  0.5928
 3524TIP3    H210537   4.396   2.056   2.549  0.7915 -0.5507 -2.0856
 3525TIP3   OH210538   3.077   1.108   2.180 -0.4842  0.0488  0.0919
 3525TIP3    H110539   3.165   1.090   2.214 -1.1784 -0.5504  1.6763
 3525TIP3    H210540   3.077   1.202   2.162  0.0523  0.3546  1.5131
 3526TIP3   OH210541   3.137   1.620   3.384 -0.3738 -0.3196 -0.2418
 3526TIP3    H110542   3.046   1.637   3.359 -1.0158 -0.9576  1.5456
 3526TIP3    H210543   3.178   1.588   3.304 -1.4403  0.9051 -1.3351
 3527TIP3   OH210544   6.506   5.103   5.768  0.0901 -0.4550 -0.0658
 3527TIP3    H110545   6.580   5.096   5.709  0.7136  1.0787  0.4896
 3527TIP3    H210546   6.489   5.197   5.775 -1.2133 -0.7176  0.6570
 3528TIP3   OH210547   6.262   6.356   2.171  0.5861  0.2025  0.2770
 3528TIP3    H110548   6.248   6.440   2.128  0.7716  0.8024  1.3629
 3528TIP3    H210549   6.357   6.346   2.175  0.5785  0.3818  0.9765
 3529TIP3   OH210550   4.056   6.048   5.500 -0.3537 -0.1447  0.7553
 3529TIP3    H110551   4.045   6.139   5.471 -0.0918 -0.4731 -0.3952
 3529TIP3    H210552   4.136   6.049   5.552  0.0197  0.1564  0.1839
 3530TIP3   OH210553   6.457   0.279   5.020 -0.2736 -0.1705  0.1411
 3530TIP3    H110554   6.498   0.360   4.991  0.3866 -0.7930 -0.7218
 3530TIP3    H210555   6.481   0.272   5.113  0.7391 -0.0081 -0.0922
 3531TIP3   OH210556   6.910   6.683   3.333  0.4531  0.2680  0.3686
 3531TIP3    H110557   6.858   6.610   3.366  0.6530 -0.2941 -0.5146
 3531TIP3    H210558   6.860   6.717   3.260  0.4648  0.8891  0.6470
 3532TIP3   OH210559   4.303   0.159   3.377 -0.2335  0.6445  0.2023
 3532TIP3    H110560   4.287   0.125   3.289 -0.3540 -1.8676  1.1090
 3532TIP3    H210561   4.216   0.173   3.413 -0.2023  2.9138 -0.4358
 3533TIP3   OH210562   6.515   4.162   2.986  0.2320  0.0087 -0.3344
 3533TIP3    H110563   6.527   4.218   2.909  1.1832  1.0699  0.5447
 3533TIP3    H210564   6.545   4.216   3.060 -2.5886 -0.2082  1.0968
 3534TIP3   OH210565   4.200   0.012   0.201 -0.8793  0.0634  0.7521
 3534TIP3    H110566   4.254   0.083   0.236 -1.8624  1.2844 -0.1226
 3534TIP3    H210567   4.174   0.042   0.114 -0.1671 -1.9960 -0.2497
 3535TIP3   OH210568   1.862   2.504   5.126 -0.0593  0.7289  0.1621
 3535TIP3    H110569   1.864   2.596   5.100 -1.3032  0.7466  0.1040
 3535TIP3    H210570   1.857   2.456   5.043 -0.0654  0.6224  0.2235
 3536TIP3   OH210571   2.527   0.006   1.782 -0.6342 -0.3802  0.4430
 3536TIP3    H110572   2.513   0.100   1.772  1.7951 -0.1059 -1.4670
 3536TIP3    H210573   2.475  -0.034   1.712 -1.7473 -0.5211  1.3174
 3537TIP3   OH210574   3.016   6.088   0.811 -0.0005 -0.1070  0.2740
 3537TIP3    H110575   3.110   6.072   0.815 -0.1019 -0.4588  1.4783
 3537TIP3    H210576   2.977   6.016   0.860 -0.8708  0.3428  0.2600
 3538TIP3   OH210577   4.986   5.940   4.905  0.0139  0.3238 -0.0341
 3538TIP3    H110578   5.062   5.895   4.867 -0.8364 -2.2421  1.0680
 3538TIP3    H210579   4.912   5.909   4.852 -0.6793 -0.1386  1.1762
 3539TIP3   OH210580   4.669   0.811   1.598  0.6429  0.1362 -0.0227
 3539TIP3    H110581   4.711   0.740   1.550 -0.3248 -0.5871  0.1681
 3539TIP3    H210582   4.657   0.777   1.686 -1.7747 -0.3311 -0.4545
 3540TIP3   OH210583   1.526   0.254   5.067 -0.4006 -0.1188 -0.4214
 3540TIP3    H110584   1.497   0.163   5.073 -1.4869  0.0316 -2.3215
 3540TIP3    H210585   1.513   0.276   4.974  2.3345  1.1723 -0.5840
 3541TIP3   OH210586   2.013   1.894   3.816  0.3843 -0.0296 -0.0388
 3541TIP3    H110587   2.098   1.918   3.853  0.3775  1.6495 -1.0096
 3541TIP3    H210588   1.969   1.846   3.886  1.9745 -0.6220  0.6104
 3542TIP3   OH210589   6.681   1.765   3.177  0.2593 -0.9340 -0.1610
 3542TIP3    H110590   6.767   1.725   3.186  1.5150  1.6098  0.0948
 3542TIP3    H210591   6.621   1.691   3.166  2.0312 -2.9778  2.6113
 3543TIP3   OH210592   2.723   1.272   3.547  0.3783 -0.2865  0.3418
 3543TIP3    H110593   2.720   1.231   3.634  0.0737  0.1479  0.5393
 3543TIP3    H210594   2.645   1.327   3.544  0.6147  0.0321 -0.0442
 3544TIP3   OH210595   0.949   4.663   3.563 -0.0188  0.0146  0.6455
 3544TIP3    H110596   1.006   4.686   3.637  0.3206  0.6368  0.1961
 3544TIP3    H210597   0.997   4.596   3.515 -0.8890 -1.5191  1.8019
 3545TIP3   OH210598   6.515   6.475   4.841 -0.1450 -0.9496 -0.7392
 3545TIP3    H110599   6.567   6.473   4.921 -0.8839 -0.8234 -0.2411
 3545TIP3    H210600   6.577   6.453   4.771  1.0850  1.2470 -0.4522
 3546TIP3   OH210601   5.193   3.700   4.583 -0.4132  0.0734  0.5670
 3546TIP3    H110602   5.169   3.609   4.568 -1.7266  0.5681 -0.5502
 3546TIP3    H210603   5.254   3.721   4.512 -1.7372  0.6326 -0.4372
 3547TIP3   OH210604   6.289   5.451   4.080  0.2006  0.1467  0.1710
 3547TIP3    H110605   6.269   5.373   4.132  0.9957 -0.6729 -0.7086
 3547TIP3    H210606   6.356   5.498   4.130 -0.2795  0.2690  0.7034
 3548TIP3   OH210607   4.937   5.686   2.667 -0.5075 -0.0559 -0.0130
 3548TIP3    H110608   4.921   5.677   2.761  0.8144  1.5500  0.4146
 3548TIP3    H210609   4.899   5.772   2.646  0.3065  0.1492 -0.6711
 3549TIP3   OH210610   0.036   4.447   5.520 -0.7115  0.1556  0.3361
 3549TIP3    H110611   0.007   4.404   5.601  2.2163 -1.6541  0.5636
 3549TIP3    H210612   0.052   4.538   5.546 -0.2468 -0.2901  1.7088
 3550TIP3   OH210613   1.427   0.437   3.611 -0.4072  0.3785 -0.0106
 3550TIP3    H110614   1.439   0.344   3.592 -0.1262  0.1782  1.0687
 3550TIP3    H210615   1.498   0.480   3.564  1.5685 -0.3013  2.1345
 3551TIP3   OH210616   2.989   6.346   5.217 -0.6358 -0.1937  0.3392
 3551TIP3    H110617   2.930   6.296   5.273  2.2827 -0.5019  3.5255
 3551TIP3    H210618   3.049   6.388   5.278  1.4873  1.3193 -2.5522
 3552TIP3   OH210619   3.145   2.381   1.403  0.7501  0.2724  0.1136
 3552TIP3    H110620   3.101   2.321   1.344  1.0442 -0.3881  0.5607
 3552TIP3    H210621   3.154   2.462   1.353 -0.3832  0.2074 -0.2036
 3553TIP3   OH210622   0.124   5.376   2.730 -0.0931 -0.2481 -0.0121
 3553TIP3    H110623   0.101   5.310   2.796  0.4700  0.4859  0.9481
 3553TIP3    H210624   0.195   5.426   2.771  1.2636 -0.6645 -1.7317
 3554TIP3   OH210625   3.166   3.223   2.766  0.4105 -0.2214  0.6182
 3554TIP3    H110626   3.164   3.128   2.758  0.0321 -0.2078  0.5439
 3554TIP3    H210627   3.113   3.243   2.843  1.2164 -0.1232  1.1592
 3555TIP3   OH210628   5.309   6.427   3.648 -0.1935 -0.7979 -0.1392
 3555TIP3    H110629   5.306   6.496   3.714  1.4269 -2.1844  1.5080
 3555TIP3    H210630   5.376   6.456   3.586 -0.3145 -0.3887 -0.0838
 3556TIP3   OH210631   7.051   1.907   3.961 -0.2060 -0.1429 -0.1346
 3556TIP3    H110632   7.007   1.984   3.996 -0.5645  0.6832 -2.2169
 3556TIP3    H210633   6.987   1.837   3.970  0.7539 -0.7662  3.4260
 3557TIP3   OH210634   5.776   2.204   2.328 -0.0668  0.3037 -0.2731
 3557TIP3    H110635   5.795   2.293   2.299 -1.4021  0.8529  0.4642
 3557TIP3    H210636   5.858   2.172   2.364  0.2199  1.5302  0.1943
 3558TIP3   OH210637   4.021   0.446   1.314 -0.3671 -0.0997  0.4912
 3558TIP3    H110638   4.102   0.413   1.275 -0.5825 -0.4672  0.3581
 3558TIP3    H210639   3.975   0.368   1.344 -1.3858 -0.0160 -0.7923
 3559TIP3   OH210640   3.387   5.387   4.421  0.5309 -0.4780  0.3042
 3559TIP3    H110641   3.342   5.313   4.380  1.6519 -0.0026 -1.9652
 3559TIP3    H210642   3.343   5.464   4.385  1.3692 -0.0346  0.2008
 3560TIP3   OH210643   3.768   0.434   3.423  0.4694  0.1272  0.1864
 3560TIP3    H110644   3.743   0.520   3.456  0.1145 -1.0053  3.1259
 3560TIP3    H210645   3.862   0.429   3.436  0.0354 -1.3071  3.9748
 3561TIP3   OH210646   4.432   2.260   3.400 -0.4501  0.1924  0.2629
 3561TIP3    H110647   4.405   2.177   3.438 -1.4881  0.0782 -0.6707
 3561TIP3    H210648   4.353   2.313   3.399 -0.3918  0.3091 -1.3787
 3562TIP3   OH210649   5.630   0.895   0.224 -1.0791  0.0667  0.1432
 3562TIP3    H110650   5.565   0.850   0.169 -0.5414  1.2478 -1.5513
 3562TIP3    H210651   5.709   0.841   0.217 -1.0368  0.1690 -0.1869
 3563TIP3   OH210652   3.997   5.019   2.353  0.1104  0.4129  0.5994
 3563TIP3    H110653   4.063   5.079   2.318  0.8585 -1.2122 -0.9236
 3563TIP3    H210654   4.047   4.944   2.385 -0.9017 -0.2003  0.7838
 3564TIP3   OH210655   7.059   2.261   2.132 -0.0348  0.6466 -0.0073
 3564TIP3    H110656   7.127   2.239   2.068 -0.2830 -1.1332  0.2748
 3564TIP3    H210657   7.042   2.354   2.119  2.3163  1.1085 -0.2135
 3565TIP3   OH210658   0.394   2.041   5.698  0.2436  0.1530  0.3080
 3565TIP3    H110659   0.378   1.977   5.767 -0.2724 -0.3334 -0.2528
 3565TIP3    H210660   0.358   2.001   5.619  2.6064 -0.1681 -0.6856
 3566TIP3   OH210661   3.746   6.201   2.160 -0.3847  0.0827  0.4084
 3566TIP3    H110662   3.710   6.200   2.249  1.0627 -1.1935  1.0247
 3566TIP3    H210663   3.682   6.153   2.108 -2.0933  2.2730  0.3417
 3567TIP3   OH210664   6.661   0.368   0.721 -0.8841  0.2501  0.5904
 3567TIP3    H110665   6.648   0.401   0.632 -2.4218  0.4877  0.8720
 3567TIP3    H210666   6.698   0.280   0.709  0.2745  0.8204 -0.2280
 3568TIP3   OH210667   0.987   5.247   0.581 -0.4864  0.3802 -0.0388
 3568TIP3    H110668   1.030   5.329   0.605  0.5886  0.3066 -1.6323
 3568TIP3    H210669   1.043   5.179   0.618 -1.3322  0.3062  1.2067
 3569TIP3   OH210670   4.697   2.350   2.120 -0.0530 -0.1621 -0.1686
 3569TIP3    H110671   4.664   2.420   2.176 -0.9683 -1.0182  0.4065
 3569TIP3    H210672   4.791   2.348   2.137  0.1319  1.4814 -0.8534
 3570TIP3   OH210673   5.113   2.083   4.256  0.4719  0.0780 -0.3516
 3570TIP3    H110674   5.072   2.007   4.215  1.3347 -1.6020  1.6779
 3570TIP3    H210675   5.049   2.154   4.246 -0.3479 -0.8735 -2.3134
 3571TIP3   OH210676   2.793   5.958   0.961 -0.3397  0.3856  0.1393
 3571TIP3    H110677   2.803   5.967   1.055 -2.2500  0.8505  0.3546
 3571TIP3    H210678   2.699   5.969   0.946  0.0960  2.0248 -1.9927
 3572TIP3   OH210679   1.435   3.921   5.517 -0.4513 -0.0841 -0.3520
 3572TIP3    H110680   1.341   3.936   5.517 -0.2284  1.6290 -1.9884
 3572TIP3    H210681   1.463   3.944   5.606 -1.2830  1.6124 -0.4970
 3573TIP3   OH210682   1.892   3.404   2.819 -0.6021 -0.1006 -0.0926
 3573TIP3    H110683   1.951   3.431   2.890 -1.2542 -1.2987  0.9436
 3573TIP3    H210684   1.811   3.452   2.835 -0.2932  0.7100 -0.8786
 3574TIP3   OH210685   5.982   6.677   1.919 -0.4094  0.1850  0.2825
 3574TIP3    H110686   5.976   6.734   1.842 -0.4033 -0.4734 -0.2178
 3574TIP3    H210687   5.900   6.691   1.966 -0.9552 -0.3327 -0.5057
 3575TIP3   OH210688   6.107   3.583   1.373  0.2905 -0.1456 -0.4931
 3575TIP3    H110689   6.197   3.604   1.350 -0.3128  2.9147 -0.4243
 3575TIP3    H210690   6.054   3.620   1.303 -0.9585 -2.7900 -1.0731
 3576TIP3   OH210691   1.631   5.831   3.516  0.3646 -0.2969  0.7035
 3576TIP3    H110692   1.542   5.797   3.512  0.2817 -0.0851  0.7173
 3576TIP3    H210693   1.626   5.916   3.472  0.1274  0.6221  2.4261
 3577TIP3   OH210694   4.281   3.681   3.924  0.0610  0.2855 -0.3021
 3577TIP3    H110695   4.206   3.740   3.934  0.3340  0.7252 -0.7864
 3577TIP3    H210696   4.243   3.593   3.923 -0.2796  0.3883  1.2607
 3578TIP3   OH210697   3.662   3.877   1.747  0.0822 -0.3364  0.0478
 3578TIP3    H110698   3.607   3.928   1.807  0.2519  0.2366 -0.2698
 3578TIP3    H210699   3.610   3.868   1.668 -0.7014 -2.3011  0.7428
 3579TIP3   OH210700   4.124   3.491   1.670 -0.0967  0.3404  0.9404
 3579TIP3    H110701   4.185   3.470   1.599  1.2420 -1.0387  2.4197
 3579TIP3    H210702   4.130   3.586   1.680  1.8112  0.2415  1.0253
 3580TIP3   OH210703   3.608   6.616   3.202  0.3171 -0.1820  0.2359
 3580TIP3    H110704   3.638   6.553   3.136 -0.7128  0.7198 -1.1715
 3580TIP3    H210705   3.541   6.570   3.252  0.7885 -0.7406  0.3551
 3581TIP3   OH210706   0.688   6.598   5.347  0.1245 -0.1651 -0.0869
 3581TIP3    H110707   0.714   6.579   5.256  0.5209  1.4008 -0.3288
 3581TIP3    H210708   0.733   6.532   5.399 -0.5934 -1.4748 -1.0691
 3582TIP3   OH210709   5.954   5.196   1.681 -0.1775  0.1635 -0.1983
 3582TIP3    H110710   5.906   5.169   1.759 -0.3763 -0.2608 -0.4662
 3582TIP3    H210711   5.898   5.262   1.640 -0.2676  0.0800 -0.2088
 3583TIP3   OH210712   1.898   6.156   3.331  0.1251 -0.2769  0.3408
 3583TIP3    H110713   1.961   6.100   3.377 -0.0981 -1.8869 -1.2281
 3583TIP3    H210714   1.948   6.234   3.308  0.4787  0.1764  2.4442
 3584TIP3   OH210715   3.901   2.627   0.077  0.1495 -0.1060  0.3311
 3584TIP3    H110716   3.850   2.673   0.144  0.7709  0.6011  0.3296
 3584TIP3    H210717   3.893   2.535   0.100 -2.1812 -0.1544 -0.3912
 3585TIP3   OH210718   1.015   5.170   3.824  0.3833  0.7181  0.2308
 3585TIP3    H110719   1.049   5.155   3.736 -0.5409 -0.8474  0.0896
 3585TIP3    H210720   1.057   5.103   3.878  0.4496  1.2492  0.8526
 3586TIP3   OH210721   3.014   3.963   1.838  0.0594  0.2761 -0.2797
 3586TIP3    H110722   3.037   3.971   1.746  2.2805 -0.2538  0.1514
 3586TIP3    H210723   3.069   4.029   1.882  0.1036 -0.4382  0.7789
 3587TIP3   OH210724   4.232   4.171   4.415  0.3705 -0.3165  0.1473
 3587TIP3    H110725   4.218   4.126   4.498 -1.2394  0.9691  0.6370
 3587TIP3    H210726   4.311   4.132   4.379 -0.3444 -2.7293  1.0279
 3588TIP3   OH210727   3.727   1.560   3.545 -0.1542 -0.3719  0.2666
 3588TIP3    H110728   3.654   1.574   3.485 -0.1707 -0.7225  0.2042
 3588TIP3    H210729   3.802   1.603   3.503 -0.4427  0.4721  0.5929
 3589TIP3   OH210730   3.252   5.056   3.236 -0.3417 -0.3610 -0.0226
 3589TIP3    H110731   3.290   4.976   3.273  2.2383  1.0850  0.6877
 3589TIP3    H210732   3.320   5.122   3.247 -1.7908  1.5949 -1.9887
 3590TIP3   OH210733   1.127   2.067   0.718  0.1381 -0.0335  0.3136
 3590TIP3    H110734   1.218   2.076   0.746 -0.2920  1.8310  1.3597
 3590TIP3    H210735   1.091   1.999   0.775  0.4798  0.4375  1.1202
 3591TIP3   OH210736   2.999   3.109   1.542 -0.0935  0.6489  0.5128
 3591TIP3    H110737   3.026   3.111   1.450 -4.4150  0.4530 -0.9658
 3591TIP3    H210738   3.068   3.156   1.589  1.2207  2.7100 -3.1255
 3592TIP3   OH210739   1.639   1.458   5.674 -0.2361  0.1629  0.2319
 3592TIP3    H110740   1.719   1.450   5.622 -0.5413  0.4172 -0.2790
 3592TIP3    H210741   1.668   1.492   5.759  0.0678  1.2845 -0.3088
 3593TIP3   OH210742   6.264   4.739   5.864  0.1799  0.5773 -0.0101
 3593TIP3    H110743   6.270   4.685   5.785  0.6277 -0.5893  0.7794
 3593TIP3    H210744   6.349   4.729   5.907 -1.0967 -1.6565  2.3437
 3594TIP3   OH210745   2.269   3.471   5.480  0.8112 -0.3068 -0.1826
 3594TIP3    H110746   2.328   3.534   5.522 -0.2283  0.9750 -0.5727
 3594TIP3    H210747   2.189   3.474   5.532  0.3667 -0.5063 -0.8325
 3595TIP3   OH210748   2.950   0.680   2.910 -0.2977 -0.2414 -0.0755
 3595TIP3    H110749   2.949   0.763   2.958  3.1254  0.0437 -0.2741
 3595TIP3    H210750   2.882   0.691   2.843 -0.7250  1.9126  0.6229
 3596TIP3   OH210751   6.704   3.495   2.575  0.4620  0.4580 -0.1497
 3596TIP3    H110752   6.799   3.509   2.584  0.9312 -0.7894 -2.4641
 3596TIP3    H210753   6.676   3.564   2.515  0.2078 -0.1441 -0.7219
 3597TIP3   OH210754   5.037   3.207   4.477  0.3405 -0.0050 -0.1031
 3597TIP3    H110755   5.053   3.208   4.383  1.1874 -0.9088  0.0190
 3597TIP3    H210756   5.049   3.116   4.503 -0.3124  0.1588  0.8146
 3598TIP3   OH210757   6.615   5.000   3.791 -0.6960  0.2530  0.1567
 3598TIP3    H110758   6.704   5.018   3.760 -0.5513  0.9206  0.9209
 3598TIP3    H210759   6.628   4.958   3.876 -1.0901 -1.3474 -0.5504
 3599TIP3   OH210760   2.071   5.733   1.484 -0.4872  0.0290 -0.3858
 3599TIP3    H110761   2.095   5.641   1.478  0.6626  0.1966  1.0151
 3599TIP3    H210762   1.976   5.734   1.478 -0.5344 -1.2869 -0.0561
 3600TIP3   OH210763   1.866   3.595   4.544 -0.3442  0.3016  0.2492
 3600TIP3    H110764   1.944   3.618   4.495 -0.1284 -1.2396 -0.1886
 3600TIP3    H210765   1.876   3.502   4.563  0.2565  1.0368  4.4537
 3601TIP3   OH210766   0.252   3.873   5.114 -0.4273 -0.5812  0.0787
 3601TIP3    H110767   0.262   3.960   5.075  1.1124 -1.2740 -1.1869
 3601TIP3    H210768   0.161   3.872   5.146 -0.5806  1.3569 -0.1545
 3602TIP3   OH210769   2.936   2.823   1.484  0.3585 -0.0737 -0.1983
 3602TIP3    H110770   2.966   2.910   1.509  0.2085 -0.4934  1.5452
 3602TIP3    H210771   2.848   2.817   1.522  1.1422 -1.7082  1.4429
 3603TIP3   OH210772   0.719   4.720   1.410 -0.3140 -0.3936 -0.1696
 3603TIP3    H110773   0.791   4.749   1.354 -2.3159 -2.5785 -4.3115
 3603TIP3    H210774   0.648   4.781   1.392 -0.7086 -0.5598  0.7751
 3604TIP3   OH210775   5.396   5.400   4.453  0.0566  0.2384 -0.0567
 3604TIP3    H110776   5.408   5.322   4.508  0.7130 -0.1502 -0.7296
 3604TIP3    H210777   5.447   5.381   4.375 -1.3623  0.5131 -1.0766
 3605TIP3   OH210778   1.643   5.331   3.594  0.2299 -0.1979 -0.0166
 3605TIP3    H110779   1.555   5.366   3.583  0.1849 -0.0173  0.8182
 3605TIP3    H210780   1.637   5.276   3.673  1.1378  0.8086  0.7930
 3606TIP3   OH210781   0.375   4.715   5.250  0.0309  0.0629  0.1664
 3606TIP3    H110782   0.459   4.708   5.205 -0.4764  0.6429 -0.8838
 3606TIP3    H210783   0.316   4.659   5.200  0.2028 -1.9371  2.0194
 3607TIP3   OH210784   2.793   5.225   5.723  0.0638  0.6254  0.2589
 3607TIP3    H110785   2.841   5.163   5.668  2.0406  2.3933 -0.1974
 3607TIP3    H210786   2.702   5.199   5.716  0.6585 -1.3444 -1.0044
 3608TIP3   OH210787   7.074   5.364   0.342 -0.0230 -0.2782 -0.4481
 3608TIP3    H110788   7.061   5.270   0.348 -0.2789 -0.1607  1.7133
 3608TIP3    H210789   7.162   5.378   0.377 -0.2639  0.3396 -0.0762
 3609TIP3   OH210790   3.591   4.196   2.905 -0.3145  0.0101 -0.0394
 3609TIP3    H110791   3.575   4.107   2.934  0.6217 -0.2914 -0.4197
 3609TIP3    H210792   3.538   4.206   2.826 -0.0678 -0.3593 -0.2512
 3610TIP3   OH210793   1.284   5.674   1.493  0.2167 -0.3583 -0.2709
 3610TIP3    H110794   1.264   5.724   1.573  2.4469  0.5333 -0.2048
 3610TIP3    H210795   1.210   5.692   1.435 -0.8955 -0.0993  1.1574
 3611TIP3   OH210796   5.043   3.403   0.483  0.3939  0.4921 -0.0036
 3611TIP3    H110797   4.974   3.391   0.417  0.2056  0.2456  0.2358
 3611TIP3    H210798   5.009   3.360   0.562 -0.1373  2.2242  0.7709
 3612TIP3   OH210799   5.249   6.623   5.127  0.5122 -0.1776  0.2335
 3612TIP3    H110800   5.199   6.553   5.168 -1.0253  0.8154  0.1212
 3612TIP3    H210801   5.243   6.606   5.033  0.9288 -0.4071  0.2460
 3613TIP3   OH210802   1.760   4.204   1.427  0.5894 -0.0197  0.2235
 3613TIP3    H110803   1.785   4.203   1.334  1.4207  0.8572  0.4237
 3613TIP3    H210804   1.820   4.266   1.467 -1.2016  1.3391  0.9478
 3614TIP3   OH210805   5.350   5.824   5.647 -0.5089  0.6121  0.2813
 3614TIP3    H110806   5.358   5.738   5.687  1.5066  1.0356  0.8689
 3614TIP3    H210807   5.349   5.807   5.553 -0.0075 -0.0378  0.3915
 3615TIP3   OH210808   6.592   1.914   1.376 -0.2556 -0.4476 -0.1240
 3615TIP3    H110809   6.646   1.912   1.297 -2.0992  0.0564 -1.4351
 3615TIP3    H210810   6.656   1.916   1.448  1.4599 -0.2525 -1.5871
 3616TIP3   OH210811   4.129   2.917   0.707 -0.8577  0.9525 -0.0123
 3616TIP3    H110812   4.211   2.880   0.739 -0.6790 -0.2866 -1.7530
 3616TIP3    H210813   4.121   3.000   0.753  0.7569  0.5506  1.0897
 3617TIP3   OH210814   2.043   5.209   4.187  0.1805 -0.2982 -0.6457
 3617TIP3    H110815   2.093   5.171   4.260  1.5193  1.5493 -0.5340
 3617TIP3    H210816   2.092   5.182   4.109 -0.4962 -1.1480 -0.7951
 3618TIP3   OH210817   3.298   6.485   2.765  0.4463 -0.9766 -0.2329
 3618TIP3    H110818   3.329   6.497   2.675 -0.9484  1.4766 -0.4829
 3618TIP3    H210819   3.246   6.405   2.761 -0.3852 -0.4132 -1.8874
 3619TIP3   OH210820   1.456   5.073   0.925  0.7553 -0.0352  0.7274
 3619TIP3    H110821   1.511   5.009   0.969  1.4260  0.4240  0.5729
 3619TIP3    H210822   1.500   5.090   0.842  0.0242 -0.1585  0.2981
 3620TIP3   OH210823   0.210   3.536   3.704  0.0076 -0.4999 -0.1404
 3620TIP3    H110824   0.236   3.601   3.769  2.3367  1.2207 -2.5548
 3620TIP3    H210825   0.254   3.455   3.733 -0.0237 -0.1094  1.0534
 3621TIP3   OH210826   6.793   5.295   0.346  0.0201  0.3278 -0.2835
 3621TIP3    H110827   6.698   5.306   0.359 -0.0336 -0.4609  0.0408
 3621TIP3    H210828   6.820   5.236   0.416 -0.1625 -3.5543 -3.1257
 3622TIP3   OH210829   4.786   2.745   0.409 -0.1300  0.4477 -0.3119
 3622TIP3    H110830   4.782   2.675   0.473  0.8412 -0.9815 -1.7344
 3622TIP3    H210831   4.695   2.769   0.393 -0.3937  0.6090  1.3313
 3623TIP3   OH210832   5.654   3.952   4.252 -0.1633  0.2561 -0.1683
 3623TIP3    H110833   5.694   3.920   4.332 -0.2479 -0.5896 -0.4504
 3623TIP3    H210834   5.575   3.899   4.241  0.4204 -0.4271 -1.3748
 3624TIP3   OH210835   0.381   1.585   3.452 -0.2759 -0.7893 -0.0646
 3624TIP3    H110836   0.441   1.645   3.408 -0.7501 -0.5418 -0.3832
 3624TIP3    H210837   0.367   1.625   3.538  0.1573 -0.9470  0.0846
 3625TIP3   OH210838   1.281   4.402   1.563 -0.0023 -0.6704 -0.5387
 3625TIP3    H110839   1.341   4.461   1.519  2.0050 -0.4557  2.1921
 3625TIP3    H210840   1.219   4.460   1.609 -0.4294 -0.8235 -0.9092
 3626TIP3   OH210841   2.326   1.430   2.461  0.2374 -0.5365  0.1260
 3626TIP3    H110842   2.350   1.388   2.544  3.0090  1.6120  0.5430
 3626TIP3    H210843   2.385   1.392   2.397  0.2670  0.0975 -0.2248
 3627TIP3   OH210844   4.450   1.284   2.859  0.0074  0.2340 -0.0443
 3627TIP3    H110845   4.502   1.339   2.801 -0.2499 -0.8204 -1.3099
 3627TIP3    H210846   4.505   1.207   2.874 -0.3435  0.0474  0.2997
 3628TIP3   OH210847   2.051   1.464   0.395 -0.0956  0.2413 -0.2812
 3628TIP3    H110848   2.079   1.467   0.303 -0.9046  1.6278 -0.5174
 3628TIP3    H210849   1.990   1.538   0.403  1.5574  1.4971  1.8857
 3629TIP3   OH210850   7.091   5.005   4.349  0.1871  0.4054  0.2528
 3629TIP3    H110851   7.170   4.966   4.386 -0.3988 -0.1144  1.0035
 3629TIP3    H210852   7.117   5.094   4.325  0.9113  0.3602  0.8208
 3630TIP3   OH210853   3.618   2.921   1.895  0.4015  0.3113 -0.1267
 3630TIP3    H110854   3.557   2.993   1.878 -0.7965 -0.5178  0.5000
 3630TIP3    H210855   3.659   2.904   1.810  0.7840  1.7677 -0.2701
 3631TIP3   OH210856   1.291   1.265   1.999  0.2398 -0.1649 -0.2831
 3631TIP3    H110857   1.279   1.358   1.981  0.8818  0.0494  0.3402
 3631TIP3    H210858   1.385   1.251   1.990  0.0969 -0.8590 -0.8187
 3632TIP3   OH210859   2.138   5.425   2.391 -0.1129 -0.2963 -0.5296
 3632TIP3    H110860   2.196   5.405   2.465  2.1466 -1.3778 -2.4572
 3632TIP3    H210861   2.068   5.360   2.397 -0.1473 -0.1707  0.7950
 3633TIP3   OH210862   4.685   2.535   4.503 -0.3261  0.2406  0.5956
 3633TIP3    H110863   4.755   2.599   4.488 -0.3357  0.3904  1.1462
 3633TIP3    H210864   4.610   2.588   4.532 -1.4757  0.3638 -2.2815
 3634TIP3   OH210865   1.543   6.092   4.550 -0.6381 -0.6671 -0.2390
 3634TIP3    H110866   1.525   6.057   4.463 -1.0995 -0.8914 -0.0538
 3634TIP3    H210867   1.513   6.183   4.546 -0.2129 -0.5335 -0.4602
 3635TIP3   OH210868   1.179   3.618   3.554 -0.0468 -0.3816 -0.0963
 3635TIP3    H110869   1.189   3.538   3.503 -1.1763  0.3644 -1.5502
 3635TIP3    H210870   1.267   3.636   3.587  0.8238 -0.7281 -2.0608
 3636TIP3   OH210871   1.913   5.792   2.837 -0.0970 -0.7200  0.2544
 3636TIP3    H110872   1.996   5.753   2.865  0.3904 -0.6838 -1.0474
 3636TIP3    H210873   1.885   5.738   2.763 -0.2217  0.4332 -0.5712
 3637TIP3   OH210874   2.376   3.132   2.093 -0.3256  0.6297 -0.2559
 3637TIP3    H110875   2.319   3.144   2.017 -1.8150  0.5014  0.7914
 3637TIP3    H210876   2.330   3.070   2.148 -0.7042  2.7889  2.0727
 3638TIP3   OH210877   6.167   1.284   5.693  0.1982  0.8888 -0.0798
 3638TIP3    H110878   6.202   1.211   5.643 -0.4627  1.1230 -0.9099
 3638TIP3    H210879   6.236   1.350   5.693  0.0314  1.0715 -1.0934
 3639TIP3   OH210880   1.619   4.515   3.428 -0.0468  0.1126 -0.3409
 3639TIP3    H110881   1.649   4.507   3.338  2.7401  1.5421  0.3427
 3639TIP3    H210882   1.624   4.609   3.447  0.4639 -0.2440  1.5686
 3640TIP3   OH210883   6.381   6.408   5.698 -0.1556  1.4496  0.9087
 3640TIP3    H110884   6.301   6.357   5.681  0.8844 -0.1041  0.4819
 3640TIP3    H210885   6.391   6.405   5.793  1.6529 -2.1188  0.7755
 3641TIP3   OH210886   7.137   6.106   3.677  0.6107  0.3187  0.4318
 3641TIP3    H110887   7.142   6.056   3.759  0.7603 -2.0533 -0.9113
 3641TIP3    H210888   7.209   6.070   3.624  0.2748  1.5199 -0.8759
 3642TIP3   OH210889   4.753   3.532   0.758 -0.6319  0.9668  0.2127
 3642TIP3    H110890   4.743   3.439   0.735 -0.4797  0.7414  1.0377
 3642TIP3    H210891   4.804   3.569   0.686  0.7879  0.0316  0.6986
 3643TIP3   OH210892   3.920   1.734   4.510 -0.0309 -0.2037  0.7049
 3643TIP3    H110893   3.828   1.732   4.484 -0.1717 -1.8250  1.2614
 3643TIP3    H210894   3.921   1.789   4.589 -0.2877  0.9595 -0.0817
 3644TIP3   OH210895   6.414   4.116   4.364 -0.0542 -0.3888 -0.1924
 3644TIP3    H110896   6.489   4.175   4.350  0.7364 -1.4211 -0.4925
 3644TIP3    H210897   6.342   4.174   4.386  1.0765  0.5771  1.1548
 3645TIP3   OH210898   1.670   1.953   0.797  0.7961 -0.5013 -0.3455
 3645TIP3    H110899   1.754   1.978   0.758  0.5885  0.0860 -0.4245
 3645TIP3    H210900   1.693   1.888   0.863  1.4728  0.6515  0.5957
 3646TIP3   OH210901   1.371   0.310   0.338 -0.2525  0.0602 -0.7621
 3646TIP3    H110902   1.307   0.241   0.322  0.3928 -1.1494  1.3609
 3646TIP3    H210903   1.440   0.266   0.388  1.1241  1.8366 -1.0070
 3647TIP3   OH210904   4.045   4.161   1.813 -0.0941  0.4874 -0.5448
 3647TIP3    H110905   4.138   4.181   1.825 -0.2861  1.9426 -1.3343
 3647TIP3    H210906   4.012   4.150   1.902  0.4082  2.0443 -0.1338
 3648TIP3   OH210907   5.534   2.687  -0.016 -0.0681 -0.6121 -0.0511
 3648TIP3    H110908   5.491   2.764   0.022  0.7591 -0.4658  0.6150
 3648TIP3    H210909   5.519   2.617   0.048  0.3131 -0.6662 -0.0195
 3649TIP3   OH210910   1.161   4.444   0.347  0.7638  0.1049 -0.5114
 3649TIP3    H110911   1.140   4.425   0.256  0.1154 -1.8927  0.0172
 3649TIP3    H210912   1.085   4.414   0.396  1.3211  0.6609  0.7429
 3650TIP3   OH210913   4.328   3.669   1.965 -0.0972 -0.3355  0.0781
 3650TIP3    H110914   4.417   3.638   1.980  0.8993  1.7082 -1.1399
 3650TIP3    H210915   4.319   3.744   2.025 -0.8075 -0.2207 -0.1664
 3651TIP3   OH210916   2.330   5.361   4.156 -0.5684  0.4318 -0.1860
 3651TIP3    H110917   2.312   5.270   4.129 -1.1569 -0.2676  2.2812
 3651TIP3    H210918   2.275   5.374   4.233  1.6221  1.9103  1.2409
 3652TIP3   OH210919   2.889   2.577   4.964  0.3544 -0.0218 -0.3395
 3652TIP3    H110920   2.807   2.561   4.917  0.5533 -0.9006 -0.4071
 3652TIP3    H210921   2.958   2.549   4.903  0.6168 -1.2052  0.4459
 3653TIP3   OH210922   4.442   5.480   2.797  0.6247  0.4029  0.3539
 3653TIP3    H110923   4.489   5.430   2.864  1.8060  0.1151 -0.6512
 3653TIP3    H210924   4.509   5.535   2.757 -0.1667  0.9453 -0.2415
 3654TIP3   OH210925   0.036   6.086   2.055 -0.2851  0.2641 -0.3942
 3654TIP3    H110926   0.017   6.008   2.001  0.2918 -0.1990  0.0644
 3654TIP3    H210927  -0.003   6.158   2.006  0.6340 -0.0786 -1.6965
 3655TIP3   OH210928   1.131   5.794   5.718  0.1275 -0.6362 -0.5805
 3655TIP3    H110929   1.039   5.768   5.734 -0.7226  2.8239  0.9733
 3655TIP3    H210930   1.142   5.786   5.624 -1.9353 -0.7371 -0.8591
 3656TIP3   OH210931   0.704   6.387   0.566 -0.6722 -0.3743  0.2776
 3656TIP3    H110932   0.675   6.464   0.518  0.3167 -0.1986 -0.0624
 3656TIP3    H210933   0.632   6.324   0.556 -0.8633 -0.0260 -0.6944
 3657TIP3   OH210934   1.129   6.722   0.049 -0.2405 -0.0412  0.4543
 3657TIP3    H110935   1.042   6.757   0.069 -0.5634 -0.1538 -0.6411
 3657TIP3    H210936   1.169   6.791  -0.005  0.6122  0.2993  1.5062
 3658TIP3   OH210937   3.679   6.090   0.461  0.6658  0.1118 -0.0001
 3658TIP3    H110938   3.669   6.159   0.528 -0.3746 -1.4173  1.5071
 3658TIP3    H210939   3.653   6.010   0.506 -0.8224 -0.8994 -2.4862
 3659TIP3   OH210940   2.483   2.254   4.272 -0.5188  0.2535 -0.3340
 3659TIP3    H110941   2.462   2.347   4.272  0.7384  0.5570  0.1620
 3659TIP3    H210942   2.412   2.213   4.322 -0.1495  1.1979  1.0208
 3660TIP3   OH210943   6.323   5.915   3.143 -0.1826  0.5113  0.2797
 3660TIP3    H110944   6.257   5.846   3.148  0.7661 -0.5374 -1.0956
 3660TIP3    H210945   6.406   5.869   3.130  0.8093  1.8198  1.5791
 3661TIP3   OH210946   0.864   6.204   2.178 -0.2397  0.1669 -0.1941
 3661TIP3    H110947   0.780   6.215   2.223  0.5287  1.0507  1.0901
 3661TIP3    H210948   0.840   6.187   2.087 -1.8140  1.7118 -0.1297
 3662TIP3   OH210949   5.659   4.972   2.764 -0.2433 -0.3968 -0.3624
 3662TIP3    H110950   5.715   5.037   2.805  1.0679 -1.6738 -0.0477
 3662TIP3    H210951   5.613   4.929   2.836  1.3834 -2.0258 -0.2360
 3663TIP3   OH210952   3.268   5.816   2.938 -0.5525 -0.6090  0.5583
 3663TIP3    H110953   3.179   5.798   2.968 -1.3849 -1.2979 -2.0762
 3663TIP3    H210954   3.294   5.738   2.890  1.4815 -0.3831  1.1879
 3664TIP3   OH210955   3.086   5.536   3.929  0.2256  0.1635  0.4512
 3664TIP3    H110956   3.069   5.443   3.947  1.8351  0.1189  1.9922
 3664TIP3    H210957   3.052   5.582   4.005 -0.7430  0.8770 -0.4024
 3665TIP3   OH210958   2.784   2.857   3.956  0.1550  0.3039 -0.2156
 3665TIP3    H110959   2.766   2.771   3.993  1.4912  0.2019  0.2656
 3665TIP3    H210960   2.880   2.860   3.949  0.0394  0.9771 -2.0844
 3666TIP3   OH210961   4.046   1.466   0.791  0.5900 -0.1713 -0.4375
 3666TIP3    H110962   4.128   1.506   0.762  0.7665  0.2901  0.6576
 3666TIP3    H210963   4.073   1.398   0.853  0.2426 -1.4553 -1.6225
 3667TIP3   OH210964   0.971   5.900   1.928  0.3992  0.4738  0.4893
 3667TIP3    H110965   0.945   5.992   1.933  2.7272  1.3191 -1.2461
 3667TIP3    H210966   0.896   5.856   1.885 -0.8241  1.4644  1.5415
 3668TIP3   OH210967   3.272   3.815   2.405 -0.1440  0.7123 -0.0382
 3668TIP3    H110968   3.265   3.758   2.328  1.4467  1.9992 -1.2092
 3668TIP3    H210969   3.355   3.790   2.445 -0.5412  0.6575  0.7558
 3669TIP3   OH210970   0.146   0.340   1.138  0.4159 -0.1067 -0.2755
 3669TIP3    H110971   0.065   0.306   1.101  0.4084 -2.1850  1.4540
 3669TIP3    H210972   0.121   0.372   1.225  1.4931 -1.2838  0.5073
 3670TIP3   OH210973   4.555   3.789   1.090 -0.3237  0.5105  0.3442
 3670TIP3    H110974   4.595   3.705   1.067  1.3280  0.9829  1.3054
 3670TIP3    H210975   4.540   3.782   1.185 -3.9099 -0.1691 -0.1640
 3671TIP3   OH210976   2.729   1.691   1.980 -0.3811 -0.4682 -0.1726
 3671TIP3    H110977   2.679   1.661   1.904 -0.7872 -0.4687  0.0858
 3671TIP3    H210978   2.671   1.671   2.054 -0.0920 -0.2444  0.1120
 3672TIP3   OH210979   0.202   4.151   4.296  0.1099 -0.1403  0.1935
 3672TIP3    H110980   0.294   4.153   4.269  0.2535 -2.6808  0.3279
 3672TIP3    H210981   0.202   4.103   4.379 -0.9620  3.0198  2.2067
 3673TIP3   OH210982   3.333   4.083   2.490 -0.5194  0.0236  0.1214
 3673TIP3    H110983   3.299   4.131   2.414 -1.7402 -1.3571 -0.2401
 3673TIP3    H210984   3.322   3.991   2.468  1.3285 -0.4698  1.0028
 3674TIP3   OH210985   5.948   6.298   3.840 -0.0441 -0.2141 -0.0678
 3674TIP3    H110986   5.995   6.255   3.768 -0.3356 -2.3331  0.9246
 3674TIP3    H210987   5.882   6.234   3.867 -1.5438  1.4967  0.5369
 3675TIP3   OH210988   1.709   0.700   2.593  0.0112 -0.5258  0.3007
 3675TIP3    H110989   1.792   0.747   2.596  0.0848 -0.4331 -1.9005
 3675TIP3    H210990   1.716   0.635   2.663  2.7085 -1.7188 -0.9361
 3676TIP3   OH210991   4.667   1.948   3.392  0.3153  0.1529 -0.0950
 3676TIP3    H110992   4.609   2.009   3.346 -0.3364 -1.0478 -0.9177
 3676TIP3    H210993   4.749   1.953   3.343  0.1507  0.1077 -0.3806
 3677TIP3   OH210994   5.837   0.103   3.756  0.0347  0.3013  0.2310
 3677TIP3    H110995   5.892   0.181   3.765  0.0966  0.2788  0.0482
 3677TIP3    H210996   5.792   0.095   3.841  0.0053  0.5514  0.2381
 3678TIP3   OH210997   4.771   6.124   1.343 -0.4627 -0.2250  0.4111
 3678TIP3    H110998   4.735   6.126   1.254 -2.5555 -1.6698  1.1486
 3678TIP3    H210999   4.816   6.040   1.349 -1.2074 -0.5864  1.0247
 3679TIP3   OH211000   0.708   6.311   3.041 -0.3211 -0.0767  0.6025
 3679TIP3    H111001   0.624   6.266   3.049 -0.9746  0.9904  0.0277
 3679TIP3    H211002   0.771   6.241   3.021 -1.4082 -0.6879 -0.9317
 3680TIP3   OH211003   2.566   3.686   4.421 -0.0933  0.1334  0.1847
 3680TIP3    H111004   2.584   3.685   4.515  0.0724  0.9526  0.1674
 3680TIP3    H211005   2.536   3.775   4.403  1.4633  0.4928 -0.8258
 3681TIP3   OH211006   6.320   1.513   0.685 -0.0369 -0.2566 -0.3228
 3681TIP3    H111007   6.276   1.451   0.628 -0.9658 -0.6481  0.7946
 3681TIP3    H211008   6.315   1.474   0.773  1.3173  0.3457  0.0509
 3682TIP3   OH211009   6.326   6.177   0.920  0.2955 -0.0220 -0.3946
 3682TIP3    H111010   6.261   6.125   0.873 -1.5240 -0.5195  2.4716
 3682TIP3    H211011   6.404   6.122   0.923 -0.2815 -0.8847 -0.8770
 3683TIP3   OH211012   3.429   0.013   2.838 -0.2659 -0.3041 -0.3710
 3683TIP3    H111013   3.441   0.077   2.768  1.4293  1.9208  1.7882
 3683TIP3    H211014   3.446  -0.071   2.797 -1.9464  0.6070 -3.1926
 3684TIP3   OH211015   6.348   6.362   0.122 -0.6536  0.6665  0.1633
 3684TIP3    H111016   6.372   6.419   0.049  0.8692  1.2019  1.0354
 3684TIP3    H211017   6.419   6.298   0.126 -0.3625  1.0380  1.5369
 3685TIP3   OH211018   3.507   6.630   1.175  0.1992  0.0539 -0.0364
 3685TIP3    H111019   3.543   6.658   1.091  1.8703  1.2373  1.0191
 3685TIP3    H211020   3.511   6.709   1.230 -3.2682  0.0530  0.4442
 3686TIP3   OH211021   2.477   5.108   0.976 -0.1570 -0.2871  0.4945
 3686TIP3    H111022   2.531   5.061   0.913 -1.0434 -0.1418 -0.3959
 3686TIP3    H211023   2.461   5.043   1.045  0.2192 -0.6838  0.2195
 3687TIP3   OH211024   2.782   1.386   4.481  0.0400 -0.1303 -0.0201
 3687TIP3    H111025   2.818   1.420   4.563  0.1265  0.2939 -0.2283
 3687TIP3    H211026   2.858   1.348   4.435  0.3255  1.1107 -0.6326
 3688TIP3   OH211027   2.763   1.341   0.791 -0.3993 -0.1365  0.6953
 3688TIP3    H111028   2.851   1.328   0.826 -0.4624 -1.4316  0.4150
 3688TIP3    H211029   2.764   1.431   0.758  0.8255 -0.1413  0.6591
 3689TIP3   OH211030   2.190   1.883   2.093  0.1547 -0.0743  0.2212
 3689TIP3    H111031   2.137   1.954   2.129  0.3554 -1.2085  2.9737
 3689TIP3    H211032   2.278   1.922   2.085 -0.0642  0.4256  0.1834
 3690TIP3   OH211033   4.842   3.298   3.847  0.7248  0.1168 -0.3574
 3690TIP3    H111034   4.774   3.233   3.829  1.5199 -0.7829 -0.1881
 3690TIP3    H211035   4.796   3.382   3.844 -0.5434 -0.5045  0.4691
 3691TIP3   OH211036   2.391   0.924   5.830  0.0496  0.2198  0.1292
 3691TIP3    H111037   2.427   0.886   5.910  0.0444 -1.0965 -0.4760
 3691TIP3    H211038   2.377   0.849   5.772  0.7715  1.2214 -1.4014
 3692TIP3   OH211039   6.530   5.473   5.414 -0.2435 -0.3193 -0.2136
 3692TIP3    H111040   6.486   5.540   5.361  1.7877  0.8399 -0.5485
 3692TIP3    H211041   6.479   5.393   5.398 -1.0627  0.5055 -2.1086
 3693TIP3   OH211042   1.223   1.097   1.778  0.2583  0.1420  0.4654
 3693TIP3    H111043   1.214   1.178   1.828  0.7621  0.2905  0.3136
 3693TIP3    H211044   1.310   1.065   1.798  0.7329  0.5610 -0.8361
 3694TIP3   OH211045   2.481   5.876   5.353  0.1807  0.0979  0.0900
 3694TIP3    H111046   2.515   5.807   5.296  0.7732  0.3808  0.0941
 3694TIP3    H211047   2.406   5.911   5.306 -0.8235 -1.2854  0.5837
 3695TIP3   OH211048   4.718   4.584   4.412 -0.4011 -0.0542  0.5612
 3695TIP3    H111049   4.799   4.540   4.437 -0.1152 -0.0221 -0.2840
 3695TIP3    H211050   4.666   4.516   4.369 -0.8891 -0.1103  1.2173
 3696TIP3   OH211051   4.939   6.529   2.759  0.0350 -0.8582  0.5981
 3696TIP3    H111052   4.913   6.452   2.708 -1.1458  0.0142 -0.1429
 3696TIP3    H211053   5.025   6.505   2.794  1.0992 -1.3774 -2.0764
 3697TIP3   OH211054   6.828   1.463   2.582 -0.2288  0.8619 -0.2804
 3697TIP3    H111055   6.797   1.396   2.642  1.5202  0.2926  0.0422
 3697TIP3    H211056   6.850   1.538   2.637  0.2970  0.7467 -0.3233
 3698TIP3   OH211057   0.351   2.952   5.364 -0.3255 -0.1505 -0.1350
 3698TIP3    H111058   0.353   3.047   5.361 -0.2553 -0.1707 -0.7495
 3698TIP3    H211059   0.404   2.924   5.290  0.0469 -0.6687  0.3121
 3699TIP3   OH211060   3.926   1.918   2.031  0.3355 -0.2656  0.3350
 3699TIP3    H111061   3.954   1.895   2.119  0.0777  1.6129  0.9675
 3699TIP3    H211062   3.895   1.836   1.992 -0.8803 -0.9021  2.4991
 3700TIP3   OH211063   3.431   1.270   1.441 -0.1469  0.0748  0.1420
 3700TIP3    H111064   3.419   1.353   1.395 -0.9404  0.3997  0.9102
 3700TIP3    H211065   3.345   1.230   1.441  0.0744 -0.4090  0.4183
 3701TIP3   OH211066   0.225   5.096   1.961 -0.4831 -0.2055  0.1689
 3701TIP3    H111067   0.162   5.058   1.900 -2.0667  0.7660  1.1149
 3701TIP3    H211068   0.225   5.037   2.036  0.5153 -0.7311 -0.2261
 3702TIP3   OH211069   1.714   2.602   5.596  0.1775  0.1162  0.5009
 3702TIP3    H111070   1.645   2.645   5.646 -0.9768 -0.4998 -0.4698
 3702TIP3    H211071   1.681   2.513   5.582  0.8669 -0.0017 -0.5389
 3703TIP3   OH211072   4.974   3.235   4.213 -0.0689 -0.2104  0.7313
 3703TIP3    H111073   4.975   3.312   4.157  2.0960 -2.4840 -2.7680
 3703TIP3    H211074   4.881   3.222   4.235 -0.7267  2.1159 -0.3688
 3704TIP3   OH211075   0.930   2.380   5.275  0.4595  0.2687  0.0716
 3704TIP3    H111076   0.854   2.379   5.218  0.5203  0.4766 -0.0120
 3704TIP3    H211077   0.984   2.307   5.244  0.6607  0.6031 -0.3640
 3705TIP3   OH211078   2.525   3.415   4.855 -0.0969 -0.1100  0.3071
 3705TIP3    H111079   2.431   3.421   4.840 -0.0801  0.7425  0.5017
 3705TIP3    H211080   2.554   3.505   4.865  0.5913 -0.4038  1.1548
 3706TIP3   OH211081   4.188   4.797   1.992  0.3667 -0.2721  0.2741
 3706TIP3    H111082   4.243   4.874   1.978 -1.1826  0.6220 -1.2447
 3706TIP3    H211083   4.123   4.827   2.056 -0.5398 -0.1262 -0.6932
 3707TIP3   OH211084   6.242   3.689   3.275 -0.2576  0.1605 -0.3331
 3707TIP3    H111085   6.188   3.708   3.199 -2.6593 -1.4030  0.8589
 3707TIP3    H211086   6.229   3.764   3.333 -2.3957 -0.7955  0.5286
 3708TIP3   OH211087   4.766   2.096   3.596 -0.4114 -0.0133 -0.2092
 3708TIP3    H111088   4.845   2.050   3.567 -1.1535 -1.0914 -0.5560
 3708TIP3    H211089   4.699   2.072   3.531 -0.6369  2.2215 -0.8913
 3709TIP3   OH211090   3.094   5.252   3.996 -0.1306  0.1980  0.3029
 3709TIP3    H111091   3.135   5.208   3.922 -1.9242  0.7220 -1.0749
 3709TIP3    H211092   3.077   5.182   4.059  0.8603 -0.3615 -0.0337
 3710TIP3   OH211093   3.385   3.778   1.941 -0.7137 -0.8267  0.2975
 3710TIP3    H111094   3.377   3.860   1.989  0.2908 -0.6303  0.1260
 3710TIP3    H211095   3.361   3.799   1.851  0.9828 -0.3693 -0.0799
 3711TIP3   OH211096   5.656   3.166   0.610  0.0871 -0.4762  0.4104
 3711TIP3    H111097   5.685   3.193   0.523 -2.0941 -1.1286 -0.5766
 3711TIP3    H211098   5.561   3.168   0.605 -0.1629 -3.9234  1.6499
 3712TIP3   OH211099   0.786   3.425   2.829  0.0546 -0.2807 -1.0190
 3712TIP3    H111100   0.828   3.370   2.895  0.2130  0.0156 -0.8688
 3712TIP3    H211101   0.696   3.394   2.826 -0.3549  0.6706  0.4243
 3713TIP3   OH211102   3.491   1.546   3.331 -0.2921  0.1592  0.0860
 3713TIP3    H111103   3.456   1.576   3.247  1.5934 -0.1341 -0.8488
 3713TIP3    H211104   3.545   1.470   3.309  1.7298  1.1588  1.2758
 3714TIP3   OH211105   0.532   1.778   2.412  0.5044 -0.0002  0.0504
 3714TIP3    H111106   0.608   1.791   2.468  0.5837 -0.0502 -0.0467
 3714TIP3    H211107   0.467   1.840   2.446  1.0002  0.9190 -0.6193
 3715TIP3   OH211108   2.229   5.877   4.182  0.3723 -0.0453 -0.3795
 3715TIP3    H111109   2.293   5.808   4.200  1.1980  0.5288 -1.0384
 3715TIP3    H211110   2.185   5.892   4.266  2.0843  0.5326  0.4500
 3716TIP3   OH211111   0.291   4.577   0.318 -0.1943  0.1883 -0.2479
 3716TIP3    H111112   0.223   4.572   0.251  1.1213 -0.7603 -1.5663
 3716TIP3    H211113   0.322   4.487   0.327 -1.4578 -0.0862  2.9225
 3717TIP3   OH211114   0.145   6.649   3.083  0.1695  0.3004 -0.5324
 3717TIP3    H111115   0.102   6.592   3.020 -0.2935 -1.0244  0.9046
 3717TIP3    H211116   0.097   6.636   3.164  1.8832  0.5016  0.5746
 3718TIP3   OH211117   3.046   4.053   1.552  0.2028 -0.1933  0.7151
 3718TIP3    H111118   3.070   4.092   1.468  0.3363  0.6733  1.1416
 3718TIP3    H211119   3.076   3.962   1.546  1.0805  0.1209  0.1902
 3719TIP3   OH211120   1.246   6.324   1.265 -0.5003 -0.7114 -0.2821
 3719TIP3    H111121   1.156   6.337   1.236 -0.8412  1.0358  1.4243
 3719TIP3    H211122   1.241   6.253   1.329 -0.3482 -1.8108 -1.4389
 3720TIP3   OH211123   3.288   5.957   0.785 -0.3167 -0.1840  0.3753
 3720TIP3    H111124   3.280   6.044   0.746 -1.5954 -0.0061  1.0069
 3720TIP3    H211125   3.340   5.907   0.722 -0.7802  0.6273 -0.6695
 3721TIP3   OH211126   1.064   3.931   2.887  0.2998 -0.2832 -0.1346
 3721TIP3    H111127   1.138   3.962   2.939 -0.6979 -0.6300  1.5519
 3721TIP3    H211128   0.994   3.995   2.903 -0.0579 -0.4292 -1.0161
 3722TIP3   OH211129   0.325   1.968   5.456 -0.9452  0.1461  0.0686
 3722TIP3    H111130   0.303   1.999   5.368 -0.2628  0.3878 -0.0245
 3722TIP3    H211131   0.341   1.874   5.445 -2.7679 -0.2181  0.3040
 3723TIP3   OH211132   4.016   5.124   3.989  0.6438  0.5236  0.5410
 3723TIP3    H111133   3.922   5.106   3.992  0.7489 -0.5770 -1.3375
 3723TIP3    H211134   4.056   5.050   4.035  0.7124 -0.6081 -1.2628
 3724TIP3   OH211135   5.984   0.190   0.124 -0.0275  0.0406  0.5799
 3724TIP3    H111136   6.031   0.108   0.107 -2.1844 -1.3148  0.8045
 3724TIP3    H211137   5.944   0.213   0.040 -0.6833  0.0167  0.8821
 3725TIP3   OH211138   3.890   1.318   3.098 -0.1930 -0.3042  0.3437
 3725TIP3    H111139   3.976   1.276   3.102  0.1033  0.2869  0.4051
 3725TIP3    H211140   3.860   1.303   3.008  0.6251  0.6976 -0.1259
 3726TIP3   OH211141   3.372   5.066   1.952 -0.6315 -0.6760 -0.4298
 3726TIP3    H111142   3.398   5.144   1.902 -1.4564 -1.4134 -2.0946
 3726TIP3    H211143   3.320   5.100   2.024  0.0924  0.3940 -0.3859
 3727TIP3   OH211144   5.543   2.909   5.262  0.2379  0.5850 -0.0289
 3727TIP3    H111145   5.565   2.816   5.258  0.5146  0.6573 -0.2760
 3727TIP3    H211146   5.534   2.928   5.355  2.1946  0.7642  0.1671
 3728TIP3   OH211147   3.838   4.004   2.867  0.7149 -0.0318  0.6190
 3728TIP3    H111148   3.790   3.923   2.848 -0.2610  0.7748 -0.4872
 3728TIP3    H211149   3.782   4.049   2.931  1.1517 -0.1321  1.0732
 3729TIP3   OH211150   4.971   1.014   1.501 -0.1565  0.4838  0.1552
 3729TIP3    H111151   5.008   0.926   1.492  0.5544  0.7665  0.2612
 3729TIP3    H211152   4.887   1.009   1.457  0.0430 -0.1491 -0.1673
 3730TIP3   OH211153   6.885   4.227   5.141 -0.1290  0.3659  0.9827
 3730TIP3    H111154   6.894   4.170   5.066 -0.9317  1.1392  0.2684
 3730TIP3    H211155   6.972   4.231   5.180  0.2183 -0.2896  0.2788
 3731TIP3   OH211156   3.569   4.190   5.212  0.2692  0.2829  0.5152
 3731TIP3    H111157   3.617   4.129   5.268 -0.8556 -0.1747  1.0103
 3731TIP3    H211158   3.625   4.269   5.209  0.6499  0.0779  1.7579
 3732TIP3   OH211159   6.887   2.911   5.556  0.0213  0.3553  0.3537
 3732TIP3    H111160   6.930   2.827   5.538 -0.7014  0.1017 -0.2055
 3732TIP3    H211161   6.823   2.921   5.486 -0.2748  1.1192  0.7256
 3733TIP3   OH211162   5.982   5.944   1.572 -0.0682 -0.1234 -0.0021
 3733TIP3    H111163   5.941   5.926   1.487  0.1537  0.5349 -0.2556
 3733TIP3    H211164   6.001   6.038   1.570  1.4532 -0.4159  0.1189
 3734TIP3   OH211165   2.682   0.691   0.789  0.1118 -0.1838 -0.9310
 3734TIP3    H111166   2.622   0.724   0.723 -0.8951 -0.1578 -0.0288
 3734TIP3    H211167   2.626   0.650   0.855  0.6044  3.3479  2.0292
 3735TIP3   OH211168   3.207   6.222   5.062  0.7147 -0.3925  0.0039
 3735TIP3    H111169   3.172   6.237   5.150  0.5733  0.3463 -0.1720
 3735TIP3    H211170   3.224   6.309   5.027 -0.2822 -0.6127 -1.1311
 3736TIP3   OH211171   3.307   3.891   1.697  0.2674 -0.1071 -0.0204
 3736TIP3    H111172   3.356   3.911   1.617  0.0389  1.0398  0.1169
 3736TIP3    H211173   3.281   3.976   1.731 -0.3759 -0.6319  0.8230
 3737TIP3   OH211174   0.737   2.700   3.891 -0.5155 -0.1635 -0.0020
 3737TIP3    H111175   0.751   2.662   3.977  0.2095  0.4810  0.1789
 3737TIP3    H211176   0.701   2.628   3.838 -0.2463 -0.7757  0.6312
 3738TIP3   OH211177   4.296   2.922   1.403 -0.4256  0.5658  0.0306
 3738TIP3    H111178   4.249   2.934   1.486 -1.1976 -0.8874 -0.1556
 3738TIP3    H211179   4.332   2.833   1.408  0.9402  1.0513 -0.5283
 3739TIP3   OH211180   3.462   3.269   4.317 -0.3869  0.1568 -0.3491
 3739TIP3    H111181   3.448   3.329   4.244  0.6115  2.3122  1.1090
 3739TIP3    H211182   3.380   3.220   4.325 -1.3027  1.4341 -1.5185
 3740TIP3   OH211183   1.960   5.282   3.258  0.2644 -0.2968  0.2665
 3740TIP3    H111184   1.959   5.350   3.191 -0.4689  0.8949  1.4341
 3740TIP3    H211185   1.896   5.217   3.228  0.6845 -0.2898 -0.6623
 3741TIP3   OH211186   5.006   4.217   0.205  0.2012 -0.2559  0.1469
 3741TIP3    H111187   5.070   4.286   0.188  0.7337  0.3942  3.8383
 3741TIP3    H211188   5.052   4.155   0.262 -2.2414  0.0837  2.7166
 3742TIP3   OH211189   1.463   3.852   0.878  0.0688  0.1986  0.8358
 3742TIP3    H111190   1.394   3.789   0.901 -0.4068  1.5017  3.2577
 3742TIP3    H211191   1.421   3.911   0.816 -0.3799 -0.1545  0.7939
 3743TIP3   OH211192   5.277   3.084   2.787 -0.3369  0.0028  0.1036
 3743TIP3    H111193   5.362   3.080   2.830 -0.4136 -2.9345  0.1799
 3743TIP3    H211194   5.216   3.113   2.856  0.2691  0.1341  0.5870
 3744TIP3   OH211195   3.601   0.435   2.317  0.5170 -0.4565 -0.1125
 3744TIP3    H111196   3.644   0.513   2.350 -1.8438  0.0417  2.0921
 3744TIP3    H211197   3.630   0.428   2.226  1.7707  2.2488  0.0003
 3745TIP3   OH211198   2.482   0.272   1.898 -0.1209 -0.5677 -0.0823
 3745TIP3    H111199   2.562   0.323   1.884 -0.3535 -0.4071 -0.9073
 3745TIP3    H211200   2.467   0.275   1.992 -0.1618  0.9598 -0.1063
 3746TIP3   OH211201   0.005   5.076   0.057  0.3690 -0.6983  0.2655
 3746TIP3    H111202   0.033   5.163   0.088 -0.4169  0.0507 -1.0117
 3746TIP3    H211203   0.085   5.034   0.027  0.5346  0.3510 -0.8642
 3747TIP3   OH211204   5.064   2.638   0.706 -0.9423  0.0256  0.8276
 3747TIP3    H111205   5.141   2.689   0.730 -0.0316 -1.5995  1.4514
 3747TIP3    H211206   5.026   2.611   0.789 -2.8252  1.6588  0.5686
 3748TIP3   OH211207   6.766   6.258   0.751  0.5464 -0.1687 -0.0791
 3748TIP3    H111208   6.776   6.278   0.844 -0.4562  1.4732 -0.2975
 3748TIP3    H211209   6.709   6.326   0.718  0.4167 -1.0708 -1.7978
 3749TIP3   OH211210   6.371   6.371   5.243 -0.3042  0.3053 -0.2519
 3749TIP3    H111211   6.311   6.424   5.296 -0.4123  0.1323 -0.2031
 3749TIP3    H211212   6.326   6.361   5.159  0.5467  1.9268 -0.9426
 3750TIP3   OH211213   6.328   0.117   0.226  0.2534  0.3826 -0.1385
 3750TIP3    H111214   6.326   0.102   0.131 -1.2537 -0.6196  0.0075
 3750TIP3    H211215   6.269   0.050   0.262  1.4721  0.1778  1.6017
 3751TIP3   OH211216   3.327   3.820   4.541 -0.1581 -0.4529 -0.2228
 3751TIP3    H111217   3.332   3.846   4.449  0.5994  0.8435  0.1534
 3751TIP3    H211218   3.391   3.877   4.585  0.7088 -2.1898  0.8551
 3752TIP3   OH211219   7.073   0.343   2.655 -0.1613  0.2597  0.0898
 3752TIP3    H111220   7.110   0.426   2.687  0.2436  0.0422  0.1933
 3752TIP3    H211221   7.076   0.350   2.560  0.0119  0.3043  0.0983
 3753TIP3   OH211222   3.283   3.730   4.914 -0.2331  0.3421  0.0818
 3753TIP3    H111223   3.227   3.738   4.836  0.3669  0.6813 -0.3247
 3753TIP3    H211224   3.232   3.676   4.975 -0.2854 -0.7898 -0.9364
 3754TIP3   OH211225   2.543   1.065   4.099  0.5597  0.3899  0.6856
 3754TIP3    H111226   2.557   1.024   4.014 -0.7243  1.3498 -0.0159
 3754TIP3    H211227   2.621   1.119   4.113 -0.2092  2.0376 -0.9900
 3755TIP3   OH211228   4.117   0.305   2.472  0.6199 -0.4421  0.1638
 3755TIP3    H111229   4.096   0.386   2.426  0.1096 -0.9100 -0.4350
 3755TIP3    H211230   4.191   0.328   2.528  0.7081  0.3444 -0.2663
 3756TIP3   OH211231   2.174   2.031   0.252 -0.2020 -0.1557 -0.7530
 3756TIP3    H111232   2.164   1.953   0.198 -1.4306 -0.5475 -0.0101
 3756TIP3    H211233   2.223   2.002   0.329 -1.2414 -0.3936 -0.1524
 3757TIP3   OH211234   1.192   1.899   4.706 -0.1993 -0.8512  0.3304
 3757TIP3    H111235   1.284   1.885   4.683  0.6230  0.3655  2.5482
 3757TIP3    H211236   1.159   1.812   4.728 -0.1609 -1.5761 -2.1180
 3758TIP3   OH211237   5.030   6.606   4.926 -0.1662  0.4903  0.3110
 3758TIP3    H111238   5.108   6.592   4.874 -1.0869 -1.8212 -0.5601
 3758TIP3    H211239   4.971   6.655   4.868  0.3830  1.7545  0.7793
 3759TIP3   OH211240   1.566   3.214   4.175  0.1983  0.0974 -0.2559
 3759TIP3    H111241   1.658   3.200   4.155  0.0201 -2.4200  0.3367
 3759TIP3    H211242   1.525   3.234   4.091  1.1489  0.4350 -0.6436
 3760TIP3   OH211243   3.692   5.641   1.937 -0.0923  0.2343  0.1065
 3760TIP3    H111244   3.684   5.614   2.028 -1.1339  1.6014  0.4629
 3760TIP3    H211245   3.602   5.663   1.911  0.3254  0.7403 -0.9598
 3761TIP3   OH211246   4.619   4.916   4.843 -0.1317 -0.1657 -0.3336
 3761TIP3    H111247   4.641   4.933   4.935 -0.4212  0.2160 -0.3340
 3761TIP3    H211248   4.526   4.936   4.837 -0.7744 -2.7662 -0.0934
 3762TIP3   OH211249   2.222   4.609   5.302  0.5493  0.0554  0.2724
 3762TIP3    H111250   2.186   4.654   5.226  0.6530 -1.1270 -0.5125
 3762TIP3    H211251   2.212   4.670   5.374 -0.3880  0.8501 -0.5138
 3763TIP3   OH211252   5.922   5.456   3.919  0.4428 -0.2297  0.1988
 3763TIP3    H111253   5.916   5.373   3.967 -1.2481 -0.4711 -0.3726
 3763TIP3    H211254   5.881   5.520   3.977 -0.0105 -0.1839 -0.1661
 3764TIP3   OH211255   5.899   1.379   1.450 -0.0301 -0.4266  0.4123
 3764TIP3    H111256   5.897   1.331   1.533  0.6186 -1.0687  0.0640
 3764TIP3    H211257   5.810   1.415   1.441 -0.9117 -2.5092  0.1333
 3765TIP3   OH211258   0.015   5.992   0.396  0.3867  0.1402  0.4099
 3765TIP3    H111259  -0.044   6.060   0.430  1.0625  0.5419  0.7983
 3765TIP3    H211260   0.088   6.040   0.358 -0.5490 -0.2743 -2.1052
 3766TIP3   OH211261   2.143   6.117   5.772 -0.2811  0.1947  0.5191
 3766TIP3    H111262   2.185   6.199   5.796 -0.3723  0.3428  0.1829
 3766TIP3    H211263   2.054   6.125   5.807 -0.3719  0.3526  0.2539
 3767TIP3   OH211264   0.207   0.596   2.369  0.0155 -0.4997 -0.0125
 3767TIP3    H111265   0.225   0.503   2.387  0.7523 -0.0582  1.7514
 3767TIP3    H211266   0.212   0.638   2.455 -2.8669  0.7898 -0.3715
 3768TIP3   OH211267   2.969   1.517   1.841  0.0890  0.2979  0.2643
 3768TIP3    H111268   3.035   1.497   1.774 -1.0202 -1.3452 -0.4101
 3768TIP3    H211269   2.973   1.612   1.851  1.5296  0.3852 -0.8179
 3769TIP3   OH211270   5.570   0.574   0.743  0.4627 -0.0544 -0.6306
 3769TIP3    H111271   5.500   0.509   0.738 -1.0468  1.4639 -0.4203
 3769TIP3    H211272   5.633   0.537   0.804  0.0441 -1.6494 -1.1272
 3770TIP3   OH211273   5.152   0.113   3.649  0.3360 -0.4724  0.1143
 3770TIP3    H111274   5.157   0.208   3.663  2.2259 -0.3237 -1.1963
 3770TIP3    H211275   5.085   0.102   3.582  0.9885  0.0998 -0.6594
 3771TIP3   OH211276   0.054   0.124   0.674 -0.2602  0.5110  0.2631
 3771TIP3    H111277  -0.023   0.173   0.702  0.4533  2.0945 -0.3720
 3771TIP3    H211278   0.021   0.062   0.609 -1.0907  0.7123  0.4845
 3772TIP3   OH211279   4.302   4.192   3.486 -0.2907 -0.0434  0.2776
 3772TIP3    H111280   4.341   4.261   3.540 -1.5174 -0.3177  1.5768
 3772TIP3    H211281   4.322   4.218   3.396 -0.5990  1.9560  0.7211
 3773TIP3   OH211282   5.812   3.099   1.700  0.2247 -0.1130 -0.0392
 3773TIP3    H111283   5.827   3.185   1.741 -0.0503 -0.2987  0.4531
 3773TIP3    H211284   5.900   3.065   1.685  0.3359  0.2433 -0.2147
 3774TIP3   OH211285   3.948   2.965   4.339  0.2823  0.0061 -0.3585
 3774TIP3    H111286   4.038   2.947   4.313  1.0462 -2.0106  3.0075
 3774TIP3    H211287   3.896   2.896   4.298  1.1465 -1.9416  1.6374
 3775TIP3   OH211288   3.235   6.259   0.391 -0.3333  0.1581 -0.1895
 3775TIP3    H111289   3.193   6.345   0.394 -0.4143  0.0914  0.5754
 3775TIP3    H211290   3.298   6.266   0.319 -0.4957  0.7806 -0.2774
 3776TIP3   OH211291   0.003   5.581   0.775 -0.5636  0.0547  0.0884
 3776TIP3    H111292   0.075   5.545   0.827 -1.4016 -2.6397 -0.4933
 3776TIP3    H211293   0.041   5.597   0.689 -0.1431  0.8270  0.4027
 3777TIP3   OH211294   3.264   4.729   4.931  0.9309 -0.2641  0.4089
 3777TIP3    H111295   3.168   4.735   4.930  0.8404 -1.2705  1.0026
 3777TIP3    H211296   3.289   4.755   5.019  1.2248  0.2012  0.1892
 3778TIP3   OH211297   3.137   0.522   2.772 -0.1187  0.2293  0.2092
 3778TIP3    H111298   3.196   0.482   2.836  0.4725  1.5544  0.5309
 3778TIP3    H211299   3.076   0.574   2.824 -0.2420  0.5419 -0.2404
 3779TIP3   OH211300   6.695   0.832   0.918 -0.2575 -0.2246 -0.0154
 3779TIP3    H111301   6.620   0.777   0.894 -0.6334  0.7514 -1.1490
 3779TIP3    H211302   6.657   0.909   0.958  0.0489  0.6924 -1.4089
 3780TIP3   OH211303   0.105   5.719   2.862 -0.1222  0.4435  0.1774
 3780TIP3    H111304   0.150   5.638   2.886  0.7621  1.5650  2.5843
 3780TIP3    H211305   0.155   5.752   2.787 -0.6129 -1.2580 -0.9677
 3781TIP3   OH211306   2.984   5.347   3.041 -0.3245  0.3537 -0.2186
 3781TIP3    H111307   3.059   5.404   3.057 -0.0515  0.6848 -2.3864
 3781TIP3    H211308   3.022   5.267   3.003 -1.0892  1.2435 -3.1118
 3782TIP3   OH211309   2.771   3.633   4.758 -0.1293 -0.1241 -0.1889
 3782TIP3    H111310   2.801   3.724   4.753  0.1597 -0.0465  1.7932
 3782TIP3    H211311   2.710   3.623   4.686 -0.5923  1.8195 -0.1192
 3783TIP3   OH211312   3.668   1.964   0.497 -0.0946  0.5290  0.1692
 3783TIP3    H111313   3.649   1.949   0.590  1.7909  0.7921  0.6232
 3783TIP3    H211314   3.693   1.878   0.463 -3.3326 -0.1687 -0.8292
 3784TIP3   OH211315   1.389   1.116   2.972  0.0727 -0.3799 -0.8721
 3784TIP3    H111316   1.345   1.184   2.921 -1.5782 -1.0903 -0.4374
 3784TIP3    H211317   1.482   1.141   2.969 -0.1476  0.3840 -2.9895
 3785TIP3   OH211318   6.539   3.086   5.014  0.5837  0.0532 -0.3121
 3785TIP3    H111319   6.451   3.049   5.002  0.3385  0.2829  0.7148
 3785TIP3    H211320   6.551   3.142   4.937 -0.0443 -0.2260 -0.6207
 3786TIP3   OH211321   0.464   0.944   3.036  0.5920 -0.8817  0.2470
 3786TIP3    H111322   0.463   0.959   2.942  1.4355 -0.3834  0.2991
 3786TIP3    H211323   0.425   1.023   3.073  2.0474 -0.1803  0.3798
 3787TIP3   OH211324   6.645   2.588   2.308  0.7620  0.1621  0.1781
 3787TIP3    H111325   6.644   2.521   2.240  0.0521  1.6487 -1.3461
 3787TIP3    H211326   6.553   2.599   2.332  0.8392  0.7810  0.2094
 3788TIP3   OH211327   5.400   4.289   0.754  0.0656  0.1353 -0.0267
 3788TIP3    H111328   5.381   4.260   0.665  2.0998 -0.9073 -0.1737
 3788TIP3    H211329   5.335   4.357   0.771 -1.6079 -0.9956 -1.5705
 3789TIP3   OH211330   5.723   0.923   1.908  0.3683  0.2246  1.0658
 3789TIP3    H111331   5.655   0.858   1.895  1.0574 -0.1856 -0.6531
 3789TIP3    H211332   5.773   0.890   1.983  1.0095 -1.5403 -0.0629
 3790TIP3   OH211333   5.974   2.337   1.201 -0.2384 -0.3450 -0.5471
 3790TIP3    H111334   5.981   2.248   1.233 -1.4158  0.4499  2.1708
 3790TIP3    H211335   6.033   2.387   1.256 -0.6859  0.7870 -1.0582
 3791TIP3   OH211336   5.176   0.394   3.679 -0.1846 -0.3730  0.0070
 3791TIP3    H111337   5.110   0.406   3.747  0.6199  2.2182  0.4460
 3791TIP3    H211338   5.142   0.441   3.603 -0.0483 -1.3138 -0.6561
 3792TIP3   OH211339   5.395   3.468   0.600  0.0174  0.7638 -0.1827
 3792TIP3    H111340   5.396   3.372   0.596 -0.6716  0.6304  1.6998
 3792TIP3    H211341   5.389   3.496   0.509 -1.6757 -1.0150 -0.6836
 3793TIP3   OH211342   6.485   3.085   2.708 -0.4521  0.0793 -0.2165
 3793TIP3    H111343   6.528   3.168   2.731  0.7182 -0.8760  1.1824
 3793TIP3    H211344   6.483   3.086   2.613  2.0652  0.5272 -0.3561
 3794TIP3   OH211345   6.548   5.581   2.956 -0.2476 -0.2974 -0.2022
 3794TIP3    H111346   6.499   5.565   3.037 -2.5825  1.8204 -1.0701
 3794TIP3    H211347   6.515   5.664   2.924  1.4940 -0.4724 -2.7387
 3795TIP3   OH211348   5.124   0.824   5.669  0.5814 -0.3612  0.4595
 3795TIP3    H111349   5.106   0.858   5.757  2.2884 -2.1489  1.5805
 3795TIP3    H211350   5.217   0.803   5.670  0.4938 -1.0713 -1.5724
 3796TIP3   OH211351   6.734   1.366   3.790 -0.1314  0.1690  0.0472
 3796TIP3    H111352   6.658   1.359   3.733  0.9875  0.7944 -1.5934
 3796TIP3    H211353   6.748   1.460   3.801 -0.0475  0.0589  0.9891
 3797TIP3   OH211354   1.296   4.359   2.950  0.3866  0.5513 -0.1852
 3797TIP3    H111355   1.325   4.303   2.878 -0.9725 -0.3116 -0.0932
 3797TIP3    H211356   1.203   4.375   2.932 -0.1259 -0.1411  1.6432
 3798TIP3   OH211357   5.077   4.930   1.562  0.3330 -0.1653  0.0887
 3798TIP3    H111358   5.143   4.985   1.604 -0.1270  1.9903 -1.8056
 3798TIP3    H211359   5.006   4.925   1.627  1.1329 -0.0815  1.0017
 3799TIP3   OH211360   5.367   0.326   2.905 -0.2747  0.5709 -0.3036
 3799TIP3    H111361   5.449   0.305   2.859  0.6065  0.5839  1.2099
 3799TIP3    H211362   5.332   0.241   2.930 -0.5537  0.5840 -0.6400
 3800TIP3   OH211363   6.977   5.190   2.741 -0.1906  0.3977 -0.3284
 3800TIP3    H111364   6.912   5.119   2.738 -1.7083  1.6704  1.0903
 3800TIP3    H211365   7.009   5.196   2.651 -0.9321 -1.2547 -0.7452
 3801TIP3   OH211366   6.755   0.644   5.492 -0.1454 -0.1247  0.3276
 3801TIP3    H111367   6.804   0.596   5.559  0.9604 -0.2785 -0.5667
 3801TIP3    H211368   6.772   0.736   5.511 -1.4922 -0.0668  1.4616
 3802TIP3   OH211369   2.520   1.423   1.328  0.1579  0.0252 -0.3267
 3802TIP3    H111370   2.565   1.389   1.251 -0.5696  1.0519 -1.2321
 3802TIP3    H211371   2.432   1.445   1.297 -0.0430  0.7657  0.7112
 3803TIP3   OH211372   0.719   4.201   3.731  0.1253  0.0468 -0.0872
 3803TIP3    H111373   0.662   4.139   3.686  0.2318 -0.4705  0.4728
 3803TIP3    H211374   0.708   4.283   3.683  0.5836 -0.5853 -1.3339
 3804TIP3   OH211375   1.649   6.437   4.336  0.1830 -0.1016  0.5658
 3804TIP3    H111376   1.663   6.487   4.255 -0.6669  0.1205  0.5372
 3804TIP3    H211377   1.734   6.435   4.378  1.1570 -1.9697 -1.3018
 3805TIP3   OH211378   3.269   5.613   5.854 -0.2065 -0.2257 -0.1461
 3805TIP3    H111379   3.237   5.681   5.913 -0.4591 -1.7369  1.5533
 3805TIP3    H211380   3.342   5.654   5.808 -1.9998  2.0354 -1.1836
 3806TIP3   OH211381   4.040   5.681   0.696 -0.4620 -0.3006  0.4342
 3806TIP3    H111382   4.100   5.751   0.671 -1.6177  1.1391  1.4477
 3806TIP3    H211383   4.093   5.620   0.747  0.1829  0.9657  1.3626
 3807TIP3   OH211384   4.695   3.497   3.985  0.5259 -0.5128  0.0319
 3807TIP3    H111385   4.630   3.428   3.976 -0.8161  0.7044  0.0507
 3807TIP3    H211386   4.644   3.577   3.998  1.9941  0.6276 -0.8523
 3808TIP3   OH211387   4.660   2.466   4.243  0.2894  0.0442  0.1070
 3808TIP3    H111388   4.682   2.469   4.336 -2.7556 -0.6808  0.9637
 3808TIP3    H211389   4.674   2.375   4.217  0.8175  0.1744 -0.0855
 3809TIP3   OH211390   6.018   2.899   1.245 -0.3678  0.2877  0.0162
 3809TIP3    H111391   6.100   2.922   1.200 -0.9859 -0.0097 -1.3079
 3809TIP3    H211392   6.046   2.864   1.329  0.8527  0.6136 -0.2333
 3810TIP3   OH211393   0.840   0.122   1.212  0.2153  0.4094 -0.3342
 3810TIP3    H111394   0.773   0.188   1.232 -1.3011 -0.9346 -0.7114
 3810TIP3    H211395   0.895   0.162   1.145  0.3034  1.8497  0.5586
 3811TIP3   OH211396   3.701   1.057   5.391  0.4627  0.3792 -0.7745
 3811TIP3    H111397   3.789   1.052   5.429  0.8512 -0.4403 -1.7221
 3811TIP3    H211398   3.713   1.027   5.301 -0.7294  0.6446 -1.0350
 3812TIP3   OH211399   0.757   0.037   2.436 -0.2288 -0.6312  0.3394
 3812TIP3    H111400   0.666   0.051   2.463 -0.0387 -0.1767  0.7548
 3812TIP3    H211401   0.773  -0.055   2.456 -1.1377 -1.1934 -1.3665
 3813TIP3   OH211402   1.808   3.269   5.812 -0.3532 -0.1260 -0.4892
 3813TIP3    H111403   1.812   3.201   5.745 -1.0272 -0.6326 -0.0178
 3813TIP3    H211404   1.900   3.293   5.827  0.1488 -2.5758  0.9806
 3814TIP3   OH211405   1.657   2.475   1.403 -0.0651  0.1525 -0.4674
 3814TIP3    H111406   1.564   2.500   1.406 -0.0629  0.0675  1.6621
 3814TIP3    H211407   1.658   2.393   1.353 -0.7207  1.5861 -3.0082
 3815TIP3   OH211408   4.513   4.375   5.592 -0.2450  0.0482 -0.7243
 3815TIP3    H111409   4.607   4.365   5.606 -0.0888  2.2296  0.1302
 3815TIP3    H211410   4.506   4.401   5.500 -0.0374 -0.2044 -0.8153
 3816TIP3   OH211411   6.788   1.125   5.626 -0.4148 -0.7845  0.4709
 3816TIP3    H111412   6.770   1.104   5.535 -1.2016 -0.5767  0.5658
 3816TIP3    H211413   6.881   1.143   5.629 -0.0802 -2.2810  0.0055
 3817TIP3   OH211414   4.179   2.575   4.080 -0.0105 -0.2360 -0.0260
 3817TIP3    H111415   4.260   2.604   4.039 -1.5696  1.3636 -2.1881
 3817TIP3    H211416   4.150   2.650   4.131  0.8117 -1.4948  2.4861
 3818TIP3   OH211417   2.058   3.119   1.586 -0.4051  0.3318 -0.4994
 3818TIP3    H111418   1.971   3.146   1.615 -0.2796  0.7079 -0.4665
 3818TIP3    H211419   2.060   3.140   1.493  0.7480  3.3283  0.0922
 3819TIP3   OH211420   4.853   6.226   2.298 -0.1197  0.2192 -0.5497
 3819TIP3    H111421   4.806   6.220   2.215 -1.3104 -0.3224  0.1217
 3819TIP3    H211422   4.927   6.167   2.288 -0.4306 -0.0867 -1.1182
 3820TIP3   OH211423   1.757   5.369   0.629  0.1235  0.1587 -0.1442
 3820TIP3    H111424   1.690   5.434   0.607  0.2393 -0.1836 -1.6863
 3820TIP3    H211425   1.784   5.391   0.718 -1.9370  0.3724  0.4783
 3821TIP3   OH211426   3.196   1.863   1.607 -0.1792  0.3144  0.0602
 3821TIP3    H111427   3.250   1.785   1.617 -1.3143 -0.4995 -0.0067
 3821TIP3    H211428   3.177   1.869   1.514  0.1852  0.8751  0.0150
 3822TIP3   OH211429   5.997   0.202   4.940  0.6375 -0.0537  0.6424
 3822TIP3    H111430   5.984   0.229   5.031  0.2977 -1.8477  1.1596
 3822TIP3    H211431   6.058   0.128   4.945 -0.8211 -1.3931 -0.3854
 3823TIP3   OH211432   0.941   0.168   2.272 -0.5374  0.6738 -0.3638
 3823TIP3    H111433   0.927   0.260   2.293  2.3261  0.6965  2.3365
 3823TIP3    H211434   0.884   0.121   2.333  0.2364  0.7332  0.4359
 3824TIP3   OH211435   2.605   2.399   3.914  0.3212 -0.0250  0.5252
 3824TIP3    H111436   2.582   2.485   3.878  0.9022  0.3933  1.1212
 3824TIP3    H211437   2.622   2.345   3.838  2.0975  1.0014  0.1317
 3825TIP3   OH211438   6.747   1.958   5.374 -0.6877 -0.3027  0.0297
 3825TIP3    H111439   6.761   1.959   5.279 -0.6090  0.3526  0.0496
 3825TIP3    H211440   6.804   2.027   5.408 -0.9811 -0.2975  0.5183
 3826TIP3   OH211441   0.378   6.095   1.977  0.3952 -0.3744 -0.4176
 3826TIP3    H111442   0.317   6.151   1.930  1.6413  1.6416  0.2688
 3826TIP3    H211443   0.352   6.102   2.068  0.5190 -0.9956 -0.3298
 3827TIP3   OH211444   4.874   2.737   4.585  0.1766 -0.3259  0.5783
 3827TIP3    H111445   4.849   2.783   4.665  0.7195  1.2649 -0.1352
 3827TIP3    H211446   4.952   2.687   4.610 -0.9074 -1.6025  1.5782
 3828TIP3   OH211447   0.253   1.406   4.158 -0.1664  0.2028 -0.1717
 3828TIP3    H111448   0.310   1.330   4.144  0.2862  0.3397  0.8472
 3828TIP3    H211449   0.165   1.373   4.140 -0.2353 -1.1983  2.2664
 3829TIP3   OH211450   0.246   1.867   2.619 -0.2757 -0.0935 -0.1014
 3829TIP3    H111451   0.200   1.902   2.696 -0.7659  1.2555 -0.9738
 3829TIP3    H211452   0.184   1.805   2.581 -1.4626  1.7151 -1.2704
 3830TIP3   OH211453   3.030   3.552   5.032  0.0533  0.1208  0.4456
 3830TIP3    H111454   3.006   3.628   4.979  1.2815  1.0960  1.2325
 3830TIP3    H211455   2.951   3.498   5.032 -0.3899  0.6723 -1.3310
 3831TIP3   OH211456   4.442   4.962   2.157  0.4137 -0.1207  0.3594
 3831TIP3    H111457   4.390   4.906   2.215 -0.8207  1.5138  0.8915
 3831TIP3    H211458   4.477   4.901   2.092 -1.3762 -1.4583  0.5488
 3832TIP3   OH211459   2.299   4.861   5.437  0.1762  0.5931 -0.2515
 3832TIP3    H111460   2.289   4.946   5.394  0.4791  0.5679 -0.3781
 3832TIP3    H211461   2.271   4.876   5.527  0.1532  0.8092 -0.2946
 3833TIP3   OH211462   5.734   5.543   0.923 -0.0646  0.2397  0.0153
 3833TIP3    H111463   5.781   5.513   0.846  1.8796  0.2783  1.1116
 3833TIP3    H211464   5.751   5.637   0.927 -1.3935  0.5148 -0.2885
 3834TIP3   OH211465   4.706   1.504   2.391 -0.1297  0.7157 -0.4264
 3834TIP3    H111466   4.639   1.443   2.359  1.5611 -1.2338 -0.4561
 3834TIP3    H211467   4.781   1.489   2.334  1.6083  0.0798  1.8612
 3835TIP3   OH211468   2.602   0.328   5.364 -0.4906  0.4024  0.1208
 3835TIP3    H111469   2.587   0.417   5.331 -0.8324  0.7207  1.0846
 3835TIP3    H211470   2.697   0.321   5.373 -0.2832 -0.1527 -2.1077
 3836TIP3   OH211471   2.204   6.631   3.416  0.2458  0.5240  0.2749
 3836TIP3    H111472   2.201   6.692   3.342 -0.8607  0.9143  0.6116
 3836TIP3    H211473   2.273   6.569   3.393 -0.1483  0.5667 -1.1419
 3837TIP3   OH211474   1.268   1.401   5.498 -0.2708  0.0699 -0.2330
 3837TIP3    H111475   1.209   1.398   5.423 -1.3200 -0.9734  0.5958
 3837TIP3    H211476   1.300   1.311   5.508  0.5763  0.3860  0.0361
 3838TIP3   OH211477   1.646   6.104   3.400  0.4775  0.5122  0.0106
 3838TIP3    H111478   1.737   6.123   3.376  0.1565  0.8287 -1.0426
 3838TIP3    H211479   1.603   6.190   3.400 -0.2723  0.1809 -1.5921
 3839TIP3   OH211480   4.714   6.228   0.178  0.1038  0.0518  0.1734
 3839TIP3    H111481   4.676   6.310   0.210  1.3178 -0.5232  3.5886
 3839TIP3    H211482   4.643   6.165   0.183 -0.5014  0.5915 -1.2379
 3840TIP3   OH211483   5.393   3.024   1.821 -0.0520  0.0103 -0.2830
 3840TIP3    H111484   5.475   3.001   1.777 -0.1437  0.0999 -0.5019
 3840TIP3    H211485   5.328   2.968   1.781  0.1521 -1.1776  0.9585
 3841TIP3   OH211486   2.120   0.764   1.097 -0.3502 -0.2854 -0.1089
 3841TIP3    H111487   2.169   0.776   1.179 -1.1131  0.3161  0.2778
 3841TIP3    H211488   2.174   0.805   1.030  0.4369 -1.0668  0.0278
 3842TIP3   OH211489   4.962   0.161   5.575  0.1072 -0.2132  0.5342
 3842TIP3    H111490   4.939   0.215   5.500 -1.5960 -0.7709  0.6245
 3842TIP3    H211491   5.057   0.152   5.570  0.4757  2.6992  0.4697
 3843TIP3   OH211492   4.576   1.149   0.155  0.9184 -0.0155 -0.4256
 3843TIP3    H111493   4.557   1.188   0.069 -0.3606  2.2156  0.7575
 3843TIP3    H211494   4.524   1.069   0.157  0.3129  0.3321 -1.4412
 3844TIP3   OH211495   3.833   1.986   1.361  0.0331 -0.3905 -0.3136
 3844TIP3    H111496   3.754   2.034   1.384 -0.3125 -0.9501 -0.3019
 3844TIP3    H211497   3.803   1.919   1.299  0.5483 -0.4175 -0.5399
 3845TIP3   OH211498   2.549   2.903   5.291 -0.0807 -0.2240  0.3097
 3845TIP3    H111499   2.561   2.835   5.225  0.2788 -0.2964  0.4453
 3845TIP3    H211500   2.509   2.976   5.243  2.0989  0.5285 -0.4966
 3846TIP3   OH211501   7.161   2.209   4.039  0.2699 -0.7588 -0.2857
 3846TIP3    H111502   7.206   2.230   4.120 -0.6412 -1.2001  0.3580
 3846TIP3    H211503   7.074   2.178   4.067 -0.8519  1.0926 -1.5049
 3847TIP3   OH211504   5.361   4.898   3.770 -0.5159 -0.2369 -0.5184
 3847TIP3    H111505   5.416   4.967   3.807 -0.2774 -0.8196  0.2412
 3847TIP3    H211506   5.286   4.944   3.733 -1.1569  0.3389  1.3894
 3848TIP3   OH211507   0.033   1.340   1.636 -0.0563  0.4078 -0.3937
 3848TIP3    H111508   0.052   1.408   1.572 -0.8984  0.0171 -1.0875
 3848TIP3    H211509  -0.041   1.374   1.686  0.4971  0.6431  0.2734
 3849TIP3   OH211510   6.653   2.410   2.091 -0.4491 -0.0586 -0.2948
 3849TIP3    H111511   6.653   2.465   2.013 -2.3951  0.2602 -0.1207
 3849TIP3    H211512   6.662   2.321   2.058 -0.5122  0.1330 -0.8346
 3850TIP3   OH211513   2.412   4.318   1.581  0.1184 -0.2703 -0.3085
 3850TIP3    H111514   2.455   4.242   1.542 -1.4138 -0.4841 -1.6781
 3850TIP3    H211515   2.397   4.378   1.508  2.4161  2.0044  0.8940
 3851TIP3   OH211516   0.367   5.813   5.164 -0.1834  0.0225 -0.4016
 3851TIP3    H111517   0.441   5.829   5.105 -0.2246  1.5245 -0.0883
 3851TIP3    H211518   0.346   5.720   5.152  2.2662 -0.6692  0.1010
 3852TIP3   OH211519   3.896   2.911   4.706  0.1214  0.6703 -0.0743
 3852TIP3    H111520   3.974   2.961   4.732 -0.8347  1.0274  2.3895
 3852TIP3    H211521   3.836   2.920   4.780 -1.2304 -1.8078 -0.7656
 3853TIP3   OH211522   0.563   2.810   5.893 -0.4989 -0.0054  0.1488
 3853TIP3    H111523   0.658   2.799   5.887 -0.4440 -0.9360  1.8841
 3853TIP3    H211524   0.533   2.816   5.802  1.2125  0.3094 -0.4216
 3854TIP3   OH211525   7.099   0.759   2.475 -0.0555 -0.2399 -0.0451
 3854TIP3    H111526   7.106   0.812   2.554  0.0855 -0.3732  0.0328
 3854TIP3    H211527   7.189   0.752   2.442  0.0338 -1.0121  0.3341
 3855TIP3   OH211528   1.805   1.431   3.988 -0.5461  0.0903 -0.3456
 3855TIP3    H111529   1.893   1.467   3.999 -0.0543 -1.2544  0.3673
 3855TIP3    H211530   1.763   1.488   3.923  1.1590  0.2274 -1.3765
 3856TIP3   OH211531   6.856   2.087   5.151  0.5634 -0.5328 -0.0469
 3856TIP3    H111532   6.913   2.141   5.096  0.2235 -1.4639 -1.3713
 3856TIP3    H211533   6.872   1.997   5.122 -1.0943 -0.8741 -0.0288
 3857TIP3   OH211534   6.627   6.322   5.199 -0.4703 -0.5966  0.0596
 3857TIP3    H111535   6.641   6.347   5.107 -0.7228  0.1844  0.2265
 3857TIP3    H211536   6.535   6.340   5.215 -0.2162  0.1545  0.7271
 3858TIP3   OH211537   4.701   4.713   2.290 -0.1807  0.5558  0.3692
 3858TIP3    H111538   4.777   4.689   2.343  1.0120  2.0003 -0.5887
 3858TIP3    H211539   4.640   4.753   2.352 -0.0456 -0.3447  1.1059
 3859TIP3   OH211540   3.899   2.226   4.368 -0.0610  0.0180  0.4085
 3859TIP3    H111541   3.923   2.182   4.450 -0.2419  0.9302  0.9715
 3859TIP3    H211542   3.983   2.249   4.328  0.0399  0.8525  1.0669
 3860TIP3   OH211543   0.565   0.584   4.812 -0.1401  0.0859 -0.3532
 3860TIP3    H111544   0.539   0.594   4.720 -0.5283  2.2555 -0.0593
 3860TIP3    H211545   0.510   0.514   4.845 -0.2649 -0.4610 -1.6772
 3861TIP3   OH211546   4.145   4.610   1.803 -0.4048  0.0659  0.2174
 3861TIP3    H111547   4.173   4.665   1.876 -1.5064  0.0440  0.6713
 3861TIP3    H211548   4.058   4.643   1.779 -0.1158 -0.0125 -1.0066
 3862TIP3   OH211549   6.462   1.675   5.799 -0.6280  0.0080 -0.0661
 3862TIP3    H111550   6.520   1.709   5.731 -1.7655  0.7180 -0.7296
 3862TIP3    H211551   6.508   1.693   5.881 -1.3193  3.7162 -0.3209
 3863TIP3   OH211552   5.100   6.653   0.592 -0.1989  0.1305 -0.0909
 3863TIP3    H111553   5.080   6.738   0.554 -0.4915  0.0355 -0.1551
 3863TIP3    H211554   5.194   6.655   0.608 -0.1886  0.4280 -0.1844
 3864TIP3   OH211555   2.783   5.558   0.221  0.2920 -0.3377  0.0040
 3864TIP3    H111556   2.775   5.641   0.269 -0.6266 -0.4970  0.1453
 3864TIP3    H211557   2.877   5.547   0.209  0.4296  0.7731 -0.0974
 3865TIP3   OH211558   0.818   3.921   3.277  0.0692 -0.2961 -0.3031
 3865TIP3    H111559   0.890   3.926   3.341 -0.9991 -1.9621  1.0939
 3865TIP3    H211560   0.814   4.009   3.240  2.3784  0.0341  0.0635
 3866TIP3   OH211561   1.270   5.110   4.306 -0.3499 -0.1922 -0.1133
 3866TIP3    H111562   1.260   5.124   4.400  0.9042 -0.9536  0.1647
 3866TIP3    H211563   1.349   5.056   4.298 -0.0823  0.3676 -1.6412
 3867TIP3   OH211564   2.397   2.594   1.233  0.7931 -0.2073 -0.1224
 3867TIP3    H111565   2.308   2.578   1.264  0.2710  0.7902 -1.0674
 3867TIP3    H211566   2.451   2.590   1.313 -0.2077  0.0441  0.5816
 3868TIP3   OH211567   1.646   3.181   3.771 -0.6056  0.5820 -0.6693
 3868TIP3    H111568   1.723   3.234   3.747 -0.7617  0.3556 -1.7058
 3868TIP3    H211569   1.655   3.101   3.720 -0.7474 -0.1078  0.3568
 3869TIP3   OH211570   6.010   5.460   1.044 -0.0237 -0.0941 -0.7187
 3869TIP3    H111571   6.016   5.394   0.975 -0.1113 -1.7563  0.8089
 3869TIP3    H211572   5.933   5.511   1.021  0.1933 -0.3363 -2.0745
 3870TIP3   OH211573   6.637   2.241   1.363  0.3582 -0.3876  0.0109
 3870TIP3    H111574   6.586   2.192   1.429  0.5282  0.8808  1.1194
 3870TIP3    H211575   6.726   2.209   1.373  0.7856  1.2137  1.8552
 3871TIP3   OH211576   0.668   5.045   4.817  0.1587  0.6630 -0.4057
 3871TIP3    H111577   0.696   4.992   4.742 -1.6050 -1.3928  0.2640
 3871TIP3    H211578   0.727   5.019   4.888  0.3278  0.8228 -0.4880
 3872TIP3   OH211579   7.033   2.690   4.337 -0.1866 -0.0997 -0.0969
 3872TIP3    H111580   7.116   2.689   4.385 -0.9994 -0.3209  1.3634
 3872TIP3    H211581   7.011   2.783   4.331  0.6309  0.0356 -1.3732
 3873TIP3   OH211582   0.541   6.212   4.853  0.1781 -0.0479  0.0447
 3873TIP3    H111583   0.530   6.154   4.928 -1.2216  0.7675  0.4922
 3873TIP3    H211584   0.453   6.223   4.817  0.6239  0.6838 -0.8778
 3874TIP3   OH211585   1.323   0.033   2.134 -0.3405 -0.5487  0.0502
 3874TIP3    H111586   1.240  -0.011   2.114 -0.1083 -0.7034 -0.5940
 3874TIP3    H211587   1.333   0.099   2.066 -0.4096  0.1317  0.6917
 3875TIP3   OH211588   0.959   1.005   1.323 -0.0506 -0.3093  0.5591
 3875TIP3    H111589   0.985   1.093   1.295  3.2395 -1.1060  0.6555
 3875TIP3    H211590   0.931   1.017   1.414  0.5375  0.6285  0.6391
 3876TIP3   OH211591   4.671   6.424   3.847  0.4264  0.2233  0.2982
 3876TIP3    H111592   4.742   6.405   3.787  2.1746 -1.3094  2.6918
 3876TIP3    H211593   4.710   6.479   3.915 -1.1540  0.9087  0.7021
 3877TIP3   OH211594   5.446   5.115   0.071 -0.3037  0.2207 -0.0245
 3877TIP3    H111595   5.361   5.088   0.037  0.2705 -2.6983  0.6087
 3877TIP3    H211596   5.486   5.163  -0.002 -1.5603 -0.4258 -1.1904
 3878TIP3   OH211597   3.513   3.552   2.579  0.1465 -0.3236  0.3940
 3878TIP3    H111598   3.460   3.501   2.517  0.5638 -0.1422 -0.1143
 3878TIP3    H211599   3.450   3.609   2.622 -0.0207  0.1755 -0.4942
 3879TIP3   OH211600   0.943   2.910   1.816  0.3202 -0.6430 -0.1931
 3879TIP3    H111601   0.848   2.898   1.820  0.1171  0.5875 -0.8977
 3879TIP3    H211602   0.963   2.907   1.723  0.8453  0.0098 -0.1028
 3880TIP3   OH211603   1.427   3.906   3.871 -0.3514 -0.4635 -0.3772
 3880TIP3    H111604   1.364   3.958   3.920 -0.9598 -1.3623 -0.1760
 3880TIP3    H211605   1.512   3.938   3.899 -0.6978  1.2933 -1.2126
 3881TIP3   OH211606   4.391   6.095   0.550 -0.1304  0.1551  0.9208
 3881TIP3    H111607   4.377   6.001   0.550  1.7121 -0.2570 -2.3530
 3881TIP3    H211608   4.372   6.123   0.461  3.0770  2.1430  0.6882
 3882TIP3   OH211609   5.563   5.532   0.214  0.6549 -0.1476  0.1107
 3882TIP3    H111610   5.606   5.483   0.284 -0.7429 -0.3409  0.8662
 3882TIP3    H211611   5.598   5.495   0.133  2.6814  0.4217  0.6805
 3883TIP3   OH211612   5.057   0.301   4.464 -0.2052 -0.2243  0.0191
 3883TIP3    H111613   5.007   0.235   4.416  0.9291 -1.5728  0.6147
 3883TIP3    H211614   4.992   0.349   4.514 -1.4544  1.2935 -2.8117
 3884TIP3   OH211615   4.964   6.234   5.548 -0.1865 -0.2523 -0.0460
 3884TIP3    H111616   4.984   6.235   5.642 -0.3276 -0.5574 -0.0085
 3884TIP3    H211617   4.981   6.143   5.522  2.1546  0.3507 -0.8287
 3885TIP3   OH211618   4.706   5.951   2.257 -0.5336 -0.2225  0.4284
 3885TIP3    H111619   4.653   6.021   2.218 -0.6952 -0.9524 -0.7268
 3885TIP3    H211620   4.646   5.877   2.263  0.3014 -1.0559 -0.8798
 3886TIP3   OH211621   0.994   2.310   4.802  0.5036  0.0368  0.1190
 3886TIP3    H111622   0.899   2.302   4.790  0.3548 -0.8637  1.6820
 3886TIP3    H211623   1.030   2.230   4.764  0.6528  0.3755 -0.4691
 3887TIP3   OH211624   5.259   4.021   4.513  0.7638 -0.2940 -0.2366
 3887TIP3    H111625   5.231   4.069   4.591  1.4144 -0.7347  0.2802
 3887TIP3    H211626   5.266   4.088   4.445  1.6661  0.3662  0.4736
 3888TIP3   OH211627   0.976   4.455   1.460  0.4535  0.2305 -0.1314
 3888TIP3    H111628   0.963   4.360   1.464 -1.4940  0.4234 -0.6838
 3888TIP3    H211629   1.012   4.478   1.546 -0.4475 -0.8374  0.5623
 3889TIP3   OH211630   1.490   1.157   4.412  0.1981  0.7284 -0.1845
 3889TIP3    H111631   1.562   1.210   4.378  0.2555  0.9349  0.2476
 3889TIP3    H211632   1.532   1.078   4.446 -0.0150 -0.2112 -2.0065
 3890TIP3   OH211633   0.511   5.166   1.578  0.6400 -0.7117 -0.0075
 3890TIP3    H111634   0.416   5.176   1.571  0.8517  1.9751  0.1941
 3890TIP3    H211635   0.523   5.096   1.642 -1.1856 -0.5827  0.5261
 3891TIP3   OH211636   0.372   5.329   2.088  0.0108  0.6746 -0.5346
 3891TIP3    H111637   0.441   5.391   2.066  2.2398 -1.0178  1.1932
 3891TIP3    H211638   0.374   5.266   2.016 -1.1110  1.6399 -1.4474
 3892TIP3   OH211639   2.728   5.561   4.431  0.2320 -0.0449  0.3320
 3892TIP3    H111640   2.768   5.630   4.377 -1.5589  0.5185 -0.3387
 3892TIP3    H211641   2.707   5.492   4.368 -0.1643 -0.1853  0.6209
 3893TIP3   OH211642   4.035   3.957   3.137  0.1414  0.2578 -0.0324
 3893TIP3    H111643   4.001   3.899   3.068  1.0766 -0.5674  0.1778
 3893TIP3    H211644   4.109   4.002   3.096  1.1902 -0.8031  0.6254
 3894TIP3   OH211645   6.694   5.466   1.101  0.3758  0.4607 -0.1435
 3894TIP3    H111646   6.723   5.388   1.054 -0.3119 -0.1306  0.3871
 3894TIP3    H211647   6.657   5.523   1.033  0.1129 -0.0418 -0.4264
 3895TIP3   OH211648   1.419   2.445   4.878 -0.5884 -0.5028 -0.4593
 3895TIP3    H111649   1.448   2.372   4.822 -1.9785  0.7687 -3.0027
 3895TIP3    H211650   1.495   2.503   4.883 -0.3894 -0.7252 -0.8734
 3896TIP3   OH211651   5.730   3.600   0.858  0.4716  0.0614 -0.0158
 3896TIP3    H111652   5.819   3.566   0.846 -0.0463 -1.0333 -0.8835
 3896TIP3    H211653   5.701   3.622   0.769  0.4912  2.0615  0.4297
 3897TIP3   OH211654   0.313   3.132   3.265 -0.1941 -0.3044 -0.3463
 3897TIP3    H111655   0.305   3.225   3.245 -0.4922 -0.3772 -0.5761
 3897TIP3    H211656   0.342   3.092   3.183  1.3156 -0.2332  0.1163
 3898TIP3   OH211657   1.977   4.504   1.619  0.7212 -0.1925  0.3204
 3898TIP3    H111658   2.031   4.439   1.664 -0.5985 -1.3092  0.3487
 3898TIP3    H211659   2.039   4.572   1.591  1.8518 -0.4785  1.9994
 3899TIP3   OH211660   6.614   6.737   3.151 -0.4690  0.1710 -0.3592
 3899TIP3    H111661   6.661   6.669   3.104 -1.6372 -0.5679 -0.4894
 3899TIP3    H211662   6.538   6.693   3.188 -0.5483  1.1286  0.6800
 3900TIP3   OH211663   4.956   5.946   0.102 -0.4211  0.1664  0.5265
 3900TIP3    H111664   5.001   5.926   0.184 -0.5749  1.0170  0.8308
 3900TIP3    H211665   4.886   5.882   0.097 -0.0592 -0.2544  0.7735
 3901TIP3   OH211666   5.157   5.596   2.507 -0.0254 -0.4207 -0.2196
 3901TIP3    H111667   5.090   5.641   2.560 -1.1707 -1.9523 -0.2808
 3901TIP3    H211668   5.201   5.538   2.569  0.4996 -0.2265 -0.4094
 3902TIP3   OH211669   1.986   3.748   5.741 -0.7846  0.6856  0.1389
 3902TIP3    H111670   2.026   3.826   5.704  0.5915 -0.5732 -1.1836
 3902TIP3    H211671   1.960   3.773   5.829 -1.3054  2.8997 -0.5944
 3903TIP3   OH211672   6.234   4.227   2.220 -0.1470  0.3232 -0.0719
 3903TIP3    H111673   6.269   4.229   2.131 -1.3426 -2.2698 -0.6967
 3903TIP3    H211674   6.140   4.242   2.209 -0.6218 -1.9064  0.4742
 3904TIP3   OH211675   2.358   0.173   3.293 -0.1384  0.5409 -0.2656
 3904TIP3    H111676   2.413   0.176   3.215  1.5514 -1.2044  0.7645
 3904TIP3    H211677   2.414   0.136   3.361 -1.5064  2.0778  1.8478
 3905TIP3   OH211678   2.972   4.947   3.943  0.0456  0.1770 -0.1520
 3905TIP3    H111679   3.029   4.892   3.888 -0.5245 -0.6381  0.0486
 3905TIP3    H211680   2.883   4.927   3.913 -0.1736  1.0481 -0.1093
 3906TIP3   OH211681   2.305   1.216   4.073  0.2684 -0.5336 -0.0926
 3906TIP3    H111682   2.364   1.148   4.108 -0.4937 -0.8981  0.5171
 3906TIP3    H211683   2.260   1.250   4.150 -0.4759 -0.4078 -0.5762
 3907TIP3   OH211684   4.275   6.705   4.609 -0.3886 -0.1340 -0.5451
 3907TIP3    H111685   4.328   6.734   4.535  0.8798  0.5921  0.5855
 3907TIP3    H211686   4.244   6.786   4.650 -0.1893 -0.4757  0.3139
 3908TIP3   OH211687   1.841   1.951   1.952  0.0575 -0.7996 -0.2395
 3908TIP3    H111688   1.792   2.031   1.972  1.9591  0.2958  0.3084
 3908TIP3    H211689   1.857   1.911   2.038 -0.7619 -1.7233 -0.5016
 3909TIP3   OH211690   1.655   0.045   4.544 -0.3738  0.6550  0.1098
 3909TIP3    H111691   1.616   0.045   4.457 -1.7067  0.9246  0.6759
 3909TIP3    H211692   1.664   0.138   4.566 -0.2385  0.5892  0.3380
 3910TIP3   OH211693   0.697   3.406   5.002  0.3228  0.0076 -0.0100
 3910TIP3    H111694   0.695   3.311   4.988  0.2678  0.0683 -0.4373
 3910TIP3    H211695   0.668   3.443   4.918  0.1421  0.3967  0.2203
 3911TIP3   OH211696   0.910   2.100   5.557  0.3484  0.2369  0.6354
 3911TIP3    H111697   0.968   2.115   5.482 -1.8340  2.0955 -0.8249
 3911TIP3    H211698   0.868   2.017   5.538  2.0659 -0.8806  1.4614
 3912TIP3   OH211699   4.187   3.398   2.409  0.5643 -0.2007 -0.0834
 3912TIP3    H111700   4.117   3.334   2.421  1.0595 -0.4488  1.9951
 3912TIP3    H211701   4.256   3.350   2.362  0.2515 -0.6659 -0.0731
 3913TIP3   OH211702   0.575   0.541   5.725  0.1021 -0.2474 -0.3433
 3913TIP3    H111703   0.486   0.505   5.727  0.5270 -1.3855  1.8056
 3913TIP3    H211704   0.611   0.512   5.641 -1.2973 -0.4492 -0.8919
 3914TIP3   OH211705   4.206   6.665   2.117 -0.3228  0.0622 -0.2904
 3914TIP3    H111706   4.292   6.707   2.121 -0.4505  0.2873  0.1114
 3914TIP3    H211707   4.203   6.607   2.192  0.0340 -1.0428 -1.1057
 3915TIP3   OH211708   0.344   4.733   1.987  0.1542 -0.2317 -0.2657
 3915TIP3    H111709   0.386   4.761   2.069 -2.4177 -0.0047  1.0876
 3915TIP3    H211710   0.347   4.637   1.991 -0.7387 -0.2363  0.5625
 3916TIP3   OH211711   3.010   2.070   3.492 -0.6615  0.1249  0.3836
 3916TIP3    H111712   2.938   2.021   3.532  0.4650 -0.2759  2.0771
 3916TIP3    H211713   3.083   2.058   3.553  0.7571  0.7678 -1.1085
 3917TIP3   OH211714   0.020   1.760   3.838  0.1830 -0.9310  0.0699
 3917TIP3    H111715  -0.044   1.818   3.879 -0.3675 -1.1563 -0.4764
 3917TIP3    H211716   0.079   1.736   3.910 -1.1288 -1.8053  0.8860
 3918TIP3   OH211717   1.118   5.552   0.839  0.1286 -0.2822  0.5655
 3918TIP3    H111718   1.065   5.618   0.794  1.4523  0.6889  0.3876
 3918TIP3    H211719   1.178   5.520   0.772 -0.3846 -1.5570  0.7020
 3919TIP3   OH211720   0.896   4.586   3.065 -0.2003 -0.0513  0.6074
 3919TIP3    H111721   0.899   4.509   3.121 -0.1679  0.0678  0.7682
 3919TIP3    H211722   0.822   4.637   3.098 -0.6533 -0.3431  0.0755
 3920TIP3   OH211723   3.026   1.396   1.508 -0.1807  0.4651 -0.0192
 3920TIP3    H111724   3.085   1.435   1.572  1.6818 -0.4485 -1.1054
 3920TIP3    H211725   3.016   1.462   1.440 -0.6574  0.7214  0.2923
 3921TIP3   OH211726   6.653   0.291   4.129 -0.5437  0.1557 -0.5152
 3921TIP3    H111727   6.695   0.368   4.091  1.5253 -0.4094  0.5060
 3921TIP3    H211728   6.725   0.234   4.156 -1.8731 -0.1481  2.8560
 3922TIP3   OH211729   4.924   3.340   4.723 -0.1998  0.4105 -0.1764
 3922TIP3    H111730   5.018   3.348   4.739 -0.2665  1.9219 -0.3500
 3922TIP3    H211731   4.917   3.286   4.645  0.4583 -0.6986  0.5078
 3923TIP3   OH211732   1.747   2.129   1.093 -0.2553 -0.1336 -0.9981
 3923TIP3    H111733   1.773   2.189   1.023  0.1829  0.8463 -0.0211
 3923TIP3    H211734   1.828   2.108   1.139 -0.8679  1.7628  1.1466
 3924TIP3   OH211735   4.353   2.927   2.343  0.2833  0.3669 -0.2692
 3924TIP3    H111736   4.383   2.963   2.426 -1.2060  1.1749 -0.0551
 3924TIP3    H211737   4.339   2.834   2.361  1.0605  0.2986  0.0465
 3925TIP3   OH211738   5.478   4.496   0.525  0.5227 -0.1036 -0.1407
 3925TIP3    H111739   5.504   4.575   0.478 -0.1806 -0.6693 -1.5316
 3925TIP3    H211740   5.382   4.497   0.524  0.4990 -0.5880  0.5133
 3926TIP3   OH211741   4.646   1.907   2.547  0.1441  0.2675 -0.3605
 3926TIP3    H111742   4.592   1.951   2.482 -1.1903 -1.8123 -0.7647
 3926TIP3    H211743   4.716   1.865   2.496  0.5900  0.7189 -0.1350
 3927TIP3   OH211744   6.308   3.686   1.621 -0.1761 -0.0780 -0.9733
 3927TIP3    H111745   6.269   3.716   1.703  0.0732  1.8201 -1.5100
 3927TIP3    H211746   6.264   3.738   1.554  0.2398 -1.0011 -1.9801
 3928TIP3   OH211747   1.423   5.324   4.490  0.0024 -0.3397 -0.5395
 3928TIP3    H111748   1.367   5.263   4.442 -0.3865 -1.1949  0.9366
 3928TIP3    H211749   1.426   5.289   4.579 -1.6397  2.6370  0.8577
 3929TIP3   OH211750   1.537   2.868   0.437 -0.0448  0.1728  0.1686
 3929TIP3    H111751   1.489   2.905   0.363 -1.9296 -0.9398  0.7652
 3929TIP3    H211752   1.557   2.944   0.493 -1.8677  0.5921  0.2977
 3930TIP3   OH211753   5.768   4.356   0.975 -0.0256 -0.1380 -0.3971
 3930TIP3    H111754   5.731   4.336   1.061 -0.3389  1.4128 -0.1502
 3930TIP3    H211755   5.858   4.324   0.979 -0.8225 -2.6079 -0.4895
 3931TIP3   OH211756   2.851   3.992   4.020 -0.0407 -0.4923  0.0036
 3931TIP3    H111757   2.835   3.899   4.006 -1.0584 -0.5489  1.2947
 3931TIP3    H211758   2.829   4.006   4.112 -1.9927  1.4096 -0.6755
 3932TIP3   OH211759   2.755   1.402   1.738 -0.2522  0.1048  0.2918
 3932TIP3    H111760   2.830   1.455   1.765  0.3019 -0.5134 -0.0077
 3932TIP3    H211761   2.689   1.418   1.806  1.7717 -2.9841  3.3325
 3933TIP3   OH211762   3.405   4.607   4.461  0.8507 -0.1069  0.3262
 3933TIP3    H111763   3.400   4.703   4.460 -0.6243 -0.1355 -1.3407
 3933TIP3    H211764   3.481   4.587   4.405  1.8268  0.0738  1.5535
 3934TIP3   OH211765   6.691   3.371   1.917  0.2018  0.2012  0.2126
 3934TIP3    H111766   6.633   3.306   1.957 -0.4417  2.0648  2.5374
 3934TIP3    H211767   6.650   3.392   1.833 -0.5581 -1.0381  0.2536
 3935TIP3   OH211768   0.482   2.076   0.236  0.8964 -0.1565  0.0548
 3935TIP3    H111769   0.495   1.982   0.237 -0.1694 -0.3248  1.5799
 3935TIP3    H211770   0.543   2.108   0.170 -0.7822 -2.1884 -2.6662
 3936TIP3   OH211771   1.714   6.555   2.854 -0.1435  0.5371  0.5497
 3936TIP3    H111772   1.680   6.608   2.926  1.3446  0.0021  1.7007
 3936TIP3    H211773   1.751   6.477   2.897 -0.4887 -0.4853 -0.9240
 3937TIP3   OH211774   3.550   3.640   3.480  0.2821  0.4147  0.3732
 3937TIP3    H111775   3.490   3.572   3.510  0.0771  0.3145 -0.2614
 3937TIP3    H211776   3.493   3.711   3.450  0.4769  0.3172 -0.2338
 3938TIP3   OH211777   4.495   6.077   0.128  1.1998 -0.4356  0.0119
 3938TIP3    H111778   4.405   6.050   0.110 -0.1016  2.4882  1.6171
 3938TIP3    H211779   4.529   6.105   0.043  0.1762 -0.3631 -0.3867
 3939TIP3   OH211780   1.240   3.273   2.576 -0.3626  0.4362  0.1826
 3939TIP3    H111781   1.152   3.290   2.612 -0.4999 -0.3671  0.2301
 3939TIP3    H211782   1.299   3.320   2.635 -0.8112  1.8002 -0.4000
 3940TIP3   OH211783   5.211   1.393   4.845 -0.0399  0.4193 -0.5994
 3940TIP3    H111784   5.132   1.366   4.892 -0.6809 -0.3106 -2.0241
 3940TIP3    H211785   5.276   1.326   4.866 -0.5218 -0.2626 -1.2325
 3941TIP3   OH211786   4.247   5.980   0.087 -0.2814 -1.0114  0.0778
 3941TIP3    H111787   4.179   5.923   0.124 -0.6186 -1.3598 -1.0363
 3941TIP3    H211788   4.263   5.944   0.000 -0.8812  0.8949 -0.8677
 3942TIP3   OH211789   5.086   1.185   3.423  0.2580 -0.3976  0.2144
 3942TIP3    H111790   5.134   1.116   3.377 -0.9728 -1.0118 -0.2041
 3942TIP3    H211791   5.154   1.244   3.456  1.3381 -1.7941  0.5641
 3943TIP3   OH211792   1.163   2.365   0.985  0.3528 -0.6443 -0.2431
 3943TIP3    H111793   1.081   2.382   1.032  0.5030  0.2665 -0.3014
 3943TIP3    H211794   1.231   2.371   1.053  0.4114 -1.0107 -0.2682
 3944TIP3   OH211795   4.043   2.586   5.141  0.2051  0.0540 -0.2863
 3944TIP3    H111796   4.091   2.633   5.210 -0.1842 -0.1191  0.1049
 3944TIP3    H211797   4.016   2.504   5.183 -0.3285  0.0987 -0.5476
 3945TIP3   OH211798   1.705   0.868   5.347  0.1861 -0.0972  0.7507
 3945TIP3    H111799   1.699   0.918   5.428 -1.3647  0.9888  0.0215
 3945TIP3    H211800   1.718   0.935   5.279  0.5764 -0.9119  0.0018
 3946TIP3   OH211801   6.863   5.280   0.891 -1.2646 -0.1181  0.1430
 3946TIP3    H111802   6.831   5.359   0.847 -0.2480 -0.4238 -1.1905
 3946TIP3    H211803   6.928   5.312   0.953 -1.3282  0.1410  0.0799
 3947TIP3   OH211804   2.736   2.769   2.401 -0.1736 -0.4793 -0.8732
 3947TIP3    H111805   2.660   2.776   2.459  0.0250 -0.4227 -0.6170
 3947TIP3    H211806   2.804   2.820   2.445 -0.2195  0.1330 -1.4820
 3948TIP3   OH211807   3.363   6.618   2.511 -0.1652 -0.2954 -0.1222
 3948TIP3    H111808   3.454   6.603   2.537 -0.5447 -1.2737  0.7403
 3948TIP3    H211809   3.352   6.566   2.431 -0.3637 -1.4745  0.6356
 3949TIP3   OH211810   1.044   1.383   4.903 -0.4618  0.2953 -0.3384
 3949TIP3    H111811   1.091   1.341   4.831 -1.0373  0.1853 -0.6607
 3949TIP3    H211812   1.051   1.321   4.976 -1.3429 -0.4072 -0.8250
 3950TIP3   OH211813   1.148   3.283   3.222  0.7743 -0.3353  0.6655
 3950TIP3    H111814   1.171   3.193   3.197 -1.3040 -0.4049 -1.3014
 3950TIP3    H211815   1.190   3.338   3.155  0.1226 -0.0445  0.4857
 3951TIP3   OH211816   2.538   6.659   4.859 -0.2300  0.3170  0.3232
 3951TIP3    H111817   2.532   6.567   4.834 -0.7241  0.7714 -1.3445
 3951TIP3    H211818   2.460   6.674   4.913 -0.0644 -0.2631  0.7399
 3952TIP3   OH211819   3.980   4.901   0.751 -0.0563  0.4296  0.3408
 3952TIP3    H111820   4.010   4.926   0.664  1.6177  0.7754  0.9700
 3952TIP3    H211821   3.891   4.871   0.738  0.5287 -0.6266 -1.6700
 3953TIP3   OH211822   6.017   5.222   2.285 -0.3746 -0.2229  0.4083
 3953TIP3    H111823   6.020   5.181   2.199 -1.0116  0.4429  0.0580
 3953TIP3    H211824   6.081   5.293   2.280 -0.2407 -0.3335  0.5610
 3954TIP3   OH211825   2.262   3.472   1.087  0.6106  0.5466 -0.2096
 3954TIP3    H111826   2.311   3.544   1.128  0.0649  1.0294 -0.3848
 3954TIP3    H211827   2.238   3.506   1.001  2.2026 -0.6477 -1.1917
 3955TIP3   OH211828   5.485   2.000   0.098 -0.1999  0.1944  0.8137
 3955TIP3    H111829   5.431   2.011   0.176  2.7914  1.3353  2.8866
 3955TIP3    H211830   5.499   2.089   0.065 -0.2272 -0.1530 -0.1698
 3956TIP3   OH211831   1.885   4.092   4.009  0.0385  0.0021 -0.2933
 3956TIP3    H111832   1.897   4.047   4.093  2.5282  2.4599  0.8304
 3956TIP3    H211833   1.937   4.041   3.947  1.3687  0.2436  0.5686
 3957TIP3   OH211834   6.325   2.140   1.811 -0.2679  0.1184 -0.5557
 3957TIP3    H111835   6.419   2.129   1.824  0.0745  0.6553 -2.3486
 3957TIP3    H211836   6.299   2.202   1.879  0.7433  0.2401 -0.2594
 3958TIP3   OH211837   3.822   6.575   5.598  0.2404  0.4986 -0.0938
 3958TIP3    H111838   3.777   6.629   5.664  1.2812 -0.1274  1.1603
 3958TIP3    H211839   3.868   6.639   5.543 -0.8390  1.0442 -0.3944
 3959TIP3   OH211840   0.558   3.013   4.462  0.0425  0.0192 -0.0914
 3959TIP3    H111841   0.647   3.037   4.485  0.0490  0.4308 -0.5370
 3959TIP3    H211842   0.508   3.095   4.469 -0.1797 -0.0848 -0.4315
 3960TIP3   OH211843   3.259   6.227   5.839  0.0531 -0.5975  0.8273
 3960TIP3    H111844   3.256   6.211   5.745  0.6863 -2.1165  1.0271
 3960TIP3    H211845   3.315   6.304   5.849 -1.3635  0.6053 -0.1046
 3961TIP3   OH211846   6.049   5.275   4.479 -0.3577 -0.3083  0.5147
 3961TIP3    H111847   6.062   5.290   4.573 -2.5111 -0.5939  0.9053
 3961TIP3    H211848   6.015   5.358   4.446 -1.5178 -0.8200  0.4038
 3962TIP3   OH211849   0.726   0.151   5.633 -0.1231 -0.2687  0.1931
 3962TIP3    H111850   0.665   0.078   5.619 -0.9884  0.3312  0.7817
 3962TIP3    H211851   0.742   0.186   5.546 -2.3761  0.9536  0.2060
 3963TIP3   OH211852   1.154   4.866   0.204  0.1124  0.1100  0.4154
 3963TIP3    H111853   1.154   4.826   0.117 -0.2002 -2.5495  1.5299
 3963TIP3    H211854   1.069   4.843   0.241  0.8918 -0.3513  2.0333
 3964TIP3   OH211855  -0.028   2.493   1.300  0.1602 -0.0802 -0.8029
 3964TIP3    H111856   0.027   2.571   1.309 -0.0010 -0.1292  0.7735
 3964TIP3    H211857   0.030   2.420   1.321 -0.0876 -0.2590 -0.7347
 3965TIP3   OH211858   6.106   4.223   0.214 -0.0445  0.3952 -0.2294
 3965TIP3    H111859   6.116   4.309   0.173  2.1102 -0.0116 -0.7130
 3965TIP3    H211860   6.179   4.218   0.276 -1.4109 -0.2615  1.4062
 3966TIP3   OH211861   3.621   1.899   3.606  0.0305  0.4077 -0.0964
 3966TIP3    H111862   3.542   1.916   3.657 -1.1144 -1.0038 -1.2943
 3966TIP3    H211863   3.591   1.901   3.515  1.3723 -0.2013 -0.5773
 3967TIP3   OH211864   3.023   0.862   5.362 -0.0677 -0.4786  0.5841
 3967TIP3    H111865   3.024   0.932   5.298 -0.0919  0.8523  1.9771
 3967TIP3    H211866   3.113   0.856   5.393  0.2136 -1.9601 -0.4076
 3968TIP3   OH211867   5.311   0.868   4.539 -0.4866 -0.5137  0.0027
 3968TIP3    H111868   5.226   0.835   4.510 -1.5977  1.5170  0.7316
 3968TIP3    H211869   5.324   0.948   4.487  1.3170 -1.1179 -0.5578
 3969TIP3   OH211870   5.016   1.227   1.633 -0.2625  0.8591 -0.2869
 3969TIP3    H111871   4.973   1.154   1.588 -0.8647  2.4450 -2.4466
 3969TIP3    H211872   5.050   1.282   1.563  0.6161  2.4202  1.2781
 3970TIP3   OH211873   4.512   3.390   4.425  0.3827 -0.4691  0.0966
 3970TIP3    H111874   4.577   3.458   4.404 -1.0036  1.1747  0.9644
 3970TIP3    H211875   4.444   3.400   4.358 -1.4329  1.2441  2.0730
 3971TIP3   OH211876   5.039   5.650   1.888  0.5161 -0.5092  0.3922
 3971TIP3    H111877   5.106   5.718   1.876  0.1936 -0.6539 -3.2329
 3971TIP3    H211878   4.981   5.685   1.955  0.9608  2.3427 -0.5848
 3972TIP3   OH211879   3.995   1.052   5.849 -0.1627  0.2945  0.5780
 3972TIP3    H111880   4.013   0.965   5.813 -1.7011  0.1535  0.0709
 3972TIP3    H211881   3.983   1.108   5.773 -0.3908  0.6763  0.8898
 3973TIP3   OH211882   3.458   6.472   2.022  0.6830  0.5912  0.1333
 3973TIP3    H111883   3.552   6.480   2.039  1.2607  0.0464 -2.3988
 3973TIP3    H211884   3.443   6.526   1.945 -1.0056  0.2174  0.1692
 3974TIP3   OH211885   3.046   2.772   2.938  0.8284 -0.1228 -0.4158
 3974TIP3    H111886   3.118   2.733   2.987  0.7757  1.1980  0.7792
 3974TIP3    H211887   2.990   2.698   2.915  2.7741 -1.2577 -1.8309
 3975TIP3   OH211888   6.319   4.763   0.087  0.1139  0.0784 -0.1395
 3975TIP3    H111889   6.225   4.781   0.079 -0.0089  0.3536  1.6883
 3975TIP3    H211890   6.334   4.692   0.024 -1.1144  0.6653 -1.1514
 3976TIP3   OH211891   3.365   3.576   1.064  0.1013  0.4588 -0.0508
 3976TIP3    H111892   3.377   3.595   1.157 -1.9711 -1.1566  0.6296
 3976TIP3    H211893   3.434   3.626   1.020  1.0045  1.4391  2.3131
 3977TIP3   OH211894   1.635   4.871   3.178 -0.4858 -0.1995  0.1919
 3977TIP3    H111895   1.585   4.939   3.133  1.5283  0.6760 -0.8739
 3977TIP3    H211896   1.606   4.789   3.139 -0.7924  0.3224 -0.6879
 3978TIP3   OH211897   4.547   3.048   3.930  0.5007 -0.0120 -0.4990
 3978TIP3    H111898   4.592   2.996   3.996  0.6611  0.6939 -0.0443
 3978TIP3    H211899   4.599   3.035   3.850 -0.0412 -1.3571 -0.6669
 3979TIP3   OH211900   5.505   0.419   1.954  0.2480 -0.0028  0.4504
 3979TIP3    H111901   5.454   0.476   1.897 -0.3876  1.7715  2.6231
 3979TIP3    H211902   5.592   0.418   1.916 -0.3286  0.4375 -0.9668
 3980TIP3   OH211903   3.384   3.904   0.500 -0.2339 -0.0740 -0.2384
 3980TIP3    H111904   3.291   3.907   0.521 -0.0695 -0.9697  0.6594
 3980TIP3    H211905   3.423   3.851   0.569  0.6889 -1.1134 -1.5103
 3981TIP3   OH211906   3.822   1.688   2.659 -0.2260  0.5534 -0.0746
 3981TIP3    H111907   3.738   1.666   2.699  0.7701 -0.7528  1.4394
 3981TIP3    H211908   3.841   1.777   2.689 -0.8578  0.6724 -0.0350
 3982TIP3   OH211909   5.208   3.399   4.008 -0.0797 -0.4025 -0.2739
 3982TIP3    H111910   5.115   3.423   4.003  0.3277  1.1153 -1.6190
 3982TIP3    H211911   5.251   3.478   4.042  0.8573 -0.6704 -0.8144
 3983TIP3   OH211912   0.393   1.512   2.273  0.3410 -0.3137  0.2956
 3983TIP3    H111913   0.462   1.566   2.311 -0.0283  0.4460 -0.0957
 3983TIP3    H211914   0.312   1.560   2.291  0.0701 -0.4238 -0.5921
 3984TIP3   OH211915   2.725   5.809   4.868  0.0749 -0.2734 -0.3404
 3984TIP3    H111916   2.784   5.735   4.858  0.9874  0.5971 -1.6422
 3984TIP3    H211917   2.640   5.776   4.839  0.5266 -0.7573 -1.1391
 3985TIP3   OH211918   5.548   5.628   1.732 -0.2654  0.0976  0.0609
 3985TIP3    H111919   5.534   5.710   1.780 -0.2272 -0.3571  0.8743
 3985TIP3    H211920   5.552   5.654   1.640  0.6992  1.1351  0.3727
 3986TIP3   OH211921   1.507   5.719   5.573 -0.3935  0.6031  0.0040
 3986TIP3    H111922   1.467   5.788   5.521 -1.1522  1.1179  1.2380
 3986TIP3    H211923   1.436   5.658   5.590  0.0543 -0.0066 -0.2696
 3987TIP3   OH211924   2.024   4.486   1.106  0.1392 -0.0865 -0.4118
 3987TIP3    H111925   1.987   4.399   1.120 -0.1500  0.2922  1.3217
 3987TIP3    H211926   1.970   4.524   1.036 -0.4829 -0.8503 -0.3598
 3988TIP3   OH211927   0.686   0.856   4.201  0.0189 -0.1300 -0.5939
 3988TIP3    H111928   0.705   0.944   4.235 -1.2633 -0.1849  0.3735
 3988TIP3    H211929   0.730   0.853   4.117  4.0659 -0.2301  1.2706
 3989TIP3   OH211930   4.584   0.763   5.152  0.0207  0.1457 -0.6838
 3989TIP3    H111931   4.566   0.814   5.231  0.6884  1.0682 -1.0998
 3989TIP3    H211932   4.671   0.726   5.167  0.2383  0.4928 -1.0589
 3990TIP3   OH211933   1.613   2.454   4.392 -0.1010 -0.3270 -0.3223
 3990TIP3    H111934   1.704   2.472   4.414  0.2421  0.6401 -2.3127
 3990TIP3    H211935   1.567   2.535   4.415 -0.2226 -0.3238 -0.5746
 3991TIP3   OH211936   7.184   0.279   5.671  0.0386  0.0982 -0.3395
 3991TIP3    H111937   7.187   0.331   5.590 -0.7317 -0.1727 -0.5467
 3991TIP3    H211938   7.100   0.302   5.711  0.1917 -0.1529  0.1297
 3992TIP3   OH211939   6.894   6.415   4.431 -0.2631  0.3308 -0.3758
 3992TIP3    H111940   6.943   6.335   4.413  1.3734  1.3433 -0.5702
 3992TIP3    H211941   6.822   6.413   4.368  1.3885  0.3716 -2.3573
 3993TIP3   OH211942   5.032   0.363   2.527 -0.0579 -0.2391  0.2670
 3993TIP3    H111943   5.056   0.290   2.584 -1.5310  1.1822  2.8735
 3993TIP3    H211944   5.045   0.441   2.581 -3.9940  1.0482 -0.3632
 3994TIP3   OH211945   5.811   3.867   2.971 -0.6694  0.4657  0.1994
 3994TIP3    H111946   5.778   3.921   2.899  0.0626  0.1796 -0.3553
 3994TIP3    H211947   5.760   3.896   3.047  0.8995  3.2581  0.3323
 3995TIP3   OH211948   5.713   3.485   4.342  0.1116 -0.1709 -0.1124
 3995TIP3    H111949   5.795   3.456   4.302 -0.3252  0.5373 -1.5721
 3995TIP3    H211950   5.716   3.448   4.431  2.5366  0.7947  0.3010
 3996TIP3   OH211951   3.769   2.518   4.690  0.0306 -0.6893  0.0736
 3996TIP3    H111952   3.743   2.567   4.612  0.0776 -1.5336 -0.4870
 3996TIP3    H211953   3.858   2.487   4.671  0.0567 -0.8676  0.4753
 3997TIP3   OH211954   1.457   3.700   0.331 -0.0443  0.0388 -0.3527
 3997TIP3    H111955   1.379   3.752   0.351  0.1330  0.6925 -1.3053
 3997TIP3    H211956   1.460   3.634   0.400 -1.6655 -0.2434 -0.5224
 3998TIP3   OH211957   1.826   1.908   2.219  0.0700  0.0155  0.2654
 3998TIP3    H111958   1.870   1.910   2.304 -0.0053  3.4265  0.3389
 3998TIP3    H211959   1.732   1.910   2.240  0.0563  2.5459  0.1924
 3999TIP3   OH211960   2.887   1.183   1.041  0.0785 -0.3392 -0.6540
 3999TIP3    H111961   2.847   1.121   0.981  1.4438 -1.3659 -0.5553
 3999TIP3    H211962   2.860   1.154   1.128 -1.7351  1.0303 -0.6926
 4000TIP3   OH211963   4.495   6.513   2.086  0.3950  0.0742 -0.1539
 4000TIP3    H111964   4.544   6.434   2.064 -0.4965  0.0262 -2.2655
 4000TIP3    H211965   4.404   6.492   2.063 -0.3381  0.7864  1.8847
 4001TIP3   OH211966   0.545   5.844   4.361 -0.3175  0.7991 -0.3812
 4001TIP3    H111967   0.625   5.896   4.359 -0.9578  1.7954 -0.6951
 4001TIP3    H211968   0.533   5.822   4.454  0.0407  1.0778 -0.2694
 4002TIP3   OH211969   0.316   5.553   2.348  0.2282  0.0814  0.2566
 4002TIP3    H111970   0.227   5.526   2.370 -1.2323  2.0311 -2.6582
 4002TIP3    H211971   0.369   5.475   2.364 -2.3119 -1.7665  0.2804
 4003TIP3   OH211972   1.314   2.886   0.746 -0.3679  0.0401 -0.4154
 4003TIP3    H111973   1.265   2.804   0.753 -2.0127  0.9428 -0.9089
 4003TIP3    H211974   1.395   2.861   0.702 -0.8982 -1.3015 -0.6917
 4004TIP3   OH211975   2.000   6.503   0.142  0.4835 -0.4361  0.1200
 4004TIP3    H111976   1.993   6.589   0.099 -0.4158  0.4296  1.8803
 4004TIP3    H211977   2.040   6.523   0.227 -0.1006 -1.6981  0.7087
 4005TIP3   OH211978   0.150   5.556   1.921 -0.3763 -0.2776 -0.2114
 4005TIP3    H111979   0.082   5.551   1.988 -0.2432  0.6818  0.0146
 4005TIP3    H211980   0.185   5.467   1.915 -2.5042 -1.1183 -1.2714
 4006TIP3   OH211981   3.719   1.669   1.585 -0.4216 -0.0195 -0.3952
 4006TIP3    H111982   3.671   1.586   1.580 -0.3541 -0.0987  0.1850
 4006TIP3    H211983   3.653   1.736   1.571 -0.1421 -0.2018 -3.0362
 4007TIP3   OH211984   4.734   0.272   5.725  0.0818 -0.5063 -0.1094
 4007TIP3    H111985   4.803   0.220   5.684 -0.0362 -0.3428 -0.5221
 4007TIP3    H211986   4.754   0.362   5.698  0.3718 -0.3202  0.7172
 4008TIP3   OH211987   4.350   0.427   2.570  0.4770  0.0898  0.3489
 4008TIP3    H111988   4.406   0.386   2.504  0.1998  0.1952  0.0460
 4008TIP3    H211989   4.408   0.443   2.644  0.6670 -0.5273  0.3369
 4009TIP3   OH211990   6.283   3.385   4.867 -0.0171  0.4811  0.1327
 4009TIP3    H111991   6.239   3.369   4.951  1.2020  1.9332  1.1185
 4009TIP3    H211992   6.292   3.298   4.828 -1.1644 -0.1648  1.2153
 4010TIP3   OH211993   4.379   0.785   2.779 -0.3562 -0.3356 -0.5263
 4010TIP3    H111994   4.423   0.701   2.772  0.7219  0.1493  0.1844
 4010TIP3    H211995   4.287   0.766   2.760  0.0707 -1.4499 -1.6051
 4011TIP3   OH211996   2.961   0.201   3.251  0.1242 -0.3946  0.1774
 4011TIP3    H111997   2.888   0.213   3.190  0.9839  1.0548 -0.6284
 4011TIP3    H211998   3.039   0.216   3.198  1.0436 -1.9989  1.0067
 4012TIP3   OH211999   0.827   4.830  -0.002 -0.2769 -0.4030 -0.3245
 4012TIP3    H112000   0.920   4.828   0.022 -0.0040 -3.3807 -1.1929
 4012TIP3    H212001   0.789   4.755   0.043 -2.1632  0.3922 -0.4996
 4013TIP3   OH212002   0.162   4.568   3.742  0.5197 -0.4690 -0.5049
 4013TIP3    H112003   0.095   4.636   3.736 -1.0819 -2.0549 -1.6124
 4013TIP3    H212004   0.189   4.570   3.834 -2.8959 -1.3803  0.6636
 4014TIP3   OH212005   3.737   4.818   2.509 -0.0778  0.0037  0.0613
 4014TIP3    H112006   3.727   4.728   2.541 -0.8353 -0.2118 -0.7496
 4014TIP3    H212007   3.831   4.833   2.509  0.0887 -0.9740 -0.3050
 4015TIP3   OH212008   5.663   2.552   0.406 -0.1295 -0.7181  0.1696
 4015TIP3    H112009   5.645   2.646   0.408  1.2852 -0.4174  0.0385
 4015TIP3    H212010   5.631   2.523   0.320 -1.6883 -0.6219  0.6925
 4016TIP3   OH212011   6.931   4.128   3.807  1.0186  0.1015 -0.3875
 4016TIP3    H112012   7.020   4.104   3.779  0.9368 -0.3757 -0.2426
 4016TIP3    H212013   6.944   4.172   3.891  1.0566 -0.7163  0.0491
 4017TIP3   OH212014   1.246   3.066   0.984 -0.4893 -0.2239  0.0670
 4017TIP3    H112015   1.282   3.153   0.969  0.2562 -0.7022 -1.0431
 4017TIP3    H212016   1.241   3.026   0.897  2.1693 -2.4353  0.7876
 4018TIP3   OH212017   0.893   6.104   3.024  0.1996  0.6584 -0.4096
 4018TIP3    H112018   0.863   6.040   3.088 -2.2024  0.5604 -1.5022
 4018TIP3    H212019   0.983   6.078   3.004 -0.5827 -2.2935 -0.6322
 4019TIP3   OH212020   1.588   0.973   2.093 -0.1192  0.0760 -0.4087
 4019TIP3    H112021   1.681   0.990   2.079  0.0586 -0.4844  0.0702
 4019TIP3    H212022   1.578   0.970   2.188 -0.7664  0.8744 -0.4441
 4020TIP3   OH212023   6.914   0.654   2.300  0.5776 -0.1703 -0.3018
 4020TIP3    H112024   6.982   0.683   2.361 -1.4617 -0.3751  2.2179
 4020TIP3    H212025   6.925   0.711   2.223  2.8702  0.5122  0.4684
 4021TIP3   OH212026   5.374   3.180   0.618  0.4517  0.0843 -0.0395
 4021TIP3    H112027   5.339   3.125   0.688  0.2321 -1.1955 -1.0999
 4021TIP3    H212028   5.346   3.136   0.537 -1.3405  2.7929 -1.0089
 4022TIP3   OH212029   4.618   5.215   4.714  0.8871 -0.0860 -0.4744
 4022TIP3    H112030   4.659   5.131   4.693 -1.6790 -1.2715 -1.0645
 4022TIP3    H212031   4.593   5.251   4.629 -0.2146  0.0990 -0.0773
 4023TIP3   OH212032   0.846   1.224   0.284  0.2269  0.2914  0.5240
 4023TIP3    H112033   0.822   1.199   0.373 -1.0378 -0.8840 -0.1154
 4023TIP3    H212034   0.855   1.319   0.288  0.7820  0.2132  2.0243
 4024TIP3   OH212035   4.839   5.050   5.328  0.3122  0.3562 -0.0065
 4024TIP3    H112036   4.842   5.020   5.419  1.0150  0.3105 -0.0406
 4024TIP3    H212037   4.821   5.144   5.335  0.2635  0.3345  0.1740
 4025TIP3   OH212038   4.693   6.076   5.400 -0.2589  0.3687  0.7001
 4025TIP3    H112039   4.772   6.054   5.351 -0.1339  0.0913  1.0240
 4025TIP3    H212040   4.723   6.084   5.490 -0.3471  1.5859  0.6435
 4026TIP3   OH212041   4.454   1.171   3.848 -0.6385  0.6198  0.2311
 4026TIP3    H112042   4.387   1.223   3.804 -0.9086  0.7028  0.7364
 4026TIP3    H212043   4.418   1.154   3.935  0.4765  1.6331  0.9251
 4027TIP3   OH212044   1.009   5.445   5.537  0.2986  0.0396 -0.3921
 4027TIP3    H112045   1.036   5.476   5.624  1.2863  0.4314 -0.8169
 4027TIP3    H212046   0.929   5.494   5.517  0.2922  0.2442  0.1253
 4028TIP3   OH212047   0.429   1.920   3.513  0.3879 -0.0250 -0.7548
 4028TIP3    H112048   0.490   1.950   3.580 -0.2060  1.0668 -0.6895
 4028TIP3    H212049   0.345   1.958   3.537 -0.1853 -0.9572 -1.2240
 4029TIP3   OH212050   3.687   2.600   2.543  0.0520  0.5428  0.0095
 4029TIP3    H112051   3.718   2.690   2.558  1.1187  0.1699  0.1566
 4029TIP3    H212052   3.765   2.553   2.513 -0.7793 -0.0391 -1.3468
 4030TIP3   OH212053   4.471   4.467   5.351 -0.1641  0.2794  0.1740
 4030TIP3    H112054   4.399   4.526   5.330  0.2583  0.7855  0.1364
 4030TIP3    H212055   4.448   4.385   5.306 -2.2508 -0.6326  2.6369
 4031TIP3   OH212056   6.956   4.617   4.929 -0.3811 -0.0317 -0.3900
 4031TIP3    H112057   6.910   4.695   4.897  1.8895  0.9823 -1.4546
 4031TIP3    H212058   7.012   4.650   4.999  0.2388 -0.8027 -0.5139
 4032TIP3   OH212059   1.132   6.744   4.175  0.6286 -0.4046 -0.3082
 4032TIP3    H112060   1.223   6.755   4.202  0.3458 -0.2150  0.5812
 4032TIP3    H212061   1.132   6.663   4.125  1.1362 -0.8554  0.4085
 4033TIP3   OH212062   2.675   5.157   2.505  0.0860  0.4245 -0.1888
 4033TIP3    H112063   2.741   5.094   2.477 -1.1219  0.1682 -2.7287
 4033TIP3    H212064   2.721   5.240   2.508  1.7733 -0.4376  3.4485
 4034TIP3   OH212065   4.582   6.072   5.047  0.5044  0.3244 -0.2876
 4034TIP3    H112066   4.515   6.117   5.098  0.8125  1.8248 -1.1370
 4034TIP3    H212067   4.536   6.041   4.969  0.7607  1.3207 -0.8522
 4035TIP3   OH212068   3.457   4.837   0.391 -0.2067 -0.3111 -0.1171
 4035TIP3    H112069   3.523   4.773   0.367  1.2018  0.2011  2.0845
 4035TIP3    H212070   3.443   4.824   0.485 -1.3561  1.2906 -0.0146
 4036TIP3   OH212071   3.815   5.889   2.145  0.1486  0.0695  0.0117
 4036TIP3    H112072   3.739   5.898   2.202 -0.4645 -1.0396 -0.5857
 4036TIP3    H212073   3.784   5.915   2.058  1.0750  1.7484  0.1441
 4037TIP3   OH212074   1.474   2.327   1.648  0.6190  0.3184 -0.4946
 4037TIP3    H112075   1.496   2.378   1.570  1.4722 -1.0503 -1.1885
 4037TIP3    H212076   1.550   2.337   1.705  0.7435 -0.0750 -0.5885
 4038TIP3   OH212077   3.834   0.901   3.501 -0.4775 -0.5953  0.0382
 4038TIP3    H112078   3.766   0.955   3.540  0.2522  0.1907  0.2579
 4038TIP3    H212079   3.910   0.912   3.559 -0.0595 -1.1923 -0.3787
 4039TIP3   OH212080   6.460   6.695   5.819 -0.6264 -0.3436 -0.3783
 4039TIP3    H112081   6.373   6.734   5.814 -0.6252 -0.4521 -1.5287
 4039TIP3    H212082   6.501   6.738   5.894 -1.1585  0.7696 -0.7065
 4040TIP3   OH212083   4.316   3.532   5.768  0.0004 -0.2531  0.4254
 4040TIP3    H112084   4.244   3.503   5.823  0.0291  0.0259  0.6101
 4040TIP3    H212085   4.395   3.508   5.816  0.0499 -1.2631 -0.1311
 4041TIP3   OH212086   5.521   2.902   4.101 -0.0732 -0.1927  0.3264
 4041TIP3    H112087   5.493   2.879   4.013  0.9119  2.4042 -0.7685
 4041TIP3    H212088   5.616   2.890   4.101 -0.2210 -1.8594  1.6686
 4042TIP3   OH212089   6.413   6.641   2.320  0.3228  0.6658  0.4103
 4042TIP3    H112090   6.319   6.624   2.310  0.3682  0.1463  0.8312
 4042TIP3    H212091   6.421   6.736   2.318 -0.5412  0.8756  3.0823
 4043TIP3   OH212092   2.989   5.582   1.397 -0.3174 -0.7427  0.4086
 4043TIP3    H112093   2.949   5.651   1.344 -0.1927 -1.2137 -0.3134
 4043TIP3    H212094   3.055   5.543   1.340  0.0393 -1.0558  1.0239
 4044TIP3   OH212095   3.605   5.557   1.509  0.1244  0.0512  0.0236
 4044TIP3    H112096   3.656   5.638   1.501 -0.2253  0.2945  0.2342
 4044TIP3    H212097   3.668   5.492   1.539  0.3476  0.3118  0.1266
 4045TIP3   OH212098   1.259   1.286   1.243 -0.4224  0.3266 -0.3752
 4045TIP3    H112099   1.226   1.373   1.221  0.2218  0.8062  0.4635
 4045TIP3    H212100   1.245   1.278   1.338  1.8677  0.6097  0.0552
 4046TIP3   OH212101   4.351   4.488   0.007 -0.0782  0.1391 -0.5308
 4046TIP3    H112102   4.288   4.519   0.071  0.9456 -0.1171  0.6405
 4046TIP3    H212103   4.421   4.553   0.009  0.5139 -0.4911 -0.5097
 4047TIP3   OH212104   6.716   2.367   2.444 -0.3163  0.0753 -0.3209
 4047TIP3    H112105   6.667   2.310   2.385  0.9334 -0.0934 -1.2323
 4047TIP3    H212106   6.707   2.454   2.405  0.3544 -0.0066 -0.6751
 4048TIP3   OH212107   5.191   1.917   5.658 -0.0475  0.1138 -0.3008
 4048TIP3    H112108   5.169   1.855   5.588  1.3689 -2.5601  1.4453
 4048TIP3    H212109   5.165   1.873   5.739  2.3762  1.1057  1.1450
 4049TIP3   OH212110   4.567   2.531   5.362 -0.2996  0.4695 -0.0488
 4049TIP3    H112111   4.621   2.609   5.376 -0.3730  0.5421 -0.1712
 4049TIP3    H212112   4.598   2.469   5.428  0.5698  0.1701 -0.7199
 4050TIP3   OH212113   5.357   2.937   4.784 -0.1617 -0.0972  0.8684
 4050TIP3    H112114   5.445   2.902   4.798 -0.3339 -0.7255  0.4144
 4050TIP3    H212115   5.300   2.877   4.831 -0.5651 -1.1026 -0.8489
 4051TIP3   OH212116   2.015   4.682   3.112 -0.6969 -0.3781  0.3837
 4051TIP3    H112117   1.962   4.753   3.150 -2.2208 -1.7948  1.0565
 4051TIP3    H212118   2.079   4.661   3.180  0.0822  0.6225 -0.0053
 4052TIP3   OH212119   0.381   5.651   1.787  0.1788  0.1520 -0.2673
 4052TIP3    H112120   0.337   5.696   1.714 -1.1048 -0.3315  0.1726
 4052TIP3    H212121   0.311   5.600   1.828  1.2182 -0.7959  0.3602
 4053TIP3   OH212122   6.455   0.539   3.999  0.1295 -0.6520 -0.3981
 4053TIP3    H112123   6.456   0.491   3.915  1.9453 -0.5816 -0.4652
 4053TIP3    H212124   6.429   0.628   3.976 -2.1991 -1.2831 -0.4336
 4054TIP3   OH212125   3.775   3.739   3.244 -0.7522  0.1888  0.2950
 4054TIP3    H112126   3.844   3.787   3.290 -0.2284  0.0412 -0.3308
 4054TIP3    H212127   3.754   3.666   3.302 -0.0949  0.0017  0.3088
 4055TIP3   OH212128   2.552   2.550   1.459 -0.3606 -0.2328 -0.3209
 4055TIP3    H112129   2.482   2.595   1.506  1.2538  0.5299  1.4884
 4055TIP3    H212130   2.627   2.554   1.518  0.6499 -2.8686 -1.2888
 4056TIP3   OH212131   2.698   6.444   5.743  0.3201 -0.7878  0.1358
 4056TIP3    H112132   2.781   6.460   5.697 -0.3254 -0.2504 -0.8967
 4056TIP3    H212133   2.686   6.349   5.740  0.0166 -0.7265 -1.3595
 4057TIP3   OH212134   6.258   0.402   3.315 -0.1643 -0.1874  0.1142
 4057TIP3    H112135   6.193   0.337   3.342 -0.3461  0.0776  0.3190
 4057TIP3    H212136   6.278   0.379   3.224 -0.2848 -0.4815  0.1604
 4058TIP3   OH212137   3.402   6.051   2.981 -0.5198  0.6251  0.4016
 4058TIP3    H112138   3.331   5.989   2.994  1.1854 -1.1487  1.7888
 4058TIP3    H212139   3.365   6.135   3.008 -2.4623  0.0437 -0.2188
 4059TIP3   OH212140   2.699   3.320   4.105  0.0237  0.6110  0.3187
 4059TIP3    H112141   2.731   3.304   4.194  1.6102  0.6128 -0.2177
 4059TIP3    H212142   2.664   3.409   4.108  0.9757  0.9877  0.7181
 4060TIP3   OH212143   6.179   1.414   3.593 -0.3772  0.0491  0.0593
 4060TIP3    H112144   6.142   1.352   3.657 -0.1656  0.1404  0.2709
 4060TIP3    H212145   6.108   1.475   3.575 -0.2291  0.4168  0.7107
 4061TIP3   OH212146   3.231   3.637   2.188 -0.0866  0.7761 -0.5102
 4061TIP3    H112147   3.283   3.648   2.108  1.2405  2.1033  0.4704
 4061TIP3    H212148   3.150   3.685   2.170  0.1314  0.9308 -1.1165
 4062TIP3   OH212149   5.172   2.943   0.283 -0.2399  0.3083 -0.5457
 4062TIP3    H112150   5.229   2.866   0.289  0.0047  0.5134 -0.1373
 4062TIP3    H212151   5.129   2.947   0.368 -1.9159 -0.6257 -1.3170
 4063TIP3   OH212152   6.505   1.992   4.909 -0.2229  0.3550 -0.2293
 4063TIP3    H112153   6.466   2.076   4.887 -1.2645  0.3408  1.3635
 4063TIP3    H212154   6.438   1.947   4.961  1.5116 -0.0613  1.8123
 4064TIP3   OH212155   0.860   1.256   5.733 -0.1839  0.8711 -0.5474
 4064TIP3    H112156   0.942   1.292   5.766  0.0365  0.6221 -0.8242
 4064TIP3    H212157   0.810   1.333   5.704  0.9128  0.8883 -2.5852
 4065TIP3   OH212158   2.378   3.242   3.039 -0.2957 -0.1034 -0.2882
 4065TIP3    H112159   2.382   3.329   3.079 -0.6732 -0.1527 -0.1354
 4065TIP3    H212160   2.363   3.259   2.946 -0.9403 -0.0107 -0.1720
 4066TIP3   OH212161   0.844   1.539   3.696  0.5771  0.0239  0.5395
 4066TIP3    H112162   0.756   1.504   3.706  0.6707  0.0470  1.5077
 4066TIP3    H212163   0.901   1.479   3.745  0.7017  1.5966  2.4530
 4067TIP3   OH212164   3.138   1.043   0.788 -0.1410  1.0661  0.4272
 4067TIP3    H112165   3.103   1.115   0.735  0.6838  0.0234 -1.6434
 4067TIP3    H212166   3.130   0.966   0.732 -1.3556 -0.6105  2.7119
 4068TIP3   OH212167   5.476   4.277   5.686  0.0525  0.3064 -0.1154
 4068TIP3    H112168   5.483   4.340   5.614  0.6415  1.2865  0.7857
 4068TIP3    H212169   5.427   4.323   5.754 -0.8335 -0.7481 -0.0114
 4069TIP3   OH212170   6.212   1.400   4.224  0.0432  0.3421 -0.2309
 4069TIP3    H112171   6.286   1.461   4.226  0.9816 -0.7393 -0.7564
 4069TIP3    H212172   6.206   1.372   4.133 -0.2637 -0.4641  0.0295
 4070TIP3   OH212173   2.611   0.871   3.458  0.2171  0.2436  0.3403
 4070TIP3    H112174   2.688   0.921   3.431 -0.0965 -0.0388 -1.1967
 4070TIP3    H212175   2.647   0.791   3.498  0.7119  0.6210  0.6554
 4071TIP3   OH212176   1.436   2.608   5.149  0.0710 -0.4147  0.4079
 4071TIP3    H112177   1.391   2.576   5.070  1.0520 -1.4223  0.2254
 4071TIP3    H212178   1.521   2.640   5.117 -0.4943  1.5002  0.7351
 4072TIP3   OH212179   2.042   1.044   2.413 -0.4539 -0.3790 -0.2726
 4072TIP3    H112180   2.005   1.123   2.453 -0.0436 -0.8202  1.0460
 4072TIP3    H212181   2.015   0.973   2.472 -2.1377 -1.4839 -2.2385
 4073TIP3   OH212182   3.187   2.734   3.690  0.3206  0.7845  0.2900
 4073TIP3    H112183   3.234   2.742   3.607 -1.5271 -0.0541 -0.9084
 4073TIP3    H212184   3.188   2.640   3.709 -0.5654  0.7830  0.3844
 4074TIP3   OH212185   4.682   4.671   5.205  0.0435 -0.1871 -0.3028
 4074TIP3    H112186   4.656   4.763   5.211  3.3954  0.9857 -1.3556
 4074TIP3    H212187   4.600   4.623   5.196 -1.8468  2.6343  0.6453
 4075TIP3   OH212188   2.682   4.902   0.348 -0.0156  0.4054  0.3760
 4075TIP3    H112189   2.733   4.947   0.281  0.4583 -1.1284 -0.3447
 4075TIP3    H212190   2.747   4.864   0.407 -0.4083  0.8638  1.1188
 4076TIP3   OH212191   2.492   0.735   4.448  0.0107 -0.1794  0.6319
 4076TIP3    H112192   2.411   0.713   4.403  0.0603 -0.4511  0.6775
 4076TIP3    H212193   2.531   0.804   4.394  0.5716 -1.1936 -0.2940
 4077TIP3   OH212194   5.058   0.976   0.358  0.8284 -0.1046 -0.1015
 4077TIP3    H112195   5.012   0.951   0.439  0.2320 -0.9999 -0.6935
 4077TIP3    H212196   4.988   0.999   0.297  1.3024  1.2908 -0.1556
 4078TIP3   OH212197   5.214   5.775   2.888 -0.0056 -0.4857 -0.3398
 4078TIP3    H112198   5.307   5.795   2.899 -0.1911  0.4473 -0.4022
 4078TIP3    H212199   5.202   5.693   2.937  0.6694 -0.1487  0.4225
 4079TIP3   OH212200   2.134   3.419   0.308  0.5247  0.4073 -0.5239
 4079TIP3    H112201   2.095   3.472   0.378 -1.8341 -1.6660 -0.1019
 4079TIP3    H212202   2.195   3.362   0.353  1.7161  1.4775 -0.7280
 4080TIP3   OH212203   2.223   1.418   0.780  0.0507 -0.5760  0.0386
 4080TIP3    H112204   2.280   1.403   0.704  0.8369  0.0864  0.4784
 4080TIP3    H212205   2.138   1.384   0.753  0.6048 -1.4319 -0.7042
 4081TIP3   OH212206   4.809   5.898   2.532  0.0508  0.0003 -0.0997
 4081TIP3    H112207   4.790   5.915   2.440 -1.7838  0.3697  0.3021
 4081TIP3    H212208   4.725   5.913   2.577  1.2994  1.6303  1.8741
 4082TIP3   OH212209   2.445   0.797   3.668  0.0349 -0.1769  0.2783
 4082TIP3    H112210   2.366   0.752   3.637 -0.1648 -0.2197  0.8371
 4082TIP3    H212211   2.462   0.863   3.601 -1.4659  0.9716  0.9658
 4083TIP3   OH212212   3.992   3.972   0.001 -0.5325 -0.1949  0.0810
 4083TIP3    H112213   3.936   4.037   0.042  0.7547  1.1900 -0.2746
 4083TIP3    H212214   4.037   3.930   0.074 -0.0975  0.5253  0.2350
 4084TIP3   OH212215   1.474   1.074   1.869  0.4815  0.1461  0.3502
 4084TIP3    H112216   1.542   1.068   1.802 -0.2531 -3.0453 -0.2983
 4084TIP3    H212217   1.522   1.079   1.952  1.5010 -0.2649 -0.2021
 4085TIP3   OH212218   6.795   1.633   3.749 -0.2562  0.5541  0.0112
 4085TIP3    H112219   6.863   1.625   3.682 -0.1104  1.3994  0.0477
 4085TIP3    H212220   6.731   1.693   3.712 -0.9208 -0.1302  0.0370
 4086TIP3   OH212221   7.080   4.129   0.522  0.3795  0.2973 -0.4461
 4086TIP3    H112222   6.999   4.079   0.513  0.0004  0.9936 -0.8835
 4086TIP3    H212223   7.141   4.086   0.462  0.2504 -0.0443 -0.3359
 4087TIP3   OH212224   2.154   5.646   0.632 -0.2810  0.3782 -0.5007
 4087TIP3    H112225   2.180   5.603   0.713 -0.2462 -0.1878 -0.8110
 4087TIP3    H212226   2.215   5.719   0.623 -1.1630  1.3028  0.7065
 4088TIP3   OH212227   1.357   4.855   1.253  0.2093 -0.4110 -0.2797
 4088TIP3    H112228   1.364   4.944   1.287  2.1873  0.0373 -1.7284
 4088TIP3    H212229   1.419   4.851   1.180  1.4015 -3.4511  0.7150
 4089TIP3   OH212230   4.184   5.589   3.931  0.4976 -0.2144 -0.3500
 4089TIP3    H112231   4.147   5.518   3.985  1.4708 -0.9195 -0.5879
 4089TIP3    H212232   4.159   5.565   3.841  0.7645 -0.2108 -0.4236
 4090TIP3   OH212233   4.012   2.596   2.829  0.3061  0.5747  0.0633
 4090TIP3    H112234   3.993   2.660   2.760 -0.0198  1.8948  1.3311
 4090TIP3    H212235   4.103   2.572   2.815 -0.1273 -0.2908 -1.6696
 4091TIP3   OH212236   6.499   3.150   4.028 -0.2733  0.3563  0.2404
 4091TIP3    H112237   6.590   3.133   4.050  0.3073  1.1431 -1.3590
 4091TIP3    H212238   6.503   3.219   3.961 -1.9578 -0.3955 -0.7171
 4092TIP3   OH212239   6.703   5.261   5.580  0.4275  0.0414  0.0217
 4092TIP3    H112240   6.710   5.354   5.600 -0.0147  0.2528 -0.7452
 4092TIP3    H212241   6.629   5.255   5.519 -1.7081 -1.1784  2.5026
 4093TIP3   OH212242   5.848   4.189   0.304  0.0706 -0.4942 -0.3774
 4093TIP3    H112243   5.937   4.182   0.269 -0.2482  0.4217 -1.4301
 4093TIP3    H212244   5.856   4.161   0.395  1.0840 -2.1210 -0.9348
 4094TIP3   OH212245   2.171   3.914   4.504 -0.6821  0.3394  0.0688
 4094TIP3    H112246   2.166   3.834   4.557 -0.7242  1.1818  1.3813
 4094TIP3    H212247   2.163   3.883   4.413 -0.2404 -1.1873  0.5102
 4095TIP3   OH212248   5.550   1.239   1.977 -0.1799 -0.7279 -0.0207
 4095TIP3    H112249   5.525   1.268   1.889 -0.9235 -1.9648 -0.2397
 4095TIP3    H212250   5.632   1.285   1.995 -0.6416  0.4812 -0.8589
 4096TIP3   OH212251   1.517   2.121   0.571 -0.0799  0.2871 -0.2225
 4096TIP3    H112252   1.598   2.161   0.600  0.2222  0.5556 -1.3908
 4096TIP3    H212253   1.544   2.039   0.529 -0.4899 -0.0213  0.0990
 4097TIP3   OH212254   4.946   6.325   2.565  0.3249  0.1883 -0.1968
 4097TIP3    H112255   4.905   6.353   2.483 -0.1200  0.2685  0.0459
 4097TIP3    H212256   4.970   6.234   2.550  0.5724  0.3099 -0.5377
 4098TIP3   OH212257   1.607   2.782   1.259 -0.2110  0.7271  0.9603
 4098TIP3    H112258   1.694   2.796   1.222 -0.2917  1.3879  1.0135
 4098TIP3    H212259   1.553   2.754   1.185  0.5189 -1.7778  1.3006
 4099TIP3   OH212260   0.913   5.186   1.828  0.1093  0.3640 -0.5551
 4099TIP3    H112261   0.844   5.204   1.764 -1.1515  0.1184  0.6819
 4099TIP3    H212262   0.887   5.235   1.906  1.1194 -0.0665  0.0778
 4100TIP3   OH212263   4.305   0.191   5.509  0.1224  0.5296 -0.0695
 4100TIP3    H112264   4.345   0.269   5.470 -0.0827  0.5633 -0.2158
 4100TIP3    H212265   4.379   0.135   5.531  0.2963  0.9456  0.4305
 4101TIP3   OH212266   4.645   0.705   3.128  0.1986  0.2047 -0.5313
 4101TIP3    H112267   4.662   0.799   3.136  0.9010 -0.0652  2.0252
 4101TIP3    H212268   4.552   0.696   3.148  0.2133  0.3257 -0.4083
 4102TIP3   OH212269   2.319   0.651   4.727  0.0051 -0.0252  0.0893
 4102TIP3    H112270   2.293   0.560   4.737 -2.2034  0.4147 -1.0946
 4102TIP3    H212271   2.402   0.647   4.679 -1.8302 -1.4254 -3.2953
 4103TIP3   OH212272   4.770   5.992   3.296 -0.1225 -0.2317 -0.7399
 4103TIP3    H112273   4.832   5.933   3.251  0.1680 -0.8048  0.3703
 4103TIP3    H212274   4.823   6.068   3.320  0.5589 -1.2804  1.3772
 4104TIP3   OH212275   0.527   5.193   2.684 -0.1165 -0.2514  0.2436
 4104TIP3    H112276   0.608   5.188   2.736  0.2618 -1.3413 -0.3903
 4104TIP3    H212277   0.500   5.284   2.689  1.7655  0.4050 -0.4070
 4105TIP3   OH212278   5.019   1.834   5.103 -0.1382 -0.2674  0.2903
 4105TIP3    H112279   4.933   1.836   5.145 -0.0173 -0.6406  0.5634
 4105TIP3    H212280   5.047   1.743   5.112  1.0100  0.1976  1.6696
 4106TIP3   OH212281   5.358   3.073   4.240  0.1881 -0.2368 -0.2704
 4106TIP3    H112282   5.397   2.994   4.203 -1.4966 -0.6926 -1.1772
 4106TIP3    H212283   5.380   3.142   4.177  0.4898 -0.2535 -0.1854
 4107TIP3   OH212284   4.924   4.667   2.435 -0.1404  0.0354 -0.2336
 4107TIP3    H112285   4.942   4.582   2.395 -0.6570 -0.1330 -0.1113
 4107TIP3    H212286   5.010   4.699   2.463 -0.1391 -1.3502  1.5392
 4108TIP3   OH212287   3.962   6.589   2.044  0.2537  0.0282  0.1340
 4108TIP3    H112288   3.969   6.626   1.956  0.9212 -0.2841  0.0543
 4108TIP3    H212289   4.049   6.556   2.064 -0.0301 -0.3976  0.6993
 4109TIP3   OH212290   4.468   3.214   0.445 -0.8205  0.9084 -0.4126
 4109TIP3    H112291   4.561   3.229   0.425 -0.8039 -0.1561 -1.2003
 4109TIP3    H212292   4.469   3.170   0.530 -0.7424  2.7612  0.6107
 4110TIP3   OH212293   5.322   6.001   4.001  0.1815  0.4254  0.4235
 4110TIP3    H112294   5.238   5.966   3.970 -0.1216  0.1660  1.4991
 4110TIP3    H212295   5.326   5.976   4.093  0.1708  2.8008  1.1354
 4111TIP3   OH212296   2.656   3.302   2.757 -0.0449 -0.2232  0.2641
 4111TIP3    H112297   2.587   3.345   2.706 -0.2662 -1.2223 -0.2974
 4111TIP3    H212298   2.671   3.361   2.831 -2.1689 -0.4394  0.9411
 4112TIP3   OH212299   5.603   2.252   2.906  0.1396  0.1476 -0.3374
 4112TIP3    H112300   5.512   2.260   2.877 -1.0756  1.6566  3.2812
 4112TIP3    H212301   5.619   2.158   2.910 -1.7363 -0.1962  0.1137
 4113TIP3   OH212302   4.449   6.669   3.524 -0.7833 -0.0722 -0.2456
 4113TIP3    H112303   4.425   6.681   3.616  0.4325 -1.1428  0.2396
 4113TIP3    H212304   4.495   6.749   3.500 -2.3019  0.8067 -0.3675
 4114TIP3   OH212305   0.261   2.916   4.969 -0.3722 -0.1145  0.3057
 4114TIP3    H112306   0.323   2.853   5.007 -0.9815 -0.6416  0.4486
 4114TIP3    H212307   0.290   2.926   4.879 -0.9470 -1.5273 -0.0721
 4115TIP3   OH212308   5.212   4.419   5.341 -0.4949  0.6937 -0.2647
 4115TIP3    H112309   5.203   4.324   5.339 -2.8474  0.8453 -0.2336
 4115TIP3    H212310   5.122   4.451   5.335  0.2691  2.9325 -0.7133
 4116TIP3   OH212311   2.274   6.259   0.495 -0.3014  0.7355  0.1666
 4116TIP3    H112312   2.240   6.226   0.578 -0.5517 -0.4150 -0.3704
 4116TIP3    H212313   2.331   6.190   0.463  0.3236  1.4536 -0.3091
 4117TIP3   OH212314   6.017   3.920   2.060  0.0172 -0.1184 -0.1099
 4117TIP3    H112315   6.095   3.881   2.099  0.3759 -0.5178 -1.1800
 4117TIP3    H212316   6.033   3.915   1.966 -2.5059 -2.8507 -0.5339
 4118TIP3   OH212317   5.801   0.785   4.399  0.5410  0.0353  0.8393
 4118TIP3    H112318   5.834   0.802   4.311  0.2749  0.2883  0.7876
 4118TIP3    H212319   5.843   0.852   4.454 -0.5453  0.9275  0.6279
 4119TIP3   OH212320   4.987   5.949   1.016  0.3184  0.0752 -0.4176
 4119TIP3    H112321   4.925   5.929   0.945 -0.0126 -1.0668  0.1628
 4119TIP3    H212322   5.045   5.872   1.019  1.4377  0.8903 -0.5914
 4120TIP3   OH212323   3.558   1.634   2.718  0.0835  0.2409  0.0152
 4120TIP3    H112324   3.510   1.715   2.702 -1.0001 -0.0078  1.7793
 4120TIP3    H212325   3.500   1.565   2.685 -0.6813 -0.0334  1.8287
 4121TIP3   OH212326   2.367   1.340   2.717  0.3713  0.2568 -0.0070
 4121TIP3    H112327   2.421   1.413   2.746  1.1459 -0.5530  0.6732
 4121TIP3    H212328   2.355   1.287   2.796  2.0863 -1.7320 -0.9833
 4122TIP3   OH212329   3.251   3.558   0.353 -0.5725  0.4248  0.1593
 4122TIP3    H112330   3.290   3.644   0.368  0.1097  0.1996 -0.3076
 4122TIP3    H212331   3.309   3.516   0.290 -1.0655 -0.2678  0.1626
 4123TIP3   OH212332   6.602   2.901   3.059 -0.3604 -0.0363 -0.3873
 4123TIP3    H112333   6.523   2.869   3.103 -0.2870 -0.7433 -0.7490
 4123TIP3    H212334   6.580   2.991   3.033 -0.3601  0.4472  1.1676
 4124TIP3   OH212335   3.545   3.482   4.731 -0.2495  0.2220 -0.5156
 4124TIP3    H112336   3.589   3.420   4.672  0.1768  1.3238 -1.3857
 4124TIP3    H212337   3.462   3.502   4.688 -2.1161 -2.4306  1.4723
 4125TIP3   OH212338   1.288   2.026   0.197  0.2909  0.3520 -0.1848
 4125TIP3    H112339   1.283   2.086   0.271 -1.2600  0.2887 -0.2117
 4125TIP3    H212340   1.197   2.000   0.180  0.7966 -1.0207 -0.9739
 4126TIP3   OH212341   5.676   4.400   3.154 -0.4264 -0.0781 -0.4007
 4126TIP3    H112342   5.756   4.353   3.176  0.4173  0.4464 -2.1565
 4126TIP3    H212343   5.705   4.476   3.103 -2.0069  0.3952 -0.6672
 4127TIP3   OH212344   0.084   3.059   4.364 -0.2683 -0.2104 -0.4449
 4127TIP3    H112345   0.156   3.082   4.305 -0.3036  0.0156 -0.3992
 4127TIP3    H212346   0.102   2.968   4.388  1.2218  0.4758  1.2645
 4128TIP3   OH212347   0.516   2.588   2.197 -0.0995  0.1664  0.4650
 4128TIP3    H112348   0.447   2.610   2.134  0.0107 -0.2464  0.2014
 4128TIP3    H212349   0.493   2.638   2.276  0.2108  1.3321 -0.1590
 4129TIP3   OH212350   4.838   5.558   0.946  0.5582  0.2871  0.1467
 4129TIP3    H112351   4.797   5.481   0.985  1.7904 -0.3331  0.2967
 4129TIP3    H212352   4.877   5.526   0.864  1.2181  0.7048  0.2870
 4130TIP3   OH212353   2.278   4.516   0.168 -0.1291 -0.0583 -0.0665
 4130TIP3    H112354   2.313   4.429   0.185  0.2931  0.5396  2.5847
 4130TIP3    H212355   2.331   4.550   0.096  0.3648 -1.5976 -0.4552
 4131TIP3   OH212356   3.720   2.604   4.424 -0.2850 -0.2552  0.3448
 4131TIP3    H112357   3.758   2.665   4.360 -0.6734 -1.2027 -0.8295
 4131TIP3    H212358   3.643   2.568   4.379 -1.2719 -0.0695  1.8119
 4132TIP3   OH212359   4.851   2.813   5.051  0.2419  0.1131 -0.3909
 4132TIP3    H112360   4.906   2.809   5.129  0.2891 -1.4361 -0.4712
 4132TIP3    H212361   4.786   2.880   5.071 -0.4215 -0.9853  1.4485
 4133TIP3   OH212362   5.220   6.173   2.287  0.2629  0.2127 -0.6923
 4133TIP3    H112363   5.183   6.101   2.236  0.2918 -0.4840  0.2547
 4133TIP3    H212364   5.191   6.252   2.240 -1.6144 -0.3303 -0.5292
 4134TIP3   OH212365   5.911   2.766   5.727  0.0739 -0.0988 -0.3073
 4134TIP3    H112366   6.006   2.755   5.733  0.2610  1.2197 -0.5366
 4134TIP3    H212367   5.880   2.682   5.692  1.0637 -0.7940  0.4038
 4135TIP3   OH212368   6.472   6.078   3.314  0.1580 -0.5603  0.4589
 4135TIP3    H112369   6.418   6.031   3.250  0.1496 -2.3306  1.6985
 4135TIP3    H212370   6.415   6.091   3.389  0.4799  0.5554  0.5271
 4136TIP3   OH212371   1.574   1.119   2.558 -0.3867  0.1513  0.1438
 4136TIP3    H112372   1.490   1.165   2.561  0.5478  1.9382  0.4588
 4136TIP3    H212373   1.580   1.075   2.643 -1.0085 -0.0373  0.0990
 4137TIP3   OH212374   6.812   0.483   2.790  0.0202  0.0218 -0.5862
 4137TIP3    H112375   6.905   0.503   2.801  0.4203 -1.8339 -0.2982
 4137TIP3    H212376   6.811   0.399   2.745 -1.5158 -0.1920 -0.1936
 4138TIP3   OH212377   4.638   5.655   3.460  0.3268 -0.0386 -0.5243
 4138TIP3    H112378   4.591   5.697   3.388  0.8231  1.4154 -0.0441
 4138TIP3    H212379   4.577   5.659   3.534  1.2511  2.2135  0.2093
 4139TIP3   OH212380   5.517   2.165   3.656 -0.0884  0.3291  0.4452
 4139TIP3    H112381   5.475   2.246   3.685  0.4837  0.6147  0.5033
 4139TIP3    H212382   5.509   2.105   3.730 -1.3741 -0.0102  0.0524
 4140TIP3   OH212383   3.865   3.354   3.770 -0.0359 -0.7197  0.2300
 4140TIP3    H112384   3.888   3.335   3.861  1.4473 -1.2514 -0.2197
 4140TIP3    H212385   3.770   3.343   3.767 -0.2859  0.5470  1.9833
 4141TIP3   OH212386   1.439   0.609   0.414  0.1521  0.1859  0.0253
 4141TIP3    H112387   1.512   0.572   0.364 -1.3666 -2.4351 -0.4540
 4141TIP3    H212388   1.480   0.663   0.481  2.4445 -0.0307 -1.1221
 4142TIP3   OH212389   2.226   1.549   0.138  0.2065 -0.2043 -0.1206
 4142TIP3    H112390   2.242   1.502   0.056 -0.8877  0.6210 -0.8393
 4142TIP3    H212391   2.312   1.554   0.180  0.8356 -0.4435 -1.3330
 4143TIP3   OH212392   4.916   0.092   2.418 -0.0285  0.1970 -0.2581
 4143TIP3    H112393   4.885   0.086   2.508 -1.8652 -1.5762 -0.9419
 4143TIP3    H212394   5.006   0.122   2.426  1.3355 -3.8249  2.4866
 4144TIP3   OH212395   2.418   5.284   5.507  0.0769 -0.3165  0.1958
 4144TIP3    H112396   2.443   5.325   5.590  0.2573  2.0931 -0.9735
 4144TIP3    H212397   2.495   5.233   5.482  0.6664  0.3111  0.6825
 4145TIP3   OH212398   2.051   4.753   1.215  0.3231  0.0242  0.3720
 4145TIP3    H112399   2.036   4.668   1.173 -2.5536  0.7954 -0.3905
 4145TIP3    H212400   2.013   4.817   1.154 -0.5857  1.5369  2.3857
 4146TIP3   OH212401   6.893   4.480   0.804 -0.0755 -0.1218 -0.6239
 4146TIP3    H112402   6.940   4.405   0.840 -0.8891 -1.0732 -1.4799
 4146TIP3    H212403   6.821   4.494   0.866 -0.3883 -0.5689 -0.8792
 4147TIP3   OH212404   4.600   5.934   4.038 -0.1290  0.3563 -0.2932
 4147TIP3    H112405   4.604   5.986   3.958 -0.1421  0.2393 -0.3712
 4147TIP3    H212406   4.507   5.917   4.051 -0.0424 -0.8244 -1.0411
 4148TIP3   OH212407   0.205   5.797   0.225  0.1025 -0.1168 -0.1160
 4148TIP3    H112408   0.286   5.827   0.267 -0.5493 -1.1352  2.0127
 4148TIP3    H212409   0.135   5.829   0.283 -0.9751 -0.1656 -1.3421
 4149TIP3   OH212410   1.394   1.265   0.646 -0.2843 -0.2197 -0.0634
 4149TIP3    H112411   1.387   1.217   0.728  0.6566 -2.0220 -0.9896
 4149TIP3    H212412   1.476   1.314   0.654 -1.0933  1.0411  0.7618
 4150TIP3   OH212413   0.296   1.008   5.803  0.5694  0.4490 -0.0428
 4150TIP3    H112414   0.363   1.021   5.736  0.9387 -0.2559  0.1750
 4150TIP3    H212415   0.345   1.006   5.885  0.4620 -1.3990  0.0080
 4151TIP3   OH212416   6.719   4.577   4.612 -0.3366 -0.3045  0.0814
 4151TIP3    H112417   6.659   4.517   4.657  1.6578 -0.0204  3.4889
 4151TIP3    H212418   6.739   4.644   4.677  1.4539  1.2267 -1.8982
 4152TIP3   OH212419   3.625   4.447   2.564 -0.5802  0.4649 -0.7094
 4152TIP3    H112420   3.613   4.493   2.480 -0.6788  0.9745 -0.4246
 4152TIP3    H212421   3.680   4.507   2.615 -0.3100  0.0388 -0.5033
 4153TIP3   OH212422   1.901   2.703   1.829  0.2859  0.2755  0.4620
 4153TIP3    H112423   1.966   2.771   1.842 -0.4779  0.8363  1.6354
 4153TIP3    H212424   1.892   2.694   1.735 -0.9073  3.1460  0.1966
 4154TIP3   OH212425   6.062   2.421   0.229  0.0012  0.2714  0.6123
 4154TIP3    H112426   6.150   2.387   0.246 -0.2191 -0.9444 -0.5954
 4154TIP3    H212427   6.006   2.376   0.292  0.1675  0.7471  1.1102
 4155TIP3   OH212428   3.377   3.330   5.500 -0.1606 -0.3156  0.7725
 4155TIP3    H112429   3.332   3.249   5.477  0.1132 -0.4242  0.6114
 4155TIP3    H212430   3.330   3.363   5.576 -0.8537 -0.1428  0.2765
 4156TIP3   OH212431   3.688   4.368   5.677 -0.6224  0.3148 -0.3528
 4156TIP3    H112432   3.635   4.419   5.738  0.6360 -0.2670  1.3082
 4156TIP3    H212433   3.645   4.283   5.672 -0.4238  0.1813  0.1772
 4157TIP3   OH212434   3.746   1.960   4.623  0.2528 -0.4430  0.5023
 4157TIP3    H112435   3.824   1.964   4.679 -0.1797 -0.9700  1.1544
 4157TIP3    H212436   3.704   1.877   4.645 -1.1092  0.3443  1.0093
 4158TIP3   OH212437   1.710   5.631   4.139  0.3985 -0.8369 -0.0571
 4158TIP3    H112438   1.651   5.600   4.208 -0.7026  0.3159 -0.4354
 4158TIP3    H212439   1.743   5.552   4.098 -0.0537 -1.5219  0.8602
 4159TIP3   OH212440   3.267   5.426   1.502 -0.1059  0.0762 -0.0197
 4159TIP3    H112441   3.282   5.439   1.596 -0.6339 -2.1033  0.4086
 4159TIP3    H212442   3.181   5.385   1.496 -1.5018  2.9152 -1.7384
 4160TIP3   OH212443   1.074   0.225   0.067  0.2062 -0.2927  0.4024
 4160TIP3    H112444   1.116   0.159   0.013  0.4877  0.7370 -0.6716
 4160TIP3    H212445   0.980   0.216   0.048  0.2421 -0.4026  0.2792
 4161TIP3   OH212446   6.872   5.225   3.067  0.5849  0.3591 -0.4167
 4161TIP3    H112447   6.783   5.234   3.101  0.3854 -0.6628 -0.6228
 4161TIP3    H212448   6.868   5.264   2.980  0.0862 -0.4850 -0.7898
 4162TIP3   OH212449   4.078   2.255   4.942  0.2336  0.1717 -0.6283
 4162TIP3    H112450   4.172   2.252   4.958  0.1065  1.2289  0.5867
 4162TIP3    H212451   4.069   2.289   4.853  1.0097  0.3423 -0.6467
 4163TIP3   OH212452   0.991   3.472   4.461 -0.1405 -0.0169 -0.0342
 4163TIP3    H112453   0.899   3.455   4.441  0.3805 -0.8275 -1.9985
 4163TIP3    H212454   1.039   3.431   4.389  1.8458 -0.8117  1.6292
 4164TIP3   OH212455   1.762   5.711   4.414 -0.2360  0.7632 -0.8369
 4164TIP3    H112456   1.688   5.654   4.435  0.6163 -0.1672 -0.2691
 4164TIP3    H212457   1.767   5.710   4.319  0.6853 -1.3865 -0.8242
 4165TIP3   OH212458   6.648   5.954   2.880 -0.3782  0.5646  0.3028
 4165TIP3    H112459   6.701   5.952   2.801 -0.8588 -1.8911 -0.0586
 4165TIP3    H212460   6.706   5.918   2.948 -1.2165 -1.4066  0.0674
 4166TIP3   OH212461   3.337   5.862   5.544 -0.5299 -0.2987  0.4431
 4166TIP3    H112462   3.417   5.824   5.508 -0.6730 -0.2337  0.0462
 4166TIP3    H212463   3.365   5.910   5.622 -0.2666 -0.7592  0.6359
 4167TIP3   OH212464   1.462   5.308   5.577  0.0373  0.4349  0.0970
 4167TIP3    H112465   1.489   5.373   5.513  0.6802 -0.5659 -0.6758
 4167TIP3    H212466   1.543   5.268   5.608 -0.3574 -0.2389  0.3007
 4168TIP3   OH212467   3.550   6.722   3.546  0.2025  0.2053 -0.1978
 4168TIP3    H112468   3.566   6.639   3.503  0.6905  0.5405 -0.6786
 4168TIP3    H212469   3.490   6.701   3.618 -0.7773 -0.3255 -1.1517
 4169TIP3   OH212470   6.976   2.513   5.282 -0.3946  0.6167  0.1843
 4169TIP3    H112471   6.933   2.532   5.198 -1.4004  2.1587  0.9865
 4169TIP3    H212472   7.047   2.577   5.286 -0.2886  0.4790  0.4593
 4170TIP3   OH212473   5.738   2.638   3.986  0.0228  0.3506  0.5880
 4170TIP3    H112474   5.814   2.617   4.039  0.7334 -1.6754 -1.0846
 4170TIP3    H212475   5.672   2.573   4.012  0.5747 -1.0419 -1.2832
 4171TIP3   OH212476   6.911   0.962   3.569  0.3527  0.1030 -0.2958
 4171TIP3    H112477   6.920   1.039   3.625  0.5334 -0.0672 -0.0848
 4171TIP3    H212478   6.904   0.996   3.480  0.6582  0.3525 -0.2238
 4172TIP3   OH212479   4.269   2.673   2.047 -0.3539  0.1933  0.3812
 4172TIP3    H112480   4.234   2.762   2.044 -3.4395 -0.9175 -0.1685
 4172TIP3    H212481   4.211   2.623   1.990  1.9283 -2.0042 -0.1670
 4173TIP3   OH212482   5.445   5.239   5.897  0.1366  0.1063  0.1879
 4173TIP3    H112483   5.502   5.262   5.823 -0.3652 -0.0017 -0.2422
 4173TIP3    H212484   5.357   5.243   5.860 -0.1807  0.8742  1.0039
 4174TIP3   OH212485   5.045   5.446   0.318 -0.2062 -0.0245 -0.0759
 4174TIP3    H112486   4.999   5.515   0.271 -1.5073 -0.6856  0.1666
 4174TIP3    H212487   5.045   5.372   0.258 -1.6101 -0.7762  0.7850
 4175TIP3   OH212488   4.190   4.551   4.921 -0.0755  0.4982 -0.2079
 4175TIP3    H112489   4.185   4.523   4.830  0.1744  0.2203 -0.1384
 4175TIP3    H212490   4.105   4.528   4.958 -0.3948  1.1585 -0.5203
 4176TIP3   OH212491   5.695   2.309   3.862 -0.0925 -0.5801  0.7094
 4176TIP3    H112492   5.631   2.321   3.932 -1.3189 -1.8748 -0.1467
 4176TIP3    H212493   5.746   2.232   3.889  0.1933 -0.3939  0.7105
 4177TIP3   OH212494   5.119   1.772   3.882 -0.0988 -0.2007  0.8487
 4177TIP3    H112495   5.138   1.703   3.945  1.8450 -0.6152 -0.1225
 4177TIP3    H212496   5.107   1.726   3.799  0.8042  0.5630  0.2689
 4178TIP3   OH212497   2.898   4.739   2.033  0.3902  0.2116 -0.9553
 4178TIP3    H112498   2.821   4.767   2.083  0.1690 -0.9692 -0.6066
 4178TIP3    H212499   2.861   4.705   1.951  0.5158 -0.5131 -0.7175
 4179TIP3   OH212500   2.966   2.044   1.900  0.5944 -0.3651  0.2969
 4179TIP3    H112501   3.029   2.093   1.846  1.2682  0.1906  1.5380
 4179TIP3    H212502   3.016   2.019   1.978 -0.6826 -0.0218  1.2538
 4180TIP3   OH212503   5.394   0.427   5.134 -0.6848 -0.2787  0.7996
 4180TIP3    H112504   5.329   0.366   5.169 -0.1937 -1.3104 -0.0460
 4180TIP3    H212505   5.465   0.372   5.102  1.2610  0.8809  2.8628
 4181TIP3   OH212506   1.599   6.660   2.463 -0.1411  0.5813 -0.2268
 4181TIP3    H112507   1.586   6.747   2.426  1.7527  1.0204  0.0232
 4181TIP3    H212508   1.678   6.627   2.420  0.8765  0.2304  1.7833
 4182TIP3   OH212509   4.131   5.496   4.369  0.1667  0.1591  0.1504
 4182TIP3    H112510   4.115   5.480   4.275  1.9881 -0.2618 -0.1318
 4182TIP3    H212511   4.111   5.589   4.381 -0.4866  0.1218 -0.5683
 4183TIP3   OH212512   0.344   1.154   3.157 -0.1823  0.4640 -0.3933
 4183TIP3    H112513   0.330   1.248   3.144 -1.2341  0.5076  0.7622
 4183TIP3    H212514   0.318   1.139   3.249  2.7097 -0.4588  0.3639
 4184TIP3   OH212515   1.155   5.440   4.488  0.5753 -0.5247 -0.9799
 4184TIP3    H112516   1.250   5.446   4.497  0.4075  0.7154  0.6169
 4184TIP3    H212517   1.129   5.375   4.553  0.2015  0.6113  0.0551
 4185TIP3   OH212518   3.088   1.360   1.111 -0.6077 -0.3336  0.4594
 4185TIP3    H112519   3.020   1.295   1.100  0.5254 -1.3606 -0.7059
 4185TIP3    H212520   3.109   1.390   1.023  0.8870 -0.5141  0.7214
 4186TIP3   OH212521   3.373   6.793   2.205 -0.5562  0.3087  0.7483
 4186TIP3    H112522   3.294   6.754   2.243 -0.8793  0.0861 -0.1079
 4186TIP3    H212523   3.436   6.722   2.202 -0.8301  0.0835  0.0608
 4187TIP3   OH212524   3.904   6.253   4.068  0.1445 -0.2989 -0.2817
 4187TIP3    H112525   3.855   6.311   4.009 -0.3191  1.0282  1.3387
 4187TIP3    H212526   3.838   6.220   4.129  0.5290 -2.0563 -0.7656
 4188TIP3   OH212527   3.091   5.023   2.465  0.1198 -0.1274 -0.3452
 4188TIP3    H112528   3.173   4.973   2.472 -0.5067 -1.4875 -1.9442
 4188TIP3    H212529   3.088   5.050   2.373 -0.7299  0.8371 -0.0488
 4189TIP3   OH212530   4.781   4.263   3.426 -0.2385 -0.5919 -0.4096
 4189TIP3    H112531   4.840   4.283   3.499 -1.1448  2.5073 -0.3918
 4189TIP3    H212532   4.831   4.286   3.348 -0.0833 -1.7188 -0.6571
 4190TIP3   OH212533   4.158   3.869   0.196 -0.5337 -0.3251  0.5352
 4190TIP3    H112534   4.193   3.816   0.267 -1.8973 -0.6140  1.0225
 4190TIP3    H212535   4.171   3.959   0.224 -1.4218 -0.4373  1.3575
 4191TIP3   OH212536   3.145   5.453   5.075  0.1341 -0.2868  0.0276
 4191TIP3    H112537   3.146   5.365   5.039 -0.9430 -0.7931  1.1563
 4191TIP3    H212538   3.078   5.499   5.024 -0.2118 -0.5060  0.2825
 4192TIP3   OH212539   1.301   6.618   3.271  0.5865  0.1354 -0.4105
 4192TIP3    H112540   1.258   6.698   3.301 -1.9178 -1.6920  1.2493
 4192TIP3    H212541   1.269   6.605   3.181  1.8527  1.4740 -1.0959
 4193TIP3   OH212542   4.277   3.624   0.563 -0.3698  0.9389  0.1062
 4193TIP3    H112543   4.332   3.593   0.491  0.3318  1.7190  0.2852
 4193TIP3    H212544   4.289   3.719   0.562 -0.9495  1.0225  0.7778
 4194TIP3   OH212545   2.928   3.503   4.347 -0.9092  0.2678 -0.6974
 4194TIP3    H112546   2.837   3.473   4.349 -2.0767  3.3520 -1.2394
 4194TIP3    H212547   2.925   3.582   4.293  1.9516  0.9238 -0.0282
 4195TIP3   OH212548   2.998   4.500   5.001 -0.3453  0.3811 -0.3543
 4195TIP3    H112549   3.049   4.530   5.076 -0.3431 -1.1910  0.3075
 4195TIP3    H212550   3.062   4.481   4.933 -0.1848  0.1160 -0.1322
 4196TIP3   OH212551   4.048   1.372   4.056  0.3253  0.2641  0.6905
 4196TIP3    H112552   4.039   1.467   4.061 -0.0043  0.2903 -0.1737
 4196TIP3    H212553   4.105   1.349   4.129  2.7333  1.4324 -0.7041
 4197TIP3   OH212554   6.741   6.523   4.636  0.2858  0.1054 -0.4074
 4197TIP3    H112555   6.754   6.616   4.615 -2.2807  0.0746 -2.5768
 4197TIP3    H212556   6.806   6.478   4.581 -0.0117  0.5199 -1.1169
 4198TIP3   OH212557   3.448   3.036   0.775 -0.5086  0.3519 -0.5871
 4198TIP3    H112558   3.527   3.017   0.724  0.0994  2.9284 -0.7304
 4198TIP3    H212559   3.410   3.113   0.733 -1.2417  1.1799  1.4683
 4199TIP3   OH212560   0.073   4.663   1.050  0.2859 -0.6515  0.4094
 4199TIP3    H112561   0.026   4.601   1.106  1.4205 -1.9718 -0.0612
 4199TIP3    H212562   0.074   4.622   0.964 -1.9216  1.6022 -0.8269
 4200TIP3   OH212563   1.908   3.483   2.333  0.8808  0.4791  0.5051
 4200TIP3    H112564   1.902   3.391   2.307  0.1502  1.0286 -1.3974
 4200TIP3    H212565   1.981   3.485   2.395  0.9332 -1.3639  0.5579
 4201TIP3   OH212566   6.890   1.255   5.053 -0.6875 -0.2670  0.3876
 4201TIP3    H112567   6.858   1.344   5.042 -1.0856 -0.2342  1.6486
 4201TIP3    H212568   6.965   1.264   5.112 -0.1638 -0.6692 -0.2089
 4202TIP3   OH212569   5.598   0.719   2.991  0.9826 -0.2448 -0.0512
 4202TIP3    H112570   5.616   0.628   3.015  1.3730 -0.3352 -0.6539
 4202TIP3    H212571   5.684   0.762   2.995  0.9453 -0.1099 -0.6128
 4203TIP3   OH212572   1.358   4.470   0.121  0.0201 -0.2944  0.0824
 4203TIP3    H112573   1.398   4.555   0.102 -1.5833  0.6173  0.6165
 4203TIP3    H212574   1.335   4.475   0.214 -1.8155 -0.5443 -0.3207
 4204TIP3   OH212575   6.013   3.839   0.973 -0.3671  0.3296  0.5932
 4204TIP3    H112576   6.078   3.903   1.003 -0.7594  0.0554  2.1182
 4204TIP3    H212577   5.953   3.889   0.919  2.4835  0.1393 -3.1730
 4205TIP3   OH212578   6.643   2.032   0.536 -0.6449  0.2525 -0.2297
 4205TIP3    H112579   6.668   1.945   0.504  0.2878  0.6952 -0.7298
 4205TIP3    H212580   6.717   2.088   0.514 -2.5383  1.9255 -2.9691
 4206TIP3   OH212581   6.980   2.928   5.096 -0.0978 -0.5292  0.2997
 4206TIP3    H112582   7.049   2.904   5.034 -0.8236 -1.0311 -0.3479
 4206TIP3    H212583   7.026   2.960   5.173  0.8361  0.2585 -0.5577
 4207TIP3   OH212584   4.611   3.936   5.598 -0.1447 -0.1760 -0.1867
 4207TIP3    H112585   4.517   3.938   5.578 -0.4963 -1.5520  1.1233
 4207TIP3    H212586   4.619   3.868   5.665  1.7626  0.1139 -0.0843
 4208TIP3   OH212587   3.720   3.782   2.701 -0.2976 -0.1639 -0.1968
 4208TIP3    H112588   3.766   3.744   2.626 -1.3397  0.7178 -1.3289
 4208TIP3    H212589   3.708   3.709   2.761  1.4424 -0.6773 -0.4179
 4209TIP3   OH212590   4.349   1.097   4.104 -0.3097  0.2951 -0.3660
 4209TIP3    H112591   4.264   1.072   4.068 -1.1011  2.5118 -0.1412
 4209TIP3    H212592   4.328   1.158   4.175  1.4880  2.0750 -1.2904
 4210TIP3   OH212593   0.391   6.671   2.591 -0.5801 -0.6060  0.0589
 4210TIP3    H112594   0.463   6.621   2.630 -2.7859 -2.3922  2.1670
 4210TIP3    H212595   0.356   6.613   2.523 -1.3989 -0.7313  0.5774
 4211TIP3   OH212596   3.712   4.144   4.358 -0.6622  0.3556 -0.4670
 4211TIP3    H112597   3.792   4.101   4.330 -0.9150 -1.8349  1.7748
 4211TIP3    H212598   3.736   4.237   4.366  0.7778  0.2309 -2.5556
 4212TIP3   OH212599   5.448   1.405   4.138  0.7021 -0.0887  0.6475
 4212TIP3    H112600   5.356   1.399   4.161  1.2188 -1.2048  2.7115
 4212TIP3    H212601   5.449   1.426   4.045 -1.6692 -4.5129 -0.6238
 4213TIP3   OH212602   6.197   4.958   4.199  0.1468 -0.1234  0.1574
 4213TIP3    H112603   6.237   4.871   4.205  1.4924  0.4210 -0.4564
 4213TIP3    H212604   6.159   4.961   4.111 -2.8975 -1.2563  1.2855
 4214TIP3   OH212605   0.076   2.985   1.135 -0.4079  0.1496  0.0579
 4214TIP3    H112606   0.081   3.016   1.225 -2.7361  0.2582  0.2196
 4214TIP3    H212607   0.124   3.051   1.084 -1.9395  1.9989  0.8574
 4215TIP3   OH212608   4.689   4.084   2.549 -0.0897  0.1354  0.2447
 4215TIP3    H112609   4.727   4.092   2.461 -1.9719 -2.3074 -0.8961
 4215TIP3    H212610   4.734   4.008   2.587 -0.4875  0.1390  0.7259
 4216TIP3   OH212611   1.619   1.930   0.103  0.2434 -0.0878 -0.4528
 4216TIP3    H112612   1.696   1.878   0.123  1.2168  1.0501 -1.1111
 4216TIP3    H212613   1.589   1.964   0.187 -0.0103 -1.1379 -0.1027
 4217TIP3   OH212614   4.045   1.511   2.307  0.5446 -0.0034  0.2990
 4217TIP3    H112615   4.027   1.544   2.395 -3.2391  0.9054 -0.6205
 4217TIP3    H212616   4.003   1.425   2.306 -0.0112  0.2681 -0.7588
 4218TIP3   OH212617   0.049   3.754   2.739 -0.3841 -0.3145  0.4449
 4218TIP3    H112618   0.026   3.793   2.823  0.3467 -3.0067  2.0190
 4218TIP3    H212619   0.105   3.819   2.696 -0.1070  0.8045  2.3965
 4219TIP3   OH212620   3.097   4.580   2.158 -0.2221 -0.6309 -0.2582
 4219TIP3    H112621   3.080   4.569   2.252 -1.2397 -0.4296 -0.4058
 4219TIP3    H212622   3.016   4.619   2.124  0.5424  0.3068 -1.0336
 4220TIP3   OH212623   5.276   4.942   4.909  0.0282 -0.3051  0.0609
 4220TIP3    H112624   5.230   4.865   4.940 -0.3179 -0.1073  0.0388
 4220TIP3    H212625   5.354   4.908   4.865 -0.7730 -0.7094 -1.0939
 4221TIP3   OH212626   0.604   2.621   2.960 -0.2285 -0.1123  0.6064
 4221TIP3    H112627   0.649   2.682   2.902 -2.5969  0.3868 -0.8457
 4221TIP3    H212628   0.598   2.666   3.044 -0.0152  0.7285  0.1728
 4222TIP3   OH212629   3.440   4.278   5.443  0.0361 -0.6495 -0.6016
 4222TIP3    H112630   3.479   4.232   5.517  0.5813  1.6173  0.6154
 4222TIP3    H212631   3.490   4.248   5.367  1.7133 -0.5508  0.4211
 4223TIP3   OH212632   4.524   3.715   4.047 -0.6574 -0.0635  0.2874
 4223TIP3    H112633   4.457   3.683   3.986  1.1406 -1.7589 -0.9185
 4223TIP3    H212634   4.526   3.810   4.032 -0.7348 -0.3474 -1.8847
 4224TIP3   OH212635   3.017   6.001   4.249  0.0386 -0.3235  0.0179
 4224TIP3    H112636   2.994   6.071   4.309 -0.4474 -0.7709  0.3564
 4224TIP3    H212637   2.956   5.930   4.268  0.8959 -1.0731  0.0963
 4225TIP3   OH212638   5.835   6.531   2.375  0.5771 -0.3971 -0.5032
 4225TIP3    H112639   5.795   6.475   2.441 -1.1647  0.8434 -0.4364
 4225TIP3    H212640   5.832   6.479   2.295 -2.1032 -0.0578 -0.7131
 4226TIP3   OH212641   0.011   2.785   0.149 -0.7057  0.1556  0.0714
 4226TIP3    H112642   0.092   2.772   0.198 -0.5531 -0.6598 -0.3873
 4226TIP3    H212643  -0.055   2.735   0.199 -0.4204 -1.2244 -0.8755
 4227TIP3   OH212644   3.182   4.281   3.812  0.3159  0.0923  0.1284
 4227TIP3    H112645   3.177   4.221   3.886  0.8626  1.0413  0.9417
 4227TIP3    H212646   3.091   4.304   3.793  0.2071  0.2755  0.8630
 4228TIP3   OH212647   0.926   2.433   1.112  0.2552 -0.4842  0.2824
 4228TIP3    H112648   0.882   2.497   1.169 -0.3284 -1.0242  0.4450
 4228TIP3    H212649   0.974   2.377   1.172 -0.6915 -1.3097  0.2980
 4229TIP3   OH212650   5.319   6.787   5.647  0.8893 -0.2715  0.2136
 4229TIP3    H112651   5.299   6.701   5.610 -0.8258 -0.1358  0.7437
 4229TIP3    H212652   5.300   6.778   5.741  0.7876  0.6605  0.2920
 4230TIP3   OH212653   3.638   6.314   4.662  0.1046  0.0124  0.2122
 4230TIP3    H112654   3.571   6.285   4.600  1.2549  0.0615 -1.1011
 4230TIP3    H212655   3.651   6.407   4.642  0.8749 -0.1029  0.1355
 4231TIP3   OH212656   5.097   0.629   0.498  0.7703 -0.2666  0.8553
 4231TIP3    H112657   5.073   0.543   0.465  0.3260  0.0132  0.4525
 4231TIP3    H212658   5.017   0.662   0.539  0.7594  0.2194  0.4461
 4232TIP3   OH212659   5.337   4.539   4.185  0.1995  0.2997  0.0271
 4232TIP3    H112660   5.373   4.591   4.113  0.5967  1.8513  1.2789
 4232TIP3    H212661   5.248   4.573   4.197 -0.1087 -0.4292 -0.1736
 4233TIP3   OH212662   3.146   4.068   4.336 -0.0997 -0.4786  0.2663
 4233TIP3    H112663   3.125   4.126   4.263 -0.7339 -1.0095  0.0144
 4233TIP3    H212664   3.214   4.009   4.301 -0.4340 -0.7608  0.0863
 4234TIP3   OH212665   5.314   1.541   0.657 -0.4899  0.2276 -0.3397
 4234TIP3    H112666   5.326   1.450   0.630  0.1106 -0.0270  0.7301
 4234TIP3    H212667   5.263   1.535   0.738 -1.6482  0.9300 -0.9944
 4235TIP3   OH212668   2.495   5.678   4.807  0.0229 -0.1191  0.0946
 4235TIP3    H112669   2.503   5.614   4.878  0.5036 -0.3660 -0.1772
 4235TIP3    H212670   2.460   5.628   4.733  1.4853 -0.3582 -0.4752
 4236TIP3   OH212671   3.509   2.959   1.256 -0.5657 -0.2830 -0.1617
 4236TIP3    H112672   3.543   2.986   1.171  0.7561 -1.2014  0.0529
 4236TIP3    H212673   3.427   2.913   1.235 -0.2523 -0.5020 -0.9387
 4237TIP3   OH212674   4.202   6.077   3.103  0.3825 -0.2118 -0.1199
 4237TIP3    H112675   4.277   6.133   3.123  0.1554  0.8523 -2.0375
 4237TIP3    H212676   4.143   6.132   3.053 -2.4495 -0.5776  2.5208
 4238TIP3   OH212677   6.170   1.362   4.838  0.0575  0.0344  0.3465
 4238TIP3    H112678   6.142   1.284   4.886 -0.5419 -0.1491 -0.2804
 4238TIP3    H212679   6.114   1.363   4.761 -0.0569  1.1829  0.4350
 4239TIP3   OH212680   4.782   1.912   0.923  0.2808 -0.6657  0.2513
 4239TIP3    H112681   4.770   1.841   0.987  1.4652  0.7933  2.2153
 4239TIP3    H212682   4.865   1.891   0.880 -0.1421 -1.2661 -0.2784
 4240TIP3   OH212683   1.085   6.225   2.579  0.0065  0.1804 -0.0892
 4240TIP3    H112684   1.045   6.311   2.566  1.7540  1.0470 -0.1080
 4240TIP3    H212685   1.180   6.242   2.574  0.3923 -1.7645 -0.2018
 4241TIP3   OH212686   2.973   1.468   3.757 -0.1153  0.2966  0.0464
 4241TIP3    H112687   2.963   1.474   3.662 -1.8984 -2.0034  0.0131
 4241TIP3    H212688   3.056   1.422   3.769 -0.2538 -0.0751 -0.4088
 4242TIP3   OH212689   1.408   4.331   4.880  0.3637 -0.2660 -0.3704
 4242TIP3    H112690   1.349   4.257   4.890 -1.2099  1.1824  2.4656
 4242TIP3    H212691   1.484   4.310   4.935  0.0612  0.0536  0.1808
 4243TIP3   OH212692   1.135   3.975   3.816 -0.4494 -0.6160  0.1427
 4243TIP3    H112693   1.054   3.981   3.765 -0.8604 -0.1472  0.8305
 4243TIP3    H212694   1.203   4.003   3.755 -0.9137 -0.2168 -0.2080
 4244TIP3   OH212695   1.830   2.133   1.647  0.0174  0.1275  0.0909
 4244TIP3    H112696   1.831   2.039   1.631  0.3901 -0.0693  1.1978
 4244TIP3    H212697   1.738   2.156   1.657 -0.0057 -0.3967  1.2640
 4245TIP3   OH212698   3.218   2.693   4.488  0.1628  0.6591  0.0747
 4245TIP3    H112699   3.126   2.714   4.506  0.0028 -1.0545  1.5054
 4245TIP3    H212700   3.225   2.599   4.505  2.2646  0.8144  0.3566
 4246TIP3   OH212701   1.762   5.579   3.551  0.2073 -1.0085 -0.5905
 4246TIP3    H112702   1.705   5.502   3.562 -0.7012 -0.2681  0.0009
 4246TIP3    H212703   1.709   5.653   3.579  1.6052 -0.3224  0.3579
 4247TIP3   OH212704   1.342   6.036   1.502 -0.0317  0.2547 -0.0608
 4247TIP3    H112705   1.266   6.024   1.446  0.5150  0.8948 -0.9706
 4247TIP3    H212706   1.417   6.026   1.444  0.5515  1.1540  0.4947
 4248TIP3   OH212707   4.937   3.255   5.831  0.8624 -0.1022  0.3134
 4248TIP3    H112708   4.882   3.185   5.798 -0.2021 -0.1881  2.0985
 4248TIP3    H212709   5.025   3.218   5.835  0.0092 -2.2190  3.2545
 4249TIP3   OH212710   6.886   2.572   3.345 -0.1120 -0.5365  0.0586
 4249TIP3    H112711   6.854   2.552   3.257 -1.2015  1.3652 -0.0184
 4249TIP3    H212712   6.817   2.625   3.385  1.1552  0.1943  1.3981
 4250TIP3   OH212713   0.694   5.159   1.351  0.5086  0.3351 -0.1511
 4250TIP3    H112714   0.615   5.192   1.393  0.6609  1.1984 -0.5105
 4250TIP3    H212715   0.722   5.230   1.292  0.3599 -0.8004 -1.6518
 4251TIP3   OH212716   3.030   3.318   5.330 -0.5780  0.5000 -0.2437
 4251TIP3    H112717   3.057   3.365   5.251  0.0298  0.4387 -0.0734
 4251TIP3    H212718   3.046   3.225   5.309 -0.2083  0.5012  0.0290
 4252TIP3   OH212719   6.777   2.832   3.286 -0.4262 -0.0477 -0.0014
 4252TIP3    H112720   6.699   2.839   3.341 -0.8838 -0.6431 -0.5575
 4252TIP3    H212721   6.745   2.843   3.197 -0.0233 -1.1635 -0.3049
 4253TIP3   OH212722   5.721   6.142   5.245 -0.0831 -0.1849 -0.3653
 4253TIP3    H112723   5.812   6.144   5.274  0.1799  0.5701 -1.2074
 4253TIP3    H212724   5.712   6.060   5.197 -0.0318 -0.5662  0.2616
 4254TIP3   OH212725   0.202   0.941   4.083 -0.2164 -0.7257 -0.6988
 4254TIP3    H112726   0.206   0.927   3.989 -3.1049  1.6483 -1.3531
 4254TIP3    H212727   0.134   0.881   4.113  0.0072 -0.7825 -0.2982
 4255TIP3   OH212728   1.516   0.787   1.560  0.4837 -0.3626  0.2335
 4255TIP3    H112729   1.505   0.760   1.469  1.2202 -0.6190  0.2118
 4255TIP3    H212730   1.590   0.735   1.591  0.6529  0.1983  0.7829
 4256TIP3   OH212731   0.341   6.730   2.254 -0.4268  0.4851  0.1407
 4256TIP3    H112732   0.257   6.758   2.289  0.8541  0.5980  3.4909
 4256TIP3    H212733   0.402   6.799   2.280  0.9868 -0.3902 -0.7403
 4257TIP3   OH212734   3.112   1.480   2.704 -0.0086 -0.1577  0.0128
 4257TIP3    H112735   3.024   1.516   2.694  0.9662  2.3235 -0.4990
 4257TIP3    H212736   3.101   1.386   2.692 -2.5405  0.0836 -0.2000
 4258TIP3   OH212737   6.801   0.372   3.422 -0.4704 -0.0471 -0.1824
 4258TIP3    H112738   6.750   0.332   3.351  0.5353 -0.5417 -0.6452
 4258TIP3    H212739   6.843   0.448   3.381  0.4245 -0.5566 -0.2437
 4259TIP3   OH212740   4.388   5.038   4.844  0.4658 -0.2294  0.0258
 4259TIP3    H112741   4.329   5.111   4.823 -0.2823 -0.4704  1.2229
 4259TIP3    H212742   4.331   4.971   4.881  1.4313 -0.6021  0.8778
 4260TIP3   OH212743   0.841   6.373   4.243  0.7319 -0.0575  0.6144
 4260TIP3    H112744   0.762   6.421   4.270  1.1807 -0.4248  2.7687
 4260TIP3    H212745   0.846   6.387   4.149 -1.6149  0.4239  0.4910
 4261TIP3   OH212746   0.308   0.033   1.783  0.3879  0.1053  0.0711
 4261TIP3    H112747   0.381   0.057   1.840  0.4241 -0.8602  0.4571
 4261TIP3    H212748   0.239   0.007   1.844  0.3035 -0.6027 -0.3144
 4262TIP3   OH212749   4.984   1.117   2.024 -0.5542  0.7285 -0.8575
 4262TIP3    H112750   4.983   1.059   1.948  2.1520  0.3199 -0.6795
 4262TIP3    H212751   5.002   1.204   1.987  1.2336  0.4582 -0.7361
 4263TIP3   OH212752   4.111   5.092   0.886 -0.1030  0.4487  0.6022
 4263TIP3    H112753   4.188   5.112   0.834  0.3289  0.1190  1.1080
 4263TIP3    H212754   4.083   5.006   0.856 -0.5808  0.7820  0.0656
 4264TIP3   OH212755   0.039   1.582   1.382  0.6101  0.3174 -0.2910
 4264TIP3    H112756  -0.030   1.612   1.442  0.2067 -1.2550  0.0911
 4264TIP3    H212757   0.045   1.650   1.316 -1.2118  0.5789 -0.2389
 4265TIP3   OH212758   2.571   4.986   4.726 -0.1948  0.3358 -0.2341
 4265TIP3    H112759   2.543   4.912   4.780 -0.9971 -0.1147 -1.2494
 4265TIP3    H212760   2.501   4.999   4.663  0.5296  1.1283 -0.9089
 4266TIP3   OH212761   5.032   2.138   5.289  0.1506 -0.1882 -0.1373
 4266TIP3    H112762   4.948   2.174   5.263  0.0871  0.4775  0.9164
 4266TIP3    H212763   5.096   2.190   5.241 -0.0394 -1.3793 -1.7465
 4267TIP3   OH212764   4.344   1.261   2.046  0.0613  0.3919 -0.8977
 4267TIP3    H112765   4.303   1.316   1.980 -0.9416  0.0690 -0.5698
 4267TIP3    H212766   4.377   1.322   2.111 -1.6927  0.6286 -0.1678
 4268TIP3   OH212767   4.738   0.650   2.432 -0.2914  0.4884 -0.2642
 4268TIP3    H112768   4.750   0.705   2.509 -1.0440 -1.6708  1.4778
 4268TIP3    H212769   4.670   0.694   2.381  0.2964  2.0025  0.2145
 4269TIP3   OH212770   6.346   1.389   3.946  0.0406  0.5607  0.4676
 4269TIP3    H112771   6.306   1.470   3.915  1.2013  0.7277 -0.6524
 4269TIP3    H212772   6.428   1.418   3.986 -0.2610  0.0786  1.4628
 4270TIP3   OH212773   4.276   4.737   1.473  0.2780 -0.0126 -0.4684
 4270TIP3    H112774   4.224   4.807   1.512 -0.2396  0.9172 -2.7200
 4270TIP3    H212775   4.362   4.776   1.458  0.1825 -0.0514 -1.1348
 4271TIP3   OH212776   5.255   6.092   5.266 -0.1568  0.0075  0.3262
 4271TIP3    H112777   5.294   6.017   5.221 -0.5390  0.2221 -0.3806
 4271TIP3    H212778   5.246   6.159   5.198 -0.5624  0.4112  0.7697
 4272TIP3   OH212779   4.395   6.785   4.356  0.1137  0.3443 -0.2428
 4272TIP3    H112780   4.327   6.722   4.333  0.7005 -0.1026 -0.7475
 4272TIP3    H212781   4.407   6.837   4.277  0.2007  0.5769 -0.0776
 4273TIP3   OH212782   0.321   1.291   2.437  0.3977  0.5869  0.5434
 4273TIP3    H112783   0.373   1.323   2.363  0.4816 -1.3722 -0.2921
 4273TIP3    H212784   0.233   1.324   2.420  0.6042  0.9008  0.0533
 4274TIP3   OH212785   6.167   5.707   3.089 -0.9353 -1.2982  0.1903
 4274TIP3    H112786   6.086   5.687   3.137 -1.2912 -0.9155 -0.2378
 4274TIP3    H212787   6.137   5.739   3.004 -0.4209  0.7539  0.7061
 4275TIP3   OH212788   1.728   6.497   1.197 -1.0161 -0.2214  0.1627
 4275TIP3    H112789   1.650   6.449   1.223 -1.1803 -0.6177 -1.0292
 4275TIP3    H212790   1.774   6.438   1.137  0.5056 -0.2371  1.2889
 4276TIP3   OH212791   3.559   2.477   4.225  0.4200  0.6605 -0.0375
 4276TIP3    H112792   3.548   2.387   4.258  2.3954  1.0302  1.8459
 4276TIP3    H212793   3.642   2.475   4.177 -0.2962  1.1705 -1.3568
 4277TIP3   OH212794   2.750   6.540   1.403 -0.1913 -0.2444 -0.2042
 4277TIP3    H112795   2.821   6.511   1.345 -1.0567 -0.0939 -1.3694
 4277TIP3    H212796   2.727   6.461   1.453 -0.3203 -0.7463 -1.0212
 4278TIP3   OH212797   3.178   6.094   1.576  0.4511 -0.2492  0.0234
 4278TIP3    H112798   3.145   6.181   1.600  1.0311 -0.2687  0.9291
 4278TIP3    H212799   3.125   6.069   1.500  0.7432  1.1823 -0.6936
 4279TIP3   OH212800   2.930   5.956   1.932  0.7216  0.8341 -0.0054
 4279TIP3    H112801   2.864   5.973   1.864 -0.5298  0.2072  1.0094
 4279TIP3    H212802   2.990   5.894   1.892 -2.2594 -2.8627  0.6472
 4280TIP3   OH212803   1.536   6.778   0.360 -0.6358  0.6212  0.0657
 4280TIP3    H112804   1.618   6.797   0.314 -0.9665  0.7229 -0.4946
 4280TIP3    H212805   1.487   6.723   0.300 -0.9560  0.5101  0.4219
 4281TIP3   OH212806   7.065   2.009   0.132 -0.5385 -0.6918  0.4674
 4281TIP3    H112807   7.124   1.956   0.077 -0.3672 -0.4400  0.4093
 4281TIP3    H212808   7.086   1.981   0.221 -0.5393 -0.8150  0.4304
 4282TIP3   OH212809   2.787   2.747   0.297 -0.0099  0.9035  0.4600
 4282TIP3    H112810   2.731   2.823   0.278  0.3214  1.1010  0.2728
 4282TIP3    H212811   2.855   2.750   0.230 -0.7710 -0.3521 -0.3997
 4283TIP3   OH212812   5.480   5.278   2.940  0.2983  0.2227 -0.0535
 4283TIP3    H112813   5.469   5.371   2.923  0.1718  0.1994 -0.0980
 4283TIP3    H212814   5.573   5.267   2.958  0.5079  0.1864 -1.1015
 4284TIP3   OH212815   3.699   2.667   0.908 -0.1891  0.1651  0.0041
 4284TIP3    H112816   3.647   2.695   0.833  0.2755  0.3659 -0.2431
 4284TIP3    H212817   3.663   2.581   0.931 -0.5799  0.2693 -0.2127
 4285TIP3   OH212818   5.483   1.509   3.674 -0.2026  0.1059  0.2593
 4285TIP3    H112819   5.554   1.568   3.649  1.1135 -0.4773  2.4079
 4285TIP3    H212820   5.527   1.427   3.697 -1.6994 -0.6670  0.4871
 4286TIP3   OH212821   5.295   3.872   3.325  0.7990  0.5456 -0.2131
 4286TIP3    H112822   5.371   3.830   3.365 -0.5343 -1.0703  0.7255
 4286TIP3    H212823   5.304   3.964   3.350  1.3267  0.0233  1.7695
 4287TIP3   OH212824   5.035   1.954   3.194  0.1046 -0.2369 -0.1878
 4287TIP3    H112825   5.080   1.982   3.114  0.6786  0.8311  0.4953
 4287TIP3    H212826   5.009   1.864   3.176 -0.6381  0.2797 -1.9655
 4288TIP3   OH212827   2.056   2.337   3.138 -0.7475 -0.2555  0.4166
 4288TIP3    H112828   2.113   2.358   3.212  2.4544 -0.0156 -1.9245
 4288TIP3    H212829   2.070   2.243   3.123 -1.0260 -0.2092 -0.1504
 4289TIP3   OH212830   7.067   1.580   4.948  0.1051 -0.5974  0.2168
 4289TIP3    H112831   7.125   1.566   5.023 -1.4737  1.5165  1.9412
 4289TIP3    H212832   6.983   1.543   4.974 -0.1906 -0.8597 -1.0106
 4290TIP3   OH212833   3.283   2.736   4.824  0.7707  0.3915 -0.0878
 4290TIP3    H112834   3.289   2.642   4.806 -1.4062  0.3305 -0.7019
 4290TIP3    H212835   3.214   2.767   4.766  0.8496  2.2221  0.7515
 4291TIP3   OH212836   1.248   3.428   1.541 -0.6648 -0.6204 -0.2149
 4291TIP3    H112837   1.281   3.347   1.579  0.0943 -0.4550 -0.5191
 4291TIP3    H212838   1.166   3.403   1.499 -0.7688 -1.0949  0.2620
 4292TIP3   OH212839   4.891   4.328   2.518 -0.1016  0.2687  0.4216
 4292TIP3    H112840   4.810   4.369   2.548  1.1136  2.1743  1.2413
 4292TIP3    H212841   4.866   4.282   2.437 -1.9807  0.8285  0.6445
 4293TIP3   OH212842   2.672   2.369   5.150  0.0062  0.0996 -0.5540
 4293TIP3    H112843   2.601   2.350   5.211  0.7736 -0.9002  0.0575
 4293TIP3    H212844   2.651   2.316   5.073 -1.0330  1.4619 -1.2645
 4294TIP3   OH212845   5.956   3.301   3.171 -0.2388  0.2486  0.4520
 4294TIP3    H112846   6.000   3.259   3.097  3.2061  2.7084  0.8596
 4294TIP3    H212847   5.943   3.231   3.235  0.8845 -1.0721 -0.7179
 4295TIP3   OH212848   4.584   2.805   2.232  0.1575 -0.4392 -0.4393
 4295TIP3    H112849   4.603   2.872   2.166  0.7278 -0.3445 -0.1896
 4295TIP3    H212850   4.517   2.844   2.287  0.0385 -0.3191 -0.6668
 4296TIP3   OH212851   0.422   1.751   4.790 -0.0051  0.0140  0.0601
 4296TIP3    H112852   0.496   1.702   4.755  0.0334  0.5779 -0.6691
 4296TIP3    H212853   0.462   1.822   4.839 -0.0547 -0.9503  1.5555
 4297TIP3   OH212854   3.760   1.795   5.535 -0.2808  0.2543 -0.4660
 4297TIP3    H112855   3.761   1.867   5.472 -1.2236  0.7427  0.0555
 4297TIP3    H212856   3.762   1.716   5.482 -0.7634  0.6629 -1.1054
 4298TIP3   OH212857   3.578   2.394   1.308 -0.4676  0.0929  0.0602
 4298TIP3    H112858   3.558   2.475   1.261 -0.4252  0.2639  0.3333
 4298TIP3    H212859   3.565   2.416   1.400 -0.2754 -0.1600  0.1500
 4299TIP3   OH212860   1.668   6.079   0.538  0.4009  0.2924  0.3256
 4299TIP3    H112861   1.590   6.094   0.591  1.4863  2.2768  1.4562
 4299TIP3    H212862   1.665   6.147   0.471  0.5748 -0.3484 -0.3468
 4300TIP3   OH212863   0.603   1.836   1.196  0.0793  0.8646 -0.1299
 4300TIP3    H112864   0.634   1.837   1.287 -0.8544 -0.8145  0.2503
 4300TIP3    H212865   0.611   1.927   1.167 -1.3034  1.8441  2.2460
 4301TIP3   OH212866   0.646   0.204   3.889 -0.8337  1.0518  0.0970
 4301TIP3    H112867   0.598   0.211   3.972 -2.0505 -1.9245 -0.2274
 4301TIP3    H212868   0.583   0.166   3.828  0.9148  0.3406 -1.3523
 4302TIP3   OH212869   3.646   4.281   3.312 -0.3539  0.6136 -0.1437
 4302TIP3    H112870   3.568   4.234   3.340 -0.1663  0.6284  0.4239
 4302TIP3    H212871   3.715   4.215   3.312 -0.1923  0.7804  0.1793
 4303TIP3   OH212872   1.274   1.759   0.777  0.0160  0.5699  1.0562
 4303TIP3    H112873   1.314   1.845   0.764  0.6418  0.3028  1.2062
 4303TIP3    H212874   1.182   1.778   0.795  0.3161  1.2550  1.9163
 4304TIP3   OH212875   1.929   1.075   1.048 -0.4525  0.1183  0.2912
 4304TIP3    H112876   1.991   1.123   1.102  0.5516 -0.9572  0.1317
 4304TIP3    H212877   1.860   1.046   1.108 -0.0135  0.0379  0.7566
 4305TIP3   OH212878   5.459   2.736   1.269 -0.0974  0.0230 -0.1291
 4305TIP3    H112879   5.383   2.766   1.218 -0.9688 -1.1624  0.4119
 4305TIP3    H212880   5.482   2.652   1.231  1.4079  0.6610 -0.7161
 4306TIP3   OH212881   0.655   3.878   5.268 -0.0856  0.3131  0.4224
 4306TIP3    H112882   0.623   3.793   5.236 -2.5985  1.1205  0.5745
 4306TIP3    H212883   0.661   3.866   5.363 -0.0572  0.1928  0.4060
 4307TIP3   OH212884   4.848   3.435   2.370 -0.0179  0.0889  0.0833
 4307TIP3    H112885   4.910   3.506   2.389 -0.3143  0.3445  0.0972
 4307TIP3    H212886   4.870   3.367   2.434 -0.4920  0.6326  0.8428
 4308TIP3   OH212887   6.096   0.905   5.602  0.1026  0.4297  0.0494
 4308TIP3    H112888   6.113   0.834   5.540  0.1479 -0.0032  0.5472
 4308TIP3    H212889   6.124   0.984   5.556 -1.5764  0.3523 -1.1962
 4309TIP3   OH212890   0.208   0.859   5.207 -0.1567  0.3922 -0.9702
 4309TIP3    H112891   0.278   0.907   5.164  0.2002 -0.5700 -1.4997
 4309TIP3    H212892   0.252   0.799   5.268 -0.6584  1.8005  0.8650
 4310TIP3   OH212893   1.418   5.747   3.127 -0.2108  0.2476 -0.3483
 4310TIP3    H112894   1.475   5.694   3.182 -0.6321 -0.2074 -0.3463
 4310TIP3    H212895   1.457   5.835   3.129 -0.4512  0.3431  1.0204
 4311TIP3   OH212896   3.014   2.658   3.374 -0.0151  0.4574 -0.3793
 4311TIP3    H112897   2.919   2.655   3.368 -0.0701  0.6611  0.3554
 4311TIP3    H212898   3.038   2.733   3.319 -0.2014 -0.1173 -1.2724
 4312TIP3   OH212899   1.066   6.607   2.043  0.1491  0.0852 -0.3342
 4312TIP3    H112900   1.057   6.551   2.120  0.1373 -1.0167 -1.1286
 4312TIP3    H212901   1.007   6.681   2.060  0.3993  0.0246  0.8561
 4313TIP3   OH212902   3.697   6.790   4.504  0.0023 -0.1283 -0.2105
 4313TIP3    H112903   3.765   6.799   4.438 -0.7014 -0.9624 -1.0813
 4313TIP3    H212904   3.615   6.807   4.457 -0.4740 -0.2367  0.5597
 4314TIP3   OH212905   6.281   3.144   3.258 -0.3412 -0.9255  0.3679
 4314TIP3    H112906   6.274   3.188   3.343 -1.5887  0.0897 -0.2421
 4314TIP3    H212907   6.221   3.191   3.201  1.0664 -1.0756 -1.3223
 4315TIP3   OH212908   4.327   4.169   5.508 -0.1279  0.0155 -0.3454
 4315TIP3    H112909   4.301   4.194   5.419  1.0980 -0.4338 -0.8643
 4315TIP3    H212910   4.390   4.237   5.534 -0.9042  0.4547  0.4119
 4316TIP3   OH212911   6.364   1.811   0.084 -0.5192 -0.4813 -0.7799
 4316TIP3    H112912   6.421   1.817   0.161  0.2497  1.5918 -1.4651
 4316TIP3    H212913   6.423   1.789   0.012 -0.9603 -0.6602 -1.0923
 4317TIP3   OH212914   0.029   2.246   0.535 -0.0291 -0.0033 -0.1468
 4317TIP3    H112915   0.029   2.336   0.569 -0.1404 -0.2621  0.5680
 4317TIP3    H212916  -0.051   2.208   0.571  0.2737 -0.5385 -0.0331
 4318TIP3   OH212917   4.629   1.697   3.206 -0.5858  0.3117  0.2314
 4318TIP3    H112918   4.646   1.737   3.120  1.2337 -0.2600  0.2826
 4318TIP3    H212919   4.656   1.763   3.269  0.4769 -0.1724  0.3185
 4319TIP3   OH212920   5.673   2.980   0.950 -0.4498  0.5234 -0.2812
 4319TIP3    H112921   5.759   3.004   0.915 -0.2569  0.6391  0.2629
 4319TIP3    H212922   5.692   2.933   1.032 -0.8786 -0.1333 -0.5474
 4320TIP3   OH212923   4.294   0.223   2.060  0.3160 -0.1857  0.6889
 4320TIP3    H112924   4.298   0.131   2.034  0.2224 -0.1638  0.5974
 4320TIP3    H212925   4.366   0.264   2.011  0.8224 -0.3439  1.2810
 4321TIP3   OH212926   5.411   2.912   5.774  0.3778 -0.6606 -0.1998
 4321TIP3    H112927   5.355   2.846   5.816 -1.1001  0.9784  0.4982
 4321TIP3    H212928   5.454   2.956   5.847 -1.2313  1.3609 -0.3964
 4322TIP3   OH212929   2.701   1.479   0.477 -0.0233  0.0913  0.0837
 4322TIP3    H112930   2.720   1.521   0.561 -2.0275 -0.3107  0.7899
 4322TIP3    H212931   2.653   1.546   0.427 -0.0001 -0.1249 -0.2324
 4323TIP3   OH212932   4.668   1.445   4.298  0.2803  0.3304  1.1784
 4323TIP3    H112933   4.611   1.514   4.333  0.6457  0.6141  1.2205
 4323TIP3    H212934   4.675   1.381   4.369  2.4257  1.7297  2.3411
 4324TIP3   OH212935   6.691   5.830   5.471 -0.6127  0.6516 -0.0427
 4324TIP3    H112936   6.621   5.832   5.405 -0.4536  0.1115 -0.2306
 4324TIP3    H212937   6.768   5.863   5.425 -0.8660  1.8373  0.3322
 4325TIP3   OH212938   4.116   3.460   1.107  0.0560  0.1554  0.1165
 4325TIP3    H112939   4.139   3.543   1.066 -1.0522  0.8314  0.8239
 4325TIP3    H212940   4.182   3.398   1.074  1.1721  1.3982 -0.0548
 4326TIP3   OH212941   0.407   2.511   0.950 -0.1919  0.2640 -0.4266
 4326TIP3    H112942   0.321   2.502   0.991  0.1163 -1.6257 -0.1203
 4326TIP3    H212943   0.388   2.543   0.861 -1.0522  1.5703  0.1980
 4327TIP3   OH212944   1.512   4.665   5.061 -0.3817  0.1826 -0.2897
 4327TIP3    H112945   1.433   4.611   5.050  0.5771 -0.9366 -2.2246
 4327TIP3    H212946   1.528   4.665   5.155 -2.2457 -0.2141  0.0621
 4328TIP3   OH212947   2.861   6.013   4.977  0.2374  0.0545 -0.2043
 4328TIP3    H112948   2.829   5.949   4.913 -0.5189  1.1622 -0.9852
 4328TIP3    H212949   2.908   5.961   5.042 -0.1559 -1.2587 -0.9300
 4329TIP3   OH212950   2.782   5.522   5.512  0.5690 -0.1671 -0.6376
 4329TIP3    H112951   2.750   5.458   5.448 -0.2652 -0.4535  0.0557
 4329TIP3    H212952   2.704   5.550   5.560  0.8430  1.6696 -1.1676
 4330TIP3   OH212953   7.070   5.055   0.324  0.3024  0.2183 -0.1448
 4330TIP3    H112954   7.132   4.996   0.367  2.6513  2.2692 -0.4740
 4330TIP3    H212955   7.109   5.071   0.238 -1.2324  0.8363 -0.7578
 4331TIP3   OH212956   4.985   2.621   2.279  0.4050 -0.5986 -0.3298
 4331TIP3    H112957   5.058   2.562   2.297  0.6600 -0.1906  0.0161
 4331TIP3    H212958   4.946   2.636   2.365  0.3694 -0.2365 -0.4084
 4332TIP3   OH212959   4.438   4.108   4.238 -0.1539 -0.4917 -0.5307
 4332TIP3    H112960   4.422   4.190   4.192 -0.7270 -0.5195 -0.3864
 4332TIP3    H212961   4.454   4.044   4.169 -0.9857 -0.5287 -0.7026
 4333TIP3   OH212962   6.304   0.415   0.658 -0.6338  0.3559 -0.0238
 4333TIP3    H112963   6.314   0.442   0.567 -0.2564 -0.6899 -0.3017
 4333TIP3    H212964   6.209   0.416   0.673 -0.6323  2.0247  0.0531
 4334TIP3   OH212965   2.577   6.115   2.104 -0.2894  0.2739 -0.2946
 4334TIP3    H112966   2.665   6.077   2.107 -0.1369  0.4853 -1.3623
 4334TIP3    H212967   2.553   6.110   2.011 -2.4927 -2.1892  0.2944
 4335TIP3   OH212968   0.669   3.386   0.142 -0.0455 -0.0989 -0.1185
 4335TIP3    H112969   0.652   3.475   0.112  2.5716  0.4287 -0.2727
 4335TIP3    H212970   0.597   3.334   0.106 -0.4630  1.5765 -1.8606
 4336TIP3   OH212971   6.897   0.059   3.123  0.4133 -0.5575 -0.4760
 4336TIP3    H112972   6.869   0.064   3.032  0.2433 -1.5153 -0.4884
 4336TIP3    H212973   6.974   0.116   3.128  1.5401 -1.9172 -1.6515
 4337TIP3   OH212974   2.838   1.626   5.086 -0.5626 -0.3041 -0.0653
 4337TIP3    H112975   2.787   1.600   5.163 -1.7355 -0.8129 -0.9706
 4337TIP3    H212976   2.927   1.638   5.118 -1.3118  0.9943  1.6492
 4338TIP3   OH212977   0.207   2.702   1.288 -0.4730 -0.3486  0.6564
 4338TIP3    H112978   0.161   2.786   1.286  0.9590  0.5017  1.8916
 4338TIP3    H212979   0.272   2.709   1.217  0.1435 -0.0899  1.2336
 4339TIP3   OH212980   3.121   3.756   4.698 -0.9258 -0.7840  0.2115
 4339TIP3    H112981   3.068   3.820   4.650 -0.5636 -0.9232 -0.3856
 4339TIP3    H212982   3.207   3.758   4.655 -1.3586 -2.8144 -0.9035
 4340TIP3   OH212983   0.083   6.696   4.705  0.2164  0.1547 -0.3759
 4340TIP3    H112984   0.087   6.713   4.799  1.8522 -2.0525  0.0426
 4340TIP3    H212985   0.022   6.623   4.696  0.1164  0.3121 -1.0076
 4341TIP3   OH212986   4.208   6.210   4.904  0.3470  0.3685 -0.0087
 4341TIP3    H112987   4.197   6.295   4.862 -1.9834  0.3992  0.4808
 4341TIP3    H212988   4.210   6.147   4.831  1.3702  0.7782 -0.3404
 4342TIP3   OH212989   6.204   1.397   2.925 -0.0658  0.1811 -0.0293
 4342TIP3    H112990   6.168   1.471   2.876  0.7844  0.7477  0.1950
 4342TIP3    H212991   6.289   1.381   2.885  0.6289  0.6250  1.2206
 4343TIP3   OH212992   0.524   5.025   5.385 -0.3598 -0.1006  0.0909
 4343TIP3    H112993   0.550   5.027   5.477 -1.9258 -1.8699  0.6235
 4343TIP3    H212994   0.607   5.015   5.337  0.3237 -0.9626  1.4131
 4344TIP3   OH212995   3.225   0.716   4.397 -0.2793 -0.3454  0.2591
 4344TIP3    H112996   3.283   0.722   4.322 -1.0451 -0.2682 -0.3405
 4344TIP3    H212997   3.153   0.659   4.367 -1.1819  0.6212  0.5285
 4345TIP3   OH212998   4.504   0.536   1.334  0.2762 -0.5333 -0.6210
 4345TIP3    H112999   4.591   0.573   1.348 -0.1541  0.4406 -0.4772
 4345TIP3    H213000   4.491   0.475   1.407 -0.4395  1.7169  1.2415
 4346TIP3   OH213001   4.383   1.517   0.026  0.1236 -0.7338  0.2582
 4346TIP3    H113002   4.425   1.577   0.087  0.0544 -0.4678  0.0456
 4346TIP3    H213003   4.414   1.430   0.052  0.8937 -0.5305  0.0228
 4347TIP3   OH213004   3.254   5.486   0.088 -0.1410  0.4028 -0.1551
 4347TIP3    H113005   3.291   5.537   0.017  0.2611 -0.9121 -0.9146
 4347TIP3    H213006   3.328   5.439   0.126 -0.8054 -1.4922 -1.0598
 4348TIP3   OH213007   3.065   6.361   4.065  0.0984 -0.0904 -0.4802
 4348TIP3    H113008   2.977   6.328   4.079  0.0836  0.6620  1.5639
 4348TIP3    H213009   3.120   6.282   4.064 -0.4316 -0.4728 -0.2129
 4349TIP3   OH213010   1.412   0.534   3.864 -0.7235  0.1610 -0.4066
 4349TIP3    H113011   1.397   0.518   3.771 -0.4775  0.8441 -0.5646
 4349TIP3    H213012   1.341   0.592   3.890 -1.0482 -0.3788 -0.0567
 4350TIP3   OH213013   2.198   1.416   1.996  0.4762 -0.1224  0.2354
 4350TIP3    H113014   2.216   1.335   2.046 -0.5950 -0.6067 -0.1401
 4350TIP3    H213015   2.115   1.399   1.952  0.3292  1.1314  0.0024
 4351TIP3   OH213016   6.758   0.118   0.712 -0.3252 -0.4262 -0.5089
 4351TIP3    H113017   6.685   0.112   0.772 -0.0366 -3.1232 -0.3418
 4351TIP3    H213018   6.727   0.077   0.631  0.4642 -0.0771 -1.0094
 4352TIP3   OH213019   5.505   3.442   4.131 -0.4428 -0.0560 -0.2625
 4352TIP3    H113020   5.522   3.536   4.121 -2.0077  0.1091 -1.8340
 4352TIP3    H213021   5.590   3.405   4.155  0.5113  1.5886 -0.9353
 4353TIP3   OH213022   7.176   0.301   2.387  0.3944 -0.5261  0.1032
 4353TIP3    H113023   7.263   0.340   2.392 -0.0366  0.9685 -2.3917
 4353TIP3    H213024   7.190   0.215   2.346  0.6073  0.3790 -1.8259
 4354TIP3   OH213025   6.036   2.341   0.803  0.1006 -0.5799 -0.0337
 4354TIP3    H113026   6.071   2.349   0.714 -0.8332 -0.9351 -0.4477
 4354TIP3    H213027   5.975   2.414   0.812 -1.4076 -1.7409 -0.4693
 4355TIP3   OH213028   4.498   0.978   3.569  0.0674  0.2640 -0.7358
 4355TIP3    H113029   4.442   0.989   3.492 -1.0838  1.5843  0.2384
 4355TIP3    H213030   4.509   1.067   3.603  0.6407 -0.2790  0.5536
 4356TIP3   OH213031   5.018   2.764   5.357  0.2056 -0.1141  0.0216
 4356TIP3    H113032   5.080   2.767   5.430  2.3807 -0.5155 -1.6994
 4356TIP3    H213033   5.047   2.832   5.297 -1.1575 -0.1955 -0.7863
 4357TIP3   OH213034   1.893   4.892   2.348 -0.4075  0.0844  0.4555
 4357TIP3    H113035   1.947   4.864   2.423  1.0721 -0.7936 -0.8590
 4357TIP3    H213036   1.955   4.934   2.289 -1.2798 -0.3786 -0.8326
 4358TIP3   OH213037   0.242   5.976   2.400  0.4505  0.6987 -0.0194
 4358TIP3    H113038   0.330   5.966   2.436  0.6762  0.4501 -0.6161
 4358TIP3    H213039   0.242   5.919   2.322 -0.3900  0.3224  0.2452
 4359TIP3   OH213040   1.937   1.572   2.925  0.1317  0.4649 -0.3321
 4359TIP3    H113041   1.992   1.505   2.967  0.2323  1.2037  0.7739
 4359TIP3    H213042   1.871   1.592   2.991 -0.9126  0.2640 -1.3019
 4360TIP3   OH213043   2.335   6.794   1.740  0.2497 -0.0789  0.8397
 4360TIP3    H113044   2.242   6.792   1.721  0.4141  0.0320 -0.0227
 4360TIP3    H213045   2.362   6.702   1.740  0.0075 -0.1520  1.7938
 4361TIP3   OH213046   3.219   5.659   3.192  0.4580  0.1308 -0.0390
 4361TIP3    H113047   3.288   5.722   3.215  0.5118  0.6132 -1.4137
 4361TIP3    H213048   3.154   5.711   3.144 -0.1414 -0.6147 -0.0461
 4362TIP3   OH213049   5.539   4.846   3.429 -0.4246  0.0565  0.4445
 4362TIP3    H113050   5.598   4.921   3.426 -1.4462  1.2685  4.6074
 4362TIP3    H213051   5.455   4.881   3.399 -0.4974  0.0622  0.6595
 4363TIP3   OH213052   3.323   4.300   5.056 -0.3408  0.5036 -0.1750
 4363TIP3    H113053   3.301   4.253   4.976 -1.1457 -0.3329  0.5087
 4363TIP3    H213054   3.385   4.242   5.101  0.0605  0.9407 -0.1545
 4364TIP3   OH213055   3.189   5.303   4.604  0.1555  0.2503 -0.5314
 4364TIP3    H113056   3.146   5.351   4.533 -1.3715  2.0725  1.4649
 4364TIP3    H213057   3.275   5.344   4.613  0.9723 -0.9881 -2.2118
 4365TIP3   OH213058   2.034   4.867   5.811 -0.1758  0.0028  0.1928
 4365TIP3    H113059   2.040   4.856   5.906 -0.4098 -1.4310  0.0637
 4365TIP3    H213060   2.087   4.944   5.793  0.9019 -0.4226  1.3620
 4366TIP3   OH213061   6.865   2.552   2.734 -0.0634 -0.0433 -0.1697
 4366TIP3    H113062   6.945   2.545   2.787  0.1252 -3.9917 -0.6742
 4366TIP3    H213063   6.810   2.615   2.781  2.4281  1.1353  1.3718
 4367TIP3   OH213064   5.998   0.580   5.073  0.1298  0.1086  0.6368
 4367TIP3    H113065   5.930   0.513   5.075  1.3330 -1.1588  0.8567
 4367TIP3    H213066   6.064   0.545   5.014  0.9984  0.8898  1.1160
 4368TIP3   OH213067   6.564   0.060   5.649 -0.3070  0.3550 -0.0677
 4368TIP3    H113068   6.494   0.046   5.585  0.7722  1.0435 -1.4571
 4368TIP3    H213069   6.636   0.099   5.598  1.6757 -1.7107  0.9918
 4369TIP3   OH213070   5.783   5.314   0.607  0.2653 -0.6697 -0.8459
 4369TIP3    H113071   5.706   5.261   0.587  0.3937 -1.6685  1.0521
 4369TIP3    H213072   5.854   5.275   0.556  0.6248 -3.2045  1.4016
 4370TIP3   OH213073   7.013   4.406   3.074  0.0359  0.2018  0.4442
 4370TIP3    H113074   7.044   4.424   2.985  2.6207 -0.7700  1.0633
 4370TIP3    H213075   7.012   4.491   3.118 -1.5751  0.7398 -0.5321
 4371TIP3   OH213076   5.764   6.014   2.132 -0.0980 -0.3593 -0.1308
 4371TIP3    H113077   5.730   6.066   2.205 -0.1769  2.3382 -1.9132
 4371TIP3    H213078   5.773   6.078   2.060  0.0983 -2.8259 -2.4419
 4372TIP3   OH213079   5.479   6.763   1.737 -0.2774  0.0716 -0.0316
 4372TIP3    H113080   5.494   6.699   1.806 -0.6240 -0.2707 -0.2695
 4372TIP3    H213081   5.564   6.773   1.694  0.0918  0.7308  0.8112
 4373TIP3   OH213082   3.364   3.297   4.903 -0.0231  0.5897 -0.0524
 4373TIP3    H113083   3.415   3.357   4.849 -0.0702  1.9457  1.3573
 4373TIP3    H213084   3.400   3.210   4.882  1.8797  1.3526 -0.1485
 4374TIP3   OH213085   2.042   0.358   2.066 -0.3115 -0.8526 -0.3391
 4374TIP3    H113086   2.051   0.432   2.126  0.8686  0.3911 -1.9353
 4374TIP3    H213087   2.088   0.286   2.108  2.1247  0.5118 -0.5028
 4375TIP3   OH213088   0.547   4.899   5.076  0.2574 -0.4684 -0.9665
 4375TIP3    H113089   0.458   4.927   5.053  0.1608 -0.4628 -0.5934
 4375TIP3    H213090   0.590   4.978   5.107 -0.5160 -0.9528  1.6640
 4376TIP3   OH213091   3.244   0.856   2.275 -0.0271  0.1037 -0.4092
 4376TIP3    H113092   3.195   0.858   2.194 -0.6178 -0.0061 -0.0597
 4376TIP3    H213093   3.334   0.878   2.250  0.0348 -1.0548 -1.2458
 4377TIP3   OH213094   2.486   3.049   5.071  0.0374 -0.5400 -0.4307
 4377TIP3    H113095   2.561   3.096   5.034  0.9005 -2.4806 -1.2635
 4377TIP3    H213096   2.468   2.979   5.008 -1.4934 -1.0787  0.5434
 4378TIP3   OH213097   1.910   5.425   3.010  0.2562 -0.2344  0.3629
 4378TIP3    H113098   1.824   5.381   3.010  0.8982 -1.5469  0.6342
 4378TIP3    H213099   1.890   5.518   3.022 -1.1129 -0.5558  0.7213
 4379TIP3   OH213100   1.990   6.740   5.285  0.0861  0.7552  0.0104
 4379TIP3    H113101   2.023   6.724   5.197 -1.0669 -0.5835 -0.2070
 4379TIP3    H213102   2.065   6.724   5.342  0.3599 -0.2485 -0.6028
 4380TIP3   OH213103   2.199   5.111   2.504  0.0913 -0.1893 -0.4388
 4380TIP3    H113104   2.111   5.148   2.503  0.6112  1.1332 -0.2813
 4380TIP3    H213105   2.196   5.037   2.444 -1.1011 -0.1117 -0.4873
 4381TIP3   OH213106   1.501   6.718   1.130 -0.0237  0.5659  0.3056
 4381TIP3    H113107   1.581   6.681   1.093  0.8749  0.4578  2.2492
 4381TIP3    H213108   1.502   6.810   1.104 -0.4316  0.1020 -1.5135
 4382TIP3   OH213109   4.931   6.162   0.712 -0.3751 -0.2988  0.2168
 4382TIP3    H113110   4.935   6.209   0.795  0.4208  0.0926 -0.0355
 4382TIP3    H213111   4.838   6.151   0.696 -0.6846  2.4293 -0.3968
 4383TIP3   OH213112   0.900   2.535   5.702 -0.0986 -0.1410  0.3891
 4383TIP3    H113113   0.976   2.581   5.738  0.7688 -0.1836 -1.3091
 4383TIP3    H213114   0.922   2.520   5.610 -1.2846 -2.0130  0.3583
 4384TIP3   OH213115   6.804   1.477   2.167 -0.1901 -0.4961  0.1871
 4384TIP3    H113116   6.732   1.524   2.126  0.0586 -1.3997 -1.3451
 4384TIP3    H213117   6.873   1.542   2.176 -0.1526 -0.3283 -1.1133
 4385TIP3   OH213118   4.880   2.941   2.461 -0.0839  0.1066 -0.0996
 4385TIP3    H113119   4.808   2.976   2.513  0.7603 -0.3053  1.4347
 4385TIP3    H213120   4.861   2.968   2.371 -1.9853  0.2379  0.2996
 4386TIP3   OH213121   1.716   0.044   2.724  0.1172  0.2110  0.0850
 4386TIP3    H113122   1.638   0.011   2.679 -0.1570  1.7931 -0.6513
 4386TIP3    H213123   1.774  -0.032   2.730 -1.5750 -1.0866  0.9232
 4387TIP3   OH213124   6.403   5.027   0.226  0.2368  0.5988 -0.8540
 4387TIP3    H113125   6.393   4.940   0.189 -0.4417 -0.1969  1.0906
 4387TIP3    H213126   6.462   5.072   0.166 -0.4005 -0.7566 -2.5816
 4388TIP3   OH213127   3.558   3.320   0.441 -0.2687  0.0771 -0.0121
 4388TIP3    H113128   3.637   3.267   0.441 -0.3721 -0.0949  0.8846
 4388TIP3    H213129   3.516   3.300   0.357  0.5482  0.0505 -0.4249
 4389TIP3   OH213130   6.348   0.334   0.381 -0.7554 -0.1697 -0.3354
 4389TIP3    H113131   6.330   0.404   0.318  0.3691 -0.7812 -1.3834
 4389TIP3    H213132   6.337   0.253   0.332  3.5209 -0.6618 -0.9155
 4390TIP3   OH213133   1.085   0.536   0.038 -0.1787 -0.3618  0.1678
 4390TIP3    H113134   1.012   0.562  -0.017  0.6803  0.0126 -0.8372
 4390TIP3    H213135   1.067   0.445   0.061 -0.1790 -0.7847 -1.3970
 4391TIP3   OH213136   5.487   4.478   4.740  0.1204  0.1043 -0.4226
 4391TIP3    H113137   5.494   4.477   4.645 -0.3865 -0.0677 -0.4652
 4391TIP3    H213138   5.574   4.502   4.771  0.4743 -0.4981 -0.9097
 4392TIP3   OH213139   2.984   2.101   1.506  0.3989 -0.2879 -0.4136
 4392TIP3    H113140   2.950   2.190   1.502 -2.4074 -1.2245  0.3997
 4392TIP3    H213141   2.951   2.060   1.425  0.7668 -0.8596 -0.2752
 4393TIP3   OH213142   6.025   0.485   0.703 -0.2386 -0.6049 -0.6318
 4393TIP3    H113143   5.990   0.535   0.630  1.0124  0.6910 -0.4132
 4393TIP3    H213144   6.051   0.552   0.767 -1.0267 -1.6834  0.8844
 4394TIP3   OH213145   6.777   5.636   3.310  0.2117  0.4361  0.4241
 4394TIP3    H113146   6.728   5.628   3.391 -0.7890 -1.3436 -0.2935
 4394TIP3    H213147   6.840   5.564   3.312  0.6057  0.7548 -0.0981
 4395TIP3   OH213148   3.336   5.170   2.892 -0.2739  0.8983  0.2725
 4395TIP3    H113149   3.284   5.092   2.912 -0.5271  1.0908  0.3753
 4395TIP3    H213150   3.305   5.236   2.954 -0.5756  1.2925 -0.2797
 4396TIP3   OH213151   4.736   4.200   0.614  0.3141  0.6424  0.2871
 4396TIP3    H113152   4.787   4.170   0.689 -1.1414 -0.3277  0.9507
 4396TIP3    H213153   4.672   4.261   0.652  1.1291  2.0808 -0.5648
 4397TIP3   OH213154   2.361   1.992   4.383 -0.3056 -0.0725 -0.5460
 4397TIP3    H113155   2.365   1.979   4.288  0.7035 -0.4169 -0.4691
 4397TIP3    H213156   2.441   1.951   4.416 -0.9328 -0.4547  0.5191
 4398TIP3   OH213157   7.086   0.657   5.456 -0.0296 -0.3125 -0.4163
 4398TIP3    H113158   7.048   0.714   5.390 -0.8232 -0.0358  0.2744
 4398TIP3    H213159   7.075   0.704   5.539 -0.8663 -1.5367  0.1910
 4399TIP3   OH213160   1.655   4.693   2.707  0.3412 -0.0893 -0.1339
 4399TIP3    H113161   1.642   4.777   2.665 -1.4784 -1.0510 -1.5994
 4399TIP3    H213162   1.567   4.659   2.722  1.0063 -1.1589  1.6761
 4400TIP3   OH213163   4.421   5.944   2.483  0.1846 -0.4837 -0.3984
 4400TIP3    H113164   4.405   6.027   2.438 -0.0437 -0.3846 -0.1363
 4400TIP3    H213165   4.384   5.877   2.425 -1.7515 -0.2232  0.4397
 4401TIP3   OH213166   6.604   1.102   1.618 -0.3127  0.3748  0.5998
 4401TIP3    H113167   6.684   1.089   1.670  0.0008  0.8595  0.2461
 4401TIP3    H213168   6.534   1.111   1.683 -0.4199 -2.0136  0.9055
 4402TIP3   OH213169   0.230   1.720   0.308 -0.3060 -0.3518  0.2363
 4402TIP3    H113170   0.215   1.643   0.252 -0.0287 -1.2360  1.3502
 4402TIP3    H213171   0.241   1.792   0.246 -0.2535 -1.2599 -0.8488
 4403TIP3   OH213172   4.014   2.822   3.956 -0.0800 -0.2225 -0.0536
 4403TIP3    H113173   3.935   2.775   3.983  0.3998 -0.6738  0.5773
 4403TIP3    H213174   4.045   2.776   3.878 -1.6017  1.2241 -1.6161
 4404TIP3   OH213175   5.487   3.479   1.772  0.1965  0.1960 -0.1203
 4404TIP3    H113176   5.449   3.409   1.826 -1.9080 -0.5854 -2.4388
 4404TIP3    H213177   5.429   3.554   1.786  0.1511  0.2562 -0.6336
 4405TIP3   OH213178   3.477   4.261   4.757 -0.2460  0.7587 -0.3873
 4405TIP3    H113179   3.426   4.262   4.677 -0.0724  0.3524 -0.5039
 4405TIP3    H213180   3.476   4.352   4.788 -2.6693  0.4471  0.6714
 4406TIP3   OH213181   5.616   0.252   4.197 -0.0815 -1.1028  0.0686
 4406TIP3    H113182   5.562   0.174   4.204  0.2698 -1.2732  1.0252
 4406TIP3    H213183   5.582   0.299   4.121 -1.9325 -0.9231  0.9564
 4407TIP3   OH213184   3.029   0.531   5.849 -0.2362  0.1034 -0.1930
 4407TIP3    H113185   2.986   0.517   5.933 -1.4384  0.7212 -0.6771
 4407TIP3    H213186   3.089   0.605   5.864  0.8226 -0.8772  0.5304
 4408TIP3   OH213187   4.117   6.031   3.658  0.5845  0.4257  0.2628
 4408TIP3    H113188   4.095   5.948   3.617  2.2633  1.1127 -2.2143
 4408TIP3    H213189   4.046   6.046   3.721  0.4359 -3.0052  1.0720
 4409TIP3   OH213190   0.002   5.586   4.701  0.0054  0.2834 -0.0091
 4409TIP3    H113191   0.087   5.583   4.745 -0.0647  2.2953  0.3814
 4409TIP3    H213192  -0.030   5.496   4.702  0.7388 -0.0196  2.6673
 4410TIP3   OH213193   3.416   1.649   4.466  0.1917  0.0900  0.0660
 4410TIP3    H113194   3.365   1.642   4.546  1.9256  0.9801  1.3129
 4410TIP3    H213195   3.403   1.566   4.421 -0.4436 -0.6137  1.5067
 4411TIP3   OH213196   3.729   1.000   2.019  0.2310  0.2897  0.5025
 4411TIP3    H113197   3.697   0.932   1.960  0.7993  0.7560 -0.3872
 4411TIP3    H213198   3.747   0.956   2.101 -0.8816 -0.3253  0.4261
 4412TIP3   OH213199   5.019   0.128   4.744  0.4121  0.0491  0.3012
 4412TIP3    H113200   4.982   0.047   4.779  0.8039  0.3730  1.5077
 4412TIP3    H213201   4.949   0.164   4.689 -0.7371  0.1551  1.7766
 4413TIP3   OH213202   2.205   1.456   3.953 -0.4519  0.4318 -0.7989
 4413TIP3    H113203   2.245   1.381   3.998  0.5679  1.6547  0.4350
 4413TIP3    H213204   2.235   1.533   4.002 -3.1133  1.5637 -0.7513
 4414TIP3   OH213205   2.118   3.557   1.549  0.0682  0.1621  0.2044
 4414TIP3    H113206   2.117   3.479   1.492  1.3914 -0.0643  0.4739
 4414TIP3    H213207   2.167   3.530   1.626  1.3339  1.5100 -0.0752
 4415TIP3   OH213208   2.447   6.709   0.572  0.1925  0.0663  0.3896
 4415TIP3    H113209   2.352   6.718   0.563  0.2116  1.8214  1.3897
 4415TIP3    H213210   2.466   6.622   0.539 -1.6466  0.0335 -0.7419
 4416TIP3   OH213211   1.119   5.472   4.099 -0.0809  0.0630 -0.1442
 4416TIP3    H113212   1.165   5.541   4.147 -0.7530  0.1014  0.4570
 4416TIP3    H213213   1.135   5.492   4.007  1.0315  0.1253  0.0410
 4417TIP3   OH213214   4.632   4.516   4.032 -0.3935 -0.0630 -0.0568
 4417TIP3    H113215   4.701   4.455   4.004 -1.2559 -1.6198  1.0373
 4417TIP3    H213216   4.616   4.570   3.955  1.8013  0.1421 -0.4518
 4418TIP3   OH213217   0.323   0.163   2.262  0.0800 -0.4436 -0.5262
 4418TIP3    H113218   0.239   0.154   2.306 -0.4839 -1.6863 -1.7634
 4418TIP3    H213219   0.374   0.088   2.293  1.4995  1.3213  1.6917
 4419TIP3   OH213220   3.887   0.193   4.374  0.3566 -0.3471  0.2123
 4419TIP3    H113221   3.981   0.188   4.355  0.0226 -2.7788 -1.2004
 4419TIP3    H213222   3.848   0.224   4.293 -0.1848 -0.6482  0.3569
 4420TIP3   OH213223   3.458   4.661   1.381 -0.1681 -0.2814 -0.1841
 4420TIP3    H113224   3.419   4.628   1.300 -1.0359  1.3045 -0.4535
 4420TIP3    H213225   3.419   4.747   1.393  1.5425  0.4185  0.7893
 4421TIP3   OH213226   0.341   1.664   4.040  0.0288 -0.1372 -0.2353
 4421TIP3    H113227   0.304   1.592   4.091  1.9772 -0.5687  0.6551
 4421TIP3    H213228   0.372   1.726   4.106 -0.3410  0.8585 -0.9805
 4422TIP3   OH213229   0.399   5.269   0.066  0.4410 -0.2243 -0.5555
 4422TIP3    H113230   0.303   5.265   0.075  0.6020 -2.4153  0.7353
 4422TIP3    H213231   0.418   5.363   0.070 -1.4961  0.2005  1.5074
 4423TIP3   OH213232   2.528   2.872   3.820  0.4802  0.3643  0.3790
 4423TIP3    H113233   2.615   2.904   3.799  0.3481  0.7363  0.3869
 4423TIP3    H213234   2.474   2.951   3.824  0.3565  0.2461  1.4013
 4424TIP3   OH213235   4.276   1.482   2.850 -0.0508 -0.0347  0.3253
 4424TIP3    H113236   4.184   1.460   2.866 -0.2380  1.2652  1.1843
 4424TIP3    H213237   4.323   1.400   2.863 -0.9018 -0.3425  1.7020
 4425TIP3   OH213238   0.543   5.519   0.908  0.2820  0.2526  0.0196
 4425TIP3    H113239   0.593   5.456   0.960  0.4055 -0.0519 -0.4584
 4425TIP3    H213240   0.452   5.501   0.929  0.3341  0.1988  0.2049
 4426TIP3   OH213241   0.343   0.269   0.965 -0.5294 -0.1010 -0.2045
 4426TIP3    H113242   0.304   0.341   1.014  0.7234  0.3542  0.1498
 4426TIP3    H213243   0.437   0.288   0.964 -0.2246 -1.5140 -0.4621
 4427TIP3   OH213244   5.832   5.150   4.347  0.0680  0.8673  0.0117
 4427TIP3    H113245   5.767   5.176   4.413  0.8750 -1.3410  1.8074
 4427TIP3    H213246   5.916   5.169   4.388  0.6267  2.0252 -1.5696
 4428TIP3   OH213247   6.846   2.293   3.386  0.1229 -0.5354 -0.0616
 4428TIP3    H113248   6.758   2.330   3.396  0.0143 -0.6651 -0.5151
 4428TIP3    H213249   6.905   2.365   3.409 -0.0666  0.2511 -1.8301
 4429TIP3   OH213250   4.897   0.683   4.001 -0.0204 -0.0790 -0.2269
 4429TIP3    H113251   4.844   0.731   4.064  1.1694 -0.0716  0.7918
 4429TIP3    H213252   4.925   0.748   3.937  0.8905  0.4474  0.6821
 4430TIP3   OH213253   0.880   1.022   0.945 -0.2122 -0.6043 -0.5909
 4430TIP3    H113254   0.917   0.947   0.898 -1.7577 -1.1250 -1.0414
 4430TIP3    H213255   0.815   0.983   1.003  0.1744  0.2510  0.4473
 4431TIP3   OH213256   4.672   4.528   0.339  0.4094  0.0858  0.0366
 4431TIP3    H113257   4.708   4.561   0.422 -0.0898  0.3583  0.1499
 4431TIP3    H213258   4.746   4.529   0.279  0.6262  0.5028  0.3032
 4432TIP3   OH213259   0.326   3.082   3.949 -0.2963 -0.0710 -0.1835
 4432TIP3    H113260   0.396   3.018   3.964  0.5946  0.7549 -0.7256
 4432TIP3    H213261   0.273   3.043   3.879  0.4372 -0.0613 -0.7491
 4433TIP3   OH213262   6.048   6.725   4.469 -0.7619 -0.1125  0.2345
 4433TIP3    H113263   6.008   6.773   4.397  0.9344  1.3974  0.2259
 4433TIP3    H213264   6.115   6.671   4.428  1.1839  1.7980  0.7049
 4434TIP3   OH213265   4.392   1.865   1.546 -0.8003 -0.3972  0.1822
 4434TIP3    H113266   4.339   1.856   1.467 -0.1335 -0.9401 -0.2067
 4434TIP3    H213267   4.459   1.930   1.522  0.7627 -2.1468 -0.4690
 4435TIP3   OH213268   2.976   2.985   0.598  0.2184  0.1764  0.1592
 4435TIP3    H113269   2.945   2.895   0.598  2.3274 -0.6330  2.1834
 4435TIP3    H213270   2.990   3.005   0.506 -0.6771 -1.3820 -0.3613
 4436TIP3   OH213271   2.439   0.236   1.537  0.0729 -0.2842 -0.1237
 4436TIP3    H113272   2.522   0.282   1.545 -0.5462  0.7368  0.8071
 4436TIP3    H213273   2.401   0.267   1.455  0.9706 -1.4002 -0.9821
 4437TIP3   OH213274   4.134   6.335   3.319 -0.1414 -0.4510 -0.0723
 4437TIP3    H113275   4.221   6.297   3.320  0.6345  1.1870 -1.3799
 4437TIP3    H213276   4.142   6.415   3.371 -0.8163 -0.2050 -0.3358
 4438TIP3   OH213277   2.207   0.187   3.916 -0.1612 -0.6534  0.0325
 4438TIP3    H113278   2.277   0.137   3.874  1.7665  1.0741  0.9983
 4438TIP3    H213279   2.133   0.181   3.855  1.3679 -1.1358 -1.8701
 4439TIP3   OH213280   4.200   0.213   2.888 -0.3169 -0.3153  0.4997
 4439TIP3    H113281   4.120   0.169   2.862  0.2770 -0.3834 -1.3492
 4439TIP3    H213282   4.172   0.285   2.945 -1.7370  0.0040 -0.5693
 4440TIP3   OH213283   6.338   1.925   2.981 -0.3184  0.5162  0.4085
 4440TIP3    H113284   6.399   1.854   2.961  0.5595  1.0817  1.0219
 4440TIP3    H213285   6.393   1.996   3.014 -1.0154  1.9637 -1.3328
 4441TIP3   OH213286   3.335   1.813   2.786  0.0509  0.0172  0.2631
 4441TIP3    H113287   3.369   1.896   2.818  2.1079 -0.1920 -1.1579
 4441TIP3    H213288   3.281   1.836   2.710  1.2891  0.0703 -0.6425
 4442TIP3   OH213289   7.122   1.574   5.618  0.1260 -0.0715 -0.3362
 4442TIP3    H113290   7.062   1.638   5.579 -1.5656 -1.9871 -1.0499
 4442TIP3    H213291   7.090   1.562   5.707  0.6527  0.2805 -0.0892
 4443TIP3   OH213292   6.811   4.627   0.571 -0.0226 -0.4583 -0.6954
 4443TIP3    H113293   6.814   4.564   0.643 -1.0312 -1.1575 -1.2469
 4443TIP3    H213294   6.781   4.708   0.613  0.3681 -0.5889 -0.1489
 4444TIP3   OH213295   3.775   0.626   2.431  0.1564 -0.4693 -0.4606
 4444TIP3    H113296   3.781   0.614   2.526  0.7820  0.9608 -0.2884
 4444TIP3    H213297   3.858   0.667   2.407 -0.9436  1.4336 -1.2341
 4445TIP3   OH213298   4.378   3.666   4.263  0.5060 -0.4655  0.1801
 4445TIP3    H113299   4.380   3.703   4.175 -1.5538  0.1058  0.3243
 4445TIP3    H213300   4.374   3.571   4.250  2.2118 -0.5119 -0.2583
 4446TIP3   OH213301   5.890   3.766   2.581  0.4996 -0.0004  0.0668
 4446TIP3    H113302   5.859   3.816   2.505  0.8738 -2.0524 -1.5279
 4446TIP3    H213303   5.810   3.749   2.632 -0.1273 -0.3616 -0.9950
 4447TIP3   OH213304   1.956   0.820   5.117  0.1587 -0.1551 -0.2223
 4447TIP3    H113305   2.007   0.829   5.198  0.9909 -2.3792 -0.4486
 4447TIP3    H213306   2.022   0.815   5.048 -0.4026 -1.5219 -0.6806
 4448TIP3   OH213307   5.823   1.435   4.840  0.3354 -0.2597 -0.5564
 4448TIP3    H113308   5.846   1.475   4.924 -2.0536  2.1093 -0.9114
 4448TIP3    H213309   5.778   1.354   4.864  1.0818 -0.4142  0.3740
 4449TIP3   OH213310   4.465   6.219   2.573  0.4694 -0.0591 -0.2749
 4449TIP3    H113311   4.520   6.274   2.516  0.9050  0.3119  0.4733
 4449TIP3    H213312   4.493   6.243   2.662  0.7947 -1.6380  0.0674
 4450TIP3   OH213313   0.811   0.838   3.400 -0.3927 -0.1330  0.2054
 4450TIP3    H113314   0.891   0.888   3.415 -0.9393  0.5396  0.9790
 4450TIP3    H213315   0.833   0.749   3.427  0.6754 -0.4223 -1.4317
 4451TIP3   OH213316   2.302   3.762   2.710  0.4380  0.1392 -0.1001
 4451TIP3    H113317   2.267   3.817   2.640  0.7977  1.2932  0.5995
 4451TIP3    H213318   2.233   3.763   2.777  0.7425  0.3334  0.2126
 4452TIP3   OH213319   2.735   6.040   4.579 -0.1182  0.3630  0.7313
 4452TIP3    H113320   2.796   5.970   4.605 -0.8575 -0.1197  1.2011
 4452TIP3    H213321   2.734   6.100   4.654 -1.1578 -0.2860  1.2694
 4453TIP3   OH213322   0.050   1.432   4.520 -0.2912  0.0012  0.3146
 4453TIP3    H113323   0.097   1.358   4.557 -0.8767  0.5682  2.3076
 4453TIP3    H213324   0.050   1.498   4.590 -0.9377  1.3740 -0.9253
 4454TIP3   OH213325   3.131   3.172   4.776 -0.0480  0.2299  0.8859
 4454TIP3    H113326   3.146   3.092   4.825  1.5190 -0.5969 -0.8646
 4454TIP3    H213327   3.197   3.234   4.810  1.2664 -0.4497 -0.3562
 4455TIP3   OH213328   6.931   3.840   2.028  0.7036  0.1720 -0.0737
 4455TIP3    H113329   6.914   3.783   1.953 -3.2308 -1.0037  1.4649
 4455TIP3    H213330   6.925   3.929   1.992 -1.5069 -0.3541 -1.2307
 4456TIP3   OH213331   4.365   6.034   1.728  0.2105 -0.1073 -0.2249
 4456TIP3    H113332   4.453   6.062   1.702 -0.3086  0.8763 -0.9929
 4456TIP3    H213333   4.358   6.060   1.819  0.4591  0.4953 -0.3712
 4457TIP3   OH213334   5.278   2.523   1.437  0.1295 -0.2445  0.5680
 4457TIP3    H113335   5.211   2.592   1.439 -0.9953 -1.3163  1.5989
 4457TIP3    H213336   5.295   2.508   1.344 -0.1025  0.9422  0.3223
 4458TIP3   OH213337   5.032   4.575   2.789 -0.2095 -0.2073  0.1172
 4458TIP3    H113338   4.944   4.542   2.771  0.2995 -0.6096 -1.8583
 4458TIP3    H213339   5.038   4.656   2.738  0.6527 -0.3132  0.0428
 4459TIP3   OH213340   4.436   6.759   2.417  0.0230  0.3228 -0.1767
 4459TIP3    H113341   4.516   6.709   2.428  0.0909  0.5643  0.4641
 4459TIP3    H213342   4.403   6.772   2.506 -0.8628  0.0126 -0.4508
 4460TIP3   OH213343   2.319   4.296   4.099 -0.2656 -0.6095 -0.2877
 4460TIP3    H113344   2.329   4.390   4.081  1.8023 -0.9933 -1.4832
 4460TIP3    H213345   2.234   4.288   4.141 -0.5778  1.7779 -0.3584
 4461TIP3   OH213346   4.740   3.739   4.728 -0.0341 -0.2192 -0.1236
 4461TIP3    H113347   4.804   3.732   4.657  1.0533 -1.8697  0.9274
 4461TIP3    H213348   4.656   3.718   4.687  0.4634 -0.4369 -1.0655
 4462TIP3   OH213349   1.480   2.736   3.738  0.6844  0.3170 -0.0784
 4462TIP3    H113350   1.560   2.687   3.753 -0.8836 -2.1813  0.7906
 4462TIP3    H213351   1.443   2.751   3.825 -0.2435  0.5846 -0.4983
 4463TIP3   OH213352   6.281   4.029   3.024  0.5158 -0.2094 -0.0530
 4463TIP3    H113353   6.248   4.070   2.944  0.1214  0.1420  0.2859
 4463TIP3    H213354   6.363   4.074   3.042  1.0004 -0.8254 -0.6909
 4464TIP3   OH213355   0.926   3.111   3.562 -0.2800 -0.0534 -0.4567
 4464TIP3    H113356   0.906   3.191   3.611  1.7634 -0.4117  1.0953
 4464TIP3    H213357   1.007   3.079   3.601 -1.0129 -2.8949 -1.0356
 4465TIP3   OH213358   6.484   2.082   5.480  0.6795  0.2246  0.2990
 4465TIP3    H113359   6.525   2.162   5.511  1.5763 -0.4473  0.8864
 4465TIP3    H213360   6.548   2.044   5.420  0.8035 -0.6740  0.9802
 4466TIP3   OH213361   0.162   2.478   5.732  0.0542  0.2420 -0.5514
 4466TIP3    H113362   0.191   2.388   5.744 -0.1357  0.2055 -0.3575
 4466TIP3    H213363   0.183   2.522   5.814 -1.8205 -0.1632  0.1906
 4467TIP3   OH213364   1.710   4.579   4.812 -0.2648  0.5090  0.2018
 4467TIP3    H113365   1.743   4.571   4.902 -0.4401  0.3023  0.2486
 4467TIP3    H213366   1.644   4.649   4.817  1.3828  2.1587 -0.2409
 4468TIP3   OH213367   1.179   5.677   4.264 -0.2108 -0.0124 -0.3457
 4468TIP3    H113368   1.090   5.684   4.297 -0.2944 -0.1719 -0.5343
 4468TIP3    H213369   1.230   5.641   4.337 -0.2145  0.4882 -0.0947
 4469TIP3   OH213370   6.175   1.236   1.027  0.2617 -0.3257  0.5771
 4469TIP3    H113371   6.145   1.200   0.943 -0.4504  1.4472  0.0020
 4469TIP3    H213372   6.100   1.286   1.059  1.7069  2.1332  0.3722
 4470TIP3   OH213373   2.459   6.425   0.613 -0.4846 -0.3381 -0.2541
 4470TIP3    H113374   2.414   6.351   0.573  0.9727 -0.2978 -2.0502
 4470TIP3    H213375   2.409   6.442   0.693 -4.2594  0.3005 -2.5074
 4471TIP3   OH213376   1.258   0.022   2.836  0.5058 -0.1348 -0.2145
 4471TIP3    H113377   1.350   0.011   2.861 -0.3281 -0.7359  3.2093
 4471TIP3    H213378   1.257   0.100   2.781  2.9354  0.7955  0.8926
 4472TIP3   OH213379   4.366   0.595   4.534  0.0162  0.2795 -0.0231
 4472TIP3    H113380   4.278   0.557   4.528 -1.2979  3.1500 -1.0993
 4472TIP3    H213381   4.363   0.647   4.614  1.2706 -0.7105  0.6911
 4473TIP3   OH213382   3.050   1.247   2.562 -0.2656 -0.4315 -0.1156
 4473TIP3    H113383   3.110   1.175   2.543 -1.4480 -1.4439 -0.1311
 4473TIP3    H213384   3.073   1.314   2.498  1.4354 -0.4159  0.4539
 4474TIP3   OH213385   6.092   1.705   0.198 -0.1168  0.0379  0.1840
 4474TIP3    H113386   6.115   1.627   0.148 -1.0764  0.8448 -1.5923
 4474TIP3    H213387   6.147   1.775   0.162  0.5059  0.2825  1.5443
 4475TIP3   OH213388   4.185   4.573   0.208  0.3653 -0.4255 -0.0714
 4475TIP3    H113389   4.098   4.549   0.239  0.4757 -1.1633 -0.3201
 4475TIP3    H213390   4.241   4.561   0.285  0.3965 -0.8624 -0.1564
 4476TIP3   OH213391   6.681   5.960   1.984  0.5201  0.1480  0.5579
 4476TIP3    H113392   6.731   5.880   2.000 -1.2748 -1.4053 -1.0875
 4476TIP3    H213393   6.748   6.026   1.965  2.0120 -1.2793  0.6577
 4477TIP3   OH213394   3.308   3.070   0.201 -0.3471 -0.4276  0.0061
 4477TIP3    H113395   3.263   3.012   0.263 -2.5092 -1.5523 -2.4103
 4477TIP3    H213396   3.237   3.107   0.148  1.2428  2.1145 -0.4962
 4478TIP3   OH213397   4.246   1.812   3.842  0.3942 -0.4311  0.1809
 4478TIP3    H113398   4.252   1.837   3.934 -0.1651 -0.8770  0.3414
 4478TIP3    H213399   4.156   1.833   3.818 -0.0964 -2.2427  0.3134
 4479TIP3   OH213400   2.375   5.932   2.733  0.2433 -0.5375  0.2045
 4479TIP3    H113401   2.335   5.907   2.817 -2.5647 -0.0527 -0.8559
 4479TIP3    H213402   2.384   6.027   2.740  0.7263 -0.5878  0.2444
 4480TIP3   OH213403   0.108   0.243   1.709 -0.3711  0.1646  0.4926
 4480TIP3    H113404   0.177   0.193   1.753 -1.0588  0.4808  2.0143
 4480TIP3    H213405   0.040   0.179   1.689 -0.6952  0.2413  1.2813
 4481TIP3   OH213406   1.247   6.686   0.837 -0.5271  0.2011 -0.1529
 4481TIP3    H113407   1.211   6.610   0.791 -0.2645 -1.3003  2.0056
 4481TIP3    H213408   1.171   6.727   0.880 -0.3427 -0.2236  0.5879
 4482TIP3   OH213409   0.351   2.683   4.129  0.2719  0.2514 -0.1334
 4482TIP3    H113410   0.410   2.733   4.185  0.0934 -0.5942  0.8291
 4482TIP3    H213411   0.397   2.602   4.111 -0.2092 -0.0279 -0.1345
 4483TIP3   OH213412   2.255   1.164   2.002  0.2195  0.3714 -0.5900
 4483TIP3    H113413   2.285   1.074   2.015 -0.1521  0.2944 -0.2341
 4483TIP3    H213414   2.314   1.199   1.935  0.2638 -0.1829 -0.8508
 4484TIP3   OH213415   1.792   5.595   2.051 -0.0910 -0.1259  0.2163
 4484TIP3    H113416   1.872   5.566   2.008 -0.6797  0.2281 -1.1699
 4484TIP3    H213417   1.740   5.636   1.982 -1.1866  0.2626  1.2178
 4485TIP3   OH213418   5.457   5.260   3.637 -0.0195 -0.0372  0.3125
 4485TIP3    H113419   5.526   5.201   3.667  1.3148  0.9801 -0.6418
 4485TIP3    H213420   5.489   5.347   3.657 -1.1934  0.4560  0.1372
 4486TIP3   OH213421   0.495   0.612   0.989 -0.0052  0.0686 -0.4319
 4486TIP3    H113422   0.485   0.545   1.057 -1.1339  0.8739  0.2209
 4486TIP3    H213423   0.442   0.580   0.916 -0.6572  0.3092 -0.0700
 4487TIP3   OH213424   7.069   1.033   3.060  0.5167  0.1053 -0.0504
 4487TIP3    H113425   7.047   0.940   3.053  2.1576 -0.2941 -0.2963
 4487TIP3    H213426   7.144   1.035   3.120 -0.9439  1.5314  1.8560
 4488TIP3   OH213427   6.479   3.698   0.574 -0.0367  0.4143 -0.2038
 4488TIP3    H113428   6.392   3.685   0.536  0.3672  0.0512 -1.0291
 4488TIP3    H213429   6.479   3.644   0.653  0.4197 -1.9588 -1.7424
 4489TIP3   OH213430   6.664   2.840   3.977 -0.5175  0.0130  0.8314
 4489TIP3    H113431   6.746   2.813   3.937 -0.0830  1.6219  0.5640
 4489TIP3    H213432   6.679   2.931   4.005 -2.4287  0.6301  0.0513
 4490TIP3   OH213433   1.325   5.884   1.147 -0.3744  0.5986 -0.3495
 4490TIP3    H113434   1.269   5.814   1.114 -1.6986  1.4768 -0.0401
 4490TIP3    H213435   1.281   5.914   1.227  1.9894 -0.5055  1.4685
 4491TIP3   OH213436   2.900   5.900   3.929 -0.1893 -0.1288  0.1862
 4491TIP3    H113437   2.864   5.854   3.853  0.4048 -0.3406  0.0257
 4491TIP3    H213438   2.947   5.975   3.891 -0.3662  0.0869  0.3860
 4492TIP3   OH213439   4.364   2.515   0.931  0.0003 -0.2815  0.3780
 4492TIP3    H113440   4.315   2.451   0.880  0.4838  0.0975 -0.5858
 4492TIP3    H213441   4.297   2.570   0.971 -0.3979 -0.9137  0.6019
 4493TIP3   OH213442   2.695   4.563   1.423  0.2315 -0.2815 -0.2381
 4493TIP3    H113443   2.708   4.566   1.518  2.7041 -0.3037 -0.5253
 4493TIP3    H213444   2.720   4.474   1.398  1.2423  0.2361 -1.1124
 4494TIP3   OH213445   2.754   2.598   5.760 -0.0714  0.3679  0.1157
 4494TIP3    H113446   2.811   2.522   5.759  0.8341  1.0291 -0.4021
 4494TIP3    H213447   2.690   2.580   5.828  0.2380 -0.7668  0.1235
 4495TIP3   OH213448   6.733   3.006   1.655  0.0292 -0.1449 -0.1261
 4495TIP3    H113449   6.692   2.966   1.578 -0.1838 -1.8916  0.8365
 4495TIP3    H213450   6.660   3.045   1.703  0.2841  1.8226 -1.2571
 4496TIP3   OH213451   0.488   2.124   2.617  0.5129 -0.0710 -0.3444
 4496TIP3    H113452   0.462   2.094   2.704 -0.1170  0.7890 -0.2224
 4496TIP3    H213453   0.413   2.103   2.561  0.2191  0.8989 -0.3307
 4497TIP3   OH213454   6.354   3.727   4.687  0.5124 -0.2144 -0.3653
 4497TIP3    H113455   6.282   3.752   4.630  0.3607  1.5187  0.5001
 4497TIP3    H213456   6.427   3.710   4.628 -0.1741 -0.4445 -1.1680
 4498TIP3   OH213457   6.714   4.543   1.577 -0.2703  0.6404  0.5429
 4498TIP3    H113458   6.630   4.550   1.623  0.5029 -2.7913  2.8729
 4498TIP3    H213459   6.771   4.604   1.623 -0.5730  0.2569  1.4544
 4499TIP3   OH213460   6.155   2.973   3.755 -0.7020 -0.0622  0.0757
 4499TIP3    H113461   6.179   3.054   3.800 -0.6155  0.7225 -1.3339
 4499TIP3    H213462   6.238   2.929   3.739 -0.6484  0.1430 -0.2094
 4500TIP3   OH213463   5.249   3.685   3.110 -0.4155  0.0610  0.1052
 4500TIP3    H113464   5.254   3.750   3.180 -0.5902  0.2762 -0.0778
 4500TIP3    H213465   5.294   3.608   3.144  2.7838  1.3363 -0.8663
 4501TIP3   OH213466   1.354   5.437   4.920 -0.0550  0.1407 -0.3863
 4501TIP3    H113467   1.341   5.517   4.870  0.3763  0.6434  0.2969
 4501TIP3    H213468   1.409   5.382   4.864  0.0405  0.5114 -0.6568
 4502TIP3   OH213469   1.279   2.596   1.666  0.1500  0.2868  0.2658
 4502TIP3    H113470   1.231   2.626   1.744 -0.3570  2.1337 -0.6931
 4502TIP3    H213471   1.371   2.602   1.691 -0.0239  0.1297  0.9637
 4503TIP3   OH213472   7.120   1.627   0.995 -0.7370 -0.1994  0.2599
 4503TIP3    H113473   7.025   1.622   1.002 -0.7156 -1.6734 -0.2041
 4503TIP3    H213474   7.137   1.632   0.901 -0.3695  1.0613  0.3721
 4504TIP3   OH213475   6.595   5.302   5.039  0.6421 -0.1927 -0.5631
 4504TIP3    H113476   6.547   5.226   5.005  0.9614 -1.1626  1.0318
 4504TIP3    H213477   6.594   5.290   5.134 -0.3218  2.4442 -0.1583
 4505TIP3   OH213478   2.614   1.192   1.471 -0.1413  0.5140  0.0597
 4505TIP3    H113479   2.590   1.266   1.415 -0.4416  0.3054 -0.0960
 4505TIP3    H213480   2.552   1.122   1.445 -1.9328  1.1505  2.3102
 4506TIP3   OH213481   2.184   2.720   5.096 -0.3694 -0.1008  0.0299
 4506TIP3    H113482   2.206   2.735   5.188  1.3447  0.1595 -0.3881
 4506TIP3    H213483   2.093   2.749   5.088 -1.1200 -1.5971  1.9759
 4507TIP3   OH213484   3.614   4.359   4.076 -0.2668  0.4683 -0.0488
 4507TIP3    H113485   3.542   4.412   4.110 -0.1824  0.6358 -0.1309
 4507TIP3    H213486   3.691   4.388   4.126 -0.6108 -1.1384  1.5042
 4508TIP3   OH213487   5.600   3.868   1.078  0.2268  0.1269  0.4772
 4508TIP3    H113488   5.633   3.786   1.113  1.2630 -0.4820 -1.7320
 4508TIP3    H213489   5.548   3.842   1.001  0.1483  1.4815  0.0459
 4509TIP3   OH213490   0.494   4.703   5.519 -0.6147  0.3478 -0.2226
 4509TIP3    H113491   0.519   4.791   5.549 -1.4929  0.7095 -0.5059
 4509TIP3    H213492   0.476   4.714   5.425 -0.9473 -0.0858 -0.2129
 4510TIP3   OH213493   1.612   4.996   4.870  0.4330 -0.6605  0.2634
 4510TIP3    H113494   1.684   4.961   4.818 -0.6766 -2.9383  0.1513
 4510TIP3    H213495   1.637   4.978   4.961  1.4559  1.5481  0.5005
 4511TIP3   OH213496   4.431   1.657   0.256 -0.0639  0.4134 -0.2410
 4511TIP3    H113497   4.512   1.628   0.298 -1.6892 -1.1218  2.0624
 4511TIP3    H213498   4.442   1.752   0.246  1.0446  0.6441  2.3980
 4512TIP3   OH213499   6.200   3.853   4.470 -0.3068  0.1051  0.1206
 4512TIP3    H113500   6.238   3.796   4.403 -1.1938  0.1306 -0.4098
 4512TIP3    H213501   6.206   3.941   4.432 -0.7005  0.1337  0.1264
 4513TIP3   OH213502   5.772   4.911   5.453  0.4873  0.2602  0.0420
 4513TIP3    H113503   5.771   5.004   5.473  0.3830  0.3594 -0.4271
 4513TIP3    H213504   5.688   4.879   5.488 -0.3517  0.7064 -1.5032
 4514TIP3   OH213505   6.754   0.616   3.773  0.0410  0.4771  0.0699
 4514TIP3    H113506   6.691   0.640   3.705 -1.2549  0.8886  1.3394
 4514TIP3    H213507   6.819   0.562   3.729  0.0619  1.9256 -1.7740
 4515TIP3   OH213508   4.536   2.446   3.601 -0.4574  0.1805  0.3228
 4515TIP3    H113509   4.586   2.524   3.625 -0.2178  0.0844  0.1355
 4515TIP3    H213510   4.502   2.465   3.514 -0.7490  0.2462  0.4508
 4516TIP3   OH213511   1.293   6.195   3.894 -0.0933  0.3849 -0.4744
 4516TIP3    H113512   1.298   6.106   3.861 -1.2075  0.1379 -0.0088
 4516TIP3    H213513   1.268   6.248   3.818 -1.0009  0.0587 -0.4154
 4517TIP3   OH213514   2.698   1.163   5.305 -0.6196 -0.2423  0.4625
 4517TIP3    H113515   2.748   1.083   5.287  0.0680  0.2899 -0.0638
 4517TIP3    H213516   2.652   1.181   5.223 -1.2550 -0.4216  0.7711
 4518TIP3   OH213517   0.261   0.351   2.438 -0.3286  0.7450 -0.0883
 4518TIP3    H113518   0.324   0.318   2.374  0.0044  3.4702 -1.3124
 4518TIP3    H213519   0.308   0.351   2.521 -0.1503 -1.1356 -0.1617
 4519TIP3   OH213520   0.047   5.386   3.332  0.3423  0.2511 -0.9017
 4519TIP3    H113521   0.047   5.392   3.236  0.8619  0.2790 -0.9023
 4519TIP3    H213522   0.134   5.353   3.354  0.2979  0.4418 -0.4283
 4520TIP3   OH213523   2.656   4.587   1.099  0.0755 -0.6930 -0.0544
 4520TIP3    H113524   2.677   4.556   1.187 -0.2620 -1.7278 -0.3273
 4520TIP3    H213525   2.595   4.660   1.113  0.4317 -0.5096  0.5794
 4521TIP3   OH213526   2.620   4.688   3.053 -0.3218  0.1553 -0.1931
 4521TIP3    H113527   2.659   4.611   3.012 -0.9553 -1.1166  1.4772
 4521TIP3    H213528   2.581   4.737   2.981  0.2509 -1.0087 -1.3162
 4522TIP3   OH213529   1.337   4.081   0.696  0.2009  0.3430 -0.4601
 4522TIP3    H113530   1.280   4.005   0.697 -1.6140  1.6465  0.5763
 4522TIP3    H213531   1.348   4.104   0.788 -1.3884  2.7887 -0.8071
 4523TIP3   OH213532   4.524   2.734   4.608 -0.2132  0.1067 -0.1100
 4523TIP3    H113533   4.565   2.725   4.694 -2.4640 -1.2890  0.9096
 4523TIP3    H213534   4.495   2.825   4.604  0.4760  0.3499  0.3371
 4524TIP3   OH213535   2.838   2.817   2.033  0.4764  0.2433  0.8039
 4524TIP3    H113536   2.753   2.806   2.075  0.6749 -0.9682  0.9145
 4524TIP3    H213537   2.899   2.827   2.106  0.6371 -0.4781  0.7710
 4525TIP3   OH213538   5.460   3.751   0.599 -0.2746  0.1838  0.2087
 4525TIP3    H113539   5.498   3.663   0.588 -0.2059  0.1704  0.5585
 4525TIP3    H213540   5.534   3.810   0.591 -0.2683  0.1912  0.3346
 4526TIP3   OH213541   0.152   1.372   3.857  0.1397 -0.3087  0.4445
 4526TIP3    H113542   0.124   1.321   3.781  0.6287  2.2587 -1.5906
 4526TIP3    H213543   0.245   1.350   3.868  0.7506  1.0612 -1.3519
 4527TIP3   OH213544   0.483   2.834   2.687  0.7830 -0.2974  0.4807
 4527TIP3    H113545   0.544   2.840   2.761  1.0157  0.5378  0.2312
 4527TIP3    H213546   0.491   2.918   2.643  0.0174 -0.4767 -0.0106
 4528TIP3   OH213547   2.902   2.797   3.636  0.5232 -0.8622 -0.4949
 4528TIP3    H113548   2.933   2.888   3.641  0.8292 -0.8664 -1.9709
 4528TIP3    H213549   2.981   2.744   3.641  0.5503 -0.9602 -1.7515
 4529TIP3   OH213550   4.559   3.600   3.152 -0.5322  0.2859  0.7106
 4529TIP3    H113551   4.536   3.507   3.158 -1.6113  0.5718  1.2572
 4529TIP3    H213552   4.638   3.608   3.206  0.9555 -0.7108 -1.1817
 4530TIP3   OH213553   0.190   1.621   5.621 -0.0639 -0.2641 -0.5718
 4530TIP3    H113554   0.195   1.624   5.716  0.1921  2.0341 -0.5912
 4530TIP3    H213555   0.098   1.599   5.602 -0.6953  1.5014  0.2593
 4531TIP3   OH213556   4.204   1.055   4.573  0.0002 -0.6957 -0.7558
 4531TIP3    H113557   4.288   1.083   4.609 -0.0408  0.4038 -1.4658
 4531TIP3    H213558   4.150   1.134   4.575 -1.3911 -1.6180  0.6497
 4532TIP3   OH213559   1.513   3.231   1.652  0.2777  0.4813 -0.6745
 4532TIP3    H113560   1.524   3.305   1.712 -0.7917  0.9957 -1.0775
 4532TIP3    H213561   1.439   3.182   1.687  0.1055  0.3846 -1.1595
 4533TIP3   OH213562   0.987   3.337   1.486  0.5864 -0.0748  0.4993
 4533TIP3    H113563   0.951   3.351   1.573  0.4052 -1.4040  0.6539
 4533TIP3    H213564   0.921   3.372   1.426 -0.7121 -1.8833  0.8029
 4534TIP3   OH213565   1.455   4.294   5.225 -0.1797 -0.1424 -0.1360
 4534TIP3    H113566   1.426   4.326   5.310 -1.6411 -0.4545 -0.4788
 4534TIP3    H213567   1.376   4.254   5.187  0.5272 -0.3016 -1.4887
 4535TIP3   OH213568   2.363   0.174   5.762  0.0127  0.4512 -0.3424
 4535TIP3    H113569   2.369   0.080   5.777  0.5915  0.4540 -0.5470
 4535TIP3    H213570   2.300   0.183   5.690 -2.2231  0.3971  1.4533
 4536TIP3   OH213571   2.095   2.251   5.731 -0.7016  0.3387 -0.1872
 4536TIP3    H113572   2.076   2.170   5.683  1.7628  0.8988 -2.3632
 4536TIP3    H213573   2.142   2.223   5.809 -0.6086 -0.3850 -0.4957
 4537TIP3   OH213574   1.616   6.196   4.191  0.3394 -0.1414  0.2306
 4537TIP3    H113575   1.524   6.223   4.183 -0.3475 -1.8091  1.8523
 4537TIP3    H213576   1.655   6.263   4.248  0.4120  1.0953 -1.2180
 4538TIP3   OH213577   3.337   2.808   0.911  0.2850 -0.1613  0.0403
 4538TIP3    H113578   3.398   2.764   0.852 -0.1675  0.9990 -1.3707
 4538TIP3    H213579   3.335   2.899   0.879  0.2955  0.5977  2.0964
 4539TIP3   OH213580   5.853   6.692   0.244  0.2172 -0.3253 -0.2665
 4539TIP3    H113581   5.763   6.682   0.212 -0.2340  2.9413 -0.3091
 4539TIP3    H213582   5.899   6.616   0.208 -1.9956 -0.8506 -2.2712
 4540TIP3   OH213583   2.062   5.598   3.795 -0.3024  0.0468  0.8104
 4540TIP3    H113584   2.018   5.514   3.810 -1.2261  0.3432 -0.1219
 4540TIP3    H213585   2.085   5.597   3.702  0.5858  0.4135  1.0225
 4541TIP3   OH213586   1.469   1.752   1.805  0.1761 -0.0708 -0.1027
 4541TIP3    H113587   1.462   1.700   1.724  1.2658  1.2492 -1.0965
 4541TIP3    H213588   1.563   1.766   1.816  0.0501 -0.3409  1.4923
 4542TIP3   OH213589   4.070   3.857   3.664 -0.0351  0.0012  0.2508
 4542TIP3    H113590   3.977   3.843   3.685 -0.0844 -2.3852 -1.2067
 4542TIP3    H213591   4.115   3.849   3.749 -1.1244  1.0641  0.9559
 4543TIP3   OH213592   2.293   4.225   5.321  0.4159 -0.0574 -0.3310
 4543TIP3    H113593   2.212   4.200   5.276 -0.2145 -0.3967  0.9268
 4543TIP3    H213594   2.263   4.279   5.395  1.3830  0.2470 -0.1484
 4544TIP3   OH213595   0.282   2.072   0.535 -0.1527  0.5486  0.3822
 4544TIP3    H113596   0.356   2.132   0.548 -0.3601  0.9589 -0.2791
 4544TIP3    H213597   0.205   2.128   0.543 -0.3203  0.6345 -1.4927
 4545TIP3   OH213598   4.871   4.174   3.874  0.5013 -0.6431  0.2834
 4545TIP3    H113599   4.805   4.215   3.818  0.7689  0.6466  0.8804
 4545TIP3    H213600   4.828   4.168   3.960  0.1108 -2.5530 -0.0110
 4546TIP3   OH213601   6.599   6.092   4.488  0.1052  1.4969 -0.0595
 4546TIP3    H113602   6.595   6.187   4.471  1.3320  2.2090  3.0164
 4546TIP3    H213603   6.690   6.069   4.472 -0.2958  0.6909 -1.2653
 4547TIP3   OH213604   6.191   0.719   0.629  0.3073  0.0979 -0.1353
 4547TIP3    H113605   6.280   0.756   0.629 -0.1185  1.1730 -1.5720
 4547TIP3    H213606   6.188   0.665   0.551  0.2742 -1.4810  0.9108
 4548TIP3   OH213607   6.281   2.446   3.027  0.1768 -0.7121  0.2448
 4548TIP3    H113608   6.222   2.390   3.077 -0.8226 -0.9290 -1.1102
 4548TIP3    H213609   6.362   2.448   3.078 -1.1280 -0.0111  2.4127
 4549TIP3   OH213610   1.804   6.427   0.587  0.0965 -0.1324  0.7292
 4549TIP3    H113611   1.816   6.352   0.528  0.4661  0.7573 -0.3692
 4549TIP3    H213612   1.892   6.461   0.600 -0.0188 -0.1447  1.5861
 4550TIP3   OH213613   2.466   0.850   0.673  0.5627 -0.0559  0.0907
 4550TIP3    H113614   2.503   0.892   0.596 -0.3763  1.8368  0.6226
 4550TIP3    H213615   2.392   0.905   0.698  0.4564 -0.9662  1.9677
 4551TIP3   OH213616   4.983   0.568   4.301  0.4199 -0.2835  0.0170
 4551TIP3    H113617   4.990   0.503   4.371 -0.3940 -0.0068  0.3754
 4551TIP3    H213618   4.899   0.547   4.258  0.0820  0.6070  0.2243
 4552TIP3   OH213619   5.856   3.835   1.795 -0.0512 -0.0770 -0.3062
 4552TIP3    H113620   5.782   3.805   1.743 -0.9632  0.0145  0.8858
 4552TIP3    H213621   5.876   3.922   1.761  0.3467 -0.6041 -1.4681
 4553TIP3   OH213622   4.075   5.994   5.056  0.1894 -0.0454  0.2826
 4553TIP3    H113623   4.104   6.062   4.997  0.3632  1.0839  1.6181
 4553TIP3    H213624   3.995   6.029   5.096 -0.2342 -1.0133  0.3306
 4554TIP3   OH213625   3.867   3.557   2.813 -0.1588  0.0600 -0.0742
 4554TIP3    H113626   3.941   3.603   2.774  1.2014  0.5344  2.8280
 4554TIP3    H213627   3.841   3.493   2.746  1.4440  1.3313 -2.0271
 4555TIP3   OH213628   2.312   2.974   4.419 -1.0283 -0.0729 -0.4361
 4555TIP3    H113629   2.229   3.006   4.454 -0.2081  2.0886 -0.3063
 4555TIP3    H213630   2.315   3.009   4.330 -0.0262  0.3583 -0.2480
 4556TIP3   OH213631   2.523   2.276   4.882 -0.4089  0.2502 -0.2082
 4556TIP3    H113632   2.553   2.212   4.818  1.0257  1.3897 -0.7181
 4556TIP3    H213633   2.470   2.224   4.944  0.0359 -1.2618 -1.0384
 4557TIP3   OH213634   3.960   4.022   4.345  0.4060  0.4824  0.1171
 4557TIP3    H113635   4.033   4.068   4.386 -1.3401 -0.3188  4.7517
 4557TIP3    H213636   3.982   3.929   4.352 -0.8565  0.2438  1.3289
 4558TIP3   OH213637   1.741   5.078   1.517 -0.4385  0.2556  0.3539
 4558TIP3    H113638   1.809   5.145   1.508  0.6247 -0.6970  1.0631
 4558TIP3    H213639   1.789   4.995   1.512 -1.6663 -0.4557  0.0380
 4559TIP3   OH213640   3.678   6.215   5.453 -0.7208 -0.4055  0.2244
 4559TIP3    H113641   3.758   6.239   5.405 -0.6645  0.1688  0.5964
 4559TIP3    H213642   3.656   6.128   5.421 -1.0838  0.2414 -1.3657
 4560TIP3   OH213643   0.488   2.294   4.784  0.1653  0.5671  0.1036
 4560TIP3    H113644   0.530   2.211   4.803  0.3414  0.5658 -0.2914
 4560TIP3    H213645   0.549   2.360   4.817  0.0279  0.5447  0.4118
 4561TIP3   OH213646   3.480   3.397   1.691  0.9423 -0.3230  0.6067
 4561TIP3    H113647   3.478   3.302   1.674 -1.0611 -0.0467 -1.0695
 4561TIP3    H213648   3.538   3.432   1.624 -1.5044 -0.0024 -1.4949
 4562TIP3   OH213649   6.300   3.403   0.409 -0.0869 -0.2583  0.3181
 4562TIP3    H113650   6.210   3.374   0.394  0.1194 -1.6667  1.5173
 4562TIP3    H213651   6.295   3.498   0.414 -1.5400 -0.3315  0.5161
 4563TIP3   OH213652   5.493   6.327   5.163 -0.1404  0.0050  0.3960
 4563TIP3    H113653   5.412   6.337   5.112 -0.8536 -0.2165  1.4673
 4563TIP3    H213654   5.538   6.253   5.121 -1.3522 -1.0521  0.8689
 4564TIP3   OH213655   1.346   4.677   4.280  0.4353 -0.0383 -0.3491
 4564TIP3    H113656   1.325   4.583   4.286 -0.9533  0.1337 -1.8679
 4564TIP3    H213657   1.314   4.714   4.362  0.6236 -0.8331  0.0891
 4565TIP3   OH213658   0.782   2.757   2.803 -0.0316 -0.2523 -0.3510
 4565TIP3    H113659   0.850   2.773   2.868  2.7489 -1.5983 -2.6790
 4565TIP3    H213660   0.779   2.837   2.751  0.4246 -0.4847 -0.7474
 4566TIP3   OH213661   1.160   4.978   3.947 -0.5634  0.1099  0.3301
 4566TIP3    H113662   1.204   4.893   3.952 -1.0986 -0.1067  2.3006
 4566TIP3    H213663   1.227   5.038   3.916  0.7096 -0.5133  1.7280
 4567TIP3   OH213664   5.275   4.812   1.959  0.3741  0.8447 -0.1227
 4567TIP3    H113665   5.235   4.898   1.950  1.8212  1.4705 -0.9263
 4567TIP3    H213666   5.320   4.797   1.875 -0.5282 -1.0635 -0.3361
 4568TIP3   OH213667   0.564   0.104   4.200 -0.4299 -0.5319 -0.1599
 4568TIP3    H113668   0.558   0.199   4.193 -1.3732 -0.3566  2.0495
 4568TIP3    H213669   0.644   0.090   4.252 -0.5277 -0.9067 -0.1103
 4569TIP3   OH213670   5.949   6.737   5.502  0.6901 -0.0213  0.3408
 4569TIP3    H113671   6.011   6.769   5.437  0.9460 -0.1535  0.5173
 4569TIP3    H213672   5.887   6.683   5.453  1.5983 -1.1276  0.3828
 4570TIP3   OH213673   3.280   5.437   3.032 -0.0821 -0.4138 -0.1551
 4570TIP3    H113674   3.251   5.515   3.080 -1.0419 -0.4362 -0.6773
 4570TIP3    H213675   3.330   5.472   2.958 -2.5130 -0.1055 -1.7800
 4571TIP3   OH213676   0.175   5.393   3.921  0.1553 -0.2312 -0.2193
 4571TIP3    H113677   0.233   5.402   3.846  1.5208 -3.0713  0.3574
 4571TIP3    H213678   0.147   5.482   3.941  5.5341  1.6849  0.3935
 4572TIP3   OH213679   1.155   3.621   5.445 -0.9237 -0.3267 -0.4366
 4572TIP3    H113680   1.198   3.614   5.530  0.6072  3.4959 -0.6559
 4572TIP3    H213681   1.172   3.537   5.402  3.0439 -0.4774  1.0290
 4573TIP3   OH213682   2.562   5.536   3.178  0.1773  0.1211 -0.1596
 4573TIP3    H113683   2.512   5.455   3.180  1.3170 -0.6467 -1.5117
 4573TIP3    H213684   2.618   5.532   3.256  1.2157 -1.0516 -0.9507
 4574TIP3   OH213685   1.863   0.827   4.097 -0.8244  0.8023  0.6556
 4574TIP3    H113686   1.793   0.780   4.053 -1.4495  0.9700  1.4451
 4574TIP3    H213687   1.818   0.888   4.155 -0.0333  0.6743  1.4256
 4575TIP3   OH213688   4.318   4.493   1.617 -0.0909  0.0952 -0.0423
 4575TIP3    H113689   4.302   4.562   1.552 -0.8736 -0.8366 -0.8587
 4575TIP3    H213690   4.253   4.509   1.686 -0.1421  0.2755 -0.1306
 4576TIP3   OH213691   0.176   4.892   0.397  0.1303  0.0433 -0.1256
 4576TIP3    H113692   0.152   4.869   0.486 -1.8662  0.9792 -0.3617
 4576TIP3    H213693   0.143   4.819   0.344 -1.1125  0.7200 -0.3237
 4577TIP3   OH213694   0.974   4.591   2.489  0.3868  0.2136  0.1787
 4577TIP3    H113695   0.928   4.542   2.421  1.2456 -1.1678  0.5297
 4577TIP3    H213696   1.048   4.632   2.443  0.2398  0.3367  0.0537
 4578TIP3   OH213697   1.714   4.901   5.136 -0.1128 -0.4364  0.0141
 4578TIP3    H113698   1.810   4.890   5.133 -0.1319 -0.5946 -0.0523
 4578TIP3    H213699   1.681   4.828   5.083 -0.3251 -1.1356  1.0863
 4579TIP3   OH213700   0.364   5.771   0.941 -1.3797 -0.7152 -0.0852
 4579TIP3    H113701   0.288   5.745   0.994 -1.1177 -0.2264  0.5356
 4579TIP3    H213702   0.352   5.723   0.859 -1.9797 -1.2097  0.2738
 4580TIP3   OH213703   5.293   5.556   4.197  0.3661  0.0241 -0.0723
 4580TIP3    H113704   5.345   5.511   4.263 -1.5612  0.5409  1.9384
 4580TIP3    H213705   5.329   5.645   4.193  1.3056 -0.3754 -0.7030
 4581TIP3   OH213706   2.768   0.256   0.892 -0.0754  0.5412  0.4980
 4581TIP3    H113707   2.705   0.192   0.926 -0.2241  1.4149  1.9696
 4581TIP3    H213708   2.731   0.284   0.808 -0.8796 -0.0559  0.6436
 4582TIP3   OH213709   2.790   4.675   4.892  0.3073  0.3110  0.3486
 4582TIP3    H113710   2.861   4.621   4.928 -0.2491 -0.7240 -0.0500
 4582TIP3    H213711   2.716   4.659   4.951 -0.1219 -0.0766 -0.2811
 4583TIP3   OH213712   5.875   4.096   4.124  0.3640  0.3745  0.2612
 4583TIP3    H113713   5.799   4.046   4.154  0.8379 -0.7493 -0.3311
 4583TIP3    H213714   5.846   4.187   4.125 -0.6433  0.0642  1.0502
 4584TIP3   OH213715   6.059   0.692   0.889  0.3345  0.1161  0.2609
 4584TIP3    H113716   6.119   0.730   0.825 -0.7523 -0.9367 -1.4818
 4584TIP3    H213717   5.999   0.764   0.911  0.4261  0.3664 -0.2893
 4585TIP3   OH213718   3.848   1.103   1.041 -0.2577  0.0061  0.3219
 4585TIP3    H113719   3.772   1.121   0.985 -0.0241 -0.2747 -0.0946
 4585TIP3    H213720   3.812   1.050   1.112 -0.7541  1.2514  1.0217
 4586TIP3   OH213721   6.083   1.229   4.597  0.0245 -0.0851  0.0775
 4586TIP3    H113722   6.125   1.156   4.642  0.4479 -0.0749 -0.2920
 4586TIP3    H213723   6.155   1.283   4.566 -0.2571  1.9968  2.7035
 4587TIP3   OH213724   2.488   0.825   5.100  0.2224 -0.0688  0.3999
 4587TIP3    H113725   2.556   0.879   5.141  0.3326  0.6861 -0.7243
 4587TIP3    H213726   2.502   0.836   5.006 -1.6464  0.3509  0.1302
 4588TIP3   OH213727   2.436   5.495   3.920  0.2601  0.3604 -0.2459
 4588TIP3    H113728   2.440   5.423   3.857 -0.7109  1.3241 -1.4704
 4588TIP3    H213729   2.408   5.453   4.001  0.6816 -0.7846 -0.6584
 4589TIP3   OH213730   6.539   5.559   0.833  0.2168  0.4592 -0.2411
 4589TIP3    H113731   6.464   5.614   0.859  0.3391  0.4795  0.0720
 4589TIP3    H213732   6.502   5.496   0.772  0.0712  0.8866 -0.5986
 4590TIP3   OH213733   1.023   3.330   2.070 -1.0630  0.2608 -0.4574
 4590TIP3    H113734   1.061   3.279   2.142 -1.6106  1.1554  0.4864
 4590TIP3    H213735   1.021   3.420   2.103 -1.8560  0.5946 -1.3831
 4591TIP3   OH213736   3.048   2.890   2.183  0.3165 -0.2760  0.4756
 4591TIP3    H113737   3.097   2.818   2.143  0.8949 -0.2313  1.1015
 4591TIP3    H213738   3.080   2.969   2.139  0.7982 -0.2483  0.8755
 4592TIP3   OH213739   1.386   2.000   0.816  0.3853 -0.3149  0.0156
 4592TIP3    H113740   1.439   1.995   0.896  0.4971  1.5161  0.0882
 4592TIP3    H213741   1.446   2.034   0.750 -0.7102  2.0989  0.1688
 4593TIP3   OH213742   6.898   6.275   2.346  0.4338  0.1494 -1.0128
 4593TIP3    H113743   6.840   6.279   2.270 -2.0219  0.2432  0.7721
 4593TIP3    H213744   6.849   6.315   2.417  2.3688 -0.5411  0.8393
 4594TIP3   OH213745   6.337   3.090   1.489 -0.3096 -0.7094 -0.8625
 4594TIP3    H113746   6.396   3.151   1.532 -1.1777 -1.0011  0.8049
 4594TIP3    H213747   6.255   3.140   1.478 -0.2862 -0.8320 -1.6427
 4595TIP3   OH213748   5.591   5.810   4.552 -0.3654 -0.9436  0.5655
 4595TIP3    H113749   5.683   5.838   4.561 -0.5593  0.8689 -1.9553
 4595TIP3    H213750   5.594   5.715   4.554  2.0170 -1.0660 -2.0241
 4596TIP3   OH213751   3.649   5.976   5.328 -0.0651 -0.0598  0.0096
 4596TIP3    H113752   3.665   5.882   5.315 -0.2121 -0.3119  1.4376
 4596TIP3    H213753   3.608   6.005   5.247  0.8277 -1.0231 -0.8152
 4597TIP3   OH213754   3.826   4.040   3.335 -0.2019  0.0309  0.7883
 4597TIP3    H113755   3.877   4.077   3.407 -2.2696 -0.3652  2.6014
 4597TIP3    H213756   3.891   4.005   3.275  1.6711  1.5371  1.7970
 4598TIP3   OH213757   4.695   2.180   4.230  0.8791  0.1900  0.0974
 4598TIP3    H113758   4.735   2.177   4.317  0.8950 -1.5272  0.0592
 4598TIP3    H213759   4.728   2.102   4.186  0.0688  0.5040 -1.1005
 4599TIP3   OH213760   1.326   0.552   4.285  0.0472  0.1979  0.6760
 4599TIP3    H113761   1.358   0.642   4.289  0.7348  0.0286 -0.4546
 4599TIP3    H213762   1.267   0.543   4.360 -0.9965  1.9628  0.1200
 4600TIP3   OH213763   0.518   5.830   1.314  0.3898 -0.1853 -0.0675
 4600TIP3    H113764   0.445   5.786   1.268 -0.5088  0.4582  0.7084
 4600TIP3    H213765   0.478   5.866   1.393  1.4764  0.5450  0.1655
 4601TIP3   OH213766   1.668   4.780   4.517  0.1171  0.2746  0.1717
 4601TIP3    H113767   1.693   4.691   4.491 -0.5606  0.1781 -0.1766
 4601TIP3    H213768   1.724   4.800   4.592 -0.5235 -0.9017  0.9906
 4602TIP3   OH213769   5.476   6.031   5.790  0.4462 -0.0705 -0.6189
 4602TIP3    H113770   5.420   5.961   5.824 -0.0891  1.0463  0.9434
 4602TIP3    H213771   5.458   6.033   5.696 -1.0106 -0.7383 -0.3861
 4603TIP3   OH213772   4.939   6.563   1.152  0.6480 -0.4810 -0.5171
 4603TIP3    H113773   4.955   6.507   1.228 -1.2904 -0.5957 -0.1423
 4603TIP3    H213774   5.020   6.559   1.101  1.1142 -2.3510  0.3128
 4604TIP3   OH213775   2.245   5.534   4.746 -0.4417  0.2789 -0.0901
 4604TIP3    H113776   2.173   5.478   4.777 -0.2998 -0.1962 -0.6143
 4604TIP3    H213777   2.256   5.598   4.816 -0.5436 -0.4046  0.5743
 4605TIP3   OH213778   1.718   4.038   2.037 -0.5213  0.2292 -0.5585
 4605TIP3    H113779   1.661   4.031   2.114  1.6631  1.0172  1.2559
 4605TIP3    H213780   1.806   4.024   2.071  0.5432  0.5233 -2.9733
 4606TIP3   OH213781   1.745   2.520   4.683 -0.5456  0.4336  0.1585
 4606TIP3    H113782   1.765   2.484   4.770 -1.5865  0.1640  0.3017
 4606TIP3    H213783   1.818   2.491   4.628  0.7430  1.5772  1.1741
 4607TIP3   OH213784   1.546   4.612   0.288 -0.0990  0.2222 -0.1416
 4607TIP3    H113785   1.617   4.548   0.284  1.2689  1.6458  0.5254
 4607TIP3    H213786   1.525   4.618   0.381 -1.0426 -0.1154 -0.3257
 4608TIP3   OH213787   6.189   0.005   3.288  1.0259 -0.2859 -0.4103
 4608TIP3    H113788   6.138   0.079   3.323 -1.5499 -1.4313 -1.4814
 4608TIP3    H213789   6.123  -0.052   3.249  3.3570 -0.5018 -4.5412
 4609TIP3   OH213790   2.627   0.509   0.052  0.3292  0.0512  0.0540
 4609TIP3    H113791   2.711   0.552   0.037 -0.4855  2.2842  1.2950
 4609TIP3    H213792   2.649   0.422   0.085  2.1846  0.9837  1.4368
 4610TIP3   OH213793   1.419   1.472   3.124  0.2536  0.0274  0.7186
 4610TIP3    H113794   1.345   1.513   3.079 -1.4688 -1.5869  1.9374
 4610TIP3    H213795   1.388   1.384   3.146  3.0488 -1.2317  0.0536
 4611TIP3   OH213796   0.252   4.171   3.544  0.1401  0.8266  0.5301
 4611TIP3    H113797   0.175   4.228   3.542 -0.3188  0.2149 -0.0108
 4611TIP3    H213798   0.215   4.082   3.542  0.8573  0.5264  0.4642
 4612TIP3   OH213799   5.964   4.519   1.423 -0.2204  0.0352  0.1208
 4612TIP3    H113800   5.882   4.542   1.380 -0.4086  0.8315  0.8720
 4612TIP3    H213801   6.031   4.532   1.355 -0.7047 -0.5666 -0.4753
 4613TIP3   OH213802   3.029   2.380   0.136 -0.1124 -0.2551  0.0795
 4613TIP3    H113803   3.081   2.458   0.152 -1.7672  0.9323 -0.0902
 4613TIP3    H213804   3.058   2.348   0.051 -0.7203  1.2950 -0.7459
 4614TIP3   OH213805   5.401   0.837   4.988  0.2933  0.1579 -0.2412
 4614TIP3    H113806   5.408   0.877   5.075 -2.1681  0.2714 -0.0272
 4614TIP3    H213807   5.452   0.894   4.932 -1.1468  2.3104  0.5025
 4615TIP3   OH213808   1.762   4.821   0.163  0.1415 -0.9358  0.2199
 4615TIP3    H113809   1.808   4.759   0.106 -0.0896  0.5165 -1.6648
 4615TIP3    H213810   1.674   4.785   0.171  0.5219 -1.7829  0.6750
 4616TIP3   OH213811   3.773   6.767   1.452  0.0747 -0.2048  0.2482
 4616TIP3    H113812   3.762   6.754   1.546 -1.3246 -1.4589 -0.0433
 4616TIP3    H213813   3.805   6.682   1.420  0.7078  0.2655 -0.3988
 4617TIP3   OH213814   5.938   2.357   5.038  0.0312  0.6503 -0.3862
 4617TIP3    H113815   5.844   2.341   5.044  0.0537  0.1567 -1.1975
 4617TIP3    H213816   5.948   2.451   5.052 -0.5935  0.7244 -0.4434
 4618TIP3   OH213817   6.923   0.313   5.759  0.0044  0.6683  0.0544
 4618TIP3    H113818   6.837   0.353   5.746  0.3615  1.2216 -0.6376
 4618TIP3    H213819   6.912   0.261   5.839 -2.1701 -2.5720 -2.0975
 4619TIP3   OH213820   6.402   5.385   5.757  0.1231 -0.2041  0.7094
 4619TIP3    H113821   6.386   5.454   5.822  1.0121  0.5725  0.1332
 4619TIP3    H213822   6.414   5.432   5.674 -0.8383 -1.1665 -0.0062
 4620TIP3   OH213823   5.611   5.020   5.726 -0.4622 -1.1757 -0.1883
 4620TIP3    H113824   5.581   5.005   5.816 -0.7823  2.3983  0.4464
 4620TIP3    H213825   5.541   4.985   5.671 -2.8252  1.0803  1.1416
 4621TIP3   OH213826   2.971   3.185   5.646  0.1696 -0.0972  1.0616
 4621TIP3    H113827   2.879   3.161   5.651  0.0581  0.4820  2.2727
 4621TIP3    H213828   3.004   3.138   5.570 -1.3544  0.4718 -0.0131
 4622TIP3   OH213829   3.413   6.132   4.630  0.1525 -0.0183  0.2965
 4622TIP3    H113830   3.357   6.074   4.578  1.7927 -1.5122  0.0791
 4622TIP3    H213831   3.392   6.220   4.600 -3.1279 -0.3377  1.2880
 4623TIP3   OH213832   1.497   4.689   2.286 -0.1263  0.1800  0.0104
 4623TIP3    H113833   1.479   4.690   2.192  1.4751  0.0319 -0.3275
 4623TIP3    H213834   1.438   4.623   2.321 -2.7277  2.1239 -0.4219
 4624TIP3   OH213835   7.079   5.907   3.438  0.1786 -0.2812 -0.0300
 4624TIP3    H113836   7.144   5.914   3.509  0.0062  0.1833  0.0847
 4624TIP3    H213837   7.010   5.852   3.474  0.8420 -1.3897 -0.4075
 4625TIP3   OH213838   5.033   2.534   1.718  0.1469  0.4308 -0.0320
 4625TIP3    H113839   5.019   2.469   1.649  0.6759 -1.2097  1.3312
 4625TIP3    H213840   4.966   2.600   1.702 -0.5132 -0.5074 -1.4069
 4626TIP3   OH213841   6.631   2.157   2.790  0.1587  0.0267 -0.0350
 4626TIP3    H113842   6.628   2.247   2.756 -0.0572  0.0695  0.0979
 4626TIP3    H213843   6.582   2.161   2.872  1.3526  0.0977  0.6926
 4627TIP3   OH213844   4.057   5.338   3.771 -0.0223 -0.1458 -0.4329
 4627TIP3    H113845   4.072   5.296   3.856 -0.0906 -2.8339 -1.6165
 4627TIP3    H213846   4.134   5.315   3.719  0.5250  2.3605 -0.8494
 4628TIP3   OH213847   6.847   2.528   4.486 -0.4007  0.2511  0.0774
 4628TIP3    H113848   6.893   2.610   4.506 -0.0861  0.4465 -1.3280
 4628TIP3    H213849   6.916   2.469   4.455 -0.9010  0.0928 -0.7537
 4629TIP3   OH213850   6.262   4.790   2.432  0.8817 -0.0390 -0.1964
 4629TIP3    H113851   6.246   4.696   2.419  1.5911 -0.1093 -0.6512
 4629TIP3    H213852   6.182   4.823   2.472  0.7312 -0.8957  0.2380
 4630TIP3   OH213853   0.609   5.752   2.206 -0.4842  0.1967  0.4945
 4630TIP3    H113854   0.643   5.837   2.237 -0.2717  1.1919 -2.2237
 4630TIP3    H213855   0.577   5.770   2.118  1.5791 -2.9859 -1.0914
 4631TIP3   OH213856   0.868   5.624   2.230 -0.1396 -0.5058  0.5544
 4631TIP3    H113857   0.924   5.698   2.206 -1.6038 -0.4526 -3.6966
 4631TIP3    H213858   0.779   5.657   2.219 -0.8378 -2.7044 -1.1604
 4632TIP3   OH213859   2.000   5.333   3.784 -0.7463 -0.3242  0.0958
 4632TIP3    H113860   2.021   5.332   3.691  1.8331 -0.1867  0.6017
 4632TIP3    H213861   2.053   5.263   3.821 -1.5154 -0.1913  1.5023
 4633TIP3   OH213862   4.581   0.176   2.544  0.4060  0.3813  0.1695
 4633TIP3    H113863   4.663   0.227   2.539  0.8079 -0.2698  0.0310
 4633TIP3    H213864   4.603   0.092   2.505 -0.0272 -0.1815  1.1083
 4634TIP3   OH213865   5.295   2.052   5.406 -0.0458 -0.4709  0.2605
 4634TIP3    H113866   5.216   1.999   5.402 -0.3988  0.0274  0.5898
 4634TIP3    H213867   5.357   2.000   5.458 -0.9459  0.1437  2.0137
 4635TIP3   OH213868   6.452   5.561   4.294  0.3948  0.1954 -0.5171
 4635TIP3    H113869   6.536   5.523   4.319 -0.5211  0.3415  3.5296
 4635TIP3    H213870   6.465   5.656   4.300 -0.3789  0.2304  2.1295
 4636TIP3   OH213871   2.272   5.347   0.459 -0.0849  0.1171 -0.7814
 4636TIP3    H113872   2.184   5.324   0.430 -0.5435  2.2896 -1.3321
 4636TIP3    H213873   2.272   5.443   0.460  1.2002  0.2207  2.4582
 4637TIP3   OH213874   5.580   4.671   5.712 -0.0569 -0.8660  0.0018
 4637TIP3    H113875   5.516   4.634   5.651 -1.1079 -1.0886  1.1951
 4637TIP3    H213876   5.528   4.696   5.788  1.4363 -2.0747  1.4683
 4638TIP3   OH213877   3.537   0.360   0.575 -0.2945 -0.1192 -1.0384
 4638TIP3    H113878   3.523   0.426   0.643 -0.6211  0.4592 -1.6636
 4638TIP3    H213879   3.501   0.279   0.613  0.5267 -0.0665 -0.0844
 4639TIP3   OH213880   2.293   0.779   2.361 -0.3923 -0.1656  0.2817
 4639TIP3    H113881   2.367   0.839   2.369 -0.2188 -0.2413 -0.6498
 4639TIP3    H213882   2.311   0.729   2.281 -0.4076 -1.6415  1.1760
 4640TIP3   OH213883   2.561   3.965   3.901  0.8670  0.7095  0.1624
 4640TIP3    H113884   2.498   3.928   3.840  0.0236  1.5231  0.5278
 4640TIP3    H213885   2.623   3.893   3.918 -1.7916 -1.2739  2.3925
 4641TIP3   OH213886   7.160   0.958   3.794  0.3732  0.1497 -0.3801
 4641TIP3    H113887   7.108   0.972   3.873 -0.3612 -0.7509 -0.6946
 4641TIP3    H213888   7.128   0.876   3.758  0.6132  0.6058 -1.6861
 4642TIP3   OH213889   4.673   0.853   3.797  0.5389  0.7025 -0.2273
 4642TIP3    H113890   4.607   0.890   3.739  1.6389  0.8236 -1.4560
 4642TIP3    H213891   4.714   0.784   3.745 -0.0642 -0.8443  1.2894
 4643TIP3   OH213892   5.720   4.693   1.531 -0.3311 -0.2141  0.2108
 4643TIP3    H113893   5.677   4.778   1.525 -1.6037 -0.9095 -1.1299
 4643TIP3    H213894   5.811   4.711   1.507 -0.1908  1.0133  1.5367
 4644TIP3   OH213895   4.798   3.450   1.333 -0.8710 -0.0392  0.2223
 4644TIP3    H113896   4.875   3.486   1.289  0.5759 -3.1585 -0.0680
 4644TIP3    H213897   4.823   3.445   1.425 -1.1957  0.0580  0.3181
 4645TIP3   OH213898   4.740   2.949   2.719  0.0258 -0.8572  0.0440
 4645TIP3    H113899   4.675   3.006   2.760  1.1967  0.1744  0.5151
 4645TIP3    H213900   4.735   2.868   2.770 -0.8773 -0.8035  0.0682
 4646TIP3   OH213901   1.411   3.503   0.597  0.0474  0.1373  0.5835
 4646TIP3    H113902   1.397   3.463   0.683 -1.2305 -3.1365 -0.9795
 4646TIP3    H213903   1.485   3.455   0.560  1.8246  2.7786  0.4744
 4647TIP3   OH213904   3.955   1.810   3.892  0.3796 -0.4477  0.3778
 4647TIP3    H113905   3.884   1.753   3.862 -0.1492  0.6093 -0.4384
 4647TIP3    H213906   3.911   1.879   3.942  0.8518  0.0459  0.1244
 4648TIP3   OH213907   6.687   4.604   2.379 -0.5988  0.5527 -0.8021
 4648TIP3    H113908   6.601   4.604   2.422 -0.3602  1.8895 -0.2779
 4648TIP3    H213909   6.726   4.521   2.404 -1.8119 -0.1679 -1.2147
 4649TIP3   OH213910   5.824  -0.013   4.947  0.2225 -0.2070  0.0449
 4649TIP3    H113911   5.731   0.007   4.937 -0.3178 -0.5222  3.3214
 4649TIP3    H213912   5.868   0.066   4.917 -1.1825  0.5788 -0.0709
 4650TIP3   OH213913   0.429   2.265   0.428 -0.1024 -0.5020  0.4615
 4650TIP3    H113914   0.432   2.325   0.353  2.3372 -1.6942 -0.4818
 4650TIP3    H213915   0.445   2.179   0.391  1.4567 -1.0931  2.3616
 4651TIP3   OH213916   6.465   0.344   1.784 -0.1673 -0.2319  0.2200
 4651TIP3    H113917   6.538   0.386   1.740 -0.2366  0.3516  0.6496
 4651TIP3    H213918   6.505   0.287   1.850 -0.0865  1.9015  2.1291
 4652TIP3   OH213919   1.285   0.368   1.113 -0.5247  0.3979  0.6007
 4652TIP3    H113920   1.241   0.442   1.072 -0.5093  0.4219  0.6268
 4652TIP3    H213921   1.215   0.314   1.150 -0.6260 -0.3243 -0.6029
 4653TIP3   OH213922   5.788   1.797   1.468 -0.4259  0.0173  0.4450
 4653TIP3    H113923   5.769   1.707   1.442 -0.4391 -0.2735  1.4492
 4653TIP3    H213924   5.715   1.823   1.523 -0.4748  0.6870  0.0835
 4654TIP3   OH213925   3.221   0.351   5.636 -0.4856  0.6781  0.0564
 4654TIP3    H113926   3.126   0.360   5.643 -0.5843  1.2206 -1.5970
 4654TIP3    H213927   3.243   0.393   5.553  1.3452  1.5399  0.9188
 4655TIP3   OH213928   4.813   3.479   3.224  0.1442 -0.2821 -0.0966
 4655TIP3    H113929   4.775   3.423   3.157  0.9923 -1.4096  0.3256
 4655TIP3    H213930   4.819   3.424   3.302  0.1456  0.6817  0.6084
 4656TIP3   OH213931   0.613   4.850   0.891  0.1129  0.2165 -0.1747
 4656TIP3    H113932   0.661   4.793   0.831  1.6800  1.3192 -0.0636
 4656TIP3    H213933   0.682   4.904   0.931 -1.3209  2.5741 -0.7255
 4657TIP3   OH213934   1.288   5.789   0.108  0.0739 -0.2598  0.0076
 4657TIP3    H113935   1.261   5.832   0.028  3.9731  1.9229 -0.3706
 4657TIP3    H213936   1.291   5.696   0.086 -2.3311 -0.1175 -1.1772
 4658TIP3   OH213937   2.521   6.349   1.707 -0.1257 -0.1668  0.1332
 4658TIP3    H113938   2.493   6.350   1.799  0.0078 -0.5661  0.1793
 4658TIP3    H213939   2.616   6.341   1.711 -0.0359  0.6816 -0.0326
 4659TIP3   OH213940   6.369   5.731   5.628  0.0679 -0.5437 -0.0481
 4659TIP3    H113941   6.375   5.825   5.645 -1.3179 -0.2619 -0.9958
 4659TIP3    H213942   6.371   5.691   5.715  1.1749  0.3185  0.3372
 4660TIP3   OH213943   6.485   2.568   3.669  0.1604 -0.5151  0.0933
 4660TIP3    H113944   6.396   2.577   3.635  0.2802 -1.3039 -0.4579
 4660TIP3    H213945   6.518   2.657   3.674 -0.7409 -0.1964  0.5158
 4661TIP3   OH213946   6.764   6.016   0.865  0.1094 -0.1250 -0.9887
 4661TIP3    H113947   6.826   5.960   0.819 -0.7173 -0.6866 -1.4411
 4661TIP3    H213948   6.745   6.086   0.803 -1.0748 -0.9308 -1.5730
 4662TIP3   OH213949   5.930   4.888   1.440  0.3796  0.6529 -0.4259
 4662TIP3    H113950   5.952   4.976   1.409  0.4828  0.7486 -0.0852
 4662TIP3    H213951   5.955   4.888   1.532 -0.4273  0.5440 -0.2043
 4663TIP3   OH213952   0.233   2.535   0.090 -0.4291  0.0059 -0.6276
 4663TIP3    H113953   0.172   2.550   0.018 -0.0084 -2.1861 -1.5314
 4663TIP3    H213954   0.183   2.553   0.169 -1.1131  1.7821 -1.4149
 4664TIP3   OH213955   0.520   6.457   1.389 -0.0870 -0.0945 -0.1723
 4664TIP3    H113956   0.564   6.457   1.304 -1.0495  3.3146 -0.8386
 4664TIP3    H213957   0.590   6.479   1.451  0.3399 -1.1714 -0.2509
 4665TIP3   OH213958   6.002   0.285   4.475  0.4906  1.2960  0.2843
 4665TIP3    H113959   5.946   0.362   4.463 -0.6684  0.5979  0.9880
 4665TIP3    H213960   6.074   0.316   4.529  0.0145  1.8939  0.5941
 4666TIP3   OH213961   2.470   6.569   2.464 -0.3165  0.1636 -0.4933
 4666TIP3    H113962   2.444   6.479   2.445 -1.0956  0.4453 -0.8054
 4666TIP3    H213963   2.456   6.578   2.558  2.0218 -0.7458 -0.0002
 4667TIP3   OH213964   2.206   6.576   5.483 -0.6158 -0.4397 -0.1476
 4667TIP3    H113965   2.142   6.558   5.552 -0.1351  0.5841  0.5923
 4667TIP3    H213966   2.264   6.642   5.521  1.6371 -2.1900 -0.3625
 4668TIP3   OH213967   5.863   3.066   5.839  0.1754 -0.5570 -0.2206
 4668TIP3    H113968   5.904   3.152   5.848 -1.7051  0.4357 -0.5227
 4668TIP3    H213969   5.927   3.014   5.790  0.9383  0.9916 -0.9615
 4669TIP3   OH213970   4.020   0.429   3.441 -0.1608  0.4709  0.7164
 4669TIP3    H113971   4.062   0.354   3.398  0.9710  1.1691  0.5602
 4669TIP3    H213972   4.042   0.418   3.534  0.1125  0.6696  0.6765
 4670TIP3   OH213973   0.068   2.608   4.091  0.1426  0.5220  0.0298
 4670TIP3    H113974   0.029   2.695   4.082  0.2676  0.7204  1.2808
 4670TIP3    H213975   0.161   2.625   4.109  0.0458  0.1634  0.9214
 4671TIP3   OH213976   1.216   6.416   5.140 -0.5883 -0.4740  0.0509
 4671TIP3    H113977   1.285   6.355   5.114 -1.3467 -1.1273 -0.4682
 4671TIP3    H213978   1.255   6.467   5.212 -0.4300 -2.6176  1.5794
 4672TIP3   OH213979   5.437   1.076   3.958 -0.7983 -0.0644  0.5861
 4672TIP3    H113980   5.432   0.994   3.909 -1.9879 -0.3915  1.2032
 4672TIP3    H213981   5.353   1.081   4.004 -0.8200  1.6011  0.4040
 4673TIP3   OH213982   0.947   3.079   1.562 -0.2086 -0.1770 -0.2660
 4673TIP3    H113983   0.945   3.016   1.490 -0.7316 -0.1054 -0.3184
 4673TIP3    H213984   0.978   3.160   1.521 -0.9540 -0.0121 -0.5162
 4674TIP3   OH213985   0.801   6.757   2.969 -1.0325  0.3855  0.2750
 4674TIP3    H113986   0.875   6.786   2.917 -0.1797 -1.6199  0.2925
 4674TIP3    H213987   0.836   6.687   3.024 -3.0325 -0.9891 -0.1002
 4675TIP3   OH213988   5.622   5.343   2.016 -0.3878  0.0345 -0.5121
 4675TIP3    H113989   5.662   5.396   2.084  0.0200 -0.5713 -0.2676
 4675TIP3    H213990   5.593   5.406   1.950  1.1767  0.4803 -0.8061
 4676TIP3   OH213991   4.358   0.668   5.025  0.5052 -0.4727  0.5969
 4676TIP3    H113992   4.435   0.719   5.048  1.8256 -1.9773 -0.2536
 4676TIP3    H213993   4.336   0.621   5.106  0.7993 -0.4262  0.7048
 4677TIP3   OH213994   2.404   4.570   1.390  0.0279  0.1322  0.2490
 4677TIP3    H113995   2.495   4.595   1.374  0.0800 -0.5719 -0.6040
 4677TIP3    H213996   2.367   4.645   1.437  1.3624 -0.0793  1.7185
 4678TIP3   OH213997   1.621   6.527   1.664  0.1048  0.4578 -0.0896
 4678TIP3    H113998   1.536   6.545   1.704 -0.9299 -1.3499 -1.3333
 4678TIP3    H213999   1.612   6.559   1.574  0.4576 -0.3709 -0.4318
 4679TIP3   OH214000   1.013   6.563   2.731 -0.3564  0.2278  0.5148
 4679TIP3    H114001   1.007   6.519   2.646  1.6200  1.4286 -0.2983
 4679TIP3    H214002   1.057   6.499   2.787  0.9595  0.4809 -0.1924
 4680TIP3   OH214003   3.133   2.236   1.709  0.4180 -0.3913 -0.0559
 4680TIP3    H114004   3.130   2.173   1.637  0.4436  0.6402 -0.9908
 4680TIP3    H214005   3.224   2.268   1.708  0.0783  0.6120 -0.4710
 4681TIP3   OH214006   6.442   1.365   2.805 -0.0932  0.2183 -1.1220
 4681TIP3    H114007   6.502   1.291   2.805  0.7851  0.9093 -0.1285
 4681TIP3    H214008   6.489   1.435   2.761 -0.3354  0.6352 -0.7252
 4682TIP3   OH214009   4.883   0.766   5.541 -0.1580 -0.5628 -0.0589
 4682TIP3    H114010   4.841   0.852   5.550 -0.1443 -0.7766  3.6086
 4682TIP3    H214011   4.969   0.777   5.582 -0.6850 -2.5790  1.7597
 4683TIP3   OH214012   4.762   1.249   0.648  0.0380 -0.4634 -0.2856
 4683TIP3    H114013   4.700   1.245   0.575  0.4270 -0.2990 -0.6258
 4683TIP3    H214014   4.738   1.175   0.704 -1.3292  0.3683  0.2832
 4684TIP3   OH214015   0.729   3.346   0.905 -0.3994  0.1952 -0.7153
 4684TIP3    H114016   0.705   3.359   0.997 -1.1810  0.6283 -0.9747
 4684TIP3    H214017   0.814   3.388   0.896 -0.6599  0.8052 -0.3624
 4685TIP3   OH214018   4.706   3.402   0.133  0.5602  0.2384  0.4121
 4685TIP3    H114019   4.794   3.398   0.171  1.2587 -2.0163 -1.2334
 4685TIP3    H214020   4.655   3.339   0.184  0.3612  0.2986  0.2871
 4686TIP3   OH214021   1.632   4.950   2.047  0.5731  0.5909  0.3167
 4686TIP3    H114022   1.559   4.981   1.993 -0.6686 -0.5383  1.2799
 4686TIP3    H214023   1.703   4.936   1.985  0.5987  3.4056 -0.4306
 4687TIP3   OH214024   2.579   2.777   4.649  0.1893 -0.1986 -0.8182
 4687TIP3    H114025   2.550   2.741   4.565  0.0048  0.2982 -0.9748
 4687TIP3    H214026   2.573   2.872   4.637 -2.0926 -0.0984  0.5238
 4688TIP3   OH214027   0.576   3.995   4.989 -0.1250  0.1999 -0.1694
 4688TIP3    H114028   0.619   3.984   5.073 -0.8032  1.0410  0.3033
 4688TIP3    H214029   0.572   3.907   4.952  1.2532 -0.0110  0.1282
 4689TIP3   OH214030   5.747   6.224   1.514 -0.0878  0.4257 -0.5603
 4689TIP3    H114031   5.726   6.312   1.544  1.9019  0.3476  1.3057
 4689TIP3    H214032   5.841   6.216   1.528 -0.4261 -2.4660  0.6915
 4690TIP3   OH214033   2.923   0.834   4.226 -0.1214 -0.1412 -0.2807
 4690TIP3    H114034   2.936   0.745   4.258 -1.7233  0.1748  1.4031
 4690TIP3    H214035   2.851   0.868   4.278 -1.1501  1.3566 -2.5302
 4691TIP3   OH214036   7.065   2.131   2.384 -0.0551  0.2365 -0.3889
 4691TIP3    H114037   7.052   2.214   2.429 -2.4842  0.2415 -1.0038
 4691TIP3    H214038   7.046   2.150   2.292 -1.0194 -1.0531 -0.4857
 4692TIP3   OH214039   3.356   2.150   0.747 -0.4721 -0.2665 -0.1721
 4692TIP3    H114040   3.343   2.087   0.675  2.7090 -2.6527  1.0461
 4692TIP3    H214041   3.450   2.170   0.743 -0.6676  1.3507  1.9049
 4693TIP3   OH214042   6.067   6.132   0.433  0.2051  0.3583  0.3246
 4693TIP3    H114043   5.994   6.100   0.486 -0.3671 -0.8530 -1.1217
 4693TIP3    H214044   6.086   6.219   0.469 -0.0090 -0.4780  2.6001
 4694TIP3   OH214045   2.731   6.447   4.071 -0.1196  0.3928 -0.0559
 4694TIP3    H114046   2.716   6.378   4.135  1.1533 -0.4459 -0.6184
 4694TIP3    H214047   2.733   6.402   3.987  0.6615  1.1098 -0.4380
 4695TIP3   OH214048   0.349   0.604   4.249  0.6465 -0.0572  0.4204
 4695TIP3    H114049   0.282   0.601   4.180  1.2286 -0.5732 -0.1321
 4695TIP3    H214050   0.355   0.696   4.274  1.3635  0.3415 -1.1447
 4696TIP3   OH214051   5.459   4.449   1.736 -0.1130 -0.3701  0.4088
 4696TIP3    H114052   5.381   4.401   1.762 -0.6282  0.1406 -0.1603
 4696TIP3    H214053   5.529   4.413   1.791 -0.8703 -0.3712  1.3943
 4697TIP3   OH214054   3.979   2.527   5.479 -0.3602 -0.3566  0.1147
 4697TIP3    H114055   4.041   2.496   5.413 -0.2801  1.2000 -0.5822
 4697TIP3    H214056   4.033   2.570   5.545 -0.6837  1.9374 -1.0104
 4698TIP3   OH214057   0.471   2.416   5.169 -0.2364 -0.4275 -0.9087
 4698TIP3    H114058   0.435   2.403   5.082  0.2316 -0.2739 -1.1297
 4698TIP3    H214059   0.497   2.329   5.198 -1.4392 -0.6414 -0.4531
 4699TIP3   OH214060   4.219   3.278   2.897  0.5704  0.3438 -0.0165
 4699TIP3    H114061   4.148   3.332   2.929 -0.5818 -1.5094  0.7065
 4699TIP3    H214062   4.257   3.328   2.824 -1.7256  1.2114 -0.6919
 4700TIP3   OH214063   2.014   0.390   3.064 -0.0182  0.4074 -0.1694
 4700TIP3    H114064   1.949   0.455   3.036 -0.2754  0.5721  0.7894
 4700TIP3    H214065   1.978   0.306   3.033 -0.2975  0.5847 -0.3358
 4701TIP3   OH214066   1.447   0.593   2.615  0.3778 -0.5038  0.3734
 4701TIP3    H114067   1.539   0.609   2.636 -0.1602  1.9867  1.1671
 4701TIP3    H214068   1.407   0.679   2.617 -2.5265 -1.7378  2.6857
 4702TIP3   OH214069   3.368   1.187   3.916  0.1131 -0.8387 -0.0298
 4702TIP3    H114070   3.365   1.221   4.006 -1.7195  1.8212 -0.9680
 4702TIP3    H214071   3.459   1.162   3.903  0.4885 -1.0589  2.4770
 4703TIP3   OH214072   6.334   6.090   4.572 -0.0433  0.2251 -0.1008
 4703TIP3    H114073   6.304   6.177   4.548 -0.6308 -0.3003 -1.3820
 4703TIP3    H214074   6.422   6.084   4.534 -0.6758 -0.3302 -1.5686
 4704TIP3   OH214075   6.691   4.250   3.731  0.9883  0.0753 -0.5406
 4704TIP3    H114076   6.733   4.261   3.645  2.2738 -1.1488 -0.1174
 4704TIP3    H214077   6.756   4.202   3.783 -0.0480  0.1701  0.8994
 4705TIP3   OH214078   4.041   3.709   0.811 -0.9155 -0.1403  0.2745
 4705TIP3    H114079   4.080   3.681   0.728  1.5075 -0.8343  1.5562
 4705TIP3    H214080   4.004   3.629   0.848 -0.4217 -0.1869  0.6662
 4706TIP3   OH214081   6.977   6.698   5.426 -0.3554  0.6382  0.2583
 4706TIP3    H114082   7.067   6.674   5.406 -0.6291 -0.1221 -0.1348
 4706TIP3    H214083   6.963   6.781   5.380 -1.0220 -1.1297 -3.0966
 4707TIP3   OH214084   2.960   5.457   5.710  0.0936 -0.2756 -0.4056
 4707TIP3    H114085   2.938   5.467   5.617 -0.6201 -1.6272 -0.3984
 4707TIP3    H214086   2.890   5.403   5.746  0.8840 -0.5876  0.7152
 4708TIP3   OH214087   0.221   4.346   1.502  0.3918  0.2440 -0.0302
 4708TIP3    H114088   0.184   4.431   1.524 -0.0035  0.4248 -1.2932
 4708TIP3    H214089   0.305   4.366   1.459  0.5475 -0.0268  0.1446
 4709TIP3   OH214090   0.541   5.372   1.247  0.6231  0.3344 -0.0624
 4709TIP3    H114091   0.560   5.312   1.175  0.7401  0.2346  0.0503
 4709TIP3    H214092   0.450   5.352   1.271  1.0241 -0.6373  0.7528
 4710TIP3   OH214093   6.981   6.638   3.730  0.5176 -0.0939  0.3092
 4710TIP3    H114094   6.998   6.548   3.702  0.2183 -0.4596  1.2446
 4710TIP3    H214095   6.887   6.641   3.745  0.8568 -0.5442  3.1834
 4711TIP3   OH214096   2.066   5.956   3.077 -0.2653  0.0785  0.1602
 4711TIP3    H114097   2.016   5.976   3.157 -0.8072 -1.0471  0.1213
 4711TIP3    H214098   2.089   6.042   3.041 -0.2750  0.6086  1.3601
 4712TIP3   OH214099   1.279   2.438   0.659  0.2349  0.4666 -0.1067
 4712TIP3    H114100   1.236   2.384   0.726 -1.9071 -0.7189 -2.3063
 4712TIP3    H214101   1.331   2.501   0.710 -1.5540 -0.1116  2.6888
 4713TIP3   OH214102   3.972   1.687   3.468 -0.4964  0.4368  0.4852
 4713TIP3    H114103   3.967   1.648   3.381  1.5831 -0.9629  0.9006
 4713TIP3    H214104   4.050   1.742   3.464  0.5424 -0.8547  1.8412
 4714TIP3   OH214105   7.028   4.056   2.616 -0.3740  0.0531  0.1953
 4714TIP3    H114106   7.102   4.051   2.556 -1.0069 -0.3260 -0.5843
 4714TIP3    H214107   7.060   4.106   2.691  0.7024 -0.2334 -0.0587
 4715TIP3   OH214108   3.397   1.924   4.434 -0.2921  0.2811 -0.3104
 4715TIP3    H114109   3.422   1.832   4.446 -0.2007  0.3138 -0.2526
 4715TIP3    H214110   3.310   1.930   4.473 -0.0770  0.3416  0.1694
 4716TIP3   OH214111   2.409   5.311   3.714 -0.1865  0.3203  0.6849
 4716TIP3    H114112   2.345   5.352   3.656  0.9653  1.8714  0.4309
 4716TIP3    H214113   2.431   5.228   3.671  0.7780  1.5080 -1.2733
 4717TIP3   OH214114   3.788   2.140   2.119 -0.0981  0.9244  0.2972
 4717TIP3    H114115   3.838   2.169   2.196 -0.2855  0.6311  0.5330
 4717TIP3    H214116   3.851   2.093   2.065  0.1227  1.4570  0.0877
 4718TIP3   OH214117   5.532   0.277   0.694  0.0134 -0.5388  0.8510
 4718TIP3    H114118   5.438   0.265   0.706 -0.7000  3.2232  0.1882
 4718TIP3    H214119   5.553   0.223   0.617 -1.7836 -0.7465  0.4555
 4719TIP3   OH214120   3.477   2.619   1.187 -0.9330  0.0152 -0.2401
 4719TIP3    H114121   3.397   2.671   1.182 -1.6778 -1.1723 -2.2499
 4719TIP3    H214122   3.492   2.589   1.097  0.8603 -1.1418  0.3754
 4720TIP3   OH214123   4.700   0.642   4.839  0.0176 -0.0102  0.8417
 4720TIP3    H114124   4.738   0.566   4.884  0.3765 -0.3647 -0.0461
 4720TIP3    H214125   4.774   0.686   4.798 -0.5580 -1.3596 -1.8990
 4721TIP3   OH214126   1.178   5.346   2.747 -0.1879 -0.5378  0.4152
 4721TIP3    H114127   1.229   5.361   2.827 -0.2768  0.1066  0.3543
 4721TIP3    H214128   1.143   5.432   2.724  3.6489  0.4598 -2.9273
 4722TIP3   OH214129   2.742   3.366   3.726 -0.1727  0.2906 -0.3021
 4722TIP3    H114130   2.802   3.432   3.761  0.3530  0.6482 -1.8235
 4722TIP3    H214131   2.752   3.291   3.785 -0.8655  1.5647  1.5344
 4723TIP3   OH214132   1.694   0.281   2.869  0.4241  0.1332 -0.6050
 4723TIP3    H114133   1.754   0.299   2.941  2.6699 -0.4717 -2.2280
 4723TIP3    H214134   1.724   0.197   2.833 -2.6756 -1.2447 -0.2607
 4724TIP3   OH214135   5.866   2.874   2.153  0.1696  0.4546 -0.7721
 4724TIP3    H114136   5.860   2.838   2.242 -0.8451 -1.2556 -1.4823
 4724TIP3    H214137   5.854   2.798   2.096 -1.3594  1.8383 -2.3825
 4725TIP3   OH214138   6.057   5.677   1.616  0.0971 -0.0161 -0.5261
 4725TIP3    H114139   6.036   5.763   1.577  0.2454 -0.4951 -1.7122
 4725TIP3    H214140   6.073   5.620   1.540  1.0132 -0.8450  0.2705
 4726TIP3   OH214141   1.604   5.128   0.194 -0.3797 -0.0577  0.1498
 4726TIP3    H114142   1.525   5.081   0.169  0.6387 -1.5139 -0.4847
 4726TIP3    H214143   1.663   5.060   0.226  0.2059  1.1306  1.7687
 4727TIP3   OH214144   7.217   1.854   1.141  0.4353  0.1683  0.6291
 4727TIP3    H114145   7.197   1.770   1.099  0.2470 -0.1410  1.3289
 4727TIP3    H214146   7.134   1.884   1.176 -0.3186  2.3645 -2.5396
 4728TIP3   OH214147   1.054   1.118   4.132 -0.2934  0.0108  0.0766
 4728TIP3    H114148   0.967   1.098   4.168  0.1081  1.7935  2.3270
 4728TIP3    H214149   1.115   1.078   4.194  0.5626 -1.2461 -1.4970
 4729TIP3   OH214150   4.906   2.603   4.286 -0.8709  0.2235 -0.3393
 4729TIP3    H114151   4.818   2.570   4.268 -1.1550  0.4837  0.5264
 4729TIP3    H214152   4.920   2.672   4.222 -1.6206  0.7254  0.0322
 4730TIP3   OH214153   6.634   5.844   4.350  0.4439  0.2399 -0.0741
 4730TIP3    H114154   6.598   5.932   4.355 -0.1904  0.0258 -0.7354
 4730TIP3    H214155   6.727   5.857   4.328  0.9970  0.8266  2.3243
 4731TIP3   OH214156   6.213   0.134   5.594 -0.0019 -0.2781  0.3713
 4731TIP3    H114157   6.268   0.091   5.528 -0.0086  0.0347  0.1629
 4731TIP3    H214158   6.154   0.065   5.623 -2.1906  0.3031 -2.2687
 4732TIP3   OH214159   0.500   5.910   2.537 -0.1643  0.2651  0.3973
 4732TIP3    H114160   0.573   5.943   2.485  0.4283 -2.1116 -0.4190
 4732TIP3    H214161   0.531   5.915   2.627  0.2331  1.0405  0.2271
 4733TIP3   OH214162   3.306   2.181   4.374 -0.0715  0.1494  0.3613
 4733TIP3    H114163   3.354   2.098   4.378 -1.2075 -0.5892 -0.7567
 4733TIP3    H214164   3.297   2.199   4.280 -3.8212 -0.8829  0.3768
 4734TIP3   OH214165   1.121   6.021   0.601 -0.2042 -0.0962 -0.4888
 4734TIP3    H114166   1.200   6.016   0.655  0.2806 -0.3303 -1.2137
 4734TIP3    H214167   1.132   6.099   0.548 -0.8262  0.3062 -0.0369
 4735TIP3   OH214168   5.455   3.671   2.883 -0.2864  0.3064 -0.4504
 4735TIP3    H114169   5.401   3.640   2.955 -0.2299  0.7942 -0.1916
 4735TIP3    H214170   5.395   3.680   2.809 -0.2485 -0.6758 -0.6126
 4736TIP3   OH214171   5.840   3.365   1.844 -0.1716 -0.7629 -0.1636
 4736TIP3    H114172   5.817   3.424   1.772 -0.3603 -0.8772 -0.1969
 4736TIP3    H214173   5.771   3.377   1.909  0.1007 -0.5180  0.0851
 4737TIP3   OH214174   0.285   4.332   5.476 -0.5502 -0.1771 -0.3218
 4737TIP3    H114175   0.210   4.389   5.490 -0.6422 -0.6055  0.9867
 4737TIP3    H214176   0.356   4.373   5.526 -0.4024 -0.7738 -0.0434
 4738TIP3   OH214177   1.908   0.490   1.546 -0.3379  0.5496  0.5294
 4738TIP3    H114178   1.917   0.541   1.626 -1.7193  0.9055  0.4751
 4738TIP3    H214179   1.997   0.487   1.510  0.0541  1.5432  1.3618
 4739TIP3   OH214180   0.127   0.509   4.982 -0.2584  0.2001  0.0796
 4739TIP3    H114181   0.144   0.603   4.997 -0.3863  0.1887  0.2906
 4739TIP3    H214182   0.208   0.478   4.940  0.0670  0.2513  0.6591
 4740TIP3   OH214183   1.782   5.084   4.060 -0.0763  0.0562 -0.0417
 4740TIP3    H114184   1.701   5.117   4.097 -0.3350 -2.5235  2.0446
 4740TIP3    H214185   1.846   5.094   4.131  1.6131  2.3290 -1.7407
 4741TIP3   OH214186   3.688   5.742   4.515  0.1775 -0.2134  0.0128
 4741TIP3    H114187   3.600   5.761   4.547  0.0733 -1.7761  0.7723
 4741TIP3    H214188   3.700   5.648   4.534  1.7141 -0.1961 -0.7612
 4742TIP3   OH214189   6.365   3.276   3.532 -0.0059  0.1800  0.1649
 4742TIP3    H114190   6.453   3.313   3.536  0.1703  0.6325 -3.7347
 4742TIP3    H214191   6.308   3.352   3.520 -0.4800 -0.3101 -0.7827
 4743TIP3   OH214192   6.622   1.673   2.069  0.1428  0.4061 -0.6450
 4743TIP3    H114193   6.539   1.693   2.026  0.3323 -0.0059 -1.2192
 4743TIP3    H214194   6.654   1.757   2.101 -0.4704  0.5734 -0.4613
 4744TIP3   OH214195   4.667   6.196   0.585  0.2693 -0.6160 -0.2965
 4744TIP3    H114196   4.588   6.213   0.534 -0.4128 -0.7278  0.7064
 4744TIP3    H214197   4.644   6.222   0.674  1.0601 -1.5034  0.1761
 4745TIP3   OH214198   0.094   5.755   4.975 -0.3580  0.2200 -0.3309
 4745TIP3    H114199   0.105   5.661   4.962  1.9419  0.3487  0.2990
 4745TIP3    H214200   0.011   5.763   5.021  0.1680 -1.6602  1.0516
 4746TIP3   OH214201   0.305   3.733   3.114 -0.2679  0.2913 -0.3084
 4746TIP3    H114202   0.306   3.822   3.150  0.6975  0.6147 -1.1008
 4746TIP3    H214203   0.212   3.709   3.113 -0.5220  1.2148  0.0838
 4747TIP3   OH214204   5.999   2.570   4.068  0.1675  0.1700  0.0071
 4747TIP3    H114205   6.079   2.527   4.039  0.8781  1.4876 -0.0477
 4747TIP3    H214206   6.015   2.663   4.053 -1.2042  0.4873  0.4118
 4748TIP3   OH214207   2.649   6.047   5.517 -0.5930  0.6242  0.3365
 4748TIP3    H114208   2.554   6.062   5.515 -0.8455 -0.9335 -0.6149
 4748TIP3    H214209   2.659   5.953   5.502  1.1877  1.1908 -2.9164
 4749TIP3   OH214210   4.742   5.553   2.491 -0.2090  0.2461  0.5203
 4749TIP3    H114211   4.824   5.595   2.517 -0.9648  2.5344 -0.4934
 4749TIP3    H214212   4.692   5.546   2.572  0.8504 -0.9196  1.1022
 4750TIP3   OH214213   3.452   4.329   1.250 -0.0757  0.2188  0.1168
 4750TIP3    H114214   3.401   4.400   1.287 -0.1223  0.9389 -1.2435
 4750TIP3    H214215   3.402   4.302   1.172  0.4684 -0.6030  0.0375
 4751TIP3   OH214216   6.761   2.166   4.535  0.1876  0.0636 -0.3935
 4751TIP3    H114217   6.726   2.078   4.524  1.3327 -0.7316  1.6649
 4751TIP3    H214218   6.778   2.173   4.629  1.2995  2.0353 -0.6827
 4752TIP3   OH214219   1.808   3.734   2.766 -0.7224 -0.2659  0.3614
 4752TIP3    H114220   1.795   3.828   2.754 -2.5368 -0.7124 -1.7126
 4752TIP3    H214221   1.868   3.709   2.696  1.3275 -0.4381  2.0490
 4753TIP3   OH214222   4.767   4.088   4.503 -0.3838 -0.1576 -0.2739
 4753TIP3    H114223   4.784   4.093   4.598  0.0721 -0.3470 -0.3432
 4753TIP3    H214224   4.841   4.038   4.468  0.7888  1.9870 -1.0624
 4754TIP3   OH214225   4.678   0.889   1.891 -0.5566 -0.3206  0.4330
 4754TIP3    H114226   4.624   0.812   1.872  1.5534 -1.7862 -0.0980
 4754TIP3    H214227   4.740   0.858   1.957  0.8776  0.6527 -0.4095
 4755TIP3   OH214228   3.577   4.418   1.725  0.3950 -0.1977 -0.5918
 4755TIP3    H114229   3.485   4.423   1.699  0.6252  1.1035 -1.2503
 4755TIP3    H214230   3.615   4.352   1.667  0.2201  0.4382 -1.4469
 4756TIP3   OH214231   5.568   1.171   4.202  0.1906 -0.1743 -0.5222
 4756TIP3    H114232   5.522   1.254   4.187 -2.0836 -1.1990  0.2494
 4756TIP3    H214233   5.582   1.135   4.114  1.8095  1.2594 -0.9117
 4757TIP3   OH214234   3.712   6.487   1.727  0.5708  0.9484  0.4649
 4757TIP3    H114235   3.709   6.582   1.731  1.6132  0.9703  1.2286
 4757TIP3    H214236   3.694   6.458   1.816 -1.2169  0.3455 -0.0449
 4758TIP3   OH214237   1.411   6.363   3.308 -0.3700  0.2840 -0.3586
 4758TIP3    H114238   1.501   6.374   3.279 -0.3161  0.8088  0.0015
 4758TIP3    H214239   1.373   6.451   3.301 -0.5145  0.3117  0.6247
 4759TIP3   OH214240   2.342   1.176   4.954  0.3267 -0.2038 -0.5012
 4759TIP3    H114241   2.360   1.096   4.905 -0.2130 -1.5316  1.3373
 4759TIP3    H214242   2.247   1.187   4.949  0.2848 -0.2602  0.0855
 4760TIP3   OH214243   6.259   3.195   2.776 -0.1895 -0.1392 -0.8095
 4760TIP3    H114244   6.308   3.130   2.726 -0.4273 -0.6487 -0.3840
 4760TIP3    H214245   6.310   3.276   2.766  0.2942 -0.4711 -1.0503
 4761TIP3   OH214246   6.410   1.219   0.617  0.4220  0.2281  0.0968
 4761TIP3    H114247   6.465   1.245   0.691  0.5974  1.9238 -0.5722
 4761TIP3    H214248   6.321   1.236   0.645  0.3893 -0.4734  0.4184
 4762TIP3   OH214249   6.658   6.587   2.181 -0.7334  0.8068 -0.0264
 4762TIP3    H114250   6.675   6.676   2.150  0.9659  0.4148 -0.3268
 4762TIP3    H214251   6.632   6.598   2.273  1.8452  1.5197  0.7099
 4763TIP3   OH214252   2.437   1.939   4.108 -0.0251 -0.0256  0.3319
 4763TIP3    H114253   2.480   2.023   4.091 -2.9754  1.5134 -0.1986
 4763TIP3    H214254   2.502   1.873   4.084  1.4716  2.1046 -1.9200
 4764TIP3   OH214255   5.838   0.812   2.127 -0.0515 -0.7720 -0.4757
 4764TIP3    H114256   5.839   0.813   2.223 -3.6430  1.3451 -0.3196
 4764TIP3    H214257   5.869   0.724   2.105  1.7617 -1.0438  2.5071
 4765TIP3   OH214258   3.095   3.274   4.256 -0.5680  0.4145  0.1492
 4765TIP3    H114259   3.072   3.302   4.168 -0.1952  0.2350 -0.0073
 4765TIP3    H214260   3.089   3.353   4.309  0.6221  0.8435 -0.3170
 4766TIP3   OH214261   2.957   0.413   1.519 -0.0594  0.6199  0.3057
 4766TIP3    H114262   3.000   0.465   1.450  1.1377  0.6763  1.0564
 4766TIP3    H214263   2.963   0.468   1.597  0.7004 -0.3749  0.9763
 4767TIP3   OH214264   5.477   0.482   1.139  0.3438 -0.6542 -0.1063
 4767TIP3    H114265   5.556   0.536   1.138  0.7056 -1.1662 -0.3755
 4767TIP3    H214266   5.500   0.407   1.083 -0.4655 -0.6234 -0.4931
 4768TIP3   OH214267   1.920   6.780   3.605 -0.1316  0.3200  0.0259
 4768TIP3    H114268   1.875   6.712   3.555  1.0836 -0.2034 -0.3915
 4768TIP3    H214269   1.916   6.857   3.548  0.3013  0.0201 -0.4201
 4769TIP3   OH214270   5.117   6.053   5.714 -0.1811 -0.3336  0.1360
 4769TIP3    H114271   5.126   6.127   5.774  0.7151 -0.8037  0.5999
 4769TIP3    H214272   5.203   6.044   5.673  0.0036 -1.6607  0.7532
 4770TIP3   OH214273   0.837   3.818   4.738  0.0230  0.7452 -0.5416
 4770TIP3    H114274   0.831   3.792   4.646  1.3760  0.3026 -0.5290
 4770TIP3    H214275   0.907   3.763   4.773 -2.2317 -1.0778  1.4690
 4771TIP3   OH214276   2.448   6.573   1.544  0.1531  0.2327 -0.5328
 4771TIP3    H114277   2.490   6.505   1.596  0.2327  0.9809  0.4118
 4771TIP3    H214278   2.513   6.597   1.479  0.8492  0.7031  0.3130
 4772TIP3   OH214279   7.153   3.062   3.843 -0.3167  0.4804 -0.3665
 4772TIP3    H114280   7.219   3.131   3.852 -1.6375  1.6687  0.8332
 4772TIP3    H214281   7.198   2.992   3.797  2.5967  0.1563  2.5913
 4773TIP3   OH214282   6.085   1.194   2.431  0.1721  0.1968  0.0628
 4773TIP3    H114283   6.102   1.100   2.428  3.4707  0.6993 -1.4072
 4773TIP3    H214284   6.154   1.229   2.487 -0.5744  1.8173  0.0230
 4774TIP3   OH214285   0.380   5.082   4.853  0.0891  0.1098  0.1077
 4774TIP3    H114286   0.467   5.070   4.813 -0.4131  0.4943 -1.1572
 4774TIP3    H214287   0.319   5.077   4.779 -0.8174  1.7655  0.6808
 4775TIP3   OH214288   5.687   3.668   2.739  0.1159 -0.4347  0.1388
 4775TIP3    H114289   5.615   3.621   2.697  0.6421 -0.8024 -0.3544
 4775TIP3    H214290   5.646   3.711   2.814 -0.1955 -2.5298  1.2406
 4776TIP3   OH214291   1.255   4.897   5.808 -0.0832 -0.4696 -0.8478
 4776TIP3    H114292   1.237   4.804   5.791  0.2451 -0.4090 -1.5705
 4776TIP3    H214293   1.187   4.944   5.761  0.0371 -0.3302 -0.8825
 4777TIP3   OH214294   3.707   1.308   1.219 -0.2615 -0.0143  0.3876
 4777TIP3    H114295   3.803   1.308   1.215 -0.0856 -1.4266  2.8084
 4777TIP3    H214296   3.681   1.260   1.140  1.0329  0.0656 -0.1223
 4778TIP3   OH214297   4.657   6.460   0.317 -1.1574  0.2135  0.0491
 4778TIP3    H114298   4.729   6.441   0.377 -1.2335  1.6918  0.6549
 4778TIP3    H214299   4.680   6.545   0.280 -1.4254 -0.3846 -1.5726
 4779TIP3   OH214300   4.751   0.423   4.200 -0.4520 -0.5407  0.0155
 4779TIP3    H114301   4.672   0.476   4.197 -0.3108 -0.3805 -1.4238
 4779TIP3    H214302   4.767   0.397   4.109  2.5362  1.5260 -0.1972
 4780TIP3   OH214303   6.181   6.509   0.916 -0.1053  0.6460  0.1681
 4780TIP3    H114304   6.089   6.487   0.900  0.1754 -0.8640  0.4610
 4780TIP3    H214305   6.217   6.431   0.958  1.8744  0.2490 -2.0195
 4781TIP3   OH214306   2.832   6.353   1.738  0.8503 -0.4163  0.1971
 4781TIP3    H114307   2.840   6.442   1.772  0.4036 -0.2711 -0.0657
 4781TIP3    H214308   2.915   6.336   1.694  0.1153  0.7206 -1.7217
 4782TIP3   OH214309   3.756   5.405   1.039  0.0515 -0.2819 -0.0206
 4782TIP3    H114310   3.812   5.346   0.988 -0.4707 -1.3645  0.6278
 4782TIP3    H214311   3.816   5.471   1.073  0.8404 -1.0467  0.1181
 4783TIP3   OH214312   6.154   6.260   2.872  0.4082  0.0520 -0.1307
 4783TIP3    H114313   6.221   6.191   2.880  0.1257 -0.1898  0.1314
 4783TIP3    H214314   6.081   6.229   2.925 -0.5232 -0.4164 -1.6437
 4784TIP3   OH214315   5.092   2.356   2.322 -0.4302  0.3213 -0.0171
 4784TIP3    H114316   5.173   2.305   2.321 -0.5420  0.1419  0.0446
 4784TIP3    H214317   5.043   2.324   2.246 -0.3554  0.5759 -0.1766
 4785TIP3   OH214318   0.355   2.082   1.366  0.4982 -0.0347 -0.6881
 4785TIP3    H114319   0.356   2.168   1.410  0.0127 -0.2898 -0.1712
 4785TIP3    H214320   0.291   2.092   1.295 -1.6049 -0.7467  1.0065
 4786TIP3   OH214321   3.271   6.160   2.631  0.1813  0.2047  0.0494
 4786TIP3    H114322   3.201   6.198   2.684  0.8136  0.5542  0.6639
 4786TIP3    H214323   3.240   6.073   2.608 -0.1000  0.0343  1.0327
 4787TIP3   OH214324   1.216   3.448   3.035  0.1405 -0.2006  0.1464
 4787TIP3    H114325   1.248   3.421   2.949  0.3447 -0.1382  0.2016
 4787TIP3    H214326   1.192   3.540   3.024 -0.9609 -0.5102 -0.1549
 4788TIP3   OH214327   3.282   0.574   0.453 -0.3153  0.2627 -0.3271
 4788TIP3    H114328   3.371   0.544   0.471 -0.5794 -0.5655 -0.3558
 4788TIP3    H214329   3.240   0.576   0.539 -0.8055 -1.1634 -0.5034
 4789TIP3   OH214330   4.366   5.097   3.708  0.4885  0.8860 -0.0830
 4789TIP3    H114331   4.361   5.161   3.779  1.1476  1.5923 -0.6506
 4789TIP3    H214332   4.378   5.150   3.629  0.3244  0.0890 -0.6592
 4790TIP3   OH214333   0.381   4.162   2.536  0.2040 -0.4325 -0.5218
 4790TIP3    H114334   0.337   4.166   2.451  0.3258 -1.7321 -0.6707
 4790TIP3    H214335   0.468   4.197   2.520  0.0498 -0.1708 -0.8000
 4791TIP3   OH214336   6.486   4.685   0.945 -0.5696  0.7668  0.2838
 4791TIP3    H114337   6.521   4.611   0.897 -1.6299  0.6844 -0.3832
 4791TIP3    H214338   6.429   4.646   1.011  1.7061  0.8004  2.4381
 4792TIP3   OH214339   0.160   1.279   2.019  0.0083 -0.6089  0.0102
 4792TIP3    H114340   0.139   1.224   2.094 -0.2506  0.1930  0.5320
 4792TIP3    H214341   0.249   1.253   1.995 -0.4113 -1.8549 -0.2953
 4793TIP3   OH214342   4.512   2.295   1.074 -0.1042 -0.5985 -0.1914
 4793TIP3    H114343   4.432   2.250   1.103 -1.2471  2.0308  1.0871
 4793TIP3    H214344   4.502   2.385   1.106  2.3111  0.4530 -2.0540
 4794TIP3   OH214345   1.477   4.113   1.447 -0.1387 -0.0799 -0.1310
 4794TIP3    H114346   1.562   4.137   1.409 -0.2803 -1.3215 -1.3104
 4794TIP3    H214347   1.495   4.104   1.541  0.5567  1.6202 -0.0780
 4795TIP3   OH214348   5.672   4.745   2.023 -0.3303 -0.0181  0.2938
 4795TIP3    H114349   5.664   4.833   2.060  1.4650  0.1007  0.4883
 4795TIP3    H214350   5.756   4.744   1.979 -0.1066 -1.7662  0.6551
 4796TIP3   OH214351   6.410   3.428   1.528  0.5791  0.1084 -0.7798
 4796TIP3    H114352   6.374   3.496   1.586  1.7355  0.2180 -0.1708
 4796TIP3    H214353   6.333   3.380   1.498 -0.1021  0.4518  0.3409
 4797TIP3   OH214354   5.999   5.638   0.729 -0.1090  0.2391  0.3864
 4797TIP3    H114355   6.043   5.635   0.644  0.3417  0.9421  0.5841
 4797TIP3    H214356   5.990   5.547   0.755 -0.3179  0.0087 -0.4461
 4798TIP3   OH214357   6.137   5.836   0.362  0.7123 -0.5635  0.4579
 4798TIP3    H114358   6.206   5.865   0.302  0.8856 -1.0300  0.4295
 4798TIP3    H214359   6.115   5.914   0.413 -1.6194  0.7623 -2.2570
 4799TIP3   OH214360   4.820   6.041   4.575  0.0719  0.1586 -0.0013
 4799TIP3    H114361   4.777   6.005   4.498 -0.2945  0.0526  0.2455
 4799TIP3    H214362   4.913   6.030   4.559 -0.0265 -0.8310  0.0258
 4800TIP3   OH214363   5.027   3.912   2.429 -0.1424  1.1770 -0.2070
 4800TIP3    H114364   5.036   3.970   2.505  0.5175  0.6739  0.1132
 4800TIP3    H214365   5.091   3.944   2.366  2.0535 -0.6589  0.9419
 4801TIP3   OH214366   3.098   1.363   4.107 -0.2947  0.3157  0.0678
 4801TIP3    H114367   3.069   1.282   4.066 -1.4697  0.0937  1.2607
 4801TIP3    H214368   3.017   1.412   4.123  0.2266  0.9261  0.9539
 4802TIP3   OH214369   2.775   2.891   5.691 -0.3219  0.2871 -0.6527
 4802TIP3    H114370   2.769   2.795   5.691 -1.7677  0.3476 -1.1418
 4802TIP3    H214371   2.762   2.916   5.599 -1.6450  1.0104 -0.2936
 4803TIP3   OH214372   0.517   5.533   0.102 -0.1988  0.2293 -0.3790
 4803TIP3    H114373   0.546   5.550   0.012 -1.4809  0.7955 -0.7077
 4803TIP3    H214374   0.598   5.524   0.152  0.6100  3.1777 -0.9771
 4804TIP3   OH214375   6.847   3.909   0.230  0.3047  0.9126  0.2259
 4804TIP3    H114376   6.853   3.941   0.320  1.3792  0.6906  0.2477
 4804TIP3    H214377   6.762   3.865   0.226 -0.0663  1.5411  0.9224
 4805TIP3   OH214378   4.983   2.582   0.306  0.0113  0.0424 -0.7195
 4805TIP3    H114379   4.923   2.641   0.352 -0.8725 -0.8986 -0.6402
 4805TIP3    H214380   4.985   2.616   0.216  4.9348  4.4974  0.5544
 4806TIP3   OH214381   6.562   2.104   5.199 -0.0517 -0.3824 -0.2328
 4806TIP3    H114382   6.658   2.102   5.203  0.1516  2.7977 -0.9572
 4806TIP3    H214383   6.540   2.056   5.119  0.9926 -0.6102 -0.3931
 4807TIP3   OH214384   5.058   4.180   2.021  0.2624 -0.0335 -0.1568
 4807TIP3    H114385   5.058   4.190   2.117 -0.5887  0.3539 -0.1856
 4807TIP3    H214386   5.023   4.092   2.006 -1.1209  0.4845 -0.1355
 4808TIP3   OH214387   1.648   3.235   3.361 -0.2830  0.0215 -0.1924
 4808TIP3    H114388   1.641   3.270   3.272  1.1908  1.5726  0.2583
 4808TIP3    H214389   1.737   3.257   3.389  0.1612 -2.6327  0.8012
 4809TIP3   OH214390   6.080   1.152   3.740  0.0028 -0.1877  0.3249
 4809TIP3    H114391   6.171   1.122   3.743  0.3867  0.9796  0.5950
 4809TIP3    H214392   6.033   1.092   3.799  0.4934 -1.0897 -0.1830
 4810TIP3   OH214393   6.749   2.911   4.966  0.1602 -0.0799  0.3680
 4810TIP3    H114394   6.827   2.944   5.010 -0.3162 -0.4034  1.5027
 4810TIP3    H214395   6.684   2.981   4.978  0.4758  0.5345 -1.2544
 4811TIP3   OH214396   0.689   3.931   5.525  0.0922 -0.2893  0.1455
 4811TIP3    H114397   0.699   3.871   5.599  0.5785 -0.7221 -0.2727
 4811TIP3    H214398   0.620   3.992   5.554  0.7509 -0.0240  1.2440
 4812TIP3   OH214399   5.826   6.364   2.938 -0.1244  0.1433  0.2013
 4812TIP3    H114400   5.882   6.442   2.942 -1.2258  1.0753 -1.2532
 4812TIP3    H214401   5.738   6.399   2.922 -0.6806 -1.3892 -0.2425
 4813TIP3   OH214402   0.799   1.525   5.011 -0.1392  0.4412  0.1270
 4813TIP3    H114403   0.856   1.482   4.947  0.4817  0.5883  0.5777
 4813TIP3    H214404   0.858   1.565   5.074 -0.6220  3.4171 -1.1496
 4814TIP3   OH214405   4.765   5.747   4.809 -0.2072  0.7011  0.2074
 4814TIP3    H114406   4.682   5.783   4.839 -1.0990 -2.1947  1.5405
 4814TIP3    H214407   4.806   5.711   4.887  2.2481  1.7816 -0.4676
 4815TIP3   OH214408   6.146   4.289   2.915 -0.0034 -0.6120  0.2379
 4815TIP3    H114409   6.183   4.243   2.840  1.3722  3.1544 -1.6623
 4815TIP3    H214410   6.052   4.295   2.895 -0.1243 -2.0073  0.2857
 4816TIP3   OH214411   4.071   1.527   5.703 -0.0633  0.4212  0.4154
 4816TIP3    H114412   4.143   1.552   5.645  0.9866 -1.8551  0.6316
 4816TIP3    H214413   4.048   1.608   5.748  2.4669  1.2224  0.4491
 4817TIP3   OH214414   2.141   3.552   0.865  0.8863  0.7068 -0.1847
 4817TIP3    H114415   2.171   3.617   0.801  1.2002  0.7805  0.0340
 4817TIP3    H214416   2.077   3.599   0.918  0.7985  0.7149 -0.2993
 4818TIP3   OH214417   6.527   5.163   2.130 -0.2712  0.3784 -0.0422
 4818TIP3    H114418   6.473   5.204   2.062 -0.0912  1.3826  0.3959
 4818TIP3    H214419   6.522   5.224   2.204  1.5592  0.5711 -0.0385
 4819TIP3   OH214420   3.475   6.181   1.414 -0.0073 -0.1952 -0.0989
 4819TIP3    H114421   3.423   6.168   1.335  0.1370 -1.5396  0.0026
 4819TIP3    H214422   3.520   6.264   1.399 -1.9198  0.8601 -0.3123
 4820TIP3   OH214423   5.837   2.538   0.106  0.4578 -0.2163 -0.0901
 4820TIP3    H114424   5.925   2.525   0.143  0.3791 -2.3694 -0.5446
 4820TIP3    H214425   5.795   2.453   0.114 -1.4393  0.6529 -0.3471
 4821TIP3   OH214426   5.466   6.222   2.445 -0.1153  0.1585  0.2216
 4821TIP3    H114427   5.540   6.245   2.388 -0.2401 -2.7979 -1.3587
 4821TIP3    H214428   5.395   6.200   2.384 -1.5484  0.6008  1.6547
 4822TIP3   OH214429   2.709   5.312   2.159 -0.1703 -0.4813  0.3548
 4822TIP3    H114430   2.640   5.350   2.214 -0.9606 -2.5269  0.9096
 4822TIP3    H214431   2.663   5.283   2.080  0.0686 -1.6376  0.6222
 4823TIP3   OH214432   6.736   6.418   2.544 -0.1230 -0.1361  0.5770
 4823TIP3    H114433   6.730   6.382   2.632 -0.4494 -0.4893  0.4107
 4823TIP3    H214434   6.645   6.431   2.517 -0.2496 -3.6535 -1.1928
 4824TIP3   OH214435   6.214   3.578   0.988  0.2535 -0.5460 -0.6907
 4824TIP3    H114436   6.146   3.515   0.966 -0.3263 -0.0152 -0.4458
 4824TIP3    H214437   6.171   3.642   1.045  1.2623 -0.8601  0.4539
 4825TIP3   OH214438   4.719   4.963   4.512  0.1718 -0.0928  0.2363
 4825TIP3    H114439   4.695   4.883   4.559 -1.2763  0.6106  0.7301
 4825TIP3    H214440   4.653   4.971   4.443  0.9168  0.1496 -0.4702
 4826TIP3   OH214441   4.435   0.643   3.538  0.4384 -0.1459  0.2288
 4826TIP3    H114442   4.512   0.631   3.482  1.1629  0.0556  1.1449
 4826TIP3    H214443   4.435   0.566   3.595  0.8455  0.5657  1.2241
 4827TIP3   OH214444   0.096   5.726   1.038 -0.4375 -0.4828 -0.0029
 4827TIP3    H114445   0.021   5.674   1.011 -1.1339  0.2727  0.4521
 4827TIP3    H214446   0.093   5.726   1.133 -0.6400  0.6529  0.0020
 4828TIP3   OH214447   4.591   4.846   2.512 -0.3892  0.0289 -0.0180
 4828TIP3    H114448   4.510   4.834   2.563 -0.3527 -1.1665 -0.2125
 4828TIP3    H214449   4.661   4.822   2.573 -0.3483 -1.4592 -0.6038
 4829TIP3   OH214450   0.926   2.590   3.170  0.5064 -0.0272 -0.0738
 4829TIP3    H114451   0.889   2.678   3.171 -0.2036 -0.2977 -0.7342
 4829TIP3    H214452   0.857   2.535   3.206  0.7301 -0.3854 -0.1891
 4830TIP3   OH214453   3.358   4.525   0.288  0.2778 -0.0456 -0.3060
 4830TIP3    H114454   3.313   4.491   0.365  0.3041 -0.8585 -0.6427
 4830TIP3    H214455   3.451   4.514   0.307  0.3157  0.7600 -0.0046
 4831TIP3   OH214456   3.535   4.504   2.298 -0.3031  0.0283  0.0163
 4831TIP3    H114457   3.496   4.590   2.286  0.4551  0.5257  0.9882
 4831TIP3    H214458   3.488   4.447   2.236 -1.5123  0.9030  0.1020
 4832TIP3   OH214459   6.042   5.414   5.708 -0.4153 -0.2623 -0.0828
 4832TIP3    H114460   6.033   5.452   5.621  1.6232 -1.1451 -0.7249
 4832TIP3    H214461   6.120   5.455   5.745  0.4500 -2.0007  0.1402
 4833TIP3   OH214462   6.999   1.299   3.800  0.4198  0.5717 -0.6755
 4833TIP3    H114463   7.014   1.297   3.706 -0.3538 -1.3335 -0.8031
 4833TIP3    H214464   6.907   1.324   3.810 -0.4361 -2.2151 -0.6514
 4834TIP3   OH214465   5.830   4.585   3.016  0.1926 -0.0663  0.7002
 4834TIP3    H114466   5.858   4.604   2.926 -0.4157 -0.4868  0.4109
 4834TIP3    H214467   5.890   4.634   3.071  0.7803 -0.0656  0.0681
 4835TIP3   OH214468   0.652   5.315   4.841 -0.0728 -0.4689 -0.1268
 4835TIP3    H114469   0.678   5.324   4.933 -3.4413 -1.5862  1.0782
 4835TIP3    H214470   0.646   5.220   4.827 -1.5573 -0.2859 -0.8571
 4836TIP3   OH214471   3.992   3.170   3.971 -0.5214 -0.6103  0.2562
 4836TIP3    H114472   3.938   3.120   3.910 -1.3563 -0.9635  1.2661
 4836TIP3    H214473   3.937   3.183   4.048  0.6537 -0.5449  1.1233
 4837TIP3   OH214474   2.035   5.941   4.371  0.3740 -0.0225 -0.3923
 4837TIP3    H114475   2.041   5.979   4.458 -1.9799  1.4332 -0.7835
 4837TIP3    H214476   2.008   5.850   4.386 -0.1631  0.2618  0.4020
 4838TIP3   OH214477   5.857   0.974   3.838  0.3228 -0.1724 -0.1011
 4838TIP3    H114478   5.816   0.904   3.786  1.0047 -0.1799 -0.6372
 4838TIP3    H214479   5.916   0.928   3.897 -0.7560 -0.1994  1.0088
 4839TIP3   OH214480   0.577   2.931   1.171  0.6905  0.0931  0.0203
 4839TIP3    H114481   0.611   2.898   1.255  1.6809 -0.8941 -0.7407
 4839TIP3    H214482   0.511   2.867   1.146  3.3081 -2.1110 -1.9534
 4840TIP3   OH214483   6.068   5.139   2.015  0.4660 -0.7241  0.6990
 4840TIP3    H114484   6.148   5.099   1.980  0.2107  0.8584 -1.9912
 4840TIP3    H214485   5.997   5.089   1.976  0.1752  0.4672 -0.3795
 4841TIP3   OH214486   1.479   5.881   0.265  0.5592 -0.4346 -0.1709
 4841TIP3    H114487   1.417   5.870   0.192 -0.1026 -0.5642  0.4008
 4841TIP3    H214488   1.516   5.794   0.278 -0.4646 -0.7604  0.6434
 4842TIP3   OH214489   1.943   1.837   5.030  0.0036  0.1495  0.0335
 4842TIP3    H114490   1.875   1.898   5.058 -0.9639 -0.9090  0.0375
 4842TIP3    H214491   1.898   1.773   4.975  1.4306  0.8069 -2.0366
 4843TIP3   OH214492   6.384   3.714   5.578  0.7609 -0.4035 -0.0109
 4843TIP3    H114493   6.289   3.721   5.576  0.7351 -0.6265  0.4504
 4843TIP3    H214494   6.415   3.802   5.600  0.6735 -0.2788 -0.3761
 4844TIP3   OH214495   1.154   5.840   3.257  0.6154 -0.2375  0.0237
 4844TIP3    H114496   1.205   5.863   3.180  1.0298  1.2538  0.7107
 4844TIP3    H214497   1.191   5.756   3.286  1.7026  0.1091 -0.3239
 4845TIP3   OH214498   4.930   6.554   4.586 -0.0720 -0.5412 -0.1040
 4845TIP3    H114499   4.990   6.535   4.658 -0.5703 -2.2769 -0.0873
 4845TIP3    H214500   4.919   6.649   4.588  2.4578 -0.1849  0.0413
 4846TIP3   OH214501   7.081   0.837   1.190 -0.4851  0.1101 -0.3590
 4846TIP3    H114502   7.014   0.906   1.191 -0.6855 -0.0890  0.9914
 4846TIP3    H214503   7.153   0.873   1.242  0.4902  0.3087 -1.7705
 4847TIP3   OH214504   5.287   2.945   1.142 -0.0326 -0.0005  0.8583
 4847TIP3    H114505   5.290   3.013   1.208  0.1189  0.6184  0.2260
 4847TIP3    H214506   5.244   2.986   1.067  0.9612 -0.2690  0.1148
 4848TIP3   OH214507   0.155   2.494   4.329  0.0161  0.2140  0.1800
 4848TIP3    H114508   0.105   2.420   4.362 -0.4622  0.6503  0.4537
 4848TIP3    H214509   0.096   2.536   4.266  1.0573 -0.8316 -1.5514
 4849TIP3   OH214510   5.880   3.558   5.554  0.0424 -0.1753 -0.1852
 4849TIP3    H114511   5.792   3.562   5.593  0.9274  0.4045  1.9458
 4849TIP3    H214512   5.894   3.466   5.535 -0.0464 -0.7126  2.0618
 4850TIP3   OH214513   5.879   4.718   3.958 -0.5178 -0.1539 -0.0862
 4850TIP3    H114514   5.810   4.664   3.921 -0.0046 -1.8718  1.3112
 4850TIP3    H214515   5.960   4.685   3.919 -0.2789  0.3069  0.0033
 4851TIP3   OH214516   2.746   2.331   0.111  0.5790  0.3448 -0.2606
 4851TIP3    H114517   2.751   2.341   0.016  2.7483  0.5151 -0.1652
 4851TIP3    H214518   2.657   2.299   0.127 -0.4618  2.0299 -2.1648
 4852TIP3   OH214519   3.085   5.896   3.679 -0.1801 -0.3809  0.4835
 4852TIP3    H114520   3.175   5.878   3.706 -0.3776 -1.0726  0.7099
 4852TIP3    H214521   3.085   5.989   3.657  0.6743 -0.4527  0.1316
 4853TIP3   OH214522   1.717   2.531   2.029  0.2244 -0.5715 -0.5859
 4853TIP3    H114523   1.733   2.480   2.108 -1.8226  0.1362  0.3739
 4853TIP3    H214524   1.802   2.539   1.987  1.4741 -0.5863  1.7950
 4854TIP3   OH214525   1.260   0.987   2.121  0.1308 -0.5279 -0.5603
 4854TIP3    H114526   1.184   1.038   2.148  0.2354 -1.3647  1.4812
 4854TIP3    H214527   1.304   1.042   2.057 -1.1040  0.8343 -0.2873
 4855TIP3   OH214528   1.591   1.182   5.729 -0.1816 -0.6058 -0.0279
 4855TIP3    H114529   1.604   1.277   5.721 -0.9309 -0.5169 -0.2480
 4855TIP3    H214530   1.539   1.172   5.809 -1.2485 -0.7262 -0.7301
 4856TIP3   OH214531   0.494   4.944   3.032  0.2889 -0.4461 -0.4458
 4856TIP3    H114532   0.578   4.921   2.992  0.1070  0.6386 -1.5056
 4856TIP3    H214533   0.430   4.927   2.962  0.0091  1.9668 -0.8434
 4857TIP3   OH214534   3.362   2.281   1.540  0.5112 -0.0817 -0.4727
 4857TIP3    H114535   3.411   2.360   1.517 -0.2857  1.1351  1.7202
 4857TIP3    H214536   3.283   2.285   1.486  1.1746 -0.2149 -1.4781
 4858TIP3   OH214537   4.562   4.072   2.128 -0.0671  0.1270  0.1835
 4858TIP3    H114538   4.517   4.153   2.153  0.1056  0.0044  0.9356
 4858TIP3    H214539   4.588   4.086   2.037 -1.0336  0.4570 -0.0544
 4859TIP3   OH214540   4.561   1.251   2.304 -0.0843  0.1839  0.1164
 4859TIP3    H114541   4.565   1.205   2.220  1.2680 -0.1776  0.3456
 4859TIP3    H214542   4.475   1.291   2.306 -0.9166 -1.4843 -0.5489
 4860TIP3   OH214543   1.085   3.403   5.283  0.5555 -0.0147  0.3017
 4860TIP3    H114544   1.048   3.397   5.195  1.9805  0.0507 -0.3301
 4860TIP3    H214545   1.011   3.388   5.342 -0.3368 -0.4891 -0.9108
 4861TIP3   OH214546   6.952   6.054   4.193  0.5907  0.3588 -0.2281
 4861TIP3    H114547   6.997   6.136   4.215  1.4688  0.2598 -1.5501
 4861TIP3    H214548   6.966   6.044   4.099  0.1490 -1.1101 -0.1554
 4862TIP3   OH214549   3.391   0.841   5.798  0.0947 -1.0770 -0.1768
 4862TIP3    H114550   3.358   0.805   5.716  0.5166 -0.7565 -0.4952
 4862TIP3    H214551   3.324   0.902   5.827  1.1605  0.9958 -1.7842
 4863TIP3   OH214552   6.848   2.030   3.444  0.1266 -0.2797  0.2565
 4863TIP3    H114553   6.850   2.034   3.540  1.8436 -0.0576  0.2389
 4863TIP3    H214554   6.849   2.121   3.416  1.6811 -0.3393  0.0397
 4864TIP3   OH214555   3.647   4.817   3.929  0.2795 -0.0857  0.6555
 4864TIP3    H114556   3.626   4.851   3.842 -2.0402 -3.0331 -0.1233
 4864TIP3    H214557   3.656   4.895   3.984 -0.6208  1.8210 -1.7042
 4865TIP3   OH214558   4.765   3.057   3.210 -0.3179 -0.4171  0.0975
 4865TIP3    H114559   4.844   3.067   3.262 -1.1750  0.0265  1.3515
 4865TIP3    H214560   4.752   3.142   3.169 -1.2353  0.1721  1.5268
 4866TIP3   OH214561   3.868   4.840   1.900  0.8679 -0.4541  0.5911
 4866TIP3    H114562   3.812   4.893   1.843  2.6284  1.4170  0.4943
 4866TIP3    H214563   3.860   4.752   1.866  0.5021  0.3203 -1.4487
 4867TIP3   OH214564   0.888   0.526   1.726  0.0178  0.2607  0.2029
 4867TIP3    H114565   0.882   0.434   1.700 -0.4420  0.3983 -0.1897
 4867TIP3    H214566   0.922   0.570   1.649 -0.1627  0.4884  0.2558
 4868TIP3   OH214567   6.124   3.914   3.409 -0.5769  0.2194 -0.2692
 4868TIP3    H114568   6.122   3.936   3.503 -1.3110  0.2535 -0.2854
 4868TIP3    H214569   6.098   3.995   3.366 -1.3012 -0.1024 -0.4431
 4869TIP3   OH214570   0.920   0.111   4.007 -0.5806 -0.0911  0.5714
 4869TIP3    H114571   0.933   0.021   4.038 -2.5038 -0.9859 -1.0228
 4869TIP3    H214572   0.832   0.111   3.969 -1.1443  2.8250  1.6542
 4870TIP3   OH214573   3.884   4.262   0.378 -0.3641 -0.2536 -0.1168
 4870TIP3    H114574   3.907   4.176   0.414  0.1836  0.8432  2.2841
 4870TIP3    H214575   3.812   4.293   0.433  0.9189  1.7579  0.5271
 4871TIP3   OH214576   4.434   3.522   0.368 -0.1261  0.1494  0.5171
 4871TIP3    H114577   4.504   3.556   0.423 -0.0233  0.0398  0.4549
 4871TIP3    H214578   4.473   3.516   0.281 -0.7234  1.6989  0.1183
 4872TIP3   OH214579   2.176   2.685   5.375  0.1530  0.2051 -0.0072
 4872TIP3    H114580   2.192   2.775   5.403 -0.6238 -0.4839  3.0798
 4872TIP3    H214581   2.081   2.674   5.383  0.1933 -0.7683 -0.7337
 4873TIP3   OH214582   6.300   0.657   3.003 -0.4586 -0.0129 -0.7746
 4873TIP3    H114583   6.286   0.563   2.988 -0.8475 -0.5135  2.0863
 4873TIP3    H214584   6.381   0.661   3.053 -0.1537  1.2533 -1.3427
 4874TIP3   OH214585   0.227   6.020   1.687  0.5469 -0.5404  0.3238
 4874TIP3    H114586   0.180   5.968   1.751 -1.8767 -1.0361 -1.7220
 4874TIP3    H214587   0.214   6.111   1.715 -2.0842 -0.6366 -0.3974
 4875TIP3   OH214588   2.427   1.424   4.834  0.1317 -0.4131 -0.0069
 4875TIP3    H114589   2.346   1.398   4.877  0.4636 -1.6709 -0.1073
 4875TIP3    H214590   2.459   1.344   4.791  1.2538  0.1358 -0.2408
 4876TIP3   OH214591   2.084   4.894   3.545  0.0764  0.3206  0.1731
 4876TIP3    H114592   2.076   4.936   3.631  2.9076 -0.5893  0.9930
 4876TIP3    H214593   2.080   4.966   3.482  0.5285  1.3133  1.2557
 4877TIP3   OH214594   6.416   3.121   4.518  0.1439 -0.3859  0.0022
 4877TIP3    H114595   6.405   3.135   4.424 -1.6085 -2.9653 -0.2746
 4877TIP3    H214596   6.491   3.061   4.525 -0.0793 -0.6449  0.1969
 4878TIP3   OH214597   1.039   1.257   0.975  0.1238 -0.0702  0.5687
 4878TIP3    H114598   1.086   1.250   1.058  1.6352 -2.3556 -0.3808
 4878TIP3    H214599   0.984   1.178   0.972  1.7281 -1.2246 -1.4631
 4879TIP3   OH214600   4.941   5.029   0.539 -0.4536 -0.5062 -0.2199
 4879TIP3    H114601   5.003   4.980   0.593 -1.4629 -1.0633  0.4610
 4879TIP3    H214602   4.967   5.008   0.449  1.6940  0.9929 -0.0476
 4880TIP3   OH214603   0.673   2.438   0.417 -0.7211  0.3433  0.0484
 4880TIP3    H114604   0.685   2.342   0.417 -1.4913  0.2379  0.8921
 4880TIP3    H214605   0.603   2.453   0.355  1.0851  0.6199 -2.0265
 4881TIP3   OH214606   3.611   4.707   1.774 -0.3224 -0.4187  0.0295
 4881TIP3    H114607   3.669   4.631   1.783 -2.0243 -1.8406 -0.4537
 4881TIP3    H214608   3.527   4.670   1.746 -1.1480  1.6797 -0.4576
 4882TIP3   OH214609   2.786   3.489   1.463 -0.1618  0.6128  0.1179
 4882TIP3    H114610   2.870   3.499   1.507 -0.2095  2.4320 -0.1087
 4882TIP3    H214611   2.804   3.434   1.387  0.4589 -0.3980  0.9788
 4883TIP3   OH214612   5.162   5.795   3.634  0.0394 -0.5446  0.2825
 4883TIP3    H114613   5.087   5.801   3.574  0.5158  1.1576 -0.2050
 4883TIP3    H214614   5.132   5.837   3.714 -0.2797 -1.9867  0.9602
 4884TIP3   OH214615   5.518   4.811   4.292 -0.0817 -0.1223  0.1258
 4884TIP3    H114616   5.428   4.816   4.260 -0.0296  3.7675  0.0423
 4884TIP3    H214617   5.570   4.848   4.220  1.6806 -2.4774  0.0919
 4885TIP3   OH214618   5.539   3.704   5.157  0.0116 -0.1572  0.6206
 4885TIP3    H114619   5.450   3.720   5.189 -0.5676 -2.0122  0.0864
 4885TIP3    H214620   5.530   3.631   5.096  1.6611  0.7744 -0.8504
 4886TIP3   OH214621   2.129   4.506   0.714  0.0004 -0.4404 -0.1997
 4886TIP3    H114622   2.210   4.490   0.763 -0.5998 -0.4569  0.8044
 4886TIP3    H214623   2.159   4.547   0.632  1.1047 -1.4516 -0.3398
 4887TIP3   OH214624   1.520   4.061   3.397  0.4401  0.9630  0.2558
 4887TIP3    H114625   1.549   4.022   3.315  3.5564  2.6554  0.3989
 4887TIP3    H214626   1.570   4.016   3.464  0.3389  1.7463  0.8742
 4888TIP3   OH214627   1.951   2.900   4.041 -0.5126 -0.3458  0.1739
 4888TIP3    H114628   1.887   2.905   4.112 -1.0047  1.6393 -0.3478
 4888TIP3    H214629   1.968   2.991   4.018  0.7464 -0.9104 -1.2849
 4889TIP3   OH214630   6.098   6.502   1.672  0.1186 -0.1521 -0.0870
 4889TIP3    H114631   6.110   6.488   1.578  1.0750 -1.8594  0.2578
 4889TIP3    H214632   6.175   6.553   1.699  1.5154 -2.3513  0.2891
 4890TIP3   OH214633   1.668   0.684   0.989  0.3042  0.3345 -0.2467
 4890TIP3    H114634   1.717   0.713   1.066  0.4371 -0.0932 -0.1689
 4890TIP3    H214635   1.641   0.595   1.010 -0.1103  0.4020 -0.4806
 4891TIP3   OH214636   2.914   0.771   4.514 -0.1774 -0.5553 -0.2432
 4891TIP3    H114637   2.974   0.700   4.540 -0.4026 -0.0373  1.8159
 4891TIP3    H214638   2.967   0.826   4.456  0.7992 -1.0432  0.1549
 4892TIP3   OH214639   0.805   2.481   1.894  0.0044 -0.7977  0.4151
 4892TIP3    H114640   0.712   2.486   1.871  0.0258 -0.3874  0.4178
 4892TIP3    H214641   0.831   2.393   1.865 -0.1294 -0.5376 -0.5407
 4893TIP3   OH214642   5.787   3.036   2.937  0.0767  0.5534  0.2236
 4893TIP3    H114643   5.817   2.998   2.855 -0.3796 -2.3002  1.2544
 4893TIP3    H214644   5.861   3.087   2.969  0.3593  1.4430 -1.7673
 4894TIP3   OH214645   5.398   5.699   3.705 -0.1896 -0.0423 -0.0224
 4894TIP3    H114646   5.348   5.649   3.770  0.9138 -0.5888  0.4417
 4894TIP3    H214647   5.332   5.748   3.656 -1.0535  0.5780  1.6701
 4895TIP3   OH214648   5.625   3.293   3.099 -0.1414  0.0006  0.0133
 4895TIP3    H114649   5.640   3.311   3.007  1.4842 -0.1671  0.2178
 4895TIP3    H214650   5.712   3.281   3.136 -0.5757  2.4040  2.0543
 4896TIP3   OH214651   1.444   2.352   3.721  0.0166 -0.0991  0.4531
 4896TIP3    H114652   1.379   2.421   3.708 -0.5210 -0.1728  2.4384
 4896TIP3    H214653   1.430   2.322   3.810  2.3573 -0.5949  0.7270
 4897TIP3   OH214654   7.094   6.643   0.979 -0.1404 -0.0922  0.0676
 4897TIP3    H114655   7.170   6.654   1.035 -0.8649  1.2314  0.8393
 4897TIP3    H214656   7.092   6.721   0.924 -0.0160 -0.8970 -1.1083
 4898TIP3   OH214657   0.072   6.286   1.466  0.3991 -0.1406  0.5238
 4898TIP3    H114658   0.011   6.222   1.430  0.3583  1.2217 -1.9966
 4898TIP3    H214659   0.159   6.246   1.456  0.1461 -1.2325  2.2709
 4899TIP3   OH214660   1.451   4.206   2.752  0.3086 -0.1222 -0.1581
 4899TIP3    H114661   1.545   4.196   2.737  0.6527 -0.0726  1.7235
 4899TIP3    H214662   1.410   4.144   2.691  1.6222 -0.9390 -0.2374
 4900TIP3   OH214663   5.633   2.515   1.425  0.0033  0.0272 -0.5896
 4900TIP3    H114664   5.696   2.586   1.429 -2.2243  2.0840  1.9690
 4900TIP3    H214665   5.566   2.545   1.363 -1.1969  0.4766  0.8610
 4901TIP3   OH214666   1.049   1.732   5.513  0.5846  0.1362 -0.0990
 4901TIP3    H114667   0.967   1.774   5.538  0.1190 -0.5898 -0.3702
 4901TIP3    H214668   1.093   1.713   5.596 -0.6333 -1.6420  0.2152
 4902TIP3   OH214669   6.614   4.302   4.329  0.2899  0.6176  0.3206
 4902TIP3    H114670   6.704   4.281   4.352  1.1088  2.2640 -1.1462
 4902TIP3    H214671   6.599   4.389   4.367 -1.0582 -0.0563  1.4274
 4903TIP3   OH214672   6.439   3.947   1.274  0.1797 -0.3465  0.4496
 4903TIP3    H114673   6.361   3.896   1.296 -0.4230  0.0632 -0.6120
 4903TIP3    H214674   6.497   3.885   1.231  1.2216 -1.0696  2.7570
 4904TIP3   OH214675   0.511   2.481   5.428 -0.3766 -0.5468  0.4437
 4904TIP3    H114676   0.493   2.490   5.335 -1.7255 -1.4705  0.5856
 4904TIP3    H214677   0.591   2.430   5.433  1.2166  1.7331 -0.2042
 4905TIP3   OH214678   5.387   0.383   5.766 -0.3782 -0.2628  0.8618
 4905TIP3    H114679   5.321   0.448   5.739 -0.2471 -0.4247  0.1381
 4905TIP3    H214680   5.401   0.401   5.859 -0.5903  0.5320  0.7474
 4906TIP3   OH214681   0.712   1.877   3.460 -0.3168 -0.0129  0.2555
 4906TIP3    H114682   0.643   1.878   3.394 -0.1191 -1.1988  0.0016
 4906TIP3    H214683   0.786   1.833   3.417  0.3028  0.4684  0.8043
 4907TIP3   OH214684   2.625   2.099   5.373 -0.0247 -0.0284 -0.1116
 4907TIP3    H114685   2.553   2.161   5.382  0.5379  1.0138 -2.2292
 4907TIP3    H214686   2.601   2.027   5.432 -1.9815  1.0006  0.4584
 4908TIP3   OH214687   0.570   5.452   2.250  0.2334 -0.5386 -0.0217
 4908TIP3    H114688   0.649   5.442   2.304 -0.0321 -0.9053  0.3082
 4908TIP3    H214689   0.575   5.541   2.217  0.7784 -0.5503  0.0135
 4909TIP3   OH214690   4.282   1.922   0.951 -0.3729 -0.5443 -0.1525
 4909TIP3    H114691   4.288   1.901   0.857  0.8677  1.0176 -0.4558
 4909TIP3    H214692   4.346   1.864   0.992  2.3441  1.7523 -0.8732
 4910TIP3   OH214693   5.751   2.798   0.162  0.1824 -0.6194 -0.1428
 4910TIP3    H114694   5.774   2.707   0.140 -0.6187 -0.6496 -0.8945
 4910TIP3    H214695   5.747   2.799   0.257  1.4455 -1.0574 -0.0569
 4911TIP3   OH214696   6.544   3.674   4.917  0.3704  0.1603  0.1956
 4911TIP3    H114697   6.479   3.693   4.849  0.0510 -1.4640  0.0071
 4911TIP3    H214698   6.521   3.732   4.989  0.4993  1.6756 -0.9373
 4912TIP3   OH214699   2.608   1.896   1.175  0.1324 -0.6483 -0.4981
 4912TIP3    H114700   2.516   1.884   1.194 -0.2596  0.5102 -1.4880
 4912TIP3    H214701   2.652   1.822   1.217 -0.8538  0.4372  2.7391
 4913TIP3   OH214702   3.961   3.354   2.970  0.0776 -0.5324  0.3360
 4913TIP3    H114703   3.973   3.377   3.062  1.7737  1.4741 -0.2951
 4913TIP3    H214704   3.920   3.431   2.931 -0.1625 -1.1635 -0.6934
 4914TIP3   OH214705   5.576   0.164   1.571  0.3723 -0.1936 -0.7102
 4914TIP3    H114706   5.652   0.179   1.628 -0.3495  1.5247 -0.1343
 4914TIP3    H214707   5.502   0.164   1.631 -0.3274  0.8579 -1.5522
 4915TIP3   OH214708   5.745   2.227   3.549 -0.0187 -0.9057 -0.1400
 4915TIP3    H114709   5.660   2.207   3.586 -0.2920  0.8223  0.2642
 4915TIP3    H214710   5.796   2.260   3.623  0.6677 -0.9591 -0.5828
 4916TIP3   OH214711   6.184   0.365   1.199 -0.0909  0.2016  0.5847
 4916TIP3    H114712   6.188   0.280   1.242 -1.0552 -0.0286  0.2488
 4916TIP3    H214713   6.257   0.415   1.236  0.6131 -0.8352  0.6244
 4917TIP3   OH214714   0.136   5.161   0.657 -0.6511  0.0992 -0.5453
 4917TIP3    H114715   0.097   5.158   0.744  0.1539 -0.3897 -0.1919
 4917TIP3    H214716   0.173   5.250   0.651  2.1174 -0.8348  0.9152
 4918TIP3   OH214717   4.613   2.928   0.573 -0.3212  0.3846 -0.0521
 4918TIP3    H114718   4.683   2.929   0.638  0.1918  1.3592 -0.6055
 4918TIP3    H214719   4.541   2.882   0.617  0.1686  0.6234  1.0362
 4919TIP3   OH214720   0.649   3.009   0.932  0.3022 -0.5435 -0.5004
 4919TIP3    H114721   0.631   2.927   0.888  1.2536 -0.8795 -0.2896
 4919TIP3    H214722   0.634   2.991   1.025  1.1385 -0.6756 -0.3821
 4920TIP3   OH214723   3.994   0.061   2.768  0.3750 -0.1539 -0.0370
 4920TIP3    H114724   4.005   0.086   2.676  1.3380  0.6041  0.2700
 4920TIP3    H214725   3.907   0.022   2.772  0.3191 -0.1948 -1.2708
 4921TIP3   OH214726   0.623   6.324   4.044 -0.4732 -0.0098 -0.8170
 4921TIP3    H114727   0.599   6.286   4.129  0.9921  1.1450  0.1685
 4921TIP3    H214728   0.540   6.338   4.000 -1.3809  0.5410  0.9565
 4922TIP3   OH214729   2.041   1.240   3.797 -0.6003 -1.0541  0.3596
 4922TIP3    H114730   2.075   1.295   3.868 -1.2642  1.4840 -1.1511
 4922TIP3    H214731   1.963   1.199   3.834 -2.0475  1.7202  0.6286
 4923TIP3   OH214732   4.124   3.049   4.794 -0.3656 -0.1794  0.5658
 4923TIP3    H114733   4.106   3.127   4.847 -2.6843 -1.3809  1.7200
 4923TIP3    H214734   4.202   3.011   4.834 -2.1634 -1.1747  3.4727
 4924TIP3   OH214735   3.924   5.052   5.184 -0.3478 -0.0446 -0.0990
 4924TIP3    H114736   3.861   5.015   5.245  0.2749 -0.6075  0.2232
 4924TIP3    H214737   4.009   5.038   5.226  0.0392  0.1524 -0.7926
 4925TIP3   OH214738   3.996   6.302   2.164 -0.0983 -0.4376 -0.3139
 4925TIP3    H114739   3.995   6.344   2.250  0.3820 -0.0126 -0.5104
 4925TIP3    H214740   3.917   6.249   2.162 -0.9159  0.7502 -0.2025
 4926TIP3   OH214741   2.415   3.885   4.886 -0.0007 -0.2118 -0.8730
 4926TIP3    H114742   2.481   3.817   4.897  0.2741  0.0198 -1.0558
 4926TIP3    H214743   2.466   3.964   4.866 -0.2416  0.2650  0.2729
 4927TIP3   OH214744   3.270   3.081   5.472  0.5890 -0.4569 -0.0672
 4927TIP3    H114745   3.223   3.067   5.554  1.4809  0.0494  0.5456
 4927TIP3    H214746   3.202   3.078   5.405 -0.5307  1.5139  0.8848
 4928TIP3   OH214747   2.842   1.526   2.707 -0.6468 -0.1583  0.1969
 4928TIP3    H114748   2.787   1.603   2.694 -1.4577 -0.3719  2.0331
 4928TIP3    H214749   2.794   1.454   2.666 -2.3058 -0.5132  2.5179
 4929TIP3   OH214750   6.677   6.273   1.579  0.0825  0.5789  0.2021
 4929TIP3    H114751   6.583   6.285   1.599  0.2179  1.8094  0.1838
 4929TIP3    H214752   6.721   6.328   1.643  0.7951  0.1686  0.0669
 4930TIP3   OH214753   1.073   2.723   5.047 -0.2447  0.5592 -0.2000
 4930TIP3    H114754   1.109   2.759   5.128  1.4484 -0.3310 -0.5110
 4930TIP3    H214755   1.099   2.631   5.048 -0.2097  0.5239 -1.7225
 4931TIP3   OH214756   6.783   5.534   0.167 -1.0469 -0.4794 -0.4137
 4931TIP3    H114757   6.766   5.460   0.226 -2.1454 -0.2418 -0.4242
 4931TIP3    H214758   6.843   5.498   0.101  2.0889 -0.1542  2.0485
 4932TIP3   OH214759   6.656   4.789   5.166  0.1074  0.1869  0.0521
 4932TIP3    H114760   6.745   4.823   5.176  0.2146 -0.3789  1.1727
 4932TIP3    H214761   6.635   4.751   5.251 -0.4508 -1.4806 -0.7858
 4933TIP3   OH214762   2.724   2.687   3.096 -0.2076  0.3215  0.1800
 4933TIP3    H114763   2.763   2.665   3.011  0.9453  1.8616  0.2694
 4933TIP3    H214764   2.662   2.756   3.077 -0.8532 -0.1810  0.4391
 4934TIP3   OH214765   1.172   3.232   5.491 -0.2459 -0.2415 -0.2620
 4934TIP3    H114766   1.197   3.309   5.440  0.0227  0.8939  1.5022
 4934TIP3    H214767   1.080   3.246   5.513  0.1562  0.2632  1.1796
 4935TIP3   OH214768   2.541   6.655   4.026 -0.1919 -0.0302 -0.7252
 4935TIP3    H114769   2.538   6.642   3.931 -0.7732 -0.1512 -0.6923
 4935TIP3    H214770   2.610   6.595   4.056 -0.4187 -0.4381 -1.0031
 4936TIP3   OH214771   4.354   5.524   4.533 -0.2988 -0.2547 -0.4207
 4936TIP3    H114772   4.308   5.606   4.547 -2.4762 -1.6747  1.5227
 4936TIP3    H214773   4.287   5.464   4.500  0.7533 -1.7866  0.1084
 4937TIP3   OH214774   3.217   2.567   0.855  0.1454 -0.3612 -0.6921
 4937TIP3    H114775   3.125   2.575   0.880 -0.2447  0.0382 -2.1919
 4937TIP3    H214776   3.251   2.656   0.861  0.7430 -0.6521  0.8579
 4938TIP3   OH214777   5.259   4.446   1.189  0.0719  0.2478 -0.0533
 4938TIP3    H114778   5.236   4.417   1.277  0.6364  0.5621  0.2027
 4938TIP3    H214779   5.338   4.396   1.167 -0.1761  0.0310 -0.4546
 4939TIP3   OH214780   3.486   3.468   5.242 -0.2411 -0.2464  0.3443
 4939TIP3    H114781   3.538   3.517   5.177  0.9652 -1.1399  0.5859
 4939TIP3    H214782   3.405   3.447   5.196 -0.2580  0.8826 -0.1851
 4940TIP3   OH214783   5.413   1.473   4.423  0.1176 -0.4344  0.0420
 4940TIP3    H114784   5.380   1.560   4.401  0.1117 -0.4799 -0.1300
 4940TIP3    H214785   5.481   1.456   4.357 -1.1838 -1.3633 -1.1198
 4941TIP3   OH214786   5.263   6.343   4.998  0.2488 -0.3213 -0.6323
 4941TIP3    H114787   5.206   6.270   4.975  0.3584  0.2047 -2.8367
 4941TIP3    H214788   5.306   6.367   4.915  0.3249  2.1467  0.0311
 4942TIP3   OH214789   1.013   2.965   3.987  0.4318  0.0644 -0.2739
 4942TIP3    H114790   0.928   2.973   3.942 -0.8479 -1.2246  1.7480
 4942TIP3    H214791   1.002   3.012   4.069  2.1559  0.9590 -0.5050
 4943TIP3   OH214792   0.055   1.904   5.657 -0.2425  0.3445 -0.1033
 4943TIP3    H114793   0.135   1.857   5.634  1.2813  2.8369 -0.2488
 4943TIP3    H214794   0.062   1.918   5.751  1.2953  3.4483 -0.5539
 4944TIP3   OH214795   3.374   2.773   0.041  0.0150  0.0212 -0.4118
 4944TIP3    H114796   3.299   2.832   0.036  0.8081  1.3345  1.5584
 4944TIP3    H214797   3.450   2.830   0.029  0.7352 -1.1973 -1.8872
 4945TIP3   OH214798   3.146   2.932   5.707  0.1822  0.0259 -0.1307
 4945TIP3    H114799   3.188   2.848   5.692 -0.1177 -0.1368 -0.0596
 4945TIP3    H214800   3.056   2.920   5.679 -0.6766 -0.5706  2.5447
 4946TIP3   OH214801   3.253   4.927   4.213  0.4704 -0.3869  0.1945
 4946TIP3    H114802   3.288   4.923   4.302 -0.8883 -0.5133  0.7584
 4946TIP3    H214803   3.249   4.836   4.185 -0.9255 -0.5464  0.7955
 4947TIP3   OH214804   5.614   2.695   2.629  0.0334  0.4485 -0.1345
 4947TIP3    H114805   5.572   2.626   2.679  1.1877  0.7879  1.3827
 4947TIP3    H214806   5.650   2.650   2.552 -1.6667 -0.0995 -0.6665
 4948TIP3   OH214807   1.128   3.586   2.132  0.4634  0.4524  0.0594
 4948TIP3    H114808   1.208   3.542   2.160 -0.5923 -2.2864 -0.8069
 4948TIP3    H214809   1.158   3.656   2.074  2.2615  0.7788  1.2920
 4949TIP3   OH214810   0.594   3.330   2.182 -0.7528 -0.2698 -0.3156
 4949TIP3    H114811   0.679   3.305   2.144  0.4064  3.1758 -0.3151
 4949TIP3    H214812   0.531   3.316   2.111  0.3763  0.2372 -1.4642
 4950TIP3   OH214813   6.335   0.375   2.192  0.0734  0.0472  0.4414
 4950TIP3    H114814   6.403   0.311   2.171  1.4401  0.9226  1.9995
 4950TIP3    H214815   6.343   0.441   2.123  1.4146  0.5605  1.0457
 4951TIP3   OH214816   3.454   6.433   3.356 -0.3012 -0.7622  0.1092
 4951TIP3    H114817   3.385   6.374   3.388 -0.5034 -2.4363 -3.0249
 4951TIP3    H214818   3.535   6.383   3.368 -0.4728 -1.8195 -2.5749
 4952TIP3   OH214819   0.478   2.839   0.091 -0.4314 -0.1853 -0.3403
 4952TIP3    H114820   0.406   2.880   0.139 -0.5670 -0.1593 -0.5677
 4952TIP3    H214821   0.443   2.822   0.004  0.0567  0.4799 -0.6742
 4953TIP3   OH214822   5.637   6.272   0.877  0.1439  0.1567  0.7472
 4953TIP3    H114823   5.628   6.360   0.914 -0.1966  0.2672  0.4050
 4953TIP3    H214824   5.703   6.230   0.931 -0.7173  0.1416  1.8281
 4954TIP3   OH214825   6.388   0.463   0.148  0.3895 -0.3831 -0.0390
 4954TIP3    H114826   6.419   0.422   0.067 -0.3154  0.2993 -0.6769
 4954TIP3    H214827   6.293   0.456   0.142  0.3540 -1.3768  1.3063
 4955TIP3   OH214828   3.840   4.561   1.821 -0.5999  0.2595 -0.6535
 4955TIP3    H114829   3.872   4.488   1.768 -0.4620  0.4775 -0.8757
 4955TIP3    H214830   3.811   4.521   1.902  0.6957  0.0898 -0.2451
 4956TIP3   OH214831   4.447   2.910   5.484 -0.0358  0.4175 -0.5114
 4956TIP3    H114832   4.387   2.984   5.473  1.2639  1.5549 -0.3225
 4956TIP3    H214833   4.417   2.867   5.564 -0.5670  0.9867 -0.3908
 4957TIP3   OH214834   2.603   6.041   4.342  0.7423 -0.0833  0.2165
 4957TIP3    H114835   2.561   5.958   4.324  0.3583  0.0731  0.3789
 4957TIP3    H214836   2.638   6.031   4.431 -0.6107  0.4444  0.8328
 4958TIP3   OH214837   2.033   5.166   2.878 -0.5053 -0.2595 -0.3019
 4958TIP3    H114838   1.987   5.141   2.958  0.1662  1.2227  0.5866
 4958TIP3    H214839   2.039   5.084   2.828  0.2805 -1.5854  1.7842
 4959TIP3   OH214840   4.303   2.428   5.360  0.1834 -0.2290  0.3250
 4959TIP3    H114841   4.397   2.417   5.345  0.2293 -0.7107  0.9455
 4959TIP3    H214842   4.287   2.520   5.342  1.0810  0.2456  1.7732
 4960TIP3   OH214843   5.780   6.047   0.434  0.0902 -0.0257  0.7052
 4960TIP3    H114844   5.717   6.081   0.370  0.5411 -0.2985  0.1122
 4960TIP3    H214845   5.755   5.956   0.446  0.0249  0.0166  0.9017
 4961TIP3   OH214846   5.106   5.112   2.006 -0.3681 -0.1323  0.3964
 4961TIP3    H114847   5.060   5.081   2.084 -0.8503 -0.2902  0.0626
 4961TIP3    H214848   5.050   5.182   1.973 -1.4251 -1.5688 -1.0784
 4962TIP3   OH214849   6.887   1.032   2.538  0.4687  0.7639 -0.0725
 4962TIP3    H114850   6.817   1.000   2.595 -0.4220 -1.0566 -2.0658
 4962TIP3    H214851   6.965   1.033   2.594 -0.6638  0.6472  1.5875
 4963TIP3   OH214852   4.846   2.754   1.723  0.0787 -0.0353 -0.1632
 4963TIP3    H114853   4.752   2.763   1.712 -0.1402 -0.5414  1.1592
 4963TIP3    H214854   4.878   2.843   1.738 -0.4095 -0.0425  0.9566
 4964TIP3   OH214855   5.612   2.355   3.341  0.0665 -0.5217 -0.0487
 4964TIP3    H114856   5.613   2.347   3.436 -2.7222 -0.3146  0.0846
 4964TIP3    H214857   5.617   2.265   3.309  1.9901 -0.5440  0.2050
 4965TIP3   OH214858   1.242   1.188   4.783 -0.4334 -0.1804  0.3945
 4965TIP3    H114859   1.315   1.250   4.793  2.0526 -2.2442 -2.7949
 4965TIP3    H214860   1.259   1.120   4.848 -0.0420 -0.1852  0.2897
 4966TIP3   OH214861   4.986   6.200   0.354 -0.1418 -0.0509 -0.3302
 4966TIP3    H114862   4.937   6.259   0.412 -0.0115  0.6776 -0.9506
 4966TIP3    H214863   5.001   6.122   0.408  0.5082  0.8395  0.8349
 4967TIP3   OH214864   3.603   5.974   4.022 -0.2986 -0.1873 -0.0224
 4967TIP3    H114865   3.681   5.975   3.966 -0.3867 -2.6278 -0.3345
 4967TIP3    H214866   3.533   6.008   3.966  0.3079  0.9316 -0.1212
 4968TIP3   OH214867   4.935   1.652   5.512  0.4220 -0.9511 -0.2771
 4968TIP3    H114868   4.853   1.696   5.532  1.5952  0.9269  0.6759
 4968TIP3    H214869   4.910   1.577   5.458 -1.5857  1.9182 -3.8079
 4969TIP3   OH214870   0.645   4.099   5.803 -0.1342  0.4137 -0.3004
 4969TIP3    H114871   0.587   4.174   5.816  0.5308  0.6882  1.1971
 4969TIP3    H214872   0.732   4.137   5.792  0.7294 -0.1438  3.3883
 4970TIP3   OH214873   1.551   6.364   3.927 -0.2948  0.3357  0.2652
 4970TIP3    H114874   1.501   6.285   3.946  0.1365  0.4651  2.1469
 4970TIP3    H214875   1.632   6.354   3.976  0.2554  1.4394 -0.3735
 4971TIP3   OH214876   0.055   1.405   3.446  0.6569 -0.0828 -0.1679
 4971TIP3    H114877   0.028   1.495   3.433  2.4062  0.5217  0.0780
 4971TIP3    H214878   0.146   1.411   3.476  1.4895 -1.9830 -2.0080
 4972TIP3   OH214879   1.058   2.575   4.303 -0.2333  0.5381  0.3092
 4972TIP3    H114880   1.135   2.604   4.353  1.0694 -0.8300 -0.8275
 4972TIP3    H214881   1.070   2.613   4.216 -1.7080  1.6336  0.5350
 4973TIP3   OH214882   4.182   2.186   0.727 -0.1024 -0.4434  0.0979
 4973TIP3    H114883   4.176   2.229   0.812 -0.3496  2.9236 -1.4737
 4973TIP3    H214884   4.273   2.199   0.699 -0.1193 -1.1769 -0.3427
 4974TIP3   OH214885   6.583   1.244   5.342  0.4344  0.8155  0.4440
 4974TIP3    H114886   6.672   1.216   5.366  1.1446  0.5947 -2.1545
 4974TIP3    H214887   6.557   1.184   5.273 -0.6568  2.5546 -0.7210
 4975TIP3   OH214888   3.332   1.664   1.378  0.3727 -0.2701  0.0075
 4975TIP3    H114889   3.407   1.628   1.331  0.2944  0.9974 -1.1585
 4975TIP3    H214890   3.256   1.637   1.327  0.2600  0.8111 -0.4316
 4976TIP3   OH214891   6.022   5.183   3.415  0.2685 -0.1547 -0.6138
 4976TIP3    H114892   6.038   5.264   3.366  1.1705 -0.1962 -0.3947
 4976TIP3    H214893   5.978   5.212   3.495 -0.2396  0.0216 -0.9503
 4977TIP3   OH214894   4.759   0.835   0.818 -0.0177 -0.3094  0.1044
 4977TIP3    H114895   4.830   0.898   0.806  0.0942 -0.8328 -2.6618
 4977TIP3    H214896   4.804   0.754   0.842  0.0398  0.0104  1.1444
 4978TIP3   OH214897   3.191   0.055   4.185  0.0287 -0.7164  0.1182
 4978TIP3    H114898   3.177   0.122   4.119  0.9472  0.1681  0.7901
 4978TIP3    H214899   3.285   0.034   4.178  0.7951  1.2763  2.8050
 4979TIP3   OH214900   6.192   1.128   5.458  0.0017 -0.3313 -0.4249
 4979TIP3    H114901   6.278   1.170   5.463  0.7529 -1.9352  1.2949
 4979TIP3    H214902   6.202   1.062   5.389 -0.1290  0.0047 -0.7739
 4980TIP3   OH214903   0.756   6.441   0.829 -0.4240 -0.5740  0.0097
 4980TIP3    H114904   0.735   6.426   0.737 -0.3274  0.6148 -0.2188
 4980TIP3    H214905   0.737   6.358   0.872  0.4467 -1.4565 -1.2421
 4981TIP3   OH214906   3.782   2.427   0.454 -0.9238  0.2132  0.5903
 4981TIP3    H114907   3.775   2.340   0.494 -0.0519 -0.8374 -1.3433
 4981TIP3    H214908   3.692   2.449   0.429 -0.9186 -1.1888 -0.8540
 4982TIP3   OH214909   2.953   6.261   2.002  0.0897  0.4111  0.5880
 4982TIP3    H114910   2.919   6.329   1.944  2.6655  1.7319  0.5129
 4982TIP3    H214911   2.979   6.190   1.943  0.5470  0.7748  0.3518
 4983TIP3   OH214912   5.915   6.666   4.989 -0.2608  0.3932  0.3373
 4983TIP3    H114913   5.856   6.596   5.018 -0.3134 -0.2084 -1.1719
 4983TIP3    H214914   5.959   6.630   4.912 -1.3128  2.5128 -1.3618
 4984TIP3   OH214915   0.198   4.552   5.068  0.1572  0.8016  0.1148
 4984TIP3    H114916   0.189   4.472   5.119  1.4971  0.9360  0.6089
 4984TIP3    H214917   0.207   4.522   4.977 -0.2679  0.4468  0.1897
 4985TIP3   OH214918   5.572   3.405   0.036 -0.0343 -0.1311  0.1191
 4985TIP3    H114919   5.583   3.357  -0.047 -1.7894 -1.3444  0.5253
 4985TIP3    H214920   5.477   3.406   0.050 -0.1058  3.4106  0.2497
 4986TIP3   OH214921   2.424   1.812   3.471 -0.0957 -0.0206 -0.6785
 4986TIP3    H114922   2.342   1.802   3.518  0.2264 -0.8672 -0.2849
 4986TIP3    H214923   2.441   1.906   3.474 -0.6823  0.0783 -0.1381
 4987TIP3   OH214924   5.603   1.109   0.389 -0.1701 -0.0951 -0.4230
 4987TIP3    H114925   5.585   1.036   0.330  1.1752 -0.9566  0.1784
 4987TIP3    H214926   5.658   1.071   0.458 -1.8455  0.8245  1.5144
 4988TIP3   OH214927   2.282   3.249   2.756 -0.2263 -0.4846  0.2046
 4988TIP3    H114928   2.266   3.343   2.743 -1.2545 -0.1531  3.1564
 4988TIP3    H214929   2.200   3.207   2.730  0.4606 -0.7291 -1.7815
 4989TIP3   OH214930   3.041   4.352   2.672 -0.6290  0.3820  0.3190
 4989TIP3    H114931   3.083   4.346   2.586 -1.5106 -0.8775 -0.0519
 4989TIP3    H214932   3.024   4.446   2.684  0.9025  0.7515 -0.1722
 4990TIP3   OH214933   3.692   0.175   1.919  0.1971 -0.6401  0.3893
 4990TIP3    H114934   3.737   0.156   2.001  1.1622 -0.7868 -0.1533
 4990TIP3    H214935   3.637   0.251   1.939  1.9049  0.5864  0.6971
 4991TIP3   OH214936   2.326   2.175   1.230  0.0153  0.8568 -0.0095
 4991TIP3    H114937   2.324   2.262   1.191  0.0451  0.8009 -0.1341
 4991TIP3    H214938   2.327   2.191   1.325  0.9945  1.0061 -0.0357
 4992TIP3   OH214939   4.461   1.440   0.864 -0.7935 -0.3180 -0.1225
 4992TIP3    H114940   4.480   1.371   0.800 -0.9912  0.1543 -0.7017
 4992TIP3    H214941   4.402   1.500   0.817  1.4820  1.7006 -0.5809
 4993TIP3   OH214942   6.591   0.421   0.458  0.0827  0.3378  0.1665
 4993TIP3    H114943   6.564   0.504   0.420 -1.4505  0.1208  0.7114
 4993TIP3    H214944   6.512   0.368   0.461  0.8625 -0.8669  0.5515
 4994TIP3   OH214945   1.526   6.331   1.277 -0.2988  0.0027  0.0034
 4994TIP3    H114946   1.577   6.269   1.224 -0.3963 -0.6484  0.6610
 4994TIP3    H214947   1.446   6.345   1.227  0.7168  1.4808 -1.3333
 4995TIP3   OH214948   0.232   1.348   5.222  0.1411  0.0700  0.9292
 4995TIP3    H114949   0.327   1.358   5.223  0.3132 -0.7448 -1.2773
 4995TIP3    H214950   0.212   1.301   5.304  1.5598  0.6269  1.6274
 4996TIP3   OH214951   3.696   3.452   0.835 -0.2447 -0.0608 -0.3473
 4996TIP3    H114952   3.693   3.527   0.894 -2.0123 -0.8857  0.6832
 4996TIP3    H214953   3.785   3.417   0.846 -0.0273  0.7304  0.6096
 4997TIP3   OH214954   4.642   6.488   5.758  1.0008 -0.4718  0.2514
 4997TIP3    H114955   4.607   6.565   5.804 -0.0213  0.1738 -1.5140
 4997TIP3    H214956   4.682   6.524   5.679  0.8664 -1.7404 -0.4156
 4998TIP3   OH214957   4.288   1.506   0.431 -0.6831 -0.0892  0.4293
 4998TIP3    H114958   4.330   1.553   0.359 -1.1707  2.8995  1.9157
 4998TIP3    H214959   4.225   1.449   0.389 -0.0960  0.6400 -1.5532
 4999TIP3   OH214960   3.350   2.800   5.483  0.1709 -0.2451 -0.2980
 4999TIP3    H114961   3.266   2.809   5.438  1.6601  0.1708 -3.2276
 4999TIP3    H214962   3.383   2.889   5.492 -0.1357 -0.2916  1.9239
 5000TIP3   OH214963   2.848   6.245   1.457 -0.1340  0.1382 -0.4233
 5000TIP3    H114964   2.804   6.222   1.539 -0.8725 -1.8363 -1.3003
 5000TIP3    H214965   2.881   6.162   1.423  1.9415  1.1901 -1.1581
 5001TIP3   OH214966   1.162   2.236   1.681  0.1907 -0.2203  0.0440
 5001TIP3    H114967   1.137   2.220   1.772  0.1050 -2.5012 -0.3155
 5001TIP3    H214968   1.243   2.285   1.686 -0.4815  0.8280  1.3142
 5002TIP3   OH214969   1.345   6.462   5.824  0.3283  0.3376 -0.0242
 5002TIP3    H114970   1.390   6.430   5.902  1.8911 -1.2686 -1.4977
 5002TIP3    H214971   1.415   6.494   5.767 -0.8603  2.4281 -0.3952
 5003TIP3   OH214972   1.662   1.009   5.117  0.3418  0.6926 -0.2935
 5003TIP3    H114973   1.749   0.990   5.083  0.9368  1.5722  0.6929
 5003TIP3    H214974   1.664   1.102   5.137 -0.3461  0.4403  1.0782
 5004TIP3   OH214975   4.982   2.769   5.736 -0.0950 -0.4428  0.1240
 5004TIP3    H114976   5.022   2.684   5.719  0.8130 -0.4341  1.9147
 5004TIP3    H214977   5.036   2.831   5.687 -0.4165 -0.8269 -0.7326
 5005TIP3   OH214978   6.283   1.697   3.416 -0.5488 -0.0495 -0.5981
 5005TIP3    H114979   6.280   1.781   3.370  3.1127  0.6486  0.0595
 5005TIP3    H214980   6.228   1.709   3.493 -0.5564  1.5626 -0.8317
 5006TIP3   OH214981   5.328   1.238   0.895  0.2006 -0.5622 -0.1288
 5006TIP3    H114982   5.412   1.212   0.932  1.7599  1.7666 -1.7134
 5006TIP3    H214983   5.318   1.184   0.816 -1.1747 -2.6876  1.3885
 5007TIP3   OH214984   2.458   1.764   5.323  0.3335  0.4250 -0.1768
 5007TIP3    H114985   2.381   1.805   5.283 -0.5324 -0.2223  0.7943
 5007TIP3    H214986   2.455   1.673   5.292  0.3570  0.2417  0.3564
 5008TIP3   OH214987   5.413   4.537   5.518  0.5807  0.0220  0.1259
 5008TIP3    H114988   5.471   4.582   5.457  0.2919  0.9760  0.5294
 5008TIP3    H214989   5.347   4.496   5.462  0.4004  0.7611 -0.2215
 5009TIP3   OH214990   1.178   6.469   0.359  0.2080 -0.1620 -0.3297
 5009TIP3    H114991   1.165   6.389   0.308  1.1507 -1.7866  1.8004
 5009TIP3    H214992   1.241   6.520   0.309  1.0581 -1.6475 -0.8213
 5010TIP3   OH214993   0.207   2.327   3.497  0.0262  0.2472 -0.3622
 5010TIP3    H114994   0.231   2.393   3.432  0.6617  0.6681  0.2795
 5010TIP3    H214995   0.134   2.280   3.458 -0.0481  0.9421 -1.0865
 5011TIP3   OH214996   5.879   1.723   4.043  0.0019 -0.5369 -0.4759
 5011TIP3    H114997   5.785   1.714   4.023  0.3166 -0.5103 -2.0866
 5011TIP3    H214998   5.900   1.643   4.091 -1.5079  0.8730  2.8884
 5012TIP3   OH214999   2.000   2.637   4.148 -0.2711  0.6463  0.2187
 5012TIP3    H115000   1.976   2.665   4.060  1.6755  1.4941 -0.0942
 5012TIP3    H215001   1.966   2.706   4.205 -0.9755  0.4244  0.0680
 5013TIP3   OH215002   0.533   6.199   5.629 -0.5484 -0.1192 -0.1528
 5013TIP3    H115003   0.622   6.169   5.609 -0.4822  0.2266 -0.3952
 5013TIP3    H215004   0.531   6.290   5.599 -1.1454 -0.2801 -0.6335
 5014TIP3   OH215005   0.400   5.228   2.348  0.5203 -0.6108 -0.0312
 5014TIP3    H115006   0.399   5.268   2.261  0.4664  0.5325  0.4728
 5014TIP3    H215007   0.492   5.212   2.366  0.8233  1.6518  0.7635
 5015TIP3   OH215008   3.880   4.592   3.160 -0.8510 -0.0837 -0.4505
 5015TIP3    H115009   3.822   4.621   3.229 -0.9911  1.4363 -1.1667
 5015TIP3    H215010   3.905   4.672   3.113  1.1290 -0.7739 -0.7025
 5016TIP3   OH215011   3.019   2.280   4.474 -0.4393 -0.0568 -0.1895
 5016TIP3    H115012   2.999   2.246   4.561  2.3656 -0.0750  0.5411
 5016TIP3    H215013   3.082   2.351   4.490  0.2780 -0.1759 -2.2078
 5017TIP3   OH215014   1.455   3.173   3.593  0.2208 -0.3079  0.0452
 5017TIP3    H115015   1.506   3.143   3.517  0.2342 -0.4041  0.0918
 5017TIP3    H215016   1.506   3.143   3.669  1.0957  1.2564  0.1136
 5018TIP3   OH215017   4.393   0.528   5.267  0.2621 -0.1305 -0.1788
 5018TIP3    H115018   4.474   0.539   5.218 -0.1116  1.2007 -0.5128
 5018TIP3    H215019   4.414   0.560   5.355  0.4863 -1.1085  0.1465
 5019TIP3   OH215020   4.911   4.840   1.836 -0.7768 -0.1457  0.5191
 5019TIP3    H115021   4.948   4.752   1.834 -1.8972 -0.6111 -0.7974
 5019TIP3    H215022   4.873   4.849   1.923  1.5331  0.0190  1.6112
 5020TIP3   OH215023   4.387   3.860   0.859 -0.2192  0.4970  0.2625
 5020TIP3    H115024   4.398   3.924   0.929  0.4797 -1.3927  1.9934
 5020TIP3    H215025   4.476   3.834   0.837 -0.4928  0.0111 -0.2937
 5021TIP3   OH215026   2.688   3.350   4.416 -0.0823 -0.2896 -0.1547
 5021TIP3    H115027   2.693   3.267   4.463 -1.6912 -0.6755 -0.5929
 5021TIP3    H215028   2.595   3.360   4.395  0.1401  1.4274 -0.4735
 5022TIP3   OH215029   6.475   5.268   4.695  0.6238  0.2662  0.1456
 5022TIP3    H115030   6.559   5.231   4.668  0.4096 -0.3533  0.3112
 5022TIP3    H215031   6.444   5.316   4.618  0.0335 -1.4533 -0.7358
 5023TIP3   OH215032   6.875   2.665   3.895 -0.3617  0.2608  0.0527
 5023TIP3    H115033   6.830   2.590   3.935 -1.9824 -0.1654 -2.3351
 5023TIP3    H215034   6.961   2.666   3.936 -0.3688 -2.7905  0.3717
 5024TIP3   OH215035   1.008   6.218   5.763 -0.1758  0.1559  0.1789
 5024TIP3    H115036   0.945   6.194   5.832 -0.2401  1.6244  0.6728
 5024TIP3    H215037   1.029   6.309   5.782  0.2685  0.4063 -1.4201
 5025TIP3   OH215038   5.386   2.657   3.643  0.0504  0.2279 -0.2248
 5025TIP3    H115039   5.429   2.613   3.570  0.0214  3.3925 -2.3484
 5025TIP3    H215040   5.298   2.676   3.611  0.2553  2.2969  0.3158
 5026TIP3   OH215041   5.292   5.414   2.685  0.5813 -0.4087  0.2030
 5026TIP3    H115042   5.251   5.444   2.766 -0.4124 -0.9552 -0.0717
 5026TIP3    H215043   5.285   5.319   2.689  1.5425 -0.4895 -0.0154
 5027TIP3   OH215044   5.380   4.096   1.342  0.3289 -0.0040 -0.0010
 5027TIP3    H115045   5.376   4.027   1.275  1.9101  0.5590 -0.7316
 5027TIP3    H215046   5.410   4.174   1.294 -3.2441  1.7994  0.4075
 5028TIP3   OH215047   6.416   0.208   4.753 -0.1678  0.2240  0.4542
 5028TIP3    H115048   6.427   0.238   4.843  1.7604 -0.2583  0.4262
 5028TIP3    H215049   6.380   0.120   4.761 -0.7766  0.4947  0.7204
 5029TIP3   OH215050   5.540   2.439   0.170  0.1837 -0.2699 -0.0875
 5029TIP3    H115051   5.619   2.387   0.153 -0.0989 -0.1580 -1.8884
 5029TIP3    H215052   5.469   2.375   0.166 -0.0381  0.0285 -0.9165
 5030TIP3   OH215053   5.156   4.290   4.003  0.2682 -0.1302  0.2271
 5030TIP3    H115054   5.158   4.309   4.097  0.2808 -1.2861  0.4713
 5030TIP3    H215055   5.066   4.305   3.976  0.0761 -0.6079  0.6031
 5031TIP3   OH215056   3.528   1.418   5.906 -0.0929 -0.0381  0.0945
 5031TIP3    H115057   3.588   1.470   5.853 -0.2483 -1.9628 -2.1463
 5031TIP3    H215058   3.519   1.335   5.859 -3.0138 -0.5690  1.3172
 5032TIP3   OH215059   6.226   4.184   5.551  0.6745 -0.2329  0.2203
 5032TIP3    H115060   6.186   4.117   5.607 -0.7263  0.2643 -0.1429
 5032TIP3    H215061   6.282   4.135   5.491  0.1628 -1.0243  0.3730
 5033TIP3   OH215062   4.878   3.656   4.488  0.2178 -0.2450 -0.3285
 5033TIP3    H115063   4.824   3.632   4.413 -0.3160 -0.9289  0.2617
 5033TIP3    H215064   4.958   3.604   4.478  1.4051  1.7156 -1.9079
 5034TIP3   OH215065   6.253   3.132   4.754  0.5503 -0.4871 -0.0860
 5034TIP3    H115066   6.311   3.093   4.689 -0.7448 -1.3475 -0.7659
 5034TIP3    H215067   6.239   3.063   4.818 -0.5754 -0.6636 -0.5066
 5035TIP3   OH215068   1.875   6.300   2.169 -0.2012  0.4718 -0.3174
 5035TIP3    H115069   1.958   6.347   2.158  0.1835 -0.3016 -0.9138
 5035TIP3    H215070   1.826   6.319   2.089 -1.1269  1.8988  0.5579
 5036TIP3   OH215071   2.578   5.746   5.122 -0.4442  0.4861  0.2355
 5036TIP3    H115072   2.674   5.742   5.122 -0.3861  1.5802 -0.5203
 5036TIP3    H215073   2.557   5.826   5.073 -1.7718 -0.5657 -0.9959
 5037TIP3   OH215074   4.062   5.752   3.459 -0.1653  0.0862 -0.4367
 5037TIP3    H115075   4.100   5.832   3.424  0.2965  0.2208  0.3396
 5037TIP3    H215076   3.968   5.762   3.450 -0.0964  0.6335 -0.5241
 5038TIP3   OH215077   4.120   6.589   5.257  0.0200 -1.1549 -0.1786
 5038TIP3    H115078   4.204   6.605   5.214 -0.7767 -0.3904 -1.5601
 5038TIP3    H215079   4.082   6.516   5.209 -0.9717 -0.1680 -0.9575
 5039TIP3   OH215080   2.255   3.605   5.129 -0.3657 -0.1039 -0.3760
 5039TIP3    H115081   2.207   3.533   5.169 -1.1988 -1.0701 -2.9100
 5039TIP3    H215082   2.239   3.680   5.186 -0.5961 -1.5883  1.5906
 5040TIP3   OH215083   2.154   1.762   3.567 -0.1361 -0.2005 -0.5182
 5040TIP3    H115084   2.086   1.768   3.500 -0.7982  0.1267  0.1633
 5040TIP3    H215085   2.129   1.827   3.633  0.4071 -0.6283  0.1264
 5041TIP3   OH215086   6.063   1.644   4.346 -0.1234 -0.3934 -0.0235
 5041TIP3    H115087   6.036   1.733   4.322  0.6351 -0.1788 -0.0962
 5041TIP3    H215088   6.142   1.629   4.294  0.8740 -0.3789  1.4325
 5042TIP3   OH215089   4.949   2.822   4.139 -0.0579 -0.0549  0.1546
 5042TIP3    H115090   4.934   2.914   4.116 -0.4843  0.2521  1.5131
 5042TIP3    H215091   5.004   2.826   4.217 -0.5048 -0.9310  0.5297
 5043TIP3   OH215092   0.891   0.296   5.072  0.4576  0.3856  0.4554
 5043TIP3    H115093   0.877   0.374   5.019 -0.0872  0.0872  0.1523
 5043TIP3    H215094   0.896   0.225   5.008 -1.4551 -0.1573  0.8515
 5044TIP3   OH215095   0.076   0.174   0.281 -0.5738  0.4255 -0.7124
 5044TIP3    H115096   0.060   0.257   0.325  0.7093  0.7714 -0.8574
 5044TIP3    H215097  -0.004   0.157   0.231 -2.0072  0.1201  1.5294
 5045TIP3   OH215098   4.099   4.373   3.708 -0.3505  0.3306 -0.0700
 5045TIP3    H115099   4.036   4.410   3.647 -0.1396 -1.2593 -1.3036
 5045TIP3    H215100   4.047   4.313   3.762 -0.2020  0.3248  0.0671
 5046TIP3   OH215101   0.862   2.232   1.691  0.0183  0.0701 -0.5425
 5046TIP3    H115102   0.947   2.195   1.664 -0.7352 -3.1723  1.0541
 5046TIP3    H215103   0.803   2.211   1.619 -0.1580 -0.9084 -0.1286
 5047TIP3   OH215104   4.503   1.610   4.427 -0.1931  0.4233 -0.2215
 5047TIP3    H115105   4.482   1.579   4.516 -1.9676  1.3064 -0.2825
 5047TIP3    H215106   4.417   1.620   4.385  0.5279  1.6956 -1.4511
 5048TIP3   OH215107   1.276   5.654   5.883 -0.5699  0.4848  0.1149
 5048TIP3    H115108   1.295   5.721   5.948  0.5123 -1.2317  1.6806
 5048TIP3    H215109   1.254   5.702   5.804 -0.9595  2.6530  1.4799
 5049TIP3   OH215110   1.103   3.227   2.328 -0.2695  0.4236 -0.3370
 5049TIP3    H115111   1.023   3.244   2.379 -0.7010  1.2351 -1.2483
 5049TIP3    H215112   1.173   3.231   2.393 -0.8873  0.5016  0.3498
 5050TIP3   OH215113   0.557   1.749   0.940  0.1965  0.2825  0.2610
 5050TIP3    H115114   0.477   1.700   0.961 -1.3348  2.2479 -0.5852
 5050TIP3    H215115   0.586   1.784   1.024  0.4438 -0.7811  0.6391
 5051TIP3   OH215116   4.273   2.303   3.995 -0.0066  0.1019 -0.4219
 5051TIP3    H115117   4.276   2.284   4.088 -0.1854 -0.6645 -0.5671
 5051TIP3    H215118   4.279   2.399   3.989 -1.4359  0.2564  0.4300
 5052TIP3   OH215119   1.763   3.527   1.543  0.3844  0.4696  0.0845
 5052TIP3    H115120   1.706   3.492   1.611  1.6322 -2.6881 -0.3183
 5052TIP3    H215121   1.708   3.588   1.494 -1.3960  0.5894  2.1090
 5053TIP3   OH215122   0.725   4.553   4.345  0.6031  0.0400  0.1767
 5053TIP3    H115123   0.633   4.556   4.320 -0.0424 -2.5550  1.8344
 5053TIP3    H215124   0.728   4.597   4.430  1.2050  1.2754 -0.4449
 5054TIP3   OH215125   0.948   3.760   3.960  0.3096  0.2903  0.8699
 5054TIP3    H115126   0.917   3.672   3.935 -0.1082  0.4945  0.6632
 5054TIP3    H215127   0.988   3.794   3.880  1.4963 -0.1514  1.2596
 5055TIP3   OH215128   6.191   1.138   2.984  0.1204 -0.4174 -0.0935
 5055TIP3    H115129   6.100   1.124   3.011 -0.3035 -0.9712 -1.7147
 5055TIP3    H215130   6.199   1.232   2.973 -0.5437 -0.4483 -0.8704
 5056TIP3   OH215131   1.455   3.043   5.520 -0.1750  0.2772 -0.5911
 5056TIP3    H115132   1.541   3.062   5.483 -0.1957  0.4782 -0.5397
 5056TIP3    H215133   1.395   3.048   5.446 -0.5350  2.8100 -0.2296
 5057TIP3   OH215134   6.078   0.651   2.306 -0.3263 -0.0900 -0.2571
 5057TIP3    H115135   5.994   0.696   2.318  0.1475  1.1734 -1.3273
 5057TIP3    H215136   6.054   0.563   2.277 -1.2898  0.1194 -0.1378
 5058TIP3   OH215137   5.951   5.120   1.295  0.4657 -0.4383  0.5782
 5058TIP3    H115138   5.930   5.059   1.224  2.0764 -0.6247  0.2264
 5058TIP3    H215139   6.040   5.148   1.276 -0.3109  2.3185  0.5133
 5059TIP3   OH215140   6.785   3.088   4.068  0.4438  0.1279  0.3283
 5059TIP3    H115141   6.862   3.102   4.013 -1.0053 -0.6335 -2.0727
 5059TIP3    H215142   6.788   3.157   4.133  2.3304  1.0417 -0.6589
 5060TIP3   OH215143   2.959   2.030   1.006 -0.6412  0.3220  0.3003
 5060TIP3    H115144   2.925   1.993   1.087 -1.6487  1.2438  0.3249
 5060TIP3    H215145   3.033   2.084   1.034 -1.7008  1.5858  0.7961
 5061TIP3   OH215146   2.980   1.179   1.683 -0.4436  0.6125 -0.0593
 5061TIP3    H115147   3.056   1.188   1.740 -1.0723 -1.3376  1.1837
 5061TIP3    H215148   2.978   1.261   1.632  3.1690  0.2317 -1.0592
 5062TIP3   OH215149   0.943   6.142   3.721  0.1975 -0.1922 -0.1294
 5062TIP3    H115150   0.972   6.134   3.630  1.1301  1.3466 -0.0000
 5062TIP3    H215151   0.961   6.056   3.759  1.1521 -0.4148 -1.0392
 5063TIP3   OH215152   4.271   5.036   2.559  0.1006 -0.5606 -0.4000
 5063TIP3    H115153   4.289   5.064   2.649  0.8024  1.5053 -1.1316
 5063TIP3    H215154   4.247   5.116   2.513 -0.8870 -1.6694 -1.9336
 5064TIP3   OH215155   3.808   5.544   0.266 -0.5003 -0.2711  0.2676
 5064TIP3    H115156   3.785   5.568   0.355 -1.0821 -0.1516  0.0861
 5064TIP3    H215157   3.734   5.572   0.213 -0.4010 -0.8389 -0.1819
 5065TIP3   OH215158   0.978   1.406   2.666 -0.4655  0.2532 -0.1766
 5065TIP3    H115159   1.070   1.423   2.648 -0.2900 -0.5103  0.0111
 5065TIP3    H215160   0.959   1.456   2.745  0.1894 -0.8408  0.6822
 5066TIP3   OH215161   4.766   4.467   4.794 -0.4568 -0.3450  0.1282
 5066TIP3    H115162   4.771   4.473   4.890  1.0091 -0.8623  0.0969
 5066TIP3    H215163   4.681   4.426   4.778 -0.4549 -0.8328  1.2400
 5067TIP3   OH215164   4.935   6.523   3.124  0.0740 -0.0735 -0.4988
 5067TIP3    H115165   4.941   6.608   3.081 -1.6413 -0.1468 -0.9628
 5067TIP3    H215166   5.021   6.510   3.165  1.3530  0.5534 -2.8364
 5068TIP3   OH215167   6.853   1.820   4.529 -0.1467  0.7562 -0.4133
 5068TIP3    H115168   6.774   1.874   4.531 -0.3338  0.4967 -0.6920
 5068TIP3    H215169   6.826   1.740   4.485 -0.2739 -0.2056  1.3378
 5069TIP3   OH215170   6.756   0.703   3.444  0.4227  0.2296  0.5035
 5069TIP3    H115171   6.672   0.698   3.489  0.8721 -0.6386  1.2754
 5069TIP3    H215172   6.797   0.783   3.479  0.4337 -0.0138  1.0507
 5070TIP3   OH215173   3.342   2.373   1.896 -0.5066 -0.1497 -0.1784
 5070TIP3    H115174   3.375   2.431   1.827  0.1268  1.3996  1.3568
 5070TIP3    H215175   3.420   2.328   1.928 -0.5516  0.2411  0.4971
 5071TIP3   OH215176   5.676   0.805   3.391 -0.0351  0.0163  0.3991
 5071TIP3    H115177   5.591   0.821   3.349  0.1603  1.0186  0.3608
 5071TIP3    H215178   5.721   0.745   3.332 -1.0253 -1.1854  0.8288
 5072TIP3   OH215179   0.038   5.975   0.920 -0.1580  0.1823  0.1589
 5072TIP3    H115180   0.105   5.958   0.853 -0.6615  1.2981 -0.6516
 5072TIP3    H215181   0.051   5.905   0.984  0.1972 -1.0659 -1.2102
 5073TIP3   OH215182   4.915   2.864   3.670  0.0430 -0.8510 -0.0024
 5073TIP3    H115183   5.002   2.857   3.710  0.6552  0.4298 -0.9770
 5073TIP3    H215184   4.934   2.879   3.577 -1.2424 -1.0215 -0.3068
 5074TIP3   OH215185   0.084   3.803   4.827  0.0055 -0.3085  0.5080
 5074TIP3    H115186   0.060   3.712   4.806 -0.6027 -0.5514  2.1712
 5074TIP3    H215187   0.173   3.796   4.862 -0.3940 -0.3883  1.5145
 5075TIP3   OH215188   2.078   6.215   3.803 -0.2736 -0.0705  0.4905
 5075TIP3    H115189   2.006   6.262   3.846  1.5102  2.9956  0.4700
 5075TIP3    H215190   2.115   6.160   3.872 -1.9041 -0.8755  0.7795
 5076TIP3   OH215191   6.305   2.328   2.507  0.7676  0.4666 -0.0033
 5076TIP3    H115192   6.305   2.378   2.588 -0.1319  0.6346 -0.1001
 5076TIP3    H215193   6.349   2.246   2.529  1.1868  0.8119  0.4585
 5077TIP3   OH215194   5.143   4.507   3.682  0.2241  0.1454  0.5765
 5077TIP3    H115195   5.233   4.539   3.677  0.4584 -0.4077  1.1165
 5077TIP3    H215196   5.102   4.560   3.751  0.8260 -1.1730  2.0001
 5078TIP3   OH215197   6.458   2.053   3.616 -0.3748 -0.3128  0.6789
 5078TIP3    H115198   6.550   2.058   3.642  0.7621 -4.1846 -1.8425
 5078TIP3    H215199   6.443   2.132   3.565  1.8976 -0.1124  0.2513
 5079TIP3   OH215200   6.311   4.657   2.694 -0.2334  0.1942  0.0318
 5079TIP3    H115201   6.253   4.720   2.651 -1.9493 -1.6163 -0.4582
 5079TIP3    H215202   6.330   4.697   2.779 -0.1342  1.9601 -0.7640
 5080TIP3   OH215203   6.512   0.195   2.073  0.8504  0.1920  0.2932
 5080TIP3    H115204   6.530   0.120   2.016  0.8406  0.5938 -0.2491
 5080TIP3    H215205   6.505   0.157   2.161  2.1184 -0.2685  0.2171
 5081TIP3   OH215206   4.217   4.615   3.501  0.3903  0.0065  0.8762
 5081TIP3    H115207   4.306   4.593   3.475  0.8349  3.2012 -0.8541
 5081TIP3    H215208   4.226   4.698   3.549 -1.6105  0.2209  0.9624
 5082TIP3   OH215209   6.694   6.712   5.566  0.1792 -0.2319  0.4027
 5082TIP3    H115210   6.774   6.667   5.539  0.5704  0.4745  0.3560
 5082TIP3    H215211   6.724   6.781   5.625 -0.4802 -0.4830  1.0395
 5083TIP3   OH215212   0.827   1.886   5.083 -0.2720  0.5042  0.1704
 5083TIP3    H115213   0.888   1.932   5.024  0.6878 -1.5447 -0.5108
 5083TIP3    H215214   0.746   1.879   5.032 -0.6411  1.9112  0.5125
 5084TIP3   OH215215   3.663   0.724   3.175  0.4907 -0.4948  0.3123
 5084TIP3    H115216   3.641   0.638   3.140  0.7110 -1.9570  3.4005
 5084TIP3    H215217   3.756   0.717   3.197  0.2920  0.1937  1.4213
 5085TIP3   OH215218   2.026   5.612   0.936 -0.6816 -0.2483  0.2479
 5085TIP3    H115219   2.027   5.546   0.867 -1.7216 -1.1899  1.1045
 5085TIP3    H215220   1.968   5.577   1.003  0.1076  0.7572  1.5150
 5086TIP3   OH215221   5.279   6.648   0.306 -0.8784  0.4390 -0.0925
 5086TIP3    H115222   5.251   6.566   0.347  1.2607 -1.2373 -1.7615
 5086TIP3    H215223   5.201   6.681   0.262 -1.6630 -1.0004  0.1606
 5087TIP3   OH215224   3.952   1.562   3.238 -0.4699  0.1963 -0.1757
 5087TIP3    H115225   3.929   1.474   3.210 -1.2505 -0.0597  1.1536
 5087TIP3    H215226   3.945   1.616   3.159 -1.5499 -0.6489 -0.6779
 5088TIP3   OH215227   4.031   0.150   3.384  0.1113 -0.3169  0.6558
 5088TIP3    H115228   4.005   0.069   3.428 -1.0690  0.6774  1.8749
 5088TIP3    H215229   3.955   0.175   3.332  0.1853  0.4138  0.8912
 5089TIP3   OH215230   3.375   4.322   1.548  0.0868 -0.6123 -0.3951
 5089TIP3    H115231   3.325   4.260   1.496  0.9745 -1.8054  0.0901
 5089TIP3    H215232   3.467   4.296   1.534  0.4870  0.6723 -0.2618
 5090TIP3   OH215233   7.176   6.510   1.812 -0.6437 -0.3562  0.6895
 5090TIP3    H115234   7.195   6.588   1.760 -0.3960 -0.8869 -0.0257
 5090TIP3    H215235   7.241   6.512   1.883  0.2953 -0.6609 -0.1397
 5091TIP3   OH215236   3.609   2.311   1.962  0.5344 -0.3139  0.4441
 5091TIP3    H115237   3.656   2.383   2.005 -0.5667 -0.0897  1.3135
 5091TIP3    H215238   3.632   2.234   2.013 -1.7915  0.1515  2.3278
 5092TIP3   OH215239   0.561   1.426   2.054 -0.4266  0.0665  0.1939
 5092TIP3    H115240   0.531   1.465   2.136  0.2909  1.2345 -0.0648
 5092TIP3    H215241   0.535   1.334   2.059 -0.6418  0.1888  1.5957
 5093TIP3   OH215242   2.086   1.204   3.528  0.6033  0.4719  0.0276
 5093TIP3    H115243   2.000   1.235   3.500  0.9746  0.8555 -0.7414
 5093TIP3    H215244   2.078   1.188   3.622 -0.2117  0.8120  0.0184
 5094TIP3   OH215245   4.328   4.793   5.219 -0.2162  0.7008  0.1175
 5094TIP3    H115246   4.269   4.869   5.219 -1.1473  0.0160  1.6467
 5094TIP3    H215247   4.270   4.718   5.232  0.3288 -0.6650 -3.9593
 5095TIP3   OH215248   4.334   5.924   1.215 -0.3348 -0.5677 -0.0049
 5095TIP3    H115249   4.394   5.925   1.140  0.8635 -0.5655  0.9345
 5095TIP3    H215250   4.252   5.961   1.180  0.3575 -0.0926 -1.1833
 5096TIP3   OH215251   3.734   2.586   2.866  0.2220  0.3441  0.8146
 5096TIP3    H115252   3.817   2.562   2.826 -0.5189 -0.6502 -0.2031
 5096TIP3    H215253   3.689   2.639   2.800 -0.2210  0.3220  1.0894
 5097TIP3   OH215254   2.360   2.751   0.261 -0.4119  0.1934 -0.1386
 5097TIP3    H115255   2.401   2.665   0.268  0.7362  0.7504  0.2804
 5097TIP3    H215256   2.391   2.785   0.176 -0.3672  0.4353 -0.0269
 5098TIP3   OH215257   3.914   4.672   1.297  0.1682 -0.0853  0.0576
 5098TIP3    H115258   3.832   4.625   1.285  0.9622 -1.8065  0.9275
 5098TIP3    H215259   3.921   4.686   1.391  0.7659  0.2526 -0.0305
 5099TIP3   OH215260   2.987   2.788   1.184 -0.1032  0.2918 -0.2214
 5099TIP3    H115261   2.932   2.862   1.159 -0.7498 -0.2568 -0.4571
 5099TIP3    H215262   2.929   2.731   1.234  0.7046  0.5084  0.9969
 5100TIP3   OH215263   4.319   6.264   0.260  0.2596 -0.1638 -0.3288
 5100TIP3    H115264   4.225   6.247   0.256 -0.3277  2.3304  0.7331
 5100TIP3    H215265   4.360   6.182   0.233 -2.1908 -1.5735 -0.0181
 5101TIP3   OH215266   4.656   6.352   3.249  0.1431 -0.1391  0.5687
 5101TIP3    H115267   4.727   6.331   3.309 -0.5953 -1.3534  1.0551
 5101TIP3    H215268   4.668   6.445   3.229  1.7220 -0.2660  0.7987
 5102TIP3   OH215269   6.575   1.005   3.740  0.1964 -0.3337 -0.8373
 5102TIP3    H115270   6.661   1.016   3.780  0.7411 -0.9056 -1.8009
 5102TIP3    H215271   6.589   1.027   3.647 -0.3698 -1.7718 -1.2883
 5103TIP3   OH215272   3.892   0.415   0.514 -0.6271 -0.5704  0.2437
 5103TIP3    H115273   3.834   0.460   0.576  1.2095 -0.1599  1.7812
 5103TIP3    H215274   3.878   0.322   0.531 -2.3528 -0.5777 -0.9394
 5104TIP3   OH215275   5.283   1.081   0.437 -0.1505  0.1625 -0.2529
 5104TIP3    H115276   5.201   1.049   0.400 -0.6261  0.8044  0.2192
 5104TIP3    H215277   5.329   1.121   0.363 -0.6701  0.6013 -0.3436
 5105TIP3   OH215278   0.080   0.693   2.127 -0.0909 -0.5490 -0.3308
 5105TIP3    H115279   0.028   0.613   2.121  2.1212 -2.0338 -0.8618
 5105TIP3    H215280   0.104   0.699   2.219 -0.1510 -0.5595 -0.3142
 5106TIP3   OH215281   0.576   6.573   0.416  0.2275 -0.0183 -0.5364
 5106TIP3    H115282   0.642   6.620   0.365  0.0461 -0.9537 -1.6638
 5106TIP3    H215283   0.497   6.577   0.362 -0.3370  0.1104  0.2861
 5107TIP3   OH215284   1.085   3.983   1.766  0.3021 -0.4915 -0.5349
 5107TIP3    H115285   1.009   3.934   1.736 -0.4901  0.1040  0.4001
 5107TIP3    H215286   1.099   4.050   1.699 -0.7410  0.1269 -0.1585
 5108TIP3   OH215287   1.851   1.706   3.219  0.4354 -0.5853 -0.1342
 5108TIP3    H115288   1.768   1.749   3.236  0.8765  0.4895 -0.6051
 5108TIP3    H215289   1.876   1.668   3.303  0.2127  0.4109  0.4005
 5109TIP3   OH215290   1.905   5.243   2.428 -0.1370  0.4375 -0.6274
 5109TIP3    H115291   1.813   5.236   2.452  0.1712 -0.0927  0.4877
 5109TIP3    H215292   1.914   5.187   2.350 -0.6844  0.1729 -0.5020
 5110TIP3   OH215293   2.896   3.336   3.240 -0.1234  0.2009  0.0701
 5110TIP3    H115294   2.903   3.431   3.252 -0.6568  0.0041  2.4345
 5110TIP3    H215295   2.879   3.302   3.328  0.3456 -2.1291 -0.6698
 5111TIP3   OH215296   6.317   2.313   0.194  0.0018  0.0770 -0.6101
 5111TIP3    H115297   6.377   2.243   0.218  0.5472  1.0007  0.8019
 5111TIP3    H215298   6.339   2.334   0.103 -1.2385 -2.6121 -1.6233
 5112TIP3   OH215299   4.653   5.278   2.309 -0.7198  0.5058 -0.3217
 5112TIP3    H115300   4.681   5.367   2.331  0.8951 -0.3054  1.1775
 5112TIP3    H215301   4.559   5.285   2.296 -0.5732  2.4987 -0.6212
 5113TIP3   OH215302   1.572   4.478   1.241 -0.1854  0.3661  0.4491
 5113TIP3    H115303   1.606   4.515   1.159  1.1456 -1.2797  0.2136
 5113TIP3    H215304   1.644   4.487   1.303 -1.2171  1.6973  1.5349
 5114TIP3   OH215305   6.237   1.645   3.848  0.1057  0.4965 -0.5813
 5114TIP3    H115306   6.210   1.663   3.939  1.8150  1.0236 -0.1463
 5114TIP3    H215307   6.173   1.692   3.795  0.6990  2.5744  0.4353
 5115TIP3   OH215308   2.685   5.489   3.412 -0.5169  0.2855 -0.2430
 5115TIP3    H115309   2.778   5.470   3.424 -0.7615 -0.1002  1.1646
 5115TIP3    H215310   2.673   5.577   3.447 -0.6756  0.3425 -0.4382
 5116TIP3   OH215311   0.270   3.921   2.656  0.4884  0.0170 -0.0215
 5116TIP3    H115312   0.350   3.869   2.644  0.9994  1.1686 -2.2611
 5116TIP3    H215313   0.300   4.012   2.647 -0.6873  0.6318  1.8180
 5117TIP3   OH215314   4.870   3.911   1.110  0.4017  0.1940 -0.8945
 5117TIP3    H115315   4.776   3.927   1.118  0.4234 -0.0610 -0.0295
 5117TIP3    H215316   4.877   3.839   1.047  0.0316  0.3525 -1.1177
 5118TIP3   OH215317   2.188   0.819   1.372  0.5665  0.7850  0.4624
 5118TIP3    H115318   2.105   0.847   1.411  0.9572  1.2792  0.9438
 5118TIP3    H215319   2.252   0.884   1.401  1.5355 -0.6685  1.7438
 5119TIP3   OH215320   3.815   2.379   0.148 -0.1254 -0.6086  0.0432
 5119TIP3    H115321   3.828   2.358   0.240 -2.5836 -0.8460  0.4004
 5119TIP3    H215322   3.722   2.400   0.141  0.2302  0.5201 -2.1886
 5120TIP3   OH215323   4.502   1.077   4.687 -0.1164 -0.7241 -0.2780
 5120TIP3    H115324   4.576   1.031   4.647  1.0921  0.8390  0.1069
 5120TIP3    H215325   4.458   1.010   4.740  0.6443 -1.8125 -0.9721
 5121TIP3   OH215326   5.146   0.589   0.194 -0.6049 -0.6321  0.9855
 5121TIP3    H115327   5.059   0.626   0.178 -0.6296 -0.1532  2.1392
 5121TIP3    H215328   5.193   0.658   0.242  1.6394  0.5840 -2.5806
 5122TIP3   OH215329   3.623   0.959   5.712 -0.2614 -0.0100  0.3919
 5122TIP3    H115330   3.654   0.906   5.639 -1.0203  0.9705 -0.6848
 5122TIP3    H215331   3.538   0.921   5.736 -0.4085  0.1823  0.1848
 5123TIP3   OH215332   1.871   2.362   2.233 -0.0357  0.0914 -0.2152
 5123TIP3    H115333   1.963   2.349   2.254 -0.3838 -1.7348  0.4285
 5123TIP3    H215334   1.826   2.350   2.317 -0.8933  0.3392 -0.6283
 5124TIP3   OH215335   3.544   3.797   2.414 -0.4027 -0.4616  0.0318
 5124TIP3    H115336   3.630   3.814   2.375 -1.4984  3.2688 -1.2160
 5124TIP3    H215337   3.557   3.720   2.469  3.3971 -0.8015 -1.0762
 5125TIP3   OH215338   7.071   5.836   5.119  0.3658 -0.1974 -0.0996
 5125TIP3    H115339   7.038   5.746   5.128 -1.1910  0.4236  0.9320
 5125TIP3    H215340   7.119   5.852   5.200 -1.8899  0.8212  1.1447
 5126TIP3   OH215341   0.780   3.245   5.301 -0.1312 -0.1591 -0.3604
 5126TIP3    H115342   0.820   3.223   5.217 -0.3751  1.3741 -0.9105
 5126TIP3    H215343   0.795   3.168   5.356  1.1034 -0.7094 -1.4209
 5127TIP3   OH215344   7.114   5.170   3.458 -0.3145 -0.1329  0.0476
 5127TIP3    H115345   7.151   5.251   3.423  0.4770 -0.2634  0.5697
 5127TIP3    H215346   7.027   5.196   3.490 -0.8840  0.0884 -1.5439
 5128TIP3   OH215347   4.411   2.961   4.512 -0.4745  0.6776  0.3924
 5128TIP3    H115348   4.344   3.024   4.537  0.0800  1.2049  0.5827
 5128TIP3    H215349   4.374   2.915   4.436 -1.8149 -0.3445  1.5938
 5129TIP3   OH215350   6.635   0.326   3.652 -0.1036 -0.4569 -0.1972
 5129TIP3    H115351   6.714   0.344   3.600 -0.4669 -1.9152 -1.3322
 5129TIP3    H215352   6.666   0.274   3.726  0.0392 -0.8987 -0.5602
 5130TIP3   OH215353   3.342   1.382   1.996  0.3187 -0.1229  0.4821
 5130TIP3    H115354   3.425   1.354   2.035  0.4567 -1.7202 -0.8933
 5130TIP3    H215355   3.354   1.476   1.982  2.4108 -0.5240 -0.8285
 5131TIP3   OH215356   0.328   4.444   1.953  0.0697 -0.3616 -0.7835
 5131TIP3    H115357   0.233   4.450   1.960 -0.1246 -1.5649 -1.9913
 5131TIP3    H215358   0.357   4.413   2.038 -0.9351 -2.8848 -1.2899
 5132TIP3   OH215359   3.272   2.970   4.248  0.3813  0.6754  0.3110
 5132TIP3    H115360   3.336   2.980   4.319  0.8670  0.2580 -0.0606
 5132TIP3    H215361   3.264   2.875   4.237 -0.4524  0.7140  0.4811
 5133TIP3   OH215362   3.642   1.239   1.651 -0.0789 -0.3220  0.7212
 5133TIP3    H115363   3.588   1.228   1.572  1.6863  1.2979 -0.7978
 5133TIP3    H215364   3.716   1.180   1.637 -0.3133 -0.9031  1.7833
 5134TIP3   OH215365   5.682   1.979   2.635  0.2795  0.0786 -0.0734
 5134TIP3    H115366   5.743   1.908   2.615  1.7628  1.5937 -1.1726
 5134TIP3    H215367   5.727   2.032   2.701  0.1579  1.1774 -0.8455
 5135TIP3   OH215368   3.658   2.850   5.339 -0.3154  0.4280 -0.2436
 5135TIP3    H115369   3.752   2.859   5.326 -0.0511 -0.9584  0.4671
 5135TIP3    H215370   3.625   2.940   5.337  0.9248  0.8968 -1.0961
 5136TIP3   OH215371   3.217   5.043   4.623  0.8741  0.1039  0.1196
 5136TIP3    H115372   3.178   5.127   4.598 -0.7673 -0.9045 -0.9319
 5136TIP3    H215373   3.289   5.066   4.682 -0.2142  2.1698  0.7297
 5137TIP3   OH215374   0.525   6.012   1.680  0.3842  0.5875 -0.0478
 5137TIP3    H115375   0.570   6.057   1.751 -0.0772  0.1529  0.5286
 5137TIP3    H215376   0.433   6.012   1.705  0.1982  0.5423 -0.7097
 5138TIP3   OH215377   5.386   0.643   5.635  0.3769 -0.3163 -0.0188
 5138TIP3    H115378   5.421   0.693   5.708  0.3433  0.5697 -0.5996
 5138TIP3    H215379   5.456   0.641   5.570  0.6253 -1.6018  0.2447
 5139TIP3   OH215380   3.519   0.566   3.967 -0.1057  0.3839  0.0783
 5139TIP3    H115381   3.557   0.628   3.904  0.9801  0.3730  0.7015
 5139TIP3    H215382   3.459   0.513   3.915  0.2716  0.8122 -0.8139
 5140TIP3   OH215383   1.123   4.258   0.626  0.2721  0.2345  0.3921
 5140TIP3    H115384   1.044   4.207   0.606  0.1253  0.5068  0.2805
 5140TIP3    H215385   1.195   4.200   0.601  0.0984  0.4448 -0.6405
 5141TIP3   OH215386   6.207   3.108   0.888 -0.1933  0.4263 -0.7839
 5141TIP3    H115387   6.213   3.190   0.839 -0.8904  0.2182 -1.2229
 5141TIP3    H215388   6.287   3.107   0.942 -0.0157  1.2298 -1.0153
 5142TIP3   OH215389   6.611   1.865   5.620  0.8994 -0.5367  0.0352
 5142TIP3    H115390   6.540   1.889   5.561  1.4800  0.9562 -0.1002
 5142TIP3    H215391   6.691   1.889   5.573  1.4029 -0.2528  1.0107
 5143TIP3   OH215392   6.394   6.179   1.611  0.1011 -0.0339  0.2040
 5143TIP3    H115393   6.367   6.251   1.667 -2.7357 -0.9364  0.1690
 5143TIP3    H215394   6.376   6.100   1.662  0.8904 -0.7859 -0.6310
 5144TIP3   OH215395   2.740   3.350   0.884 -0.2072  0.5963  0.3816
 5144TIP3    H115396   2.812   3.380   0.939  0.6390  0.6468 -0.7181
 5144TIP3    H215397   2.689   3.428   0.866 -1.2410  0.3799  2.0972
 5145TIP3   OH215398   1.367   1.560   0.541  0.4497 -0.6962  0.0005
 5145TIP3    H115399   1.393   1.485   0.594  0.9162 -0.3229  0.3206
 5145TIP3    H215400   1.332   1.623   0.604  1.2958 -0.1238 -0.0781
 5146TIP3   OH215401   0.735   2.656   1.640  0.2440  0.3720 -0.2539
 5146TIP3    H115402   0.692   2.572   1.623  0.4684  0.3093 -0.5300
 5146TIP3    H215403   0.683   2.697   1.708  0.7213 -0.4512  0.6380
 5147TIP3   OH215404   5.961   1.189   2.105  0.2230 -0.3632 -0.0401
 5147TIP3    H115405   6.021   1.123   2.140  1.0328  1.1983  1.7098
 5147TIP3    H215406   5.944   1.247   2.179 -1.0879  0.9575 -1.3099
 5148TIP3   OH215407   4.071   0.838   4.708 -0.3499  0.2136  0.4410
 5148TIP3    H115408   4.059   0.880   4.793  0.8158  0.4458  0.5003
 5148TIP3    H215409   4.145   0.883   4.668  0.3006 -1.1102  0.0848
 5149TIP3   OH215410   3.558   3.122   5.362 -0.3354  0.2828  0.0069
 5149TIP3    H115411   3.544   3.215   5.377 -1.8755  0.2088 -0.8146
 5149TIP3    H215412   3.537   3.080   5.445 -0.8719  0.5577  0.0100
 5150TIP3   OH215413   3.294   5.021   5.510  0.3615  0.0182 -0.3834
 5150TIP3    H115414   3.242   5.099   5.529  1.3279  0.7063 -0.4813
 5150TIP3    H215415   3.327   5.035   5.421  4.5997  1.9695  1.2039
 5151TIP3   OH215416   4.453   4.597   5.758 -0.4761  0.0853 -0.6180
 5151TIP3    H115417   4.497   4.526   5.711  2.9622  2.4201 -1.2571
 5151TIP3    H215418   4.400   4.641   5.692 -0.1614  0.0007 -0.9240
 5152TIP3   OH215419   0.617   1.475   4.814  0.1556  0.2336  0.2025
 5152TIP3    H115420   0.669   1.510   4.886  0.5237  0.6137 -0.2413
 5152TIP3    H215421   0.532   1.456   4.853 -0.3018  2.2824  0.3318
 5153TIP3   OH215422   3.710   6.695   2.657  0.1045  0.1520 -0.3243
 5153TIP3    H115423   3.681   6.726   2.743  0.3286 -1.6159  0.4140
 5153TIP3    H215424   3.784   6.752   2.635  0.0649  0.6037  0.6605
 5154TIP3   OH215425   5.357   2.715   0.921 -0.0397 -0.4952 -0.3605
 5154TIP3    H115426   5.365   2.806   0.949  1.3911 -0.6081 -0.3007
 5154TIP3    H215427   5.272   2.687   0.954 -1.4556  1.3845 -2.1413
 5155TIP3   OH215428   0.937   0.658   3.168  0.4571  0.3290  0.4137
 5155TIP3    H115429   0.944   0.753   3.177 -2.9580  0.7219  0.4553
 5155TIP3    H215430   0.911   0.644   3.077  1.8553 -0.6828  0.1432
 5156TIP3   OH215431   4.445   6.284   4.348  0.4244 -0.2816  0.0435
 5156TIP3    H115432   4.541   6.290   4.343  0.3893 -0.6505 -1.5193
 5156TIP3    H215433   4.421   6.350   4.413  1.7196  0.0065  0.2691
 5157TIP3   OH215434   1.225   3.730   0.097 -0.3593 -0.4770 -0.0765
 5157TIP3    H115435   1.211   3.694   0.184 -1.2987 -1.4058 -0.5959
 5157TIP3    H215436   1.320   3.725   0.084 -0.3266 -1.4070  0.4448
 5158TIP3   OH215437   4.394   1.494   1.118 -0.2432 -0.1460  0.3215
 5158TIP3    H115438   4.439   1.460   1.040  0.5130 -0.3262  0.8169
 5158TIP3    H215439   4.411   1.588   1.116 -0.7663 -0.0603 -0.0709
 5159TIP3   OH215440   4.282   4.477   3.204  0.6108  0.0260  0.4013
 5159TIP3    H115441   4.302   4.387   3.179 -0.6017 -0.4768  1.0954
 5159TIP3    H215442   4.188   4.475   3.223  0.1310  1.8961 -1.4564
 5160TIP3   OH215443   1.949   1.122   3.114 -0.8138  0.0791 -0.5734
 5160TIP3    H115444   1.905   1.163   3.188 -1.6740  1.0115 -1.5663
 5160TIP3    H215445   1.922   1.030   3.117  1.1989 -0.5400  1.7214
 5161TIP3   OH215446   4.520   5.002   5.355 -0.2619  0.6940 -0.1231
 5161TIP3    H115447   4.441   4.950   5.369  0.0958 -0.2353 -1.3758
 5161TIP3    H215448   4.560   5.009   5.442 -1.3707  0.6162  0.4098
 5162TIP3   OH215449   0.559   3.604   0.627  0.2747  0.0714 -0.0726
 5162TIP3    H115450   0.584   3.570   0.541 -1.1596 -0.5951 -0.2613
 5162TIP3    H215451   0.538   3.696   0.612  2.7053  0.7356  0.1444
 5163TIP3   OH215452   1.822   5.843   1.469  0.0412 -0.1335 -0.5051
 5163TIP3    H115453   1.738   5.886   1.485  0.3745  0.3556  0.0100
 5163TIP3    H215454   1.834   5.847   1.374 -1.0663 -1.2932 -0.7129
 5164TIP3   OH215455   3.838   4.413   5.009  0.7830  0.2730  0.2828
 5164TIP3    H115456   3.917   4.363   5.028 -0.3390 -1.4618  0.4996
 5164TIP3    H215457   3.789   4.414   5.090  0.5241  1.3028  0.1336
 5165TIP3   OH215458   2.331   2.404   3.920 -0.0786  0.5494 -0.2112
 5165TIP3    H115459   2.365   2.488   3.948  1.5132 -0.3916  0.8313
 5165TIP3    H215460   2.409   2.353   3.897 -1.0683 -0.2749 -1.9265
 5166TIP3   OH215461   2.860   0.263   5.276  0.0354  0.2477 -0.4275
 5166TIP3    H115462   2.939   0.210   5.272  0.1981  0.4932 -0.4508
 5166TIP3    H215463   2.889   0.349   5.305 -0.3507  0.0807  0.4838
 5167TIP3   OH215464   5.406   6.051   0.890  0.0711 -0.2874 -0.1532
 5167TIP3    H115465   5.336   6.115   0.906  0.9560  0.3983  1.2322
 5167TIP3    H215466   5.474   6.100   0.844  0.7539 -0.1931  0.9121
 5168TIP3   OH215467   1.127   0.597   1.291 -0.6235  0.1147 -0.4519
 5168TIP3    H115468   1.068   0.619   1.363 -0.2993  1.2770 -0.5150
 5168TIP3    H215469   1.208   0.568   1.334  0.1368  2.2977 -0.2607
 5169TIP3   OH215470   2.556   0.253   0.701  0.4525  0.4843  0.3083
 5169TIP3    H115471   2.531   0.164   0.675  1.4211  0.5294 -0.8707
 5169TIP3    H215472   2.502   0.310   0.646  0.9546  0.5989 -0.0778
 5170TIP3   OH215473   6.449   5.325   1.383 -0.2467 -0.6892  0.7572
 5170TIP3    H115474   6.365   5.324   1.428 -0.1300  0.7454  1.0683
 5170TIP3    H215475   6.430   5.296   1.295 -1.7552  2.6134 -0.1700
 5171TIP3   OH215476   2.147   3.858   4.847 -0.0646  0.2168 -0.9861
 5171TIP3    H115477   2.163   3.771   4.812 -1.1168 -0.2736 -0.2739
 5171TIP3    H215478   2.229   3.880   4.892  0.0719 -0.5644 -0.8332
 5172TIP3   OH215479   2.287   3.041   3.329 -0.0669  0.1559 -0.3484
 5172TIP3    H115480   2.331   3.039   3.244  0.3763  0.7286 -0.1489
 5172TIP3    H215481   2.307   3.129   3.363 -1.6735  0.5668 -0.3958
 5173TIP3   OH215482   0.650   6.519   3.388  0.1985  0.4052 -0.2486
 5173TIP3    H115483   0.653   6.426   3.412  1.5759  0.3445 -0.6063
 5173TIP3    H215484   0.606   6.520   3.303  1.0198 -0.0161 -0.6805
 5174TIP3   OH215485   5.164   0.922   5.425  0.3227  0.5892 -0.1667
 5174TIP3    H115486   5.128   0.884   5.505  1.7593  0.6873  0.5641
 5174TIP3    H215487   5.088   0.954   5.377 -0.5350  1.0118  1.4017
 5175TIP3   OH215488   6.434   0.858   4.853  0.2335  0.3156 -0.0915
 5175TIP3    H115489   6.477   0.778   4.884 -0.3364 -0.2923 -0.8396
 5175TIP3    H215490   6.384   0.830   4.777 -1.1491  1.0946  0.5032
 5176TIP3   OH215491   5.599   5.943   3.360 -0.0481  0.1870  0.0638
 5176TIP3    H115492   5.594   5.914   3.269  0.6404  1.7771 -0.5225
 5176TIP3    H215493   5.511   5.932   3.394 -0.2140 -0.8379 -0.6568
 5177TIP3   OH215494   6.240   0.847   5.865 -0.4669  0.2978  0.4926
 5177TIP3    H115495   6.169   0.787   5.844 -0.6596  0.8603 -0.5409
 5177TIP3    H215496   6.198   0.920   5.909 -0.8610  1.4706 -1.6707
 5178TIP3   OH215497   0.644   0.459   3.588 -0.6835  0.7902  0.2365
 5178TIP3    H115498   0.727   0.450   3.635 -0.1405 -2.5683 -1.0904
 5178TIP3    H215499   0.669   0.491   3.501 -0.9930  1.2435  0.3076
 5179TIP3   OH215500   0.442   1.125   3.626  0.2755  0.4001  0.6550
 5179TIP3    H115501   0.458   1.214   3.595 -0.4326 -0.0057 -0.9301
 5179TIP3    H215502   0.414   1.136   3.717 -0.8713  1.8795  0.1457
 5180TIP3   OH215503   1.943   2.207   2.535  0.3146 -0.3293 -0.1234
 5180TIP3    H115504   1.930   2.149   2.610  0.3362  0.3392  0.4006
 5180TIP3    H215505   1.855   2.229   2.505  0.2816  0.2464  0.3694
 5181TIP3   OH215506   6.087   1.172   3.310 -1.1083  0.6091  0.2760
 5181TIP3    H115507   6.037   1.140   3.235 -2.4189  0.6128  1.1039
 5181TIP3    H215508   6.098   1.266   3.294 -0.9977  0.5290 -0.1188
 5182TIP3   OH215509   0.605   1.016   0.209 -0.3096  0.2039 -0.7977
 5182TIP3    H115510   0.580   0.923   0.205  1.6258 -0.3107 -2.6704
 5182TIP3    H215511   0.669   1.021   0.280 -0.7953  0.2220 -0.3566
 5183TIP3   OH215512   5.824   0.053   4.025 -0.6301  0.0347  0.2065
 5183TIP3    H115513   5.889   0.076   4.092 -0.2892  0.3902 -0.2435
 5183TIP3    H215514   5.739   0.066   4.069 -0.4519  1.8299  0.0858
 5184TIP3   OH215515   5.316   2.885   2.330  0.0375 -0.2812 -0.2329
 5184TIP3    H115516   5.255   2.933   2.386  0.3649 -0.0374 -0.0898
 5184TIP3    H215517   5.270   2.877   2.247 -0.9993 -1.7505  0.4231
 5185TIP3   OH215518   0.728   6.510   5.081 -0.6465  0.0099  0.1963
 5185TIP3    H115519   0.701   6.506   4.989  0.2714 -0.3530 -0.0747
 5185TIP3    H215520   0.820   6.537   5.077 -0.9097  1.0550  1.0665
 5186TIP3   OH215521   6.673   0.112   1.828  0.0892  0.0261  0.1858
 5186TIP3    H115522   6.757   0.088   1.866  0.6254  0.2932 -0.7804
 5186TIP3    H215523   6.697   0.163   1.749 -0.9724  0.4569  0.1305
 5187TIP3   OH215524   3.520   6.470   5.489 -0.2930 -0.4569 -0.0274
 5187TIP3    H115525   3.570   6.397   5.525 -0.8576 -0.1869  1.3990
 5187TIP3    H215526   3.524   6.458   5.394 -0.6422 -2.4943  0.1728
 5188TIP3   OH215527   5.621   3.285   1.185  0.9739  0.5203  0.3091
 5188TIP3    H115528   5.603   3.194   1.210  0.2450  0.4100 -0.5626
 5188TIP3    H215529   5.636   3.282   1.090  0.4219  1.3711  0.1791
 5189TIP3   OH215530   0.432   3.302   4.141 -0.5700 -0.3167 -0.0990
 5189TIP3    H115531   0.358   3.270   4.090  0.5152  0.8648 -2.5456
 5189TIP3    H215532   0.495   3.332   4.076  1.9449 -0.9359  1.8959
 5190TIP3   OH215533   0.726   6.461   2.372 -0.4881 -0.5028  0.0958
 5190TIP3    H115534   0.701   6.432   2.284  2.0372 -0.7929 -0.6199
 5190TIP3    H215535   0.719   6.383   2.426 -0.1215 -0.8332 -0.3256
 5191TIP3   OH215536   3.377   2.712   4.268  0.3087 -0.3791 -0.3373
 5191TIP3    H115537   3.334   2.700   4.353  0.1603 -0.3673 -0.4104
 5191TIP3    H215538   3.440   2.640   4.262 -1.2085 -1.6972 -1.1745
 5192TIP3   OH215539   6.760   0.433   0.990 -0.8105 -0.5055 -0.0624
 5192TIP3    H115540   6.719   0.424   0.904  2.0302  1.1611 -1.7327
 5192TIP3    H215541   6.725   0.514   1.025  0.7903  0.8662 -1.4445
 5193TIP3   OH215542   0.544   1.023   2.779  0.2267 -0.2650  0.2264
 5193TIP3    H115543   0.483   1.089   2.812 -0.0939 -0.5823  0.2693
 5193TIP3    H215544   0.593   1.067   2.710 -0.1034 -0.0332  0.1420
 5194TIP3   OH215545   0.503   2.440   4.112  0.1310  0.4793 -0.1929
 5194TIP3    H115546   0.505   2.436   4.207 -1.0513 -1.6801 -0.1984
 5194TIP3    H215547   0.563   2.370   4.084 -1.0326 -0.2342 -0.9842
 5195TIP3   OH215548   0.437   1.649   1.307 -0.7296  0.3907  0.3928
 5195TIP3    H115549   0.496   1.716   1.272  0.1231 -0.0407  0.9585
 5195TIP3    H215550   0.350   1.688   1.299 -0.6205  0.2915 -2.2365
 5196TIP3   OH215551   5.085   1.817   0.106  0.9468 -0.3927  0.3296
 5196TIP3    H115552   5.087   1.911   0.089  1.4738 -0.5373 -0.4448
 5196TIP3    H215553   5.165   1.783   0.066  1.3786 -1.0032  1.6484
 5197TIP3   OH215554   1.102   3.314   1.825  0.3614  0.3578 -0.5740
 5197TIP3    H115555   1.078   3.315   1.918  1.8077 -2.3085 -0.0524
 5197TIP3    H215556   1.019   3.316   1.778 -0.5542 -0.9758  0.9047
 5198TIP3   OH215557   0.803   3.100   4.524  0.3554  0.7035  0.0234
 5198TIP3    H115558   0.888   3.073   4.490  0.6014  0.6192  0.6972
 5198TIP3    H215559   0.815   3.192   4.547  0.4541  0.5209  0.7132
 5199TIP3   OH215560   1.903   2.561   1.269  0.2030  0.2780  0.4087
 5199TIP3    H115561   1.888   2.571   1.175  1.1824  0.0073  0.2176
 5199TIP3    H215562   1.815   2.561   1.308 -0.3629 -2.1410 -0.7400
 5200TIP3   OH215563   0.859   5.869   5.758 -0.1434 -0.3689 -0.3659
 5200TIP3    H115564   0.816   5.944   5.801  2.0105  1.3703 -1.0273
 5200TIP3    H215565   0.950   5.876   5.785  1.2126  0.3721 -4.4173
 5201TIP3   OH215566   2.295   1.232   2.950  0.5003 -0.4359 -0.1332
 5201TIP3    H115567   2.246   1.304   2.990  1.7075  0.4660 -0.2295
 5201TIP3    H215568   2.295   1.163   3.017  1.8448  0.7620  1.1867
 5202TIP3   OH215569   4.065   0.269   0.810  0.1961 -0.0457  0.4582
 5202TIP3    H115570   4.020   0.342   0.853  1.0206  1.0532 -0.4676
 5202TIP3    H215571   4.023   0.262   0.725  2.1121  1.4560 -0.7040
 5203TIP3   OH215572   1.337   0.998   5.276  0.9115 -0.7125 -0.1272
 5203TIP3    H115573   1.288   0.979   5.356  1.7582 -3.4245 -0.1370
 5203TIP3    H215574   1.416   1.043   5.306  0.6207 -0.5429  0.3942
 5204TIP3   OH215575   2.914   4.117   2.496 -0.0742 -0.2217  0.0627
 5204TIP3    H115576   2.934   4.067   2.417  0.0853 -0.6269  0.3598
 5204TIP3    H215577   2.900   4.206   2.464  1.9453  0.0482 -0.2130
 5205TIP3   OH215578   4.857   4.576   1.652 -1.0171 -0.2416  0.5325
 5205TIP3    H115579   4.766   4.558   1.674 -1.4272 -0.7841 -1.4085
 5205TIP3    H215580   4.856   4.597   1.559  0.9426 -1.0805  0.2601
 5206TIP3   OH215581   3.479   0.214   3.998  0.0411 -0.1072  0.1256
 5206TIP3    H115582   3.496   0.199   4.091 -0.2289 -0.2822  0.1459
 5206TIP3    H215583   3.453   0.129   3.964 -1.8884  0.3585  0.3340
 5207TIP3   OH215584   0.955   5.757   2.977 -0.5885  0.3543  0.7543
 5207TIP3    H115585   0.946   5.843   3.018 -0.2273  0.2346  1.0823
 5207TIP3    H215586   0.865   5.727   2.964 -0.8195  1.7431 -1.4030
 5208TIP3   OH215587   5.221   0.215   0.273  0.0024 -0.5375  0.1215
 5208TIP3    H115588   5.166   0.186   0.345 -0.3828 -1.2188 -0.4304
 5208TIP3    H215589   5.279   0.281   0.311 -0.3714 -0.6998  0.9838
 5209TIP3   OH215590   0.634   2.570   2.658  0.3615 -0.3709 -0.2632
 5209TIP3    H115591   0.712   2.604   2.701  1.0227 -0.5359 -1.2890
 5209TIP3    H215592   0.572   2.642   2.659  1.0762  0.2638 -0.7611
 5210TIP3   OH215593   3.546   0.507   4.422 -0.1337 -0.5054 -0.4465
 5210TIP3    H115594   3.497   0.525   4.503  0.0721 -0.5071 -0.3207
 5210TIP3    H215595   3.627   0.466   4.452  0.7347  1.0981 -0.5386
 5211TIP3   OH215596   1.824   0.478   2.728  0.0928 -0.1243 -0.2039
 5211TIP3    H115597   1.780   0.399   2.759 -0.4228  0.3554  0.3301
 5211TIP3    H215598   1.881   0.448   2.657 -0.0179 -0.9832  0.0560
 5212TIP3   OH215599   1.128   2.955   3.665 -0.1829 -0.3436  0.7057
 5212TIP3    H115600   1.073   2.881   3.691  1.5155 -1.8662  0.1475
 5212TIP3    H215601   1.186   2.970   3.739  0.6416 -0.7298  0.1478
 5213TIP3   OH215602   2.644   3.196   3.118  0.8562  0.3240  0.5105
 5213TIP3    H115603   2.551   3.177   3.104  1.2796 -1.3368 -0.2915
 5213TIP3    H215604   2.652   3.289   3.099 -0.4066  0.2067 -0.8036
 5214TIP3   OH215605   4.205   5.282   5.231  0.1831  0.1466 -0.0123
 5214TIP3    H115606   4.248   5.363   5.258  0.9847 -0.3332  0.2016
 5214TIP3    H215607   4.239   5.264   5.143 -2.2974  1.6162 -1.3863
 5215TIP3   OH215608   2.656   5.753   0.756  0.4721 -0.2817  0.2470
 5215TIP3    H115609   2.729   5.795   0.802  0.8100 -0.6137  0.0206
 5215TIP3    H215610   2.653   5.664   0.791  0.2320 -0.2953  0.1936
 5216TIP3   OH215611   2.886   1.975   4.748  0.6042 -0.2333 -0.1447
 5216TIP3    H115612   2.918   1.930   4.670 -0.6112 -0.9117 -0.2631
 5216TIP3    H215613   2.801   1.935   4.766  0.6959  0.1871  1.3037
 5217TIP3   OH215614   5.774   6.767   3.598 -0.1046 -0.3799 -0.0626
 5217TIP3    H115615   5.867   6.789   3.596  0.0718 -1.1273 -0.9087
 5217TIP3    H215616   5.741   6.792   3.512 -0.0955 -2.3891 -0.7159
 5218TIP3   OH215617   1.569   0.853   1.227  0.3740  0.5533  0.3933
 5218TIP3    H115618   1.504   0.895   1.283 -0.1801  0.4060 -0.1162
 5218TIP3    H215619   1.641   0.830   1.285 -0.4270 -0.1006  1.1512
 5219TIP3   OH215620   0.064   2.494   0.310  0.8410  0.8532  0.5114
 5219TIP3    H115621  -0.003   2.557   0.337  0.3877 -0.0572  1.6044
 5219TIP3    H215622   0.067   2.430   0.382  0.3312 -1.1118 -1.1176
 5220TIP3   OH215623   4.847   1.066   0.192  0.2802 -0.4023  0.9350
 5220TIP3    H115624   4.762   1.106   0.172  0.7755  1.7375  2.6261
 5220TIP3    H215625   4.910   1.136   0.177  1.4381 -1.1160  2.2514
 5221TIP3   OH215626   5.143   2.901   4.326 -0.9297 -0.2716  0.2302
 5221TIP3    H115627   5.209   2.964   4.294 -1.3422  0.5260  0.9286
 5221TIP3    H215628   5.141   2.914   4.420 -1.4775 -0.9079  0.3113
 5222TIP3   OH215629   4.664   1.849   4.446  0.0141 -0.0835  0.1498
 5222TIP3    H115630   4.604   1.776   4.432  0.1606 -0.8285  2.8258
 5222TIP3    H215631   4.749   1.817   4.416  0.1129 -1.1322  1.4519
 5223TIP3   OH215632   3.931   3.035   2.054 -0.0300 -0.2519  0.0887
 5223TIP3    H115633   3.917   2.974   1.981  0.6532  0.6412 -0.8366
 5223TIP3    H215634   3.885   3.115   2.027  0.2203  0.0848  0.6430
 5224TIP3   OH215635   4.247   0.276   4.734 -0.1164 -0.4391 -0.1801
 5224TIP3    H115636   4.260   0.219   4.810 -1.3982 -0.7737 -0.1940
 5224TIP3    H215637   4.268   0.363   4.766 -1.5356 -0.4399  0.8513
 5225TIP3   OH215638   6.651   2.223   0.952  0.0930 -0.0099  0.2313
 5225TIP3    H115639   6.594   2.275   1.008  0.7399  1.9387 -0.8327
 5225TIP3    H215640   6.740   2.251   0.973  0.5305 -1.2759  0.1749
 5226TIP3   OH215641   2.010   0.997   5.622 -0.4248 -0.2080  0.4138
 5226TIP3    H115642   2.044   0.908   5.626 -0.3087 -0.1712  0.2518
 5226TIP3    H215643   2.005   1.025   5.713 -0.5954 -0.4304  0.4738
 5227TIP3   OH215644   4.046   5.250   0.209  0.4238  0.2326 -0.2799
 5227TIP3    H115645   4.079   5.335   0.178  0.3274  0.7600  0.9983
 5227TIP3    H215646   4.125   5.203   0.237  0.3408  0.4561  0.3276
 5228TIP3   OH215647   0.536   1.881   4.533 -0.6528 -0.6428 -0.3105
 5228TIP3    H115648   0.596   1.807   4.517 -0.5673 -0.6376 -0.0280
 5228TIP3    H215649   0.559   1.911   4.621  0.4094  0.7520 -1.0245
 5229TIP3   OH215650   3.326   6.736   5.487 -0.2289  0.0784  0.4050
 5229TIP3    H115651   3.354   6.683   5.562 -0.5021 -0.1958  0.3141
 5229TIP3    H215652   3.399   6.730   5.426  0.1249  0.5507  0.7699
 5230TIP3   OH215653   1.119   1.835   1.309  0.0157 -0.3420  0.3060
 5230TIP3    H115654   1.172   1.781   1.249 -0.4667 -0.7584  0.2470
 5230TIP3    H215655   1.146   1.925   1.290  0.1912 -0.5020 -0.2213
 5231TIP3   OH215656   7.018   0.914   4.413 -0.0848 -0.3559  0.1000
 5231TIP3    H115657   6.937   0.921   4.462  0.8973  0.6615  1.6704
 5231TIP3    H215658   7.032   0.820   4.404 -2.3536 -0.5982 -1.9128
 5232TIP3   OH215659   6.334   3.399   4.564 -0.2729  0.1998  0.1325
 5232TIP3    H115660   6.376   3.314   4.555  0.1602  0.5906 -1.9903
 5232TIP3    H215661   6.382   3.443   4.634  1.0241 -0.4349 -0.3326
 5233TIP3   OH215662   4.291   2.246   2.131 -0.4645 -0.4164 -0.0580
 5233TIP3    H115663   4.244   2.164   2.147 -1.8056  0.0125 -1.4749
 5233TIP3    H215664   4.234   2.295   2.072  1.2331  0.6871 -0.8755
 5234TIP3   OH215665   0.160   1.483   0.747  0.3827 -0.3854  0.4096
 5234TIP3    H115666   0.213   1.539   0.692 -0.5456  1.2962  1.1450
 5234TIP3    H215667   0.171   1.395   0.711  0.2074  0.5629 -2.1270
 5235TIP3   OH215668   0.052   3.679   0.216  0.0738  0.2726  0.0949
 5235TIP3    H115669   0.087   3.629   0.142 -0.7117 -1.8779  1.1116
 5235TIP3    H215670  -0.042   3.683   0.201  0.0146  0.6379  0.5262
 5236TIP3   OH215671   1.820   5.877   1.191 -0.0063  0.2343 -0.0368
 5236TIP3    H115672   1.846   5.967   1.211  1.0008 -0.0573  0.0243
 5236TIP3    H215673   1.780   5.882   1.104  0.2484  0.7041 -0.1285
 5237TIP3   OH215674   4.632   6.031   4.786 -0.2283 -0.7752 -0.1687
 5237TIP3    H115675   4.715   6.012   4.742 -0.0651  1.0867 -0.7320
 5237TIP3    H215676   4.583   6.082   4.723 -1.7660 -1.6972  0.2329
 5238TIP3   OH215677   1.779   5.540   5.174 -0.0348  0.0347 -0.1482
 5238TIP3    H115678   1.851   5.558   5.113 -0.4750 -0.8935 -0.9763
 5238TIP3    H215679   1.765   5.622   5.220  0.9589  0.4818 -0.6165
 5239TIP3   OH215680   0.657   4.390   0.291 -0.9001  0.2507  0.5783
 5239TIP3    H115681   0.639   4.471   0.339 -2.7418  1.3738 -1.7696
 5239TIP3    H215682   0.629   4.320   0.350  1.0919  1.2007  2.8181
 5240TIP3   OH215683   4.900   4.758   5.027 -0.3640 -0.4072  0.9281
 5240TIP3    H115684   4.830   4.727   5.084 -0.4142 -1.4308  0.3250
 5240TIP3    H215685   4.979   4.716   5.060 -0.3224 -0.6510  0.5304
 5241TIP3   OH215686   1.612   4.018   2.477 -0.3744  0.0382 -0.4307
 5241TIP3    H115687   1.621   4.039   2.569 -2.2982  0.1737 -0.2177
 5241TIP3    H215688   1.679   3.952   2.460  0.2126  0.2527  0.9806
 5242TIP3   OH215689   5.149   2.096   3.622 -0.6802  0.0645  0.3939
 5242TIP3    H115690   5.122   2.186   3.603  0.5473  0.2301 -0.7101
 5242TIP3    H215691   5.083   2.042   3.579 -2.1319  0.3732  2.0923
 5243TIP3   OH215692   5.063   5.960   4.577  0.1373  0.4466  0.1604
 5243TIP3    H115693   5.104   5.901   4.641  0.2575 -0.3725 -0.6519
 5243TIP3    H215694   5.137   6.001   4.532  0.0585  1.5063  0.9530
 5244TIP3   OH215695   5.023   3.040   1.701 -0.4631  0.0736 -0.3935
 5244TIP3    H115696   4.937   3.049   1.660  0.3917  4.0455 -1.6873
 5244TIP3    H215697   5.024   3.106   1.770  0.9993 -1.1252  0.8278
 5245TIP3   OH215698   2.378   6.295   2.488  0.3791  0.4580  0.8166
 5245TIP3    H115699   2.339   6.257   2.409  1.8729  0.8401 -0.1464
 5245TIP3    H215700   2.315   6.275   2.558  0.5734 -2.8514  0.1836
 5246TIP3   OH215701   1.664   2.276   0.293 -0.0576  0.1226 -0.5051
 5246TIP3    H115702   1.609   2.296   0.217  1.1738  1.0481 -1.2008
 5246TIP3    H215703   1.626   2.329   0.364 -0.8219 -0.2365 -0.6397
 5247TIP3   OH215704   0.587   0.985   2.335  0.0149  0.1589  0.3996
 5247TIP3    H115705   0.555   0.922   2.399  1.2358 -1.1869 -0.2728
 5247TIP3    H215706   0.523   0.982   2.264 -0.5546  0.5672  0.8882
 5248TIP3   OH215707   6.366   5.429   4.512 -0.0135  0.0847  0.4319
 5248TIP3    H115708   6.273   5.451   4.503 -0.1150 -1.0867 -2.3107
 5248TIP3    H215709   6.407   5.468   4.435  1.7823  0.3950  1.4943
 5249TIP3   OH215710   2.937   2.256   5.224  0.9279  0.0832  0.4061
 5249TIP3    H115711   2.854   2.268   5.178  0.7578 -1.0419  0.3913
 5249TIP3    H215712   2.950   2.337   5.272 -0.0410  0.3838  0.1840
 5250TIP3   OH215713   0.964   4.823   0.592 -0.4748 -0.6734  0.7290
 5250TIP3    H115714   1.047   4.852   0.629 -0.9496  2.6439 -0.4311
 5250TIP3    H215715   0.981   4.815   0.498 -1.6650  1.4386  0.2523
 5251TIP3   OH215716   1.180   3.793   2.633  0.6975  0.4105  0.5263
 5251TIP3    H115717   1.146   3.818   2.719  1.4815 -0.0230  0.9766
 5251TIP3    H215718   1.144   3.706   2.618 -1.3310  1.3868 -0.6548
 5252TIP3   OH215719   5.600   4.383   0.020  0.1581 -0.3502  0.2339
 5252TIP3    H115720   5.527   4.444   0.016 -0.4457 -1.1149 -0.8855
 5252TIP3    H215721   5.624   4.380   0.113 -1.5945 -0.5196  0.7046
 5253TIP3   OH215722   4.568   3.552   2.072 -0.4861  0.4983 -0.1595
 5253TIP3    H115723   4.624   3.615   2.027 -0.1581  0.6581  0.4652
 5253TIP3    H215724   4.561   3.585   2.161 -1.6746  0.5467 -0.2491
 5254TIP3   OH215725   3.105   0.042   4.442  0.4208 -0.3692 -0.1419
 5254TIP3    H115726   3.132   0.038   4.351  0.3057 -3.9478 -0.1844
 5254TIP3    H215727   3.181   0.077   4.489  0.3998  1.7147 -1.5529
 5255TIP3   OH215728   0.185   0.582   0.167 -0.1819  0.7935  0.1552
 5255TIP3    H115729   0.263   0.637   0.161 -0.8248  1.5426 -2.3375
 5255TIP3    H215730   0.217   0.501   0.207  1.8452  1.1717 -0.5580
 5256TIP3   OH215731   2.447   6.563   3.074  0.5967  0.1750  0.4841
 5256TIP3    H115732   2.368   6.535   3.028  0.8960  0.4861 -0.2291
 5256TIP3    H215733   2.428   6.546   3.166  0.2142 -1.0018  0.1982
 5257TIP3   OH215734   4.417   1.929   2.310 -0.3031  0.3070  0.1181
 5257TIP3    H115735   4.505   1.963   2.291 -0.3249 -0.8381 -2.2612
 5257TIP3    H215736   4.416   1.842   2.272 -2.6733  0.5092 -0.3896
 5258TIP3   OH215737   3.919   4.523   0.276 -0.4936  0.4975 -0.1013
 5258TIP3    H115738   3.864   4.545   0.202  0.9116 -0.3877 -1.4829
 5258TIP3    H215739   3.912   4.428   0.285  0.3939  0.4288  0.0184
 5259TIP3   OH215740   6.739   5.996   3.292  0.1029  0.3171 -0.0024
 5259TIP3    H115741   6.645   6.005   3.276 -0.1150 -0.9309  0.4694
 5259TIP3    H215742   6.767   5.927   3.232  0.7484  0.7667 -0.2262
 5260TIP3   OH215743   6.023   0.963   0.035 -0.2800  0.2772  0.0469
 5260TIP3    H115744   6.008   0.869   0.045 -1.1154  0.2291 -1.4565
 5260TIP3    H215745   6.117   0.972   0.026 -0.3725 -0.7893 -2.9134
 5261TIP3   OH215746   5.290   3.360   0.019 -0.2134 -0.2166 -0.2859
 5261TIP3    H115747   5.254   3.385   0.104 -0.5967 -1.1775 -0.1600
 5261TIP3    H215748   5.277   3.265   0.014 -1.1059 -0.0420 -1.8343
 5262TIP3   OH215749   1.092   3.999   3.357  0.2496 -0.0759  0.2438
 5262TIP3    H115750   1.094   3.910   3.321 -0.6345  0.4776 -1.3193
 5262TIP3    H215751   1.155   4.047   3.303  0.7883  0.2289  1.1396
 5263TIP3   OH215752   5.226   4.295   4.581 -0.3127  0.2791 -0.6589
 5263TIP3    H115753   5.160   4.331   4.639  0.0493 -0.8258  0.4952
 5263TIP3    H215754   5.307   4.341   4.604  0.1407 -1.1331  0.7878
 5264TIP3   OH215755   2.320   6.533   4.144 -0.0357  0.2083 -0.5711
 5264TIP3    H115756   2.282   6.495   4.065 -1.3620  1.2823 -0.4828
 5264TIP3    H215757   2.376   6.604   4.111  2.4076 -1.6654 -0.7335
 5265TIP3   OH215758   5.825   2.730   3.726  0.6063 -0.3048 -0.3196
 5265TIP3    H115759   5.813   2.705   3.817  0.0311  1.7972  0.2502
 5265TIP3    H215760   5.762   2.801   3.712  1.2175 -0.0530 -2.1345
 5266TIP3   OH215761   2.984   2.833   4.247 -0.2385  0.1079  0.6448
 5266TIP3    H115762   2.902   2.793   4.276 -0.7132  0.3817 -0.2766
 5266TIP3    H215763   3.027   2.766   4.195  0.0791 -0.0013  1.0454
 5267TIP3   OH215764   0.206   6.398   2.559  0.4123  0.1141 -0.6281
 5267TIP3    H115765   0.297   6.368   2.560  0.4025  0.0450  0.8373
 5267TIP3    H215766   0.156   6.323   2.589 -0.2841 -0.2010 -2.4584
 5268TIP3   OH215767   1.187   3.290   5.919 -0.1118 -0.8636 -0.3100
 5268TIP3    H115768   1.112   3.308   5.863 -0.2853 -2.2899 -0.5852
 5268TIP3    H215769   1.252   3.251   5.860  1.3481  1.3988 -0.3174
 5269TIP3   OH215770   3.029   0.156   2.865 -0.7152  0.4673  0.5035
 5269TIP3    H115771   3.070   0.078   2.901 -2.2860 -0.1274  1.1093
 5269TIP3    H215772   3.068   0.167   2.778  1.3682  0.5164  1.4021
 5270TIP3   OH215773   0.750   4.649   0.756  0.2234  0.3070 -0.4259
 5270TIP3    H115774   0.840   4.679   0.741 -0.1156  2.2130  0.9008
 5270TIP3    H215775   0.757   4.588   0.829  0.4678  0.2427 -0.5010
 5271TIP3   OH215776   1.541   5.736   1.477  0.1749  0.4992  0.0943
 5271TIP3    H115777   1.452   5.711   1.500  0.1407  0.6708  0.1539
 5271TIP3    H215778   1.530   5.816   1.425  0.3549  1.1189  0.9937
 5272TIP3   OH215779   4.713   0.924   4.600  0.9899 -0.6742 -0.1193
 5272TIP3    H115780   4.772   0.923   4.676 -0.8894 -0.5148  1.4129
 5272TIP3    H215781   4.702   0.831   4.578  1.5466 -0.7204 -0.2290
 5273TIP3   OH215782   2.658   0.988   0.864  0.2148 -0.0972  0.9130
 5273TIP3    H115783   2.642   0.894   0.854  1.8463 -0.6153  2.6113
 5273TIP3    H215784   2.718   1.009   0.792 -0.8569 -0.1094 -0.0212
 5274TIP3   OH215785   0.907   5.870   1.436 -0.6635 -0.2730 -0.9365
 5274TIP3    H115786   0.869   5.916   1.511  1.3566  1.2807 -0.7671
 5274TIP3    H215787   0.928   5.783   1.470 -0.2125  0.2525  0.1808
 5275TIP3   OH215788   2.582   0.876   4.813  0.1415 -0.9479 -0.0606
 5275TIP3    H115789   2.507   0.910   4.765  0.4154 -0.6334 -0.2707
 5275TIP3    H215790   2.596   0.788   4.777 -0.7825 -1.4404  0.7283
 5276TIP3   OH215791   1.555   1.093   1.055  0.2951  0.1243  0.3849
 5276TIP3    H115792   1.529   1.046   1.134  0.3292  0.9497  0.9054
 5276TIP3    H215793   1.591   1.026   0.997 -0.4487 -0.6049  0.7579
 5277TIP3   OH215794   5.974   5.460   3.331  0.1112 -0.1775 -0.1590
 5277TIP3    H115795   5.887   5.499   3.341 -1.2526 -3.0721  0.3629
 5277TIP3    H215796   6.020   5.484   3.411 -1.6327 -1.7104  1.4205
 5278TIP3   OH215797   0.888   1.292   1.210 -0.0630  0.3111 -0.2704
 5278TIP3    H115798   0.815   1.294   1.272  0.0186 -0.0062 -0.1634
 5278TIP3    H215799   0.881   1.375   1.163  0.2756  0.8540  0.6159
 5279TIP3   OH215800   1.228   5.434   0.587  0.7777  0.3635  0.7739
 5279TIP3    H115801   1.281   5.495   0.535  0.1734  1.7614  1.7218
 5279TIP3    H215802   1.241   5.349   0.545  0.3493  1.3964 -1.6643
 5280TIP3   OH215803   7.048   5.816   0.303 -0.5870  0.7055 -0.2270
 5280TIP3    H115804   7.112   5.876   0.341 -0.2276  1.3711 -1.7675
 5280TIP3    H215805   7.053   5.737   0.357  1.1651  0.9335  0.0106
 5281TIP3   OH215806   6.246   2.811   4.538 -0.6611  0.3747 -0.4524
 5281TIP3    H115807   6.247   2.717   4.556 -1.3849  0.7736  2.0160
 5281TIP3    H215808   6.335   2.840   4.558 -0.9435  0.4956  0.6928
 5282TIP3   OH215809   0.740   2.182   1.449 -0.5415 -0.0765  0.6127
 5282TIP3    H115810   0.676   2.224   1.391  1.6802  1.2058 -1.0672
 5282TIP3    H215811   0.822   2.185   1.400  1.0056 -0.9610  2.9776
 5283TIP3   OH215812   4.906   3.741   1.687  0.1051 -0.7014 -0.0359
 5283TIP3    H115813   4.957   3.737   1.606  0.1361  0.6914 -0.1114
 5283TIP3    H215814   4.856   3.823   1.680 -1.2496 -1.4290  0.5687
 5284TIP3   OH215815   3.925   4.130   5.352 -0.1453 -0.2783 -0.4292
 5284TIP3    H115816   3.845   4.116   5.402  0.9388 -1.2336  1.1257
 5284TIP3    H215817   3.916   4.071   5.277 -1.1799  0.1438 -0.6591
 5285TIP3   OH215818   1.423   2.038   2.046 -0.6151  0.1005  0.3958
 5285TIP3    H115819   1.477   2.116   2.049  0.7900 -0.8257  0.0876
 5285TIP3    H215820   1.371   2.047   1.966  0.4750  0.1354 -0.3259
 5286TIP3   OH215821   1.388   5.912   2.095  0.0100  0.2390 -0.1909
 5286TIP3    H115822   1.435   5.846   2.146  2.6612  1.3438 -1.0018
 5286TIP3    H215823   1.457   5.966   2.057 -1.9945  2.4513 -0.9534
 5287TIP3   OH215824   0.999   3.219   1.097 -0.1064  0.2560  1.0784
 5287TIP3    H115825   0.957   3.162   1.034 -0.8510  0.6259  1.2252
 5287TIP3    H215826   1.046   3.284   1.044 -0.9255  0.7097  0.8956
 5288TIP3   OH215827   1.178   4.341   3.731  0.0591  0.3677  0.4461
 5288TIP3    H115828   1.225   4.389   3.663 -0.9697  2.2983  1.0272
 5288TIP3    H215829   1.244   4.327   3.800 -0.1866  3.4868  1.4726
 5289TIP3   OH215830   1.304   6.578   5.371  0.3842 -0.3535 -0.1881
 5289TIP3    H115831   1.266   6.602   5.455 -0.1681 -0.6990 -0.3298
 5289TIP3    H215832   1.388   6.537   5.393  1.2632  1.4904  0.0618
 5290TIP3   OH215833  -0.016   3.288   4.476  0.3159  0.0749 -1.0567
 5290TIP3    H115834   0.004   3.212   4.421  1.6856  1.2367 -2.2593
 5290TIP3    H215835   0.069   3.321   4.503 -0.2957  0.6568  0.2358
 5291TIP3   OH215836   6.887   1.611   3.273 -0.2537  0.4076  0.4741
 5291TIP3    H115837   6.938   1.637   3.350 -0.5477 -0.2817  0.9147
 5291TIP3    H215838   6.845   1.529   3.299 -1.2288  0.7265 -0.0342
 5292TIP3   OH215839   0.153   6.277   3.814 -0.5151  0.2562 -0.2442
 5292TIP3    H115840   0.148   6.372   3.807  1.6720  0.5450  1.0947
 5292TIP3    H215841   0.062   6.248   3.815 -1.2243  2.3114 -0.8771
 5293TIP3   OH215842   4.810   3.439   5.272  0.0938  0.4022  0.1896
 5293TIP3    H115843   4.738   3.438   5.335 -0.2689 -0.6312 -0.2176
 5293TIP3    H215844   4.768   3.456   5.188  0.4154  0.5197  0.0509
 5294TIP3   OH215845   5.213   0.016   1.894  0.6673 -0.3241 -0.2752
 5294TIP3    H115846   5.121   0.037   1.878  0.4155 -1.2029 -0.0394
 5294TIP3    H215847   5.252   0.098   1.924 -0.7921 -0.6184  2.8562
 5295TIP3   OH215848   4.294   1.370   3.385  0.0586 -0.0341 -0.2753
 5295TIP3    H115849   4.292   1.464   3.365  0.2112  0.6001  2.2724
 5295TIP3    H215850   4.288   1.367   3.480 -0.9730 -2.6829 -0.3632
 5296TIP3   OH215851   0.158   5.302   4.667  0.1025  0.4846  0.4519
 5296TIP3    H115852   0.112   5.340   4.592  0.9607 -0.2302 -0.4733
 5296TIP3    H215853   0.093   5.245   4.708  0.0082 -0.2103 -0.6002
 5297TIP3   OH215854   6.095   4.885   5.527 -0.1251 -0.0675  0.0016
 5297TIP3    H115855   6.086   4.817   5.594  1.8393 -0.9747 -0.5693
 5297TIP3    H215856   6.069   4.966   5.571 -0.1083 -0.8330  1.4845
 5298TIP3   OH215857   4.357   4.617   2.124 -0.6120  0.0732  0.0989
 5298TIP3    H115858   4.426   4.677   2.097 -0.3267  1.1069  2.7782
 5298TIP3    H215859   4.275   4.663   2.103 -0.4214  0.3543 -0.0335
 5299TIP3   OH215860   2.273   2.742   3.679  0.2382 -1.4677 -0.0379
 5299TIP3    H115861   2.324   2.722   3.757 -0.3525  1.0490  1.1002
 5299TIP3    H215862   2.327   2.804   3.630 -1.2303  0.5495  0.7512
 5300TIP3   OH215863   6.393   4.998   5.317 -0.4936 -0.5053  0.8722
 5300TIP3    H115864   6.340   4.979   5.240 -0.8239 -1.3860  1.3064
 5300TIP3    H215865   6.421   4.912   5.349  1.6860 -0.0495  0.3312
 5301TIP3   OH215866   1.890   1.691   0.408  0.3514  0.0550 -0.1904
 5301TIP3    H115867   1.797   1.682   0.426 -0.1757  2.1148 -1.5423
 5301TIP3    H215868   1.922   1.754   0.473  0.5115  0.2834 -0.4818
 5302TIP3   OH215869   2.035   6.128   4.171 -0.2978  0.5264 -0.0710
 5302TIP3    H115870   2.130   6.140   4.167  0.0058 -1.8500 -2.0061
 5302TIP3    H215871   2.021   6.071   4.247  0.2799 -1.8596 -1.6398
 5303TIP3   OH215872   1.397   2.140   5.301 -0.2625  0.2306 -0.4722
 5303TIP3    H115873   1.323   2.112   5.247 -0.0232  0.0324 -0.6994
 5303TIP3    H215874   1.358   2.200   5.365 -0.2567  2.0450 -2.0820
 5304TIP3   OH215875   6.172   5.295   1.217  0.5661  0.2721 -0.3824
 5304TIP3    H115876   6.250   5.273   1.165 -1.0398 -0.7682 -2.5059
 5304TIP3    H215877   6.131   5.366   1.168 -0.2331  0.2806  0.2870
 5305TIP3   OH215878   5.133   1.286   2.921  0.2003  0.1495 -0.3226
 5305TIP3    H115879   5.099   1.282   3.010  0.1677 -0.4317 -0.3584
 5305TIP3    H215880   5.208   1.227   2.922  0.6164  0.6694 -0.5012
 5306TIP3   OH215881   1.054   5.224   3.533  0.3077 -0.6433 -0.1184
 5306TIP3    H115882   1.138   5.267   3.547  1.4651 -2.5986 -0.6233
 5306TIP3    H215883   1.072   5.131   3.547 -1.5245 -1.2350 -1.3153
 5307TIP3   OH215884   4.719   1.246   4.484  0.1304  0.0308 -0.2496
 5307TIP3    H115885   4.678   1.165   4.456 -0.1694 -0.1397  0.6403
 5307TIP3    H215886   4.695   1.255   4.576 -0.9474  1.8069 -0.6523
 5308TIP3   OH215887   3.899   5.430   3.452 -0.0345 -0.1041 -0.4346
 5308TIP3    H115888   3.955   5.353   3.441 -0.1586 -0.1212 -0.9541
 5308TIP3    H215889   3.959   5.505   3.447 -0.0471 -0.1244 -0.9580
 5309TIP3   OH215890   4.250   6.014   0.911 -0.1744 -0.6411  0.1343
 5309TIP3    H115891   4.263   6.108   0.898 -0.6128 -0.5014  0.6772
 5309TIP3    H215892   4.334   5.983   0.946 -0.0012 -0.4697 -0.1258
 5310TIP3   OH215893   2.352   2.189   2.862 -0.2920  0.2257  0.3653
 5310TIP3    H115894   2.292   2.133   2.813 -2.7523  1.4744  1.7482
 5310TIP3    H215895   2.344   2.159   2.953 -1.5380  2.5537  1.1155
 5311TIP3   OH215896   1.912   3.967   4.247  0.0793  0.3853 -0.3477
 5311TIP3    H115897   1.864   4.011   4.316  1.7345 -0.1077  1.2068
 5311TIP3    H215898   1.853   3.898   4.216 -2.0533  2.7711 -1.9756
 5312TIP3   OH215899   2.806   5.663   1.047  0.0768 -0.0210 -0.5820
 5312TIP3    H115900   2.772   5.590   1.099 -0.9406 -0.7648 -2.2012
 5312TIP3    H215901   2.771   5.741   1.090 -0.5880 -0.6010 -0.0449
 5313TIP3   OH215902   3.727   0.107   2.182  0.5488 -0.2216  0.0557
 5313TIP3    H115903   3.810   0.141   2.214  0.7432  1.0177 -1.6330
 5313TIP3    H215904   3.661   0.168   2.216  0.7386  0.9953 -1.6830
 5314TIP3   OH215905   0.298   4.459   4.493 -0.5230  0.0774  0.1954
 5314TIP3    H115906   0.235   4.415   4.550 -1.2766 -2.3730 -2.3470
 5314TIP3    H215907   0.378   4.406   4.500 -0.5868 -0.1795 -0.8934
 5315TIP3   OH215908   3.266   3.274   1.409 -0.2866  0.0027  0.0886
 5315TIP3    H115909   3.189   3.238   1.366  0.0426  1.1395 -1.5278
 5315TIP3    H215910   3.328   3.290   1.339  1.2455 -0.3859  1.2963
 5316TIP3   OH215911   4.309   6.440   0.461 -0.2992 -0.0830  0.2690
 5316TIP3    H115912   4.308   6.354   0.419  0.7539 -0.4291  0.8947
 5316TIP3    H215913   4.380   6.433   0.526  0.1242  1.4173 -0.0134
 5317TIP3   OH215914   5.601   2.130   0.558 -0.3570  0.3628 -0.5220
 5317TIP3    H115915   5.619   2.173   0.641  1.8416  2.5386 -1.9809
 5317TIP3    H215916   5.636   2.041   0.569  1.6406  1.1904  0.3182
 5318TIP3   OH215917   7.140   4.255   0.166  0.0614 -0.3145 -0.5203
 5318TIP3    H115918   7.157   4.334   0.115 -0.0329 -0.6444 -1.0739
 5318TIP3    H215919   7.083   4.284   0.237 -1.5526 -0.2024 -1.7852
 5319TIP3   OH215920   6.811   0.264   0.430  0.3380  0.0809 -0.2166
 5319TIP3    H115921   6.873   0.324   0.472  1.4758  0.1401 -1.9076
 5319TIP3    H215922   6.734   0.317   0.412  0.6894  0.6087 -0.1811
 5320TIP3   OH215923   1.969   0.898   1.544  0.1631  0.0097 -0.2662
 5320TIP3    H115924   1.997   0.965   1.606  2.7739  0.6197 -1.9254
 5320TIP3    H215925   1.978   0.816   1.591  1.2669  0.5254  0.4730
 5321TIP3   OH215926   5.190   3.096   0.048  0.2282 -0.4236 -0.4426
 5321TIP3    H115927   5.169   3.031  -0.018 -5.0223  0.7207 -0.3193
 5321TIP3    H215928   5.192   3.048   0.130 -2.0186 -0.7714 -0.5403
 5322TIP3   OH215929   6.036   0.575   5.814  0.0119  0.2974  0.3891
 5322TIP3    H115930   6.071   0.495   5.854  0.1690  0.0071 -0.2968
 5322TIP3    H215931   5.951   0.589   5.857 -0.2785 -0.5694  0.1225
 5323TIP3   OH215932   6.862   6.068   1.493  0.1119  0.0987  0.3114
 5323TIP3    H115933   6.865   6.009   1.569 -3.4136 -1.3892 -0.5187
 5323TIP3    H215934   6.790   6.128   1.513  0.6463  1.1624 -0.8929
 5324TIP3   OH215935   7.026   2.074   0.581 -0.1193  0.5193 -0.3520
 5324TIP3    H115936   6.966   2.147   0.597 -0.2343  0.6448 -1.2812
 5324TIP3    H215937   6.996   2.004   0.638  0.2494  1.3343  0.8841
 5325TIP3   OH215938   3.612   3.550   0.246 -0.1889  0.6094 -0.2657
 5325TIP3    H115939   3.546   3.619   0.254 -1.0928 -0.3332  0.5658
 5325TIP3    H215940   3.591   3.488   0.316  0.0375 -0.9981 -1.5747
 5326TIP3   OH215941   4.591   0.068   0.302  0.4320 -0.3483 -0.1918
 5326TIP3    H115942   4.578   0.009   0.228  1.1316  0.9074 -1.3528
 5326TIP3    H215943   4.672   0.115   0.282 -0.2480  1.2087  0.5543
 5327TIP3   OH215944   0.300   5.790   1.564  0.1145  0.2903 -0.5108
 5327TIP3    H115945   0.275   5.868   1.613  1.1454  1.1535 -1.2907
 5327TIP3    H215946   0.257   5.801   1.479 -1.5985 -1.1534  0.1106
 5328TIP3   OH215947   6.581   3.638   3.808 -0.4681  0.3069 -0.0565
 5328TIP3    H115948   6.589   3.710   3.869 -0.0115  0.4931 -0.3274
 5328TIP3    H215949   6.670   3.626   3.773 -0.2218 -1.2635  0.9754
 5329TIP3   OH215950   4.010   0.104   3.891  0.4149  0.0040 -0.0974
 5329TIP3    H115951   3.983   0.012   3.899 -0.2274  0.2451  0.6912
 5329TIP3    H215952   3.966   0.148   3.964  2.1377  0.6199  0.6278
 5330TIP3   OH215953   6.732   4.437   2.735 -0.8256  0.1355 -0.3436
 5330TIP3    H115954   6.747   4.343   2.733 -1.7842 -0.0327 -0.3214
 5330TIP3    H215955   6.642   4.446   2.766 -0.9397  1.0319 -0.8922
 5331TIP3   OH215956   2.597   0.600   5.280 -0.6088 -0.3404 -0.5271
 5331TIP3    H115957   2.675   0.644   5.246 -0.5100 -1.1572 -1.4076
 5331TIP3    H215958   2.542   0.588   5.203 -2.2399  1.4182  0.2763
 5332TIP3   OH215959   1.182   4.157   1.508  0.1961 -0.2598  0.1561
 5332TIP3    H115960   1.266   4.115   1.495  0.5705  0.8825 -1.4995
 5332TIP3    H215961   1.201   4.251   1.505 -0.9797  0.0259  0.9013
 5333TIP3   OH215962   4.311   1.748   1.777  0.1945 -0.0436 -0.0621
 5333TIP3    H115963   4.289   1.833   1.817 -1.2342 -0.4709  0.0962
 5333TIP3    H215964   4.340   1.770   1.689 -1.5690  0.5348 -0.5415
 5334TIP3   OH215965   4.243   1.999   5.012 -0.0095  0.1329 -0.9642
 5334TIP3    H115966   4.290   1.990   5.095  0.7066  1.2832 -1.2217
 5334TIP3    H215967   4.234   2.093   5.000  0.5283  0.0091 -2.5460
 5335TIP3   OH215968   3.550   4.967   2.307  0.1214 -0.2465  0.3506
 5335TIP3    H115969   3.632   4.942   2.350  0.7154 -0.6269 -0.9665
 5335TIP3    H215970   3.545   4.911   2.230 -0.9978  0.3164 -0.0085
 5336TIP3   OH215971   2.504   3.074   2.770 -0.0120 -0.1387  0.2315
 5336TIP3    H115972   2.422   3.123   2.765  0.1962  0.2575  0.6551
 5336TIP3    H215973   2.573   3.141   2.768  0.2704 -0.3857  1.0295
 5337TIP3   OH215974   3.318   4.156   1.786  0.5449 -0.0189 -0.2175
 5337TIP3    H115975   3.405   4.172   1.822 -0.0205  0.6037  0.9309
 5337TIP3    H215976   3.298   4.236   1.736 -0.0161  0.5509  0.8859
 5338TIP3   OH215977   3.975   2.349   1.186 -0.6624 -0.0074  0.4420
 5338TIP3    H115978   4.017   2.295   1.252 -1.1499 -0.2912  0.5254
 5338TIP3    H215979   3.995   2.439   1.213 -0.4969 -0.1299  0.7322
 5339TIP3   OH215980   5.258   5.311   5.577 -0.3036 -0.1845  0.4222
 5339TIP3    H115981   5.216   5.393   5.549  1.1251  0.5835  0.4343
 5339TIP3    H215982   5.280   5.325   5.669 -0.2591 -0.6784  0.4898
 5340TIP3   OH215983   2.961   3.954   0.944  0.0694  0.1762  0.3522
 5340TIP3    H115984   2.877   3.965   0.988  0.3059 -0.5652  1.0175
 5340TIP3    H215985   3.005   3.883   0.993  0.8535  0.1864 -0.3110
 5341TIP3   OH215986   1.643   1.312   5.083 -0.0822 -0.0363 -0.4780
 5341TIP3    H115987   1.549   1.326   5.067 -0.2985  0.5224  1.0202
 5341TIP3    H215988   1.663   1.373   5.155  1.7206  0.7418 -1.5873
 5342TIP3   OH215989   2.115   0.119   2.221 -0.0772 -0.5209  0.5142
 5342TIP3    H115990   2.088   0.052   2.157  0.2365  0.1450 -0.3356
 5342TIP3    H215991   2.166   0.070   2.286  1.0442 -0.9775 -0.6559
 5343TIP3   OH215992   5.402   5.103   2.132  0.1595  0.2286  0.1553
 5343TIP3    H115993   5.342   5.176   2.116  0.0391  0.3352  1.0222
 5343TIP3    H215994   5.349   5.025   2.117 -0.0110  0.3208  0.2744
 5344TIP3   OH215995   3.219   5.620   3.532 -0.4717 -0.1873 -0.0770
 5344TIP3    H115996   3.237   5.628   3.626 -2.0805 -0.1984  0.2623
 5344TIP3    H215997   3.274   5.547   3.503  1.0537  0.6647  0.5492
 5345TIP3   OH215998   5.719   1.571   5.107 -0.3204 -0.0598  0.1927
 5345TIP3    H115999   5.694   1.627   5.181  1.5318  0.3428  0.5649
 5345TIP3    H216000   5.799   1.528   5.136  0.7189  0.4532 -1.7390
 5346TIP3   OH216001   1.204   6.257   0.151  0.4835 -0.0817 -0.0857
 5346TIP3    H116002   1.176   6.255   0.059 -0.5012  1.0834  0.1681
 5346TIP3    H216003   1.298   6.239   0.147  0.2902 -1.0147 -1.2340
 5347TIP3   OH216004   5.428   5.203   1.810 -0.0834  0.1652 -0.0402
 5347TIP3    H116005   5.434   5.284   1.759  1.3186  0.6965  0.8949
 5347TIP3    H216006   5.450   5.230   1.899 -0.8708 -1.0310  0.5425
 5348TIP3   OH216007   6.321   0.552   1.975 -0.5549  0.1187 -0.7650
 5348TIP3    H116008   6.384   0.519   1.911 -0.5665  0.7073 -1.0889
 5348TIP3    H216009   6.244   0.576   1.922  0.2961  2.9015 -0.9059
 5349TIP3   OH216010   0.015   3.897   0.398 -0.6433  0.4285  0.4952
 5349TIP3    H116011  -0.037   3.828   0.440 -0.0874 -0.2893  0.0289
 5349TIP3    H216012   0.054   3.855   0.322 -0.7144  1.4082 -0.1020
 5350TIP3   OH216013   3.555   4.126   3.911  0.2858 -0.5109 -0.3245
 5350TIP3    H116014   3.598   4.198   3.956 -0.3638 -0.3381  0.0209
 5350TIP3    H216015   3.541   4.157   3.822  1.9513 -1.0040 -0.7936
 5351TIP3   OH216016   1.693   0.598   0.280 -0.2976  0.2509  0.8800
 5351TIP3    H116017   1.755   0.649   0.227 -2.0482  0.9633 -0.5674
 5351TIP3    H216018   1.696   0.510   0.241 -1.9661  0.8977 -0.8562
 5352TIP3   OH216019   6.919   1.163   2.298 -0.2536 -0.0826  0.2400
 5352TIP3    H116020   6.868   1.100   2.247  1.3389 -1.3865  0.1646
 5352TIP3    H216021   6.926   1.123   2.385  1.5507 -0.5108 -0.0618
 5353TIP3   OH216022   4.124   5.012   0.016 -0.2060  0.1103  0.3760
 5353TIP3    H116023   4.065   5.059   0.074 -0.1345 -0.4114  0.8886
 5353TIP3    H216024   4.174   4.954   0.074  0.4414  0.1608 -0.1069
 5354TIP3   OH216025   1.245   4.163   5.145 -0.1579 -0.0994 -0.4590
 5354TIP3    H116026   1.191   4.167   5.223  0.3373 -2.2314  0.0451
 5354TIP3    H216027   1.193   4.113   5.082  0.1872  0.0205 -0.8458
 5355TIP3   OH216028   3.674   6.755   5.122 -0.4353 -0.0131  0.3425
 5355TIP3    H116029   3.672   6.756   5.026 -0.8128 -2.2383  0.2799
 5355TIP3    H216030   3.764   6.780   5.144  0.5947 -2.3788 -0.7632
 5356TIP3   OH216031   0.623   6.115   1.445 -0.1003  0.1493  0.4601
 5356TIP3    H116032   0.702   6.166   1.463 -1.3824  2.4908 -0.1516
 5356TIP3    H216033   0.599   6.077   1.530  0.2698  1.5621  1.2227
 5357TIP3   OH216034   6.761   6.381   0.994  0.1345  0.1594 -0.1505
 5357TIP3    H116035   6.694   6.397   1.060 -0.2517 -2.3228  0.1578
 5357TIP3    H216036   6.745   6.446   0.926 -1.0837  1.1091  0.9985
 5358TIP3   OH216037   2.614   1.299   4.657  0.4713 -0.3416  0.2855
 5358TIP3    H116038   2.656   1.318   4.573 -0.2939 -1.0512 -0.2692
 5358TIP3    H216039   2.681   1.321   4.723  0.5939  1.5364 -0.4233
 5359TIP3   OH216040   5.520   3.911   4.608 -0.4901  0.2294  0.2339
 5359TIP3    H116041   5.527   3.816   4.607  1.5004  0.3127 -0.6306
 5359TIP3    H216042   5.427   3.929   4.601 -0.8690 -1.6539 -0.1110
 5360TIP3   OH216043   3.525   2.374   0.104 -0.3814  0.3344 -0.6290
 5360TIP3    H116044   3.460   2.421   0.052 -2.6082 -0.3457  1.3391
 5360TIP3    H216045   3.508   2.401   0.194  0.0056 -2.1774  0.2866
 5361TIP3   OH216046   2.847   0.901   3.927 -0.2343  0.3196  0.0135
 5361TIP3    H116047   2.878   0.856   4.005  0.9080  0.4885 -0.3172
 5361TIP3    H216048   2.753   0.885   3.926 -0.1917 -0.1376  1.1240
 5362TIP3   OH216049   3.625   2.015   3.968  0.2351 -0.4921 -0.0296
 5362TIP3    H116050   3.652   2.102   3.998 -0.3135 -0.2992 -0.0702
 5362TIP3    H216051   3.627   1.961   4.047 -1.1214 -0.0042  0.3785
 5363TIP3   OH216052   1.729   3.593   4.225 -0.6905  0.2127  0.1247
 5363TIP3    H116053   1.669   3.665   4.245  0.1880  1.1943 -0.6874
 5363TIP3    H216054   1.816   3.634   4.224 -0.1603 -0.8962 -0.1752
 5364TIP3   OH216055   2.141   2.605   0.831  0.4309  0.8790  0.1702
 5364TIP3    H116056   2.216   2.642   0.877  0.3307 -2.1498  3.1825
 5364TIP3    H216057   2.173   2.524   0.792 -0.5661  1.1857 -1.3850
 5365TIP3   OH216058   5.533   2.137   1.854 -0.2466  0.4262 -0.4985
 5365TIP3    H116059   5.586   2.140   1.933 -0.7999  0.4626 -0.1255
 5365TIP3    H216060   5.509   2.228   1.838 -1.7847  0.2098  0.4254
 5366TIP3   OH216061   1.184   3.302   0.270 -0.4749 -0.1598  0.1411
 5366TIP3    H116062   1.175   3.355   0.349 -0.9676 -0.0804  0.0285
 5366TIP3    H216063   1.095   3.276   0.247 -0.2663 -0.8253  0.0515
 5367TIP3   OH216064   6.355   3.430   2.880 -0.3470  0.1121  0.2417
 5367TIP3    H116065   6.264   3.458   2.884 -0.2574  0.2562  2.9455
 5367TIP3    H216066   6.394   3.464   2.961  2.6447  1.8066 -1.7279
 5368TIP3   OH216067   3.749   0.215   2.888  0.1763  0.4821  0.0390
 5368TIP3    H116068   3.671   0.270   2.874 -0.0674  0.5429  1.4342
 5368TIP3    H216069   3.722   0.128   2.858 -0.3770  0.5509  0.3042
 5369TIP3   OH216070   4.014   2.238  -0.007 -0.1338 -0.2550  0.0359
 5369TIP3    H116071   4.097   2.285   0.005 -0.3654  0.3698 -0.7134
 5369TIP3    H216072   3.958   2.270   0.064  0.0024 -0.0799  0.0646
 5370TIP3   OH216073   6.571   2.413   3.098 -0.1754 -0.1507 -0.3889
 5370TIP3    H116074   6.591   2.394   3.189  0.4301  0.7947 -0.3188
 5370TIP3    H216075   6.582   2.328   3.053 -2.0670 -0.9993  0.6409
 5371TIP3   OH216076   3.840   5.662   2.557 -0.2709  0.8823 -0.0846
 5371TIP3    H116077   3.921   5.612   2.568 -0.3529  0.6257 -0.6271
 5371TIP3    H216078   3.772   5.606   2.593 -0.4362  0.3623 -1.1733
 5372TIP3   OH216079   5.382   0.840   2.845  0.6875  0.2885  0.0536
 5372TIP3    H116080   5.328   0.873   2.917 -1.4062 -0.2908 -1.1769
 5372TIP3    H216081   5.450   0.787   2.887 -0.0672  0.5396  1.6222
 5373TIP3   OH216082   1.072   1.988   3.050 -0.4175  0.3751  0.5775
 5373TIP3    H116083   1.124   2.052   3.001 -1.9484  0.5283 -0.9427
 5373TIP3    H216084   1.042   2.035   3.127 -0.5932  1.1542  0.0420
 5374TIP3   OH216085   7.020   1.989   4.394 -0.0597 -0.7828 -0.8926
 5374TIP3    H116086   7.062   1.926   4.336  0.1412 -0.1192 -1.4891
 5374TIP3    H216087   6.954   1.938   4.441  0.3807 -1.5178 -1.0539
 5375TIP3   OH216088   2.545   1.520   4.024 -0.1712  0.3675  0.1249
 5375TIP3    H116089   2.577   1.487   4.108  3.3236 -0.6841 -1.4153
 5375TIP3    H216090   2.558   1.615   4.029 -0.8305  0.4268  1.0349
 5376TIP3   OH216091   2.991   4.120   0.747 -0.4807  0.1860  0.7624
 5376TIP3    H116092   2.898   4.141   0.739 -0.4803  0.2165  0.8424
 5376TIP3    H216093   2.995   4.053   0.815 -0.5726 -0.6745 -0.0511
 5377TIP3   OH216094   5.712   6.520   4.807  0.2192  0.3775 -0.2227
 5377TIP3    H116095   5.797   6.483   4.785  0.3413  1.2231 -1.2881
 5377TIP3    H216096   5.654   6.492   4.736 -0.0151  1.0238 -0.3010
 5378TIP3   OH216097   5.802   6.646   5.271  0.0991 -0.8543 -0.2998
 5378TIP3    H116098   5.715   6.637   5.233 -0.0393  0.1920 -0.2534
 5378TIP3    H216099   5.831   6.734   5.245 -0.5123  0.4724  2.9698
 5379TIP3   OH216100   6.135   2.674   2.176 -0.3949  0.0796  0.2627
 5379TIP3    H116101   6.075   2.702   2.244  0.6338  2.1319  0.4174
 5379TIP3    H216102   6.156   2.583   2.197 -1.2696  0.2051  1.7858
 5380TIP3   OH216103   6.428   6.578   3.261 -0.3947 -0.2798  0.2365
 5380TIP3    H116104   6.492   6.507   3.265 -1.3257 -1.1273  0.2161
 5380TIP3    H216105   6.358   6.551   3.320 -1.9595 -0.5987 -1.6727
 5381TIP3   OH216106   1.153   2.197   2.009 -0.3501  0.4589  0.0552
 5381TIP3    H116107   1.231   2.215   1.955 -0.2610 -0.7499 -0.2541
 5381TIP3    H216108   1.186   2.195   2.099 -0.4617  2.2800  0.1768
 5382TIP3   OH216109   6.582   3.436   5.071 -0.4371 -0.1192  0.2644
 5382TIP3    H116110   6.576   3.523   5.031  1.5466 -0.1801 -0.2669
 5382TIP3    H216111   6.543   3.377   5.007 -0.6749  0.2336  0.0824
 5383TIP3   OH216112   3.116   5.258   1.884 -0.0865  0.6206  0.0639
 5383TIP3    H116113   3.142   5.264   1.792 -1.5359  2.0433 -0.2953
 5383TIP3    H216114   3.153   5.336   1.925  0.6336 -0.0532  0.7358
 5384TIP3   OH216115   4.078   2.026   1.646 -0.1410 -0.3625 -0.0192
 5384TIP3    H116116   4.045   1.940   1.619 -1.1527 -0.3494  1.0820
 5384TIP3    H216117   4.117   2.010   1.732  1.8848 -0.1655 -0.8311
 5385TIP3   OH216118   5.304   5.212   3.125 -0.0859 -0.1733 -0.1739
 5385TIP3    H116119   5.318   5.117   3.128  0.1746 -0.1578 -0.8087
 5385TIP3    H216120   5.376   5.246   3.073  0.4122  0.5098  0.9242
 5386TIP3   OH216121   2.964   3.055   3.698 -0.2634  0.4918  0.1162
 5386TIP3    H116122   3.051   3.084   3.726 -0.8342 -0.2146  2.9919
 5386TIP3    H216123   2.905   3.086   3.767 -2.1150 -0.1600 -1.0935
 5387TIP3   OH216124   1.872   6.776   3.080  0.3509  0.1601 -0.1097
 5387TIP3    H116125   1.795   6.732   3.115  0.2218 -0.3533 -1.0059
 5387TIP3    H216126   1.837   6.848   3.027  0.2906 -1.8086 -2.9411
 5388TIP3   OH216127   4.206   1.505   1.914  0.0282 -0.1405  0.2834
 5388TIP3    H116128   4.230   1.592   1.884 -1.3316  0.7528  1.6311
 5388TIP3    H216129   4.120   1.489   1.874 -1.1210  0.4558  2.3647
 5389TIP3   OH216130   3.393   5.921   3.651  0.0000  0.6931 -0.8736
 5389TIP3    H116131   3.396   5.942   3.557  0.6155 -1.1602 -1.3202
 5389TIP3    H216132   3.388   5.825   3.653 -3.4771  0.7919  0.9626
 5390TIP3   OH216133   0.965   3.193   0.667 -0.0412  0.0768 -0.2862
 5390TIP3    H116134   0.954   3.252   0.741  0.1391 -0.8112  0.4583
 5390TIP3    H216135   1.055   3.206   0.637 -0.0211  0.2201 -0.1576
 5391TIP3   OH216136   4.370   2.273   0.113  0.1659 -0.6840 -0.0013
 5391TIP3    H116137   4.338   2.298   0.200  0.1740 -0.7971  0.0345
 5391TIP3    H216138   4.334   2.340   0.054  0.5366 -0.3540  0.1505
 5392TIP3   OH216139   2.100   1.006   5.361 -0.1409  0.1725  0.4069
 5392TIP3    H116140   2.194   1.025   5.362 -0.1390  0.1615  1.3975
 5392TIP3    H216141   2.071   1.024   5.450 -1.4127  1.7225 -0.2823
 5393TIP3   OH216142   6.285   4.572   4.558  0.1863 -0.0790 -0.5947
 5393TIP3    H116143   6.249   4.650   4.600 -1.1670 -0.3833 -1.1477
 5393TIP3    H216144   6.282   4.504   4.626 -0.9217 -0.2698 -0.8149
 5394TIP3   OH216145   3.692   0.236   2.510  0.2357  0.0281 -0.0938
 5394TIP3    H116146   3.618   0.224   2.569 -2.0242  0.5189 -2.6474
 5394TIP3    H216147   3.696   0.331   2.495  2.4823  0.2238  1.1911
 5395TIP3   OH216148   3.261   4.498   1.923 -0.0533 -0.8495  0.2022
 5395TIP3    H116149   3.277   4.539   1.838 -0.9856 -0.8133  0.0340
 5395TIP3    H216150   3.220   4.567   1.975 -0.3634 -1.1620  0.3709
 5396TIP3   OH216151   2.993   0.408   3.424  0.0086 -0.1005  0.1319
 5396TIP3    H116152   2.944   0.353   3.364 -0.0221  1.9083 -1.8166
 5396TIP3    H216153   2.959   0.496   3.409  1.5258  0.7946  1.5445
 5397TIP3   OH216154   3.111   2.958   2.729  0.3679  0.1855 -0.0416
 5397TIP3    H116155   3.175   2.913   2.674  2.5108  1.6926  1.0788
 5397TIP3    H216156   3.098   2.899   2.804 -0.4797 -0.6385 -0.8130
 5398TIP3   OH216157   4.008   3.351   5.706 -0.4617 -0.0733 -0.0100
 5398TIP3    H116158   4.032   3.307   5.788 -0.3793 -2.2356 -1.1150
 5398TIP3    H216159   3.937   3.298   5.671  1.5225 -1.1417 -2.8197
 5399TIP3   OH216160   0.672   6.528   2.659  0.5606  0.5053  0.1428
 5399TIP3    H116161   0.746   6.555   2.713  0.6080  1.6927 -0.5009
 5399TIP3    H216162   0.710   6.505   2.574  0.0689  2.5085 -0.6628
 5400TIP3   OH216163   3.980   5.319   4.565 -0.9415  0.2199  0.0615
 5400TIP3    H116164   4.028   5.324   4.482 -2.6972  0.3881 -1.0005
 5400TIP3    H216165   4.027   5.378   4.624  1.8407 -1.7776  0.0336
 5401TIP3   OH216166   1.237   1.993   4.339  0.5718 -0.3838 -0.3079
 5401TIP3    H116167   1.198   2.078   4.318 -0.5261 -1.2393 -1.9555
 5401TIP3    H216168   1.176   1.953   4.400  0.4526 -0.4685 -0.4803
 5402TIP3   OH216169   4.653   4.317   3.730  0.1053  0.0884 -0.8399
 5402TIP3    H116170   4.562   4.319   3.701 -0.0722  0.5762 -0.2730
 5402TIP3    H216171   4.691   4.399   3.696  0.0877  0.3173 -0.3141
 5403TIP3   OH216172   1.257   3.791   5.790 -0.1577  0.0680  0.0414
 5403TIP3    H116173   1.312   3.713   5.794 -0.5707 -0.2087  0.3429
 5403TIP3    H216174   1.234   3.799   5.697 -1.0262 -0.8177  0.1590
 5404TIP3   OH216175   6.253   0.843   3.492 -0.1154 -0.1739  0.3730
 5404TIP3    H116176   6.276   0.767   3.545  0.5165 -0.5012 -0.3499
 5404TIP3    H216177   6.163   0.827   3.464 -0.1028 -0.4865  0.5093
 5405TIP3   OH216178   5.780   1.426   2.712 -0.1466  0.5326  0.0386
 5405TIP3    H116179   5.749   1.429   2.803  0.1612  2.4117  0.1185
 5405TIP3    H216180   5.855   1.485   2.710 -1.6224  2.4740 -1.9551
 5406TIP3   OH216181   4.168   3.965   2.526 -0.0731 -1.0247 -0.6623
 5406TIP3    H116182   4.159   3.957   2.431  0.0827 -0.9017 -0.6883
 5406TIP3    H216183   4.148   4.056   2.545  0.4433 -0.9088 -0.6458
 5407TIP3   OH216184   6.026   4.859   4.917 -0.3947 -0.6058  0.5506
 5407TIP3    H116185   6.079   4.833   4.993 -1.0127 -2.3462  0.4114
 5407TIP3    H216186   5.958   4.793   4.911 -1.3473  0.4249 -0.5612
 5408TIP3   OH216187   6.204   3.563   3.620 -0.0782  0.2683  0.9634
 5408TIP3    H116188   6.141   3.587   3.688 -0.4595 -2.8309  1.8609
 5408TIP3    H216189   6.154   3.511   3.558  0.6423  1.6859 -0.9124
 5409TIP3   OH216190   2.713   5.701   1.672 -0.2270  0.3172  0.1231
 5409TIP3    H116191   2.715   5.688   1.767  2.6855  1.7483  0.3475
 5409TIP3    H216192   2.767   5.630   1.637  0.0459  0.7269 -0.3011
 5410TIP3   OH216193   6.142   4.545   2.345 -0.5596  0.0709 -0.0359
 5410TIP3    H116194   6.145   4.472   2.406 -0.7824  1.1582  1.3457
 5410TIP3    H216195   6.058   4.588   2.363  0.0361  1.2938 -0.0130
 5411TIP3   OH216196   1.989   4.835   5.412 -0.3640 -0.1841 -0.1010
 5411TIP3    H116197   1.963   4.918   5.453  0.0114  0.3115 -0.8289
 5411TIP3    H216198   2.053   4.797   5.471  0.1050  0.4731 -0.1760
 5412TIP3   OH216199   6.803   3.780   5.661 -0.2353  0.2624 -0.2145
 5412TIP3    H116200   6.730   3.821   5.614 -0.9290 -1.7322 -0.9933
 5412TIP3    H216201   6.877   3.786   5.600 -0.5346 -0.2733 -0.6460
 5413TIP3   OH216202   3.504   5.673   3.943 -0.0745  0.2099  0.3934
 5413TIP3    H116203   3.537   5.585   3.959 -0.5726 -0.2712 -1.0615
 5413TIP3    H216204   3.582   5.725   3.922 -0.0024 -0.4907 -1.2225
 5414TIP3   OH216205   4.560   0.476   1.065  0.4129  0.5727 -0.4050
 5414TIP3    H116206   4.576   0.387   1.096  2.1029  0.7179 -0.7704
 5414TIP3    H216207   4.525   0.522   1.141 -0.0579 -0.2792 -0.0929
 5415TIP3   OH216208   7.191   5.985   4.601  0.0740 -0.2043 -0.8029
 5415TIP3    H116209   7.142   5.939   4.669  0.8031  0.2550  0.0718
 5415TIP3    H216210   7.205   5.920   4.532 -0.4608 -0.7580 -0.3998
 5416TIP3   OH216211   1.188   6.041   5.261 -0.0225 -0.3204  0.0011
 5416TIP3    H116212   1.131   6.067   5.334  0.3169  0.2395  0.0753
 5416TIP3    H216213   1.134   5.982   5.208 -0.4170 -0.3886  0.4706
 5417TIP3   OH216214   6.742   5.565   2.420  0.0580 -0.0089 -0.2119
 5417TIP3    H116215   6.694   5.492   2.458  0.7282  0.0804  0.8300
 5417TIP3    H216216   6.740   5.633   2.486  0.5598  0.4412 -0.6461
 5418TIP3   OH216217   1.429   3.180   3.936 -0.3477 -0.4063 -0.1898
 5418TIP3    H116218   1.513   3.201   3.896 -0.6927  0.5313 -0.4377
 5418TIP3    H216219   1.417   3.086   3.918 -0.0087 -0.2379 -1.3775
 5419TIP3   OH216220   1.245   0.809   2.558  0.4878 -0.4549 -0.1757
 5419TIP3    H116221   1.200   0.739   2.510  1.5298 -0.4630 -1.1826
 5419TIP3    H216222   1.175   0.864   2.592 -0.3015 -0.3377 -1.8928
 5420TIP3   OH216223   5.366   4.264   2.832  0.4200  0.2538  0.3908
 5420TIP3    H116224   5.391   4.271   2.924  0.8012 -2.9381  0.6691
 5420TIP3    H216225   5.270   4.260   2.833  0.4211  0.2687  0.6505
 5421TIP3   OH216226   7.076   6.222   0.506 -0.1835  0.1560  0.4981
 5421TIP3    H116227   6.980   6.221   0.516 -0.2186  1.0788  0.3748
 5421TIP3    H216228   7.092   6.286   0.437  0.5507  0.4349  0.9168
 5422TIP3   OH216229   3.603   2.727   3.350 -0.2625  0.2162  0.1323
 5422TIP3    H116230   3.674   2.751   3.409  1.0154  0.0531 -1.2889
 5422TIP3    H216231   3.643   2.668   3.286 -1.8209 -0.3669 -0.3581
 5423TIP3   OH216232   2.860   6.011   3.232 -0.1645  0.4631  0.1491
 5423TIP3    H116233   2.785   5.960   3.203 -0.9995  1.8796 -0.2664
 5423TIP3    H216234   2.912   5.950   3.284 -0.4602 -1.1571 -1.3626
 5424TIP3   OH216235   6.241   2.824   3.367  0.2277  0.2063 -0.1236
 5424TIP3    H116236   6.241   2.915   3.337  0.2103  1.1020  2.3478
 5424TIP3    H216237   6.152   2.793   3.350  0.0875  0.8170 -0.5138
 5425TIP3   OH216238   6.157   3.998   2.337 -0.2881  0.3333  0.0225
 5425TIP3    H116239   6.222   4.060   2.303 -0.3845  1.2802  1.4899
 5425TIP3    H216240   6.203   3.949   2.404 -0.3947 -0.7917 -0.7045
 5426TIP3   OH216241   2.244   3.543   4.837 -0.0804  0.0843 -0.0577
 5426TIP3    H116242   2.243   3.571   4.928 -1.0405  0.1158 -0.0710
 5426TIP3    H216243   2.208   3.455   4.838  0.8522 -0.3121 -0.2920
 5427TIP3   OH216244   1.606   5.240   2.147 -0.8423  0.3897 -0.3600
 5427TIP3    H116245   1.563   5.260   2.064  0.8963 -2.1658 -2.0354
 5427TIP3    H216246   1.657   5.160   2.130  0.3336  0.2418  2.9264
 5428TIP3   OH216247   4.896   5.559   4.277  0.0084 -0.1053  0.0207
 5428TIP3    H116248   4.959   5.615   4.322 -1.0993  1.3837 -0.2442
 5428TIP3    H216249   4.811   5.601   4.290 -0.8184 -1.5264 -0.5026
 5429TIP3   OH216250   4.407   5.317   2.566  0.1057 -0.2329  0.2227
 5429TIP3    H116251   4.460   5.245   2.600 -1.2018 -0.5358  1.7203
 5429TIP3    H216252   4.413   5.385   2.633 -1.1400 -0.1566  0.2763
 5430TIP3   OH216253   4.131   4.204   2.664 -0.6524 -0.0904  0.6447
 5430TIP3    H116254   4.142   4.293   2.631  0.8205 -0.5458 -0.1842
 5430TIP3    H216255   4.037   4.188   2.659 -0.8031  0.9941 -0.3077
 5431TIP3   OH216256   0.970   6.361   5.291 -0.0700 -0.1488  0.2434
 5431TIP3    H116257   1.013   6.368   5.206  0.2274  0.4416  0.4343
 5431TIP3    H216258   1.025   6.299   5.340  0.8892  0.9995  0.6661
 5432TIP3   OH216259   4.123   2.342   4.260 -0.3393  0.0228 -0.0229
 5432TIP3    H116260   4.216   2.329   4.280  0.0690  1.0299 -1.2034
 5432TIP3    H216261   4.119   2.426   4.216 -1.6987 -0.4219 -0.8069
 5433TIP3   OH216262   2.522   2.938   1.184  0.0485  0.1155  0.1036
 5433TIP3    H116263   2.506   2.866   1.245 -1.1907  1.3608  1.3235
 5433TIP3    H216264   2.467   2.917   1.108 -0.3379 -0.2017  0.4617
 5434TIP3   OH216265   5.914   4.268   3.170 -0.0575  0.2812 -0.0619
 5434TIP3    H116266   5.977   4.200   3.191 -0.4541 -0.4268 -1.0915
 5434TIP3    H216267   5.907   4.266   3.075 -2.1305 -0.1502  0.0418
 5435TIP3   OH216268   3.006   6.590   1.093 -0.4705 -0.1312  0.4711
 5435TIP3    H116269   3.007   6.524   1.162 -1.5717  1.3231  1.9527
 5435TIP3    H216270   3.098   6.605   1.072 -0.2060 -2.2886 -0.1080
 5436TIP3   OH216271   4.408   0.422   3.124 -0.1613  0.0486  0.2356
 5436TIP3    H116272   4.324   0.406   3.081  0.3708 -3.1806  0.1221
 5436TIP3    H216273   4.403   0.512   3.154 -2.8500  0.5963 -1.5291
 5437TIP3   OH216274   5.257   1.055   1.555  0.3097 -0.7483 -0.2131
 5437TIP3    H116275   5.167   1.033   1.530  0.3589 -0.8774 -0.2734
 5437TIP3    H216276   5.274   1.003   1.633  1.1560 -2.5455 -1.5284
 5438TIP3   OH216277   1.153   5.962   1.331  0.9334  0.1187 -0.1285
 5438TIP3    H116278   1.077   5.906   1.351  1.1636  0.6835  2.7782
 5438TIP3    H216279   1.115   6.045   1.304  0.4869  0.1109  0.4432
 5439TIP3   OH216280   1.282   0.895   5.538 -0.1852 -0.4265  0.5170
 5439TIP3    H116281   1.330   0.876   5.619 -0.2714  0.3170  0.7496
 5439TIP3    H216282   1.192   0.870   5.557 -0.8597  2.5093  1.7430
 5440TIP3   OH216283   3.456   3.873   3.860  0.3726 -0.6449 -0.0698
 5440TIP3    H116284   3.394   3.886   3.789 -0.2305 -1.1851  0.3448
 5440TIP3    H216285   3.474   3.961   3.893 -1.0527 -0.5509  0.5333
 5441TIP3   OH216286   6.795   4.835   2.475  0.4234  0.0728  0.1963
 5441TIP3    H116287   6.769   4.746   2.449  0.0430  0.5665 -1.2463
 5441TIP3    H216288   6.858   4.861   2.408  0.2572  1.0087  0.4002
 5442TIP3   OH216289   1.853   4.577   0.581 -0.6514 -0.1557  0.5737
 5442TIP3    H116290   1.898   4.528   0.512  0.9277 -0.0605  1.4707
 5442TIP3    H216291   1.873   4.669   0.563 -0.4120 -0.1162  1.0052
 5443TIP3   OH216292   6.227   2.742   2.583  0.4203 -0.0679  0.8983
 5443TIP3    H116293   6.172   2.819   2.568  0.5062 -0.1466  0.1155
 5443TIP3    H216294   6.170   2.678   2.623  0.5099  0.6336  2.1822
 5444TIP3   OH216295   0.826   5.479   0.642  0.0081 -0.4405  0.3140
 5444TIP3    H116296   0.828   5.480   0.738  0.8129  1.3199  0.3206
 5444TIP3    H216297   0.733   5.471   0.620 -0.3254  0.5476  1.2681
 5445TIP3   OH216298   7.038   2.494   4.142  0.2652 -0.1336  0.5068
 5445TIP3    H116299   7.032   2.549   4.221 -0.1074  2.0232 -0.9369
 5445TIP3    H216300   7.114   2.529   4.095  0.2718 -1.1697 -0.2837
 5446TIP3   OH216301   5.838   0.639   0.449 -0.1590  0.1369  0.2343
 5446TIP3    H116302   5.857   0.546   0.441  1.6572  0.5048 -0.3515
 5446TIP3    H216303   5.860   0.676   0.363  0.5264  1.2873  0.8680
 5447TIP3   OH216304   0.203   6.269   1.787  0.7164 -0.0199  0.5880
 5447TIP3    H116305   0.243   6.338   1.734  1.3329  0.4008  1.5704
 5447TIP3    H216306   0.160   6.315   1.859 -0.1855 -0.5779  0.4292
 5448TIP3   OH216307   6.879   3.011   1.165  0.0016 -0.1383 -0.1404
 5448TIP3    H116308   6.831   3.058   1.097 -0.7655  1.0213  1.1537
 5448TIP3    H216309   6.864   3.062   1.245 -0.9406 -2.6173  1.3757
 5449TIP3   OH216310   5.311   1.625   5.717 -0.5017  0.1226 -0.1268
 5449TIP3    H116311   5.229   1.667   5.745 -0.7445  0.8573 -1.7573
 5449TIP3    H216312   5.294   1.601   5.626  0.3821 -1.6759  0.1554
 5450TIP3   OH216313   6.217   6.363   3.406  0.6986  0.9356  0.0929
 5450TIP3    H116314   6.174   6.333   3.326  0.0686 -1.6576  1.3057
 5450TIP3    H216315   6.274   6.290   3.431  2.6617  2.6210  0.8231
 5451TIP3   OH216316   2.173   1.216   0.428 -0.0290 -0.6939 -0.4070
 5451TIP3    H116317   2.105   1.200   0.362 -2.7294  1.3578  1.6034
 5451TIP3    H216318   2.168   1.311   0.444  1.2457 -0.9423  1.9242
 5452TIP3   OH216319   5.519   6.458   3.473  0.5320  0.0928  0.5665
 5452TIP3    H116320   5.578   6.443   3.398  0.1951  0.3659  0.2436
 5452TIP3    H216321   5.573   6.440   3.550  1.0699  0.4404  0.2757
 5453TIP3   OH216322   1.701   2.666   3.007  0.3320 -0.4701 -0.0102
 5453TIP3    H116323   1.702   2.651   2.913  0.9127 -1.7531  0.1839
 5453TIP3    H216324   1.783   2.629   3.039 -0.6965 -1.8240  1.2453
 5454TIP3   OH216325   0.668   2.463   1.345 -0.0510  0.5683 -0.6429
 5454TIP3    H116326   0.605   2.523   1.385 -0.9320 -0.8196  0.1154
 5454TIP3    H216327   0.753   2.490   1.381 -0.5330  0.8903  0.2972
 5455TIP3   OH216328   0.899   3.057   4.229 -1.0056  0.6142 -0.1140
 5455TIP3    H116329   0.858   3.139   4.258  1.3910  0.6104  4.0256
 5455TIP3    H216330   0.854   2.989   4.278  1.1908  0.2393  1.5121
 5456TIP3   OH216331   3.937   6.623   4.096  0.3820 -0.0436 -0.1186
 5456TIP3    H116332   3.852   6.659   4.073  0.9684  0.6088 -1.3535
 5456TIP3    H216333   3.917   6.548   4.151 -0.9488  0.7587  0.5570
 5457TIP3   OH216334   6.166   5.606   0.487  0.2583 -0.2898 -0.5120
 5457TIP3    H116335   6.128   5.536   0.434  0.2816 -0.1346 -0.7358
 5457TIP3    H216336   6.150   5.685   0.436 -0.5874 -0.0096  0.1733
 5458TIP3   OH216337   3.253   4.535   1.244  0.3713 -0.3140 -0.1287
 5458TIP3    H116338   3.162   4.505   1.246  0.6343 -1.1003  0.6744
 5458TIP3    H216339   3.255   4.601   1.175 -1.4015  1.5863  1.4913
 5459TIP3   OH216340   0.965   4.052   4.297  0.1322 -0.5174 -0.4959
 5459TIP3    H116341   0.882   4.090   4.267  0.2463  0.0571 -0.0864
 5459TIP3    H216342   1.006   4.020   4.216  0.7779  1.6780 -1.1210
 5460TIP3   OH216343   5.869   1.999   3.521 -0.0009 -0.3973 -0.2078
 5460TIP3    H116344   5.841   2.091   3.531 -1.7053 -1.0535  2.0946
 5460TIP3    H216345   5.908   1.978   3.606  0.3538 -1.8041 -0.7084
 5461TIP3   OH216346   3.563   3.114   4.841 -0.3366 -0.0779  0.3061
 5461TIP3    H116347   3.602   3.121   4.753 -0.6927  0.9817  0.2153
 5461TIP3    H216348   3.562   3.020   4.859 -1.1833 -0.4053 -1.2554
 5462TIP3   OH216349   7.079   2.981   0.010  0.6706 -0.3101 -0.3971
 5462TIP3    H116350   7.135   2.928   0.067 -0.0202 -2.2558 -1.4202
 5462TIP3    H216351   7.039   3.045   0.069  2.1581 -0.3972  0.7613
 5463TIP3   OH216352   2.046   1.377   3.058 -0.4015  0.5970  0.3490
 5463TIP3    H116353   2.004   1.293   3.039 -1.1539  0.7031  1.4598
 5463TIP3    H216354   2.051   1.381   3.153  0.6397  1.3290  0.2793
 5464TIP3   OH216355   0.048   2.751   3.166  0.3176 -0.6066 -0.1669
 5464TIP3    H116356   0.086   2.818   3.109 -0.8645  0.2427 -0.0110
 5464TIP3    H216357   0.083   2.668   3.133  2.7159  0.1264  0.3349
 5465TIP3   OH216358   3.650   1.878   2.181  0.0199 -0.1548 -0.0076
 5465TIP3    H116359   3.654   1.828   2.100 -2.7716  2.0432 -1.6877
 5465TIP3    H216360   3.723   1.940   2.175 -1.0031  0.9550 -1.6312
 5466TIP3   OH216361   0.839   2.802   0.427 -0.0206  0.5460 -0.7482
 5466TIP3    H116362   0.859   2.725   0.373 -0.5931 -0.1278 -0.0146
 5466TIP3    H216363   0.744   2.802   0.435  0.1310 -1.2026  2.7978
 5467TIP3   OH216364   1.866   2.295   0.892 -0.0155 -0.3687  0.3326
 5467TIP3    H116365   1.955   2.279   0.862  0.7570  1.4130  1.5173
 5467TIP3    H216366   1.810   2.258   0.823  1.6170 -0.8565 -0.7782
 5468TIP3   OH216367   2.797   3.660   0.837  0.5508 -0.4483 -0.1591
 5468TIP3    H116368   2.877   3.681   0.885  1.0322 -0.8853 -0.7489
 5468TIP3    H216369   2.828   3.630   0.751 -0.1905 -1.5569 -0.0569
 5469TIP3   OH216370   0.303   4.141   2.247  0.1666 -0.2034  0.3273
 5469TIP3    H116371   0.252   4.114   2.170  0.2588 -2.0415  0.8618
 5469TIP3    H216372   0.388   4.165   2.212  0.3836 -1.5565 -0.1163
 5470TIP3   OH216373   5.586   2.552   0.849  0.0541  0.0990  0.2354
 5470TIP3    H116374   5.632   2.615   0.793  1.9419  0.6120  2.2245
 5470TIP3    H216375   5.509   2.600   0.880 -2.1162 -0.7907 -3.1919
 5471TIP3   OH216376   6.575   0.064   0.489 -0.2453 -0.3732 -0.2342
 5471TIP3    H116377   6.622   0.131   0.439  0.4904 -1.0944 -0.5309
 5471TIP3    H216378   6.597  -0.018   0.446  0.1705 -0.9925  1.0955
 5472TIP3   OH216379   6.274   6.011   2.553  0.1061  0.0817 -0.4077
 5472TIP3    H116380   6.335   5.948   2.515  0.5080  0.6563 -0.7316
 5472TIP3    H216381   6.282   5.997   2.648  0.3597 -0.1990 -0.4665
 5473TIP3   OH216382   7.152   3.505   2.742 -0.2075 -0.2974 -0.5333
 5473TIP3    H116383   7.189   3.592   2.758 -1.1013  0.3920 -2.0378
 5473TIP3    H216384   7.084   3.495   2.809 -0.0242  0.0971 -0.2828
 5474TIP3   OH216385   0.091   4.230   0.945 -0.3761  0.3470  0.0224
 5474TIP3    H116386   0.181   4.223   0.914 -0.8034  0.5529 -1.3659
 5474TIP3    H216387   0.095   4.290   1.019  0.6479  0.2150  0.0875
 5475TIP3   OH216388   1.517   1.935   4.459 -0.5321  0.2063  0.1884
 5475TIP3    H116389   1.439   1.878   4.458 -0.4691 -0.0240  2.5018
 5475TIP3    H216390   1.482   2.024   4.462 -0.7626  0.0987  1.3928
 5476TIP3   OH216391   1.926   0.155   4.861  0.5082  0.6429 -0.0143
 5476TIP3    H116392   1.848   0.110   4.891  1.1758  0.2164  1.1742
 5476TIP3    H216393   1.915   0.245   4.893 -0.1468  0.9686 -1.1116
 5477TIP3   OH216394   6.718   3.105   3.559  0.2816 -0.0651  0.0843
 5477TIP3    H116395   6.743   3.155   3.637 -1.5903 -1.1751  1.4888
 5477TIP3    H216396   6.800   3.086   3.514  1.4234  0.5091  1.8622
 5478TIP3   OH216397   4.103   4.969   0.491 -0.4949 -0.4211  0.4395
 5478TIP3    H116398   4.043   4.904   0.454  1.0887 -1.1996 -0.9016
 5478TIP3    H216399   4.178   4.918   0.523  0.9933  0.7019 -1.0396
 5479TIP3   OH216400   5.666   1.376   0.043 -0.1613  0.0140  0.7583
 5479TIP3    H116401   5.697   1.383  -0.048  0.4569 -2.7087  0.6827
 5479TIP3    H216402   5.719   1.440   0.090  0.5068  0.4859 -0.5617
 5480TIP3   OH216403   6.195   1.679   2.895  0.2169  0.1325 -0.3388
 5480TIP3    H116404   6.277   1.669   2.846 -0.1792 -2.6110 -0.6207
 5480TIP3    H216405   6.218   1.736   2.968  1.3998  2.4346 -2.3861
 5481TIP3   OH216406   3.871   5.858   4.674  0.5258  0.2855  0.1582
 5481TIP3    H116407   3.868   5.789   4.739  0.4374  0.3672  0.2416
 5481TIP3    H216408   3.799   5.838   4.614  1.8091 -0.9084 -1.0602
 5482TIP3   OH216409   2.672   5.664   3.871  0.1301 -0.3689 -0.1699
 5482TIP3    H116410   2.600   5.604   3.891  0.9150 -0.7536  1.8009
 5482TIP3    H216411   2.749   5.608   3.861  0.1396 -0.0199 -2.8419
 5483TIP3   OH216412   0.628   0.275   5.891 -0.0126  0.1972 -0.0654
 5483TIP3    H116413   0.656   0.243   5.805 -0.3061  2.1868 -0.9421
 5483TIP3    H216414   0.533   0.285   5.884  0.0869  1.3898  0.1075
 5484TIP3   OH216415   2.467   2.089   3.364 -0.2790  0.2948 -0.3314
 5484TIP3    H116416   2.562   2.093   3.351  0.4043 -1.0184  3.2408
 5484TIP3    H216417   2.440   2.180   3.378  0.3006  0.7307 -1.8643
 5485TIP3   OH216418   3.260   0.870   1.855  0.6231 -0.1945  0.5788
 5485TIP3    H116419   3.313   0.907   1.785 -0.9294  0.1802 -0.4393
 5485TIP3    H216420   3.170   0.874   1.822 -0.0651 -0.7040  2.2879
 5486TIP3   OH216421   4.760   6.748   0.499  0.0504  0.3920  0.2923
 5486TIP3    H116422   4.698   6.760   0.427  1.7149 -1.2622 -1.5845
 5486TIP3    H216423   4.712   6.699   0.565 -0.5903 -1.2352 -1.2950
 5487TIP3   OH216424   2.298   6.267   4.192  0.0356 -0.0227 -0.2473
 5487TIP3    H116425   2.376   6.267   4.136 -1.2124 -0.0612 -2.0800
 5487TIP3    H216426   2.281   6.359   4.211 -0.4802  0.1207 -1.3534
 5488TIP3   OH216427   4.676   3.769   1.880  0.0788 -0.7612  0.5612
 5488TIP3    H116428   4.591   3.812   1.867  0.3669 -0.4568 -0.4218
 5488TIP3    H216429   4.684   3.711   1.804  0.6947 -0.8891  0.7246
 5489TIP3   OH216430   5.373   2.170   5.171  0.0172 -0.3774 -0.2256
 5489TIP3    H116431   5.436   2.124   5.116  0.6270  1.4082 -1.1011
 5489TIP3    H216432   5.383   2.131   5.257  1.7365 -0.7163 -0.5406
 5490TIP3   OH216433   2.400   1.498   0.415  0.4484  0.4521 -1.3211
 5490TIP3    H116434   2.315   1.541   0.427  0.2409  0.0249 -1.2125
 5490TIP3    H216435   2.455   1.563   0.372 -0.2689  0.3607 -2.3910
 5491TIP3   OH216436   1.097   4.396   5.678 -0.2681 -0.4751  0.0049
 5491TIP3    H116437   1.107   4.386   5.772 -0.6128 -0.2917  0.0611
 5491TIP3    H216438   1.010   4.360   5.659  0.1221 -1.2318 -0.3530
 5492TIP3   OH216439   0.853   5.456   2.879  0.8682  0.5128 -0.4645
 5492TIP3    H116440   0.917   5.522   2.852  0.3311  1.2594  0.0569
 5492TIP3    H216441   0.794   5.502   2.938 -0.1228 -0.1832 -0.8775
 5493TIP3   OH216442   5.388   0.852   5.808  0.4776 -0.3767  0.0045
 5493TIP3    H116443   5.439   0.927   5.778  0.2378 -0.7497 -1.4086
 5493TIP3    H216444   5.329   0.887   5.875  1.3425  0.4026  0.3728
 5494TIP3   OH216445   2.025   4.129   4.788  0.1291  0.2345  0.0081
 5494TIP3    H116446   2.111   4.164   4.812  1.0745  0.2908 -3.0116
 5494TIP3    H216447   2.023   4.041   4.827  2.3449 -0.4673 -1.2674
 5495TIP3   OH216448   1.617   4.154   1.721  0.3564  0.4460 -0.1154
 5495TIP3    H116449   1.612   4.245   1.694  0.1626  0.6681  0.6549
 5495TIP3    H216450   1.707   4.142   1.752  0.3489  0.4043 -0.1087
 5496TIP3   OH216451   7.046   1.267   3.527  0.6521 -0.2258  0.1390
 5496TIP3    H116452   7.127   1.315   3.510  0.9549 -0.2890  1.2704
 5496TIP3    H216453   7.048   1.193   3.468  0.4532  0.8228 -1.2378
 5497TIP3   OH216454   1.429   2.267   4.383  0.4261  0.1462 -0.1305
 5497TIP3    H116455   1.486   2.344   4.384 -0.6051  0.9655 -1.3828
 5497TIP3    H216456   1.371   2.279   4.458  0.3638  0.5273 -0.2367
 5498TIP3   OH216457   1.675   5.178   5.727 -0.7341 -0.1070 -0.2260
 5498TIP3    H116458   1.766   5.148   5.735 -0.5128  0.7399  0.6434
 5498TIP3    H216459   1.625   5.099   5.710  0.0899 -0.6701 -0.0949
 5499TIP3   OH216460   4.109   1.234   0.019 -0.3894 -0.5314  0.4942
 5499TIP3    H116461   4.182   1.233  -0.042 -1.7135 -1.0775 -1.1362
 5499TIP3    H216462   4.087   1.142   0.034 -0.1557 -0.4117  1.7564
 5500TIP3   OH216463   1.131   1.912   4.053 -0.1096  0.2312 -0.0248
 5500TIP3    H116464   1.131   1.819   4.078  0.3988  0.5307  1.1786
 5500TIP3    H216465   1.196   1.952   4.111  0.3837  1.1743 -1.2023
 5501TIP3   OH216466   5.569   6.283   5.418  0.0480  0.3296  0.3458
 5501TIP3    H116467   5.635   6.233   5.369  1.0414  1.3731  0.5867
 5501TIP3    H216468   5.521   6.331   5.351  1.4251  1.7802  0.3421
 5502TIP3   OH216469   0.613   0.278   4.577  0.0502 -0.1300 -0.1029
 5502TIP3    H116470   0.551   0.345   4.603 -1.5257 -2.7449  3.7869
 5502TIP3    H216471   0.559   0.208   4.541  1.2694 -0.6714 -0.9489
 5503TIP3   OH216472   4.214   2.104   5.785 -0.0473 -0.0706  0.3591
 5503TIP3    H116473   4.258   2.171   5.733  0.2007 -0.2899  0.2849
 5503TIP3    H216474   4.231   2.128   5.876  0.4056 -0.2734  0.3283
 5504TIP3   OH216475   0.003   5.240   4.230  0.8372 -0.4872  0.7004
 5504TIP3    H116476  -0.063   5.266   4.166 -0.1873  1.2854  2.3294
 5504TIP3    H216477   0.083   5.283   4.201 -0.3346  3.1224  2.1437
 5505TIP3   OH216478   1.551   0.180   3.601  0.4348 -0.1363  0.1095
 5505TIP3    H116479   1.624   0.161   3.543 -0.4388 -1.3589 -0.6310
 5505TIP3    H216480   1.568   0.128   3.680  0.9577  0.5200  0.4424
 5506TIP3   OH216481   3.129   4.090   4.027 -0.6889  0.2090  0.4287
 5506TIP3    H116482   3.033   4.086   4.034 -0.6072 -0.9021  1.0812
 5506TIP3    H216483   3.149   4.039   3.948 -0.7029  1.6212 -0.5327
 5507TIP3   OH216484   0.138   3.326   5.489 -0.2466  0.1413 -0.1848
 5507TIP3    H116485   0.160   3.340   5.581  1.9365 -0.2343 -0.5976
 5507TIP3    H216486   0.209   3.272   5.455  0.0159  1.7947 -2.5311
 5508TIP3   OH216487   1.311   0.113   2.406 -0.2090 -0.0983 -0.0444
 5508TIP3    H116488   1.280   0.102   2.316 -1.8421  2.0030  0.1778
 5508TIP3    H216489   1.404   0.135   2.397 -0.5419  0.9229 -1.3104
 5509TIP3   OH216490   4.036   2.802   2.379 -0.3204  0.1799  0.2829
 5509TIP3    H116491   4.114   2.774   2.332  0.2456  1.2182  0.5668
 5509TIP3    H216492   4.066   2.873   2.436 -1.5589  0.9178  0.0636
 5510TIP3   OH216493   0.484   2.438   0.218  0.1968 -0.0912  0.0683
 5510TIP3    H116494   0.516   2.389   0.143  1.1204 -0.6404  0.7939
 5510TIP3    H216495   0.404   2.481   0.187  1.1450  0.5926 -1.5464
 5511TIP3   OH216496   3.733   0.941   4.328 -0.0568 -0.0224 -0.7141
 5511TIP3    H116497   3.775   1.006   4.384  0.8067  1.0972 -2.5684
 5511TIP3    H216498   3.764   0.857   4.361  1.0141  0.6332  0.0197
 5512TIP3   OH216499   0.951   2.539   2.619  0.2556  0.2435  0.6113
 5512TIP3    H116500   0.964   2.483   2.696  2.6946 -1.6743 -1.0183
 5512TIP3    H216501   0.994   2.621   2.641 -1.5823  0.8366  2.2823
 5513TIP3   OH216502   6.921   5.149   3.996 -0.0945 -0.7204  0.8153
 5513TIP3    H116503   6.926   5.089   4.071  0.4449 -1.1699  0.4222
 5513TIP3    H216504   7.012   5.158   3.967 -0.0669  0.8180  1.2801
 5514TIP3   OH216505   4.696   5.510   0.649 -0.3030  0.1196  0.2973
 5514TIP3    H116506   4.781   5.473   0.672 -0.1745  0.6531  0.7003
 5514TIP3    H216507   4.705   5.537   0.558  0.0501  0.4381  0.4257
 5515TIP3   OH216508   6.937   2.450   1.765  0.6605 -0.6539 -0.6299
 5515TIP3    H116509   6.844   2.464   1.750  0.1308 -2.7386  0.3350
 5515TIP3    H216510   6.945   2.356   1.779  2.4580 -0.2068  2.1331
 5516TIP3   OH216511   7.180   5.703   4.453  0.2800 -0.1963  0.1324
 5516TIP3    H116512   7.274   5.706   4.435  0.4250 -1.2741  0.6363
 5516TIP3    H216513   7.174   5.655   4.535 -0.8382 -2.0173 -0.9571
 5517TIP3   OH216514   6.715   2.508   0.452 -0.1044 -0.4761  0.2764
 5517TIP3    H116515   6.641   2.453   0.478 -2.2540  1.2662 -1.7355
 5517TIP3    H216516   6.755   2.461   0.379 -0.1787 -0.6846  0.3678
 5518TIP3   OH216517   0.336   0.414   5.648 -0.1987 -0.0668 -0.6076
 5518TIP3    H116518   0.307   0.323   5.652 -0.9241  0.1745 -0.0108
 5518TIP3    H216519   0.258   0.462   5.622 -1.3964  0.9867  3.9475
 5519TIP3   OH216520   6.762   0.740   1.190  0.9364  0.4980 -0.2396
 5519TIP3    H116521   6.799   0.801   1.254 -1.5686  1.2428  0.6354
 5519TIP3    H216522   6.757   0.790   1.109  0.1996  1.0126  0.1118
 5520TIP3   OH216523   5.486   0.821   3.826  0.2882 -0.6477 -0.5104
 5520TIP3    H116524   5.522   0.752   3.882 -0.3515 -0.3287  0.3256
 5520TIP3    H216525   5.556   0.842   3.765  1.3537 -0.3813  0.7601
 5521TIP3   OH216526   0.297   3.436   3.305 -0.1623 -0.7306 -0.6767
 5521TIP3    H116527   0.232   3.506   3.312 -0.8418 -1.2882 -1.2813
 5521TIP3    H216528   0.315   3.430   3.211  0.9626 -0.4116 -0.4927
 5522TIP3   OH216529   2.354   2.657   2.050 -0.2922  0.2829  0.3340
 5522TIP3    H116530   2.368   2.572   2.009 -1.2799  0.8795 -1.3363
 5522TIP3    H216531   2.391   2.648   2.138  1.2472 -1.2913 -0.4221
 5523TIP3   OH216532   1.535   2.420   0.481 -0.6951 -0.2521 -0.1056
 5523TIP3    H116533   1.464   2.436   0.543 -1.0469  2.4459 -1.0835
 5523TIP3    H216534   1.615   2.445   0.527 -0.5835 -1.2576  0.2739
 5524TIP3   OH216535   1.739   1.020   5.569 -0.1293 -0.4305 -0.0335
 5524TIP3    H116536   1.829   1.016   5.603  0.6825  1.5603 -1.7341
 5524TIP3    H216537   1.695   1.083   5.625  0.5976  1.2164 -1.2081
 5525TIP3   OH216538   0.327   2.621   2.009 -0.4571  0.0691 -0.2102
 5525TIP3    H116539   0.347   2.658   1.923  1.4783  0.6863  0.4585
 5525TIP3    H216540   0.232   2.610   2.008 -0.3447 -2.2833 -3.3540
 5526TIP3   OH216541   2.129   4.765   4.753 -0.3403  0.1459 -0.3010
 5526TIP3    H116542   2.145   4.688   4.808 -1.6359 -0.2839 -0.4865
 5526TIP3    H216543   2.195   4.760   4.684  0.8816  0.3289  0.8147
 5527TIP3   OH216544   1.619   3.565   3.841 -0.6090 -0.2125 -0.8606
 5527TIP3    H116545   1.707   3.528   3.839 -0.7115 -0.4201 -1.6469
 5527TIP3    H216546   1.581   3.544   3.756 -1.6371 -0.6283 -0.3214
 5528TIP3   OH216547   3.895   0.011   5.785  0.4751  0.2112  0.0757
 5528TIP3    H116548   3.929  -0.015   5.700 -1.5362 -1.2191 -0.3798
 5528TIP3    H216549   3.813   0.056   5.765  1.5561  2.8263  1.1400
 5529TIP3   OH216550   5.022   1.690   0.807 -0.1108  0.2426 -0.4612
 5529TIP3    H116551   5.105   1.715   0.849 -1.0580  1.3168  0.8381
 5529TIP3    H216552   5.021   1.594   0.811  1.1648  0.2008 -0.7119
 5530TIP3   OH216553   4.041   5.159   1.135 -0.9375  0.3650  0.2359
 5530TIP3    H116554   4.115   5.116   1.179 -0.9510  0.0997  0.0049
 5530TIP3    H216555   4.050   5.133   1.043  0.0147  2.2118 -0.2295
 5531TIP3   OH216556   1.596   1.892   1.123 -0.0858  0.0085  0.2337
 5531TIP3    H116557   1.640   1.976   1.113  0.3346 -0.1156  0.9776
 5531TIP3    H216558   1.655   1.829   1.081 -0.0586 -0.0131  0.3043
 5532TIP3   OH216559   6.070   4.948   3.303  0.2069 -0.1550 -0.2019
 5532TIP3    H116560   6.013   4.879   3.337 -0.3379  0.0329 -0.7254
 5532TIP3    H216561   6.035   5.029   3.340  0.3278 -0.0697 -0.2718
 5533TIP3   OH216562   1.493   6.087   5.835 -0.0072  0.1031 -0.2343
 5533TIP3    H116563   1.519   6.028   5.907  1.7138  1.8031  0.6282
 5533TIP3    H216564   1.401   6.068   5.821 -0.0355 -1.3069  1.4576
 5534TIP3   OH216565   2.368   6.762   5.609 -0.2890 -0.1210 -0.1135
 5534TIP3    H116566   2.411   6.724   5.686  1.0189  1.9494  0.2635
 5534TIP3    H216567   2.438   6.806   5.562 -1.5866  1.2249 -0.8509
 5535TIP3   OH216568   0.176   3.901   0.627  0.9274 -0.0804 -0.2488
 5535TIP3    H116569   0.116   3.860   0.689  0.2816  0.4865 -0.4944
 5535TIP3    H216570   0.127   3.908   0.546  1.3602  0.2881 -0.4882
 5536TIP3   OH216571   3.758   3.934   4.876 -0.1047  0.0793  0.3569
 5536TIP3    H116572   3.775   3.962   4.786  0.0589 -0.9254  0.0690
 5536TIP3    H216573   3.670   3.966   4.895  0.0755  0.7809  0.0383
 5537TIP3   OH216574   0.192   1.022   2.857 -1.0006  0.2133  0.0499
 5537TIP3    H116575   0.248   1.038   2.780 -0.3665 -0.5544  0.3369
 5537TIP3    H216576   0.170   1.109   2.889 -1.3452  0.5546 -1.0502
 5538TIP3   OH216577   4.307   4.295   2.313 -0.4888  0.4501  0.3834
 5538TIP3    H116578   4.349   4.216   2.348  2.8222  1.8105 -0.1080
 5538TIP3    H216579   4.313   4.284   2.218 -2.8532  0.0044  0.2273
 5539TIP3   OH216580   3.783   4.308   2.301 -0.1745  0.0481  0.3638
 5539TIP3    H116581   3.734   4.243   2.352 -0.3790  0.0783  0.2088
 5539TIP3    H216582   3.764   4.391   2.345 -1.4613  0.2775 -0.5429
 5540TIP3   OH216583   1.949   3.914   5.005  0.3120 -0.9325 -0.0695
 5540TIP3    H116584   2.029   3.878   4.969  1.5947  0.2046  1.5149
 5540TIP3    H216585   1.922   3.851   5.071  1.4074 -0.0669  1.2484
 5541TIP3   OH216586   1.370   6.402   0.706 -0.1335  0.1291  0.6854
 5541TIP3    H116587   1.281   6.432   0.688  0.2919  1.7305  1.0933
 5541TIP3    H216588   1.423   6.448   0.641  0.3178 -1.4814 -0.1219
 5542TIP3   OH216589   0.345   1.536   1.662 -0.3911 -0.0357  0.0004
 5542TIP3    H116590   0.402   1.573   1.729 -2.0698  1.1881  0.8216
 5542TIP3    H216591   0.305   1.460   1.703 -2.1913  1.2974  0.8027
 5543TIP3   OH216592   4.341   0.239   0.278 -0.2214  0.2323  0.3062
 5543TIP3    H116593   4.421   0.192   0.304 -1.1522 -1.5658  0.0666
 5543TIP3    H216594   4.338   0.314   0.337  1.8915  0.6196 -0.0078
 5544TIP3   OH216595   0.520   3.138   2.751  0.6327  0.0362 -0.5012
 5544TIP3    H116596   0.514   3.229   2.724 -0.1116 -0.0549 -0.6690
 5544TIP3    H216597   0.565   3.094   2.679  1.3596  0.3369 -0.2409
 5545TIP3   OH216598   6.455   2.428   1.533  0.0878  0.0031  0.1435
 5545TIP3    H116599   6.451   2.333   1.518  1.4530 -0.0353 -0.1257
 5545TIP3    H216600   6.549   2.447   1.540 -0.1280  1.4436 -0.5139
 5546TIP3   OH216601   0.756   3.959   0.299 -0.1068  0.0555  0.1200
 5546TIP3    H116602   0.718   4.044   0.319  1.0642  0.3572  1.1955
 5546TIP3    H216603   0.693   3.896   0.334 -0.1698  0.5173  0.8581
 5547TIP3   OH216604   6.106   1.333   0.663 -0.4934 -0.1598  0.4902
 5547TIP3    H116605   6.101   1.263   0.598  0.1791 -1.3276  1.6360
 5547TIP3    H216606   6.015   1.361   0.675 -0.6332  0.0854 -0.9210
 5548TIP3   OH216607   3.115   6.310   2.242  0.1979 -0.5335  0.2857
 5548TIP3    H116608   3.034   6.307   2.293  0.6824  4.6010  2.0027
 5548TIP3    H216609   3.086   6.307   2.151 -2.0494  1.2287  0.8547
 5549TIP3   OH216610   2.761   2.647   4.332 -0.1252 -0.2064  0.0797
 5549TIP3    H116611   2.688   2.704   4.357 -0.3850 -0.0902 -0.8999
 5549TIP3    H216612   2.806   2.628   4.414 -0.9580  0.1393  0.6268
 5550TIP3   OH216613   4.383   3.564   1.464  0.9366  0.6571  0.8194
 5550TIP3    H116614   4.305   3.567   1.408  1.3137 -0.6942  0.1923
 5550TIP3    H216615   4.369   3.634   1.528 -0.2939  1.1261  0.0701
 5551TIP3   OH216616   3.206   1.128   3.089 -0.4583 -0.1717  0.6436
 5551TIP3    H116617   3.287   1.133   3.141 -1.1981  0.2890  1.7854
 5551TIP3    H216618   3.136   1.139   3.153 -1.4092  0.2786 -0.4490
 5552TIP3   OH216619   7.082   1.134   1.375 -0.0604  0.4847  0.9021
 5552TIP3    H116620   7.162   1.180   1.350  0.0181 -0.2073 -0.2136
 5552TIP3    H216621   7.037   1.118   1.292 -1.5004  1.1009  1.5405
 5553TIP3   OH216622   3.954   0.390   2.799  0.0860  0.0628  0.2078
 5553TIP3    H116623   3.884   0.448   2.767  0.1971  0.2938  0.3787
 5553TIP3    H216624   3.920   0.302   2.787 -0.2276  0.1747  0.2707
 5554TIP3   OH216625   4.400   3.975   1.513 -0.0491  0.1446  0.2280
 5554TIP3    H116626   4.430   4.063   1.535 -0.2893  0.9738 -2.3726
 5554TIP3    H216627   4.304   3.982   1.511 -0.0778 -0.2260  0.2009
 5555TIP3   OH216628   5.841   4.714   3.342  0.0086 -0.1967 -0.2804
 5555TIP3    H116629   5.829   4.622   3.319 -0.5233 -0.1170 -0.3392
 5555TIP3    H216630   5.832   4.717   3.437 -0.0591 -0.1903 -0.2872
 5556TIP3   OH216631   5.013   1.714   1.643  0.5998  0.4010  0.6154
 5556TIP3    H116632   5.025   1.790   1.585  0.1304  0.5437  0.6993
 5556TIP3    H216633   4.966   1.749   1.719  0.0825 -0.0393  0.5025
 5557TIP3   OH216634   3.274   5.657   3.789 -0.3471 -0.3771  0.2939
 5557TIP3    H116635   3.358   5.661   3.834 -1.0102  1.6426  1.4549
 5557TIP3    H216636   3.221   5.598   3.842  0.1326 -1.2280 -0.1444
 5558TIP3   OH216637   6.413   2.832   1.253 -0.1809  0.3037  0.1571
 5558TIP3    H116638   6.390   2.771   1.183 -0.8287 -1.3922  1.7771
 5558TIP3    H216639   6.400   2.783   1.334 -1.2417  2.7455  1.6018
 5559TIP3   OH216640   5.894   4.660   2.344 -0.0836 -0.1785 -0.2330
 5559TIP3    H116641   5.843   4.730   2.385 -0.1327 -1.3912  1.8909
 5559TIP3    H216642   5.833   4.619   2.282 -1.1927 -0.5416  1.0574
 5560TIP3   OH216643   6.096   4.091   3.209  0.0680  0.3856  0.5445
 5560TIP3    H116644   6.121   4.032   3.137 -0.8978  4.0747 -3.1906
 5560TIP3    H216645   6.177   4.137   3.231 -0.2321  1.3748 -0.3823
 5561TIP3   OH216646   4.092   3.675   3.035 -0.0719 -0.5184  1.0824
 5561TIP3    H116647   4.077   3.707   2.946 -0.0431 -3.0054  0.1059
 5561TIP3    H216648   4.187   3.675   3.045 -0.1116  1.0416  1.6545
 5562TIP3   OH216649   6.958   5.866   1.135 -0.1610  0.4351  0.0047
 5562TIP3    H116650   6.973   5.809   1.060 -1.1823  0.3176 -0.1229
 5562TIP3    H216651   6.967   5.954   1.101  0.4883  0.3733 -0.0017
 5563TIP3   OH216652   4.569   6.331   5.426  0.1532  0.4239 -0.6063
 5563TIP3    H116653   4.626   6.266   5.385 -0.2509 -0.4662  0.2060
 5563TIP3    H216654   4.627   6.406   5.442  0.2569  0.9269 -3.0028
 5564TIP3   OH216655   4.973   3.622   3.069 -0.0255 -0.0078  0.3202
 5564TIP3    H116656   5.046   3.667   3.111  1.0544 -1.4986  0.1441
 5564TIP3    H216657   4.920   3.590   3.142 -0.4190  0.9220  0.4529
 5565TIP3   OH216658   2.113   0.286   5.674 -0.0179  0.0621 -0.0305
 5565TIP3    H116659   2.159   0.314   5.595 -0.2416 -0.0407 -0.1984
 5565TIP3    H216660   2.126   0.191   5.676  0.3594  0.1171  0.2951
 5566TIP3   OH216661   0.284   0.112   1.269  0.5860 -0.2089 -0.3657
 5566TIP3    H116662   0.308   0.186   1.324 -2.6753  0.5801  0.1998
 5566TIP3    H216663   0.280   0.149   1.180  1.9679 -0.5119 -0.5725
 5567TIP3   OH216664   3.300   6.516   2.260  0.8099  0.0632 -0.0065
 5567TIP3    H116665   3.356   6.490   2.187 -1.6569  1.6178 -2.6852
 5567TIP3    H216666   3.215   6.477   2.241 -0.3323  1.8029  1.1628
 5568TIP3   OH216667   1.094   4.025   0.212 -0.3153 -0.2755  0.2927
 5568TIP3    H116668   1.041   3.947   0.226 -0.2459 -0.3945 -0.1028
 5568TIP3    H216669   1.178   4.005   0.252  0.4075 -1.2097 -1.5749
 5569TIP3   OH216670   1.964   1.594   1.321  0.1206  0.0378 -0.2305
 5569TIP3    H116671   1.933   1.660   1.383  0.8482  0.7194 -0.5707
 5569TIP3    H216672   1.896   1.526   1.321 -0.3924  0.5443  0.5045
 5570TIP3   OH216673   2.108   3.848   2.049 -0.3008  0.2448  0.1429
 5570TIP3    H116674   2.156   3.851   1.967  1.6257  0.3632  1.2165
 5570TIP3    H216675   2.040   3.782   2.034  1.7548 -1.8352 -0.6921
 5571TIP3   OH216676   3.508   2.496   1.543  0.4482  0.7722 -0.5793
 5571TIP3    H116677   3.484   2.583   1.509  2.6690  0.9371 -1.9406
 5571TIP3    H216678   3.577   2.514   1.607 -0.8626  0.1369  1.0778
 5572TIP3   OH216679   6.812   0.253   2.627 -0.2212 -0.0848  0.1162
 5572TIP3    H116680   6.813   0.308   2.549  0.6565 -0.1799  0.0486
 5572TIP3    H216681   6.904   0.250   2.656 -0.1852 -1.7589 -0.0561
 5573TIP3   OH216682   2.462   1.688   4.860 -0.0856 -0.2709 -0.1724
 5573TIP3    H116683   2.401   1.700   4.933 -0.7045 -1.3084 -0.4985
 5573TIP3    H216684   2.486   1.595   4.864  1.2777  0.0625 -0.2137
 5574TIP3   OH216685   3.607   5.914   0.658  0.4690  0.1549 -0.1269
 5574TIP3    H116686   3.593   5.908   0.753  2.1441 -1.8865  0.0546
 5574TIP3    H216687   3.556   5.842   0.622  2.7368 -1.4486 -0.3408
 5575TIP3   OH216688   0.526   3.462   2.400 -0.5419 -0.4565  0.2582
 5575TIP3    H116689   0.572   3.418   2.329  0.7158 -2.5265  2.2174
 5575TIP3    H216690   0.444   3.414   2.410 -1.4933  0.8654 -0.7774
 5576TIP3   OH216691   3.609   2.290   5.562  0.2300  0.2533 -0.3150
 5576TIP3    H116692   3.681   2.345   5.593  0.0399 -0.2216  1.0279
 5576TIP3    H216693   3.577   2.334   5.484  0.4361  1.7639  0.4200
 5577TIP3   OH216694   1.738   1.612   0.050 -0.2799 -0.0275  0.1587
 5577TIP3    H116695   1.765   1.604  -0.042 -0.8616  2.2845 -0.2710
 5577TIP3    H216696   1.781   1.691   0.081 -0.9062 -0.2263  1.5971
 5578TIP3   OH216697   4.998   3.235   1.040 -0.1257 -0.2658 -0.8434
 5578TIP3    H116698   4.988   3.192   1.125 -0.8395 -0.5546 -1.0660
 5578TIP3    H216699   5.066   3.301   1.055 -0.1747 -0.3733 -0.0735
 5579TIP3   OH216700   1.406   1.418   5.020 -0.2810 -0.0808 -0.6972
 5579TIP3    H116701   1.369   1.467   5.094  0.7055 -1.2799  0.6449
 5579TIP3    H216702   1.431   1.485   4.957 -0.4029  1.0341  0.3982
 5580TIP3   OH216703   2.016   2.682   3.851 -0.2390  0.9585 -0.4568
 5580TIP3    H116704   1.993   2.769   3.881 -1.1839  0.4626  0.3091
 5580TIP3    H216705   2.105   2.690   3.818  0.2261  1.8883  0.9831
 5581TIP3   OH216706   3.614   5.148   1.469  0.2820 -0.3322 -0.3373
 5581TIP3    H116707   3.669   5.223   1.490  0.0320 -0.4603  0.8430
 5581TIP3    H216708   3.671   5.090   1.418  0.6611  0.3726 -0.7241
 5582TIP3   OH216709   2.910   1.840   3.666  0.1080  0.2886 -0.5913
 5582TIP3    H116710   2.910   1.780   3.740  0.8644 -0.6511 -1.3126
 5582TIP3    H216711   2.825   1.883   3.669 -0.6001 -1.0784 -0.2396
 5583TIP3   OH216712   0.141   5.056   5.136  0.4659  0.3178  0.5141
 5583TIP3    H116713   0.191   4.981   5.103  0.4306  0.5484 -0.0816
 5583TIP3    H216714   0.049   5.033   5.119  0.5024  2.3119 -3.9704
 5584TIP3   OH216715   2.393   6.494   4.430  0.0192 -0.8615  0.3832
 5584TIP3    H116716   2.475   6.530   4.462 -1.1765 -0.4853  3.3081
 5584TIP3    H216717   2.388   6.523   4.338  2.1369  0.8707  0.7369
 5585TIP3   OH216718   5.823   4.742   1.214  0.7306 -0.4062  0.5656
 5585TIP3    H116719   5.830   4.810   1.147  0.3288 -0.6934  0.2260
 5585TIP3    H216720   5.887   4.767   1.280  0.1430  0.6424  0.7548
 5586TIP3   OH216721   1.593   3.442   3.586 -0.0825  0.8094  0.3736
 5586TIP3    H116722   1.681   3.411   3.565 -0.9464 -0.8454 -1.1135
 5586TIP3    H216723   1.547   3.366   3.621 -1.0180  1.5561  0.8415
 5587TIP3   OH216724   1.199   0.775   5.104  0.3526 -0.0652 -0.0063
 5587TIP3    H116725   1.271   0.834   5.083  0.4561 -0.0019  0.5074
 5587TIP3    H216726   1.156   0.815   5.180  0.9164 -1.0451  0.8660
 5588TIP3   OH216727   5.855   2.129   4.785 -0.5096  0.2907 -0.2476
 5588TIP3    H116728   5.803   2.208   4.795 -0.5543  0.1109  1.0383
 5588TIP3    H216729   5.943   2.154   4.814 -0.8974 -0.5419  1.7835
 5589TIP3   OH216730   1.008   3.812   5.293  0.0365  0.1840  0.1588
 5589TIP3    H116731   1.091   3.765   5.293  0.5973  1.1471  0.0930
 5589TIP3    H216732   0.968   3.792   5.209  0.8715  0.8578 -0.4070
 5590TIP3   OH216733   5.399   0.035   4.353  0.0086 -0.1376 -0.1915
 5590TIP3    H116734   5.443  -0.006   4.279  1.4853 -1.0851  1.1470
 5590TIP3    H216735   5.309   0.003   4.349  0.5877 -1.7990 -0.4161
 5591TIP3   OH216736   2.274   3.070   3.856 -0.0844 -0.4253  0.1909
 5591TIP3    H116737   2.221   3.079   3.777 -0.1072  0.3470  0.2775
 5591TIP3    H216738   2.283   3.160   3.888  0.9285 -0.5945  0.4092
 5592TIP3   OH216739   2.039   1.256   1.235 -0.0952 -0.6863 -0.5308
 5592TIP3    H116740   2.053   1.266   1.329 -0.7245  1.8025 -0.6262
 5592TIP3    H216741   2.045   1.346   1.200 -2.6550 -1.1284 -2.4332
 5593TIP3   OH216742   4.031   2.396   4.706  0.2603  0.2693 -0.1202
 5593TIP3    H116743   4.081   2.452   4.646  0.2253  0.4235 -0.0056
 5593TIP3    H216744   4.047   2.307   4.675  0.5985  0.3188 -0.0927
 5594TIP3   OH216745   5.227   2.404   1.193  0.2142 -0.3397 -0.3873
 5594TIP3    H116746   5.136   2.404   1.224 -0.1062  0.3080 -1.2872
 5594TIP3    H216747   5.243   2.314   1.166  0.6263 -1.0187  1.9446
 5595TIP3   OH216748   5.273   0.235  -0.006  0.0120  0.4386 -0.5836
 5595TIP3    H116749   5.273   0.321  -0.048  0.4807  1.0737  0.6801
 5595TIP3    H216750   5.252   0.252   0.085  0.0160 -0.8069 -0.3288
 5596TIP3   OH216751   1.680   4.916   2.531 -0.1773  0.0702  0.1364
 5596TIP3    H116752   1.618   4.983   2.503  1.3963  1.2883 -0.6248
 5596TIP3    H216753   1.749   4.919   2.465  2.3324  1.1158  2.6098
 5597TIP3   OH216754   1.725   2.408   1.755  0.6337  0.3381  0.4334
 5597TIP3    H116755   1.699   2.446   1.839  0.2104  1.2407 -0.0856
 5597TIP3    H216756   1.811   2.368   1.772  0.3270  0.0571  1.4084
 5598TIP3   OH216757   0.316   6.523   1.690  0.1132  0.1537  0.1433
 5598TIP3    H116758   0.243   6.548   1.634  0.2335 -1.3300 -0.7361
 5598TIP3    H216759   0.366   6.604   1.702 -1.2400  1.0229  0.1497
 5599TIP3   OH216760   1.779   5.429   0.890  0.3059 -0.2120 -0.0667
 5599TIP3    H116761   1.708   5.419   0.953 -0.7431 -2.2112 -1.4473
 5599TIP3    H216762   1.851   5.378   0.926  0.2984  0.0154  0.2789
 5600TIP3   OH216763   7.137   5.285   4.881  0.1478 -0.9227 -0.2075
 5600TIP3    H116764   7.153   5.211   4.823 -1.0890 -0.3637 -1.3274
 5600TIP3    H216765   7.061   5.260   4.933 -0.7402 -0.1961 -1.1072
 5601TIP3   OH216766   5.480   5.821   1.046  0.6230  0.4262  0.3053
 5601TIP3    H116767   5.431   5.898   1.017  0.9994  0.8553  0.7890
 5601TIP3    H216768   5.569   5.836   1.014  0.4906 -0.2643 -0.4178
 5602TIP3   OH216769   1.706   4.772   5.867  0.3682 -0.3610 -0.0696
 5602TIP3    H116770   1.754   4.831   5.924 -0.2545 -0.8954  1.0509
 5602TIP3    H216771   1.761   4.763   5.789  0.5216  1.5737 -0.2211
 5603TIP3   OH216772   6.743   0.463   1.723 -0.3103 -0.0414  0.7875
 5603TIP3    H116773   6.740   0.538   1.663 -3.2700 -1.0808 -0.5383
 5603TIP3    H216774   6.730   0.502   1.810 -2.0790  1.0194  0.1008
 5604TIP3   OH216775   4.636   1.331   5.581 -0.7317  0.2375  1.1544
 5604TIP3    H116776   4.653   1.284   5.499  0.5814  1.0639  0.9228
 5604TIP3    H216777   4.546   1.364   5.572 -0.5725  0.3842  0.0034
 5605TIP3   OH216778   4.558   5.364   3.023  0.6907  0.0586 -0.4154
 5605TIP3    H116779   4.627   5.426   3.047  1.3005 -0.5622 -0.5309
 5605TIP3    H216780   4.540   5.316   3.104  1.6426 -0.9625 -0.7697
 5606TIP3   OH216781   2.686   4.957   0.814  0.0080 -0.2537 -0.4155
 5606TIP3    H116782   2.690   4.957   0.719 -1.2050 -1.5967 -0.5049
 5606TIP3    H216783   2.671   4.866   0.838  0.7067 -0.0123  1.0998
 5607TIP3   OH216784   2.861   0.917   1.221  0.0113  0.3403 -0.3295
 5607TIP3    H116785   2.931   0.891   1.161 -0.2037  0.3970 -0.6066
 5607TIP3    H216786   2.904   0.978   1.281  0.2762  0.1247 -0.2958
 5608TIP3   OH216787   6.905   3.400   0.866 -0.5798  0.1334  0.4551
 5608TIP3    H116788   6.902   3.440   0.953  1.9378  3.3067 -0.6901
 5608TIP3    H216789   6.997   3.382   0.851 -1.1792 -2.0945 -0.9138
 5609TIP3   OH216790   4.310   2.625   3.237  0.2658  0.5745  0.7292
 5609TIP3    H116791   4.259   2.689   3.187 -0.9981  0.2316  1.5366
 5609TIP3    H216792   4.362   2.579   3.171 -1.9065 -0.3760 -0.4246
 5610TIP3   OH216793   2.154   6.014   2.106  0.1232  0.2833 -0.4826
 5610TIP3    H116794   2.071   5.968   2.110  0.4521 -0.2845 -0.0527
 5610TIP3    H216795   2.197   5.981   2.028  0.1188  0.2759 -0.4817
 5611TIP3   OH216796   0.030   1.131   5.817 -0.2523 -0.0015  0.7617
 5611TIP3    H116797   0.121   1.151   5.795  0.1020 -0.3890  1.8271
 5611TIP3    H216798   0.033   1.045   5.858 -1.2684 -0.5570 -0.2697
 5612TIP3   OH216799   0.458   5.300   5.342  0.3068  0.3288 -0.1481
 5612TIP3    H116800   0.370   5.295   5.305  0.7606  1.0789 -1.3870
 5612TIP3    H216801   0.476   5.211   5.372 -1.6968  0.6087  2.1749
 5613TIP3   OH216802   2.805   2.967   1.090  0.8332 -0.2806 -0.3204
 5613TIP3    H116803   2.713   2.971   1.116  1.3088 -1.8519  1.8610
 5613TIP3    H216804   2.808   3.017   1.008 -1.8786  0.0759 -0.3189
 5614TIP3   OH216805   2.551   1.884   5.561 -0.2882 -0.0023 -0.0082
 5614TIP3    H116806   2.587   1.813   5.614  0.2689  1.4128  1.6311
 5614TIP3    H216807   2.544   1.848   5.473  2.9502 -1.0993  0.0629
 5615TIP3   OH216808   6.461   5.663   3.676 -0.0907  0.1236  0.5249
 5615TIP3    H116809   6.490   5.711   3.754 -1.7349  0.7999  0.7678
 5615TIP3    H216810   6.383   5.615   3.705  0.7456 -1.6763 -0.0672
 5616TIP3   OH216811   1.992   3.343   4.598  0.2493  0.4135 -0.0268
 5616TIP3    H116812   1.927   3.281   4.564  0.0356  1.2541 -1.2357
 5616TIP3    H216813   2.077   3.305   4.573  0.2330 -0.5133  1.2510
 5617TIP3   OH216814   6.930   1.939   1.043  0.1075  0.2599  0.1716
 5617TIP3    H116815   6.944   1.930   1.137  2.1898 -1.7040 -0.2176
 5617TIP3    H216816   6.835   1.931   1.032 -0.0404 -1.2488  1.9895
 5618TIP3   OH216817   0.435   4.065   1.620 -0.2133  0.3593  0.0220
 5618TIP3    H116818   0.359   4.116   1.649 -0.0816  1.4244 -1.3941
 5618TIP3    H216819   0.477   4.120   1.554  0.3985 -1.2480 -0.9917
 5619TIP3   OH216820   3.530   2.140   5.798 -0.1302 -0.8594 -0.4437
 5619TIP3    H116821   3.536   2.170   5.707 -0.2379  1.0133  0.1090
 5619TIP3    H216822   3.597   2.191   5.844 -0.3443 -1.4945  0.5939
 5620TIP3   OH216823   1.322   0.582   5.278  0.3126  0.1073 -0.2408
 5620TIP3    H116824   1.281   0.656   5.234  1.4506  0.8650 -0.0835
 5620TIP3    H216825   1.393   0.622   5.330  1.5923 -1.1750 -0.9217
 5621TIP3   OH216826   1.355   4.874   2.978  0.6419  0.4668  0.0421
 5621TIP3    H116827   1.386   4.795   3.021  0.6490  0.8412  0.7236
 5621TIP3    H216828   1.264   4.855   2.956  0.8926 -0.0499 -0.5718
 5622TIP3   OH216829   3.863   3.907   2.318 -0.6619 -0.2783 -0.5882
 5622TIP3    H116830   3.952   3.927   2.288 -0.0920 -0.1576  1.0770
 5622TIP3    H216831   3.872   3.827   2.369 -1.5146 -0.2737 -0.4129
 5623TIP3   OH216832   5.763   0.343   1.400 -0.7732 -0.4193  0.5022
 5623TIP3    H116833   5.788   0.432   1.374 -2.4832 -0.0399  0.0537
 5623TIP3    H216834   5.711   0.355   1.480 -3.1437 -0.7248 -0.8981
 5624TIP3   OH216835   4.355   2.639   0.554  0.0904  0.1606 -1.0397
 5624TIP3    H116836   4.432   2.590   0.525 -0.4573 -0.8785 -0.8214
 5624TIP3    H216837   4.296   2.571   0.588  0.6724  1.2139  2.5201
 5625TIP3   OH216838   3.053   4.569   4.154  0.7759 -0.0889 -0.3631
 5625TIP3    H116839   3.011   4.489   4.185 -0.4534  0.2389 -1.1210
 5625TIP3    H216840   2.983   4.634   4.149  1.6112  0.8409 -0.4566
 5626TIP3   OH216841   0.759   2.228   5.087  0.4800 -0.0346 -0.2518
 5626TIP3    H116842   0.768   2.141   5.048  1.0795 -0.0976  0.0263
 5626TIP3    H216843   0.677   2.223   5.137 -0.7272  0.2856 -2.0938
 5627TIP3   OH216844   6.422   0.833   1.280 -0.9711  0.6278  0.3348
 5627TIP3    H116845   6.495   0.797   1.228 -1.1645  0.1780  0.3678
 5627TIP3    H216846   6.344   0.810   1.230 -0.9990  3.3212 -1.0545
 5628TIP3   OH216847   6.354   2.351   2.010  0.0985  0.5555 -0.3598
 5628TIP3    H116848   6.439   2.311   2.030 -0.0234  0.6762  0.4229
 5628TIP3    H216849   6.323   2.385   2.094 -1.3702 -0.6995 -0.3592
 5629TIP3   OH216850   0.484   4.927   2.177 -0.0096  0.0413  0.6259
 5629TIP3    H116851   0.527   4.985   2.115  1.8666  0.7544  2.4743
 5629TIP3    H216852   0.413   4.979   2.214 -0.3006  0.0585  0.0575
 5630TIP3   OH216853   0.583   4.175   4.001 -0.0440 -0.1971  0.3529
 5630TIP3    H116854   0.556   4.189   3.910  0.1183  0.5628  0.4119
 5630TIP3    H216855   0.676   4.153   3.995  0.3769  1.4344  0.4210
 5631TIP3   OH216856   2.048   3.116   1.301  0.0249  0.1251  0.0094
 5631TIP3    H116857   1.973   3.166   1.334  0.1576 -0.2460  0.8964
 5631TIP3    H216858   2.062   3.150   1.213 -0.6941  0.7487  0.1223
 5632TIP3   OH216859   4.382   0.146   4.524 -0.2098  0.3226 -0.2160
 5632TIP3    H116860   4.477   0.160   4.523  0.1015 -0.7727  3.2275
 5632TIP3    H216861   4.347   0.220   4.573 -0.7457 -0.7153  1.0382
 5633TIP3   OH216862   4.866   4.683   0.500  0.4213 -0.3267  0.2109
 5633TIP3    H116863   4.870   4.773   0.532  0.5845 -0.6921  1.2337
 5633TIP3    H216864   4.884   4.629   0.576 -0.3808 -1.2578 -0.2358
 5634TIP3   OH216865   0.414   0.737   0.158  0.8275  0.1353  0.1533
 5634TIP3    H116866   0.388   0.778   0.075 -0.3022  0.2946  0.5771
 5634TIP3    H216867   0.496   0.692   0.137  0.1554 -0.4859 -1.2591
 5635TIP3   OH216868   5.072   0.103   1.567 -0.2847 -0.5479 -0.1021
 5635TIP3    H116869   5.042   0.162   1.498 -1.1520 -0.9972 -0.1202
 5635TIP3    H216870   5.037   0.017   1.543 -0.0352 -0.8387  0.5463
 5636TIP3   OH216871   1.170   0.314   3.334  0.0050 -0.5595  0.2439
 5636TIP3    H116872   1.218   0.232   3.323  0.5460 -0.2734  0.4655
 5636TIP3    H216873   1.088   0.299   3.287 -0.6618 -1.8646  1.7277
 5637TIP3   OH216874   6.337   6.504   1.394 -0.2730  0.1454  0.0419
 5637TIP3    H116875   6.343   6.409   1.392 -0.3924  0.1271  0.5447
 5637TIP3    H216876   6.302   6.528   1.308  1.2240 -0.1562 -0.6869
 5638TIP3   OH216877   5.396   5.225   4.027 -0.1048 -0.1173  0.2035
 5638TIP3    H116878   5.433   5.306   4.064 -0.5672  0.5060 -0.6657
 5638TIP3    H216879   5.325   5.255   3.971 -0.2365 -1.1309 -0.1881
 5639TIP3   OH216880   5.022   3.553   1.174  0.4221 -0.0793 -0.0983
 5639TIP3    H116881   5.064   3.639   1.161  1.2476 -0.4648 -0.0828
 5639TIP3    H216882   5.074   3.493   1.120 -0.9213 -0.3747 -1.1307
 5640TIP3   OH216883   1.483   4.004   2.219 -0.2008  0.0982 -0.0847
 5640TIP3    H116884   1.443   3.919   2.234  2.9257 -1.5939 -0.6180
 5640TIP3    H216885   1.517   4.030   2.305  1.9872 -0.9860 -0.5706
 5641TIP3   OH216886   3.478   5.722   0.404 -0.3460 -0.7513 -0.0144
 5641TIP3    H116887   3.565   5.697   0.433 -0.6669  1.1987  3.0672
 5641TIP3    H216888   3.485   5.729   0.309  2.8484 -0.6132  0.1448
 5642TIP3   OH216889   3.926   4.029   1.256  0.1434 -0.3040  0.0764
 5642TIP3    H116890   3.963   3.998   1.174 -1.1010  2.0462 -1.5099
 5642TIP3    H216891   3.852   4.085   1.229  1.3369  2.8057  2.5849
 5643TIP3   OH216892   5.040   5.375   1.913 -0.8009  0.2748  0.1143
 5643TIP3    H116893   5.042   5.467   1.939 -3.5771  1.0196 -1.7856
 5643TIP3    H216894   5.052   5.378   1.818  0.7102 -1.5077  0.2193
 5644TIP3   OH216895   1.287   4.841   5.214 -0.1635 -0.3815  0.0843
 5644TIP3    H116896   1.355   4.779   5.239 -1.6855 -1.7955  0.9756
 5644TIP3    H216897   1.280   4.833   5.119  0.1480 -1.0392  0.1166
 5645TIP3   OH216898   5.986   4.734   0.283 -0.5767  0.0346  0.1466
 5645TIP3    H116899   5.985   4.747   0.188 -0.3113  1.7008  0.3366
 5645TIP3    H216900   5.936   4.654   0.297  1.1866 -1.4521 -1.5387
 5646TIP3   OH216901   4.921   6.304   0.944  0.2633  0.0936  0.5947
 5646TIP3    H116902   4.899   6.394   0.920  1.0214 -0.0675 -0.8381
 5646TIP3    H216903   5.012   6.308   0.973  0.4272 -0.2621  0.1461
 5647TIP3   OH216904   4.281   1.744   2.896 -0.2948 -0.0971  0.1322
 5647TIP3    H116905   4.301   1.651   2.883  0.3101  0.0800 -0.2590
 5647TIP3    H216906   4.225   1.767   2.823 -1.6944 -0.5102  1.0437
 5648TIP3   OH216907   6.160   0.425   3.705  0.3956  0.2976 -0.1381
 5648TIP3    H116908   6.239   0.400   3.753 -0.1391 -1.4907 -0.1300
 5648TIP3    H216909   6.126   0.343   3.670 -2.1482  0.8335  0.8997
 5649TIP3   OH216910   2.770   6.414   4.701  0.1292 -0.4488  0.3649
 5649TIP3    H116911   2.862   6.396   4.686  0.4532  1.6015 -0.4744
 5649TIP3    H216912   2.731   6.329   4.721  1.6037 -1.8776 -2.3771
 5650TIP3   OH216913   3.724   2.027   2.958 -0.0861  0.4340  0.4234
 5650TIP3    H116914   3.715   2.079   3.038 -0.8646 -1.0298  1.3290
 5650TIP3    H216915   3.778   1.953   2.984 -3.0508 -1.8736  0.6127
 5651TIP3   OH216916   3.960   4.448   1.027 -0.6612  0.0055 -0.4304
 5651TIP3    H116917   3.950   4.526   0.972  1.6756  0.0828 -0.8377
 5651TIP3    H216918   4.051   4.451   1.057 -0.3610 -2.7872 -0.8040
 5652TIP3   OH216919   5.076   3.058   4.891 -0.0858 -0.0973 -0.3102
 5652TIP3    H116920   5.100   3.137   4.842 -0.5530 -0.5994 -1.4085
 5652TIP3    H216921   5.105   3.074   4.980  4.3022 -0.6332 -1.4293
 5653TIP3   OH216922   6.211   1.281   1.373  0.1680 -0.0546 -0.0535
 5653TIP3    H116923   6.128   1.271   1.326 -0.6550 -1.9764  1.6481
 5653TIP3    H216924   6.276   1.245   1.312 -0.6035 -0.7613 -0.4948
 5654TIP3   OH216925   1.982   4.980   3.798 -0.1514  0.6756  0.0625
 5654TIP3    H116926   1.989   4.902   3.852 -0.4518  0.4259 -0.2517
 5654TIP3    H216927   2.007   5.052   3.856 -0.8738  0.4613  0.6611
 5655TIP3   OH216928   1.831   1.049   1.303 -0.0104  0.5360 -0.1480
 5655TIP3    H116929   1.912   1.043   1.354 -0.9748  1.4801  1.5918
 5655TIP3    H216930   1.804   1.140   1.312 -1.0465  0.3316 -1.0667
 5656TIP3   OH216931   4.853   1.411   5.413  0.4186  0.0290  0.2845
 5656TIP3    H116932   4.838   1.365   5.495  0.2574  0.1685  0.3361
 5656TIP3    H216933   4.916   1.358   5.366  0.3052 -0.1934  0.3835
 5657TIP3   OH216934   4.646   2.806   4.102 -0.0050 -0.4910  0.5376
 5657TIP3    H116935   4.730   2.789   4.059  0.8808  1.2932  1.4216
 5657TIP3    H216936   4.669   2.815   4.195 -1.0709  0.5828  0.7201
 5658TIP3   OH216937   1.286   5.393   2.987  0.1592  0.1453 -0.3363
 5658TIP3    H116938   1.284   5.303   3.019  0.1130  0.2553 -0.0266
 5658TIP3    H216939   1.217   5.437   3.036  0.6451  0.5190  0.0219
 5659TIP3   OH216940   3.339   1.040   0.477 -0.1974 -0.2468 -0.1893
 5659TIP3    H116941   3.296   1.114   0.435 -0.0740 -0.6845 -1.1070
 5659TIP3    H216942   3.333   0.969   0.413  2.0346 -0.2829 -0.4569
 5660TIP3   OH216943   6.645   0.809   1.807  0.1565  0.2866 -0.6979
 5660TIP3    H116944   6.552   0.828   1.811  0.1334  0.0210  2.1103
 5660TIP3    H216945   6.688   0.894   1.817  0.1156  0.0619  2.0784
 5661TIP3   OH216946   3.471   3.765   0.720  0.0771 -0.0237 -0.2604
 5661TIP3    H116947   3.561   3.759   0.750 -0.4255 -1.2736  1.1514
 5661TIP3    H216948   3.445   3.674   0.703 -1.3328  0.1351  0.7843
 5662TIP3   OH216949   3.460   3.500   4.150 -0.0340  0.4964 -0.1374
 5662TIP3    H116950   3.403   3.552   4.093  0.1489 -0.4212 -1.2076
 5662TIP3    H216951   3.545   3.544   4.144 -0.0907  0.5854 -0.3274
 5663TIP3   OH216952   6.408   0.040   3.576 -0.0361  0.3087 -0.2181
 5663TIP3    H116953   6.405   0.131   3.547  0.8832 -0.0400 -1.5360
 5663TIP3    H216954   6.316   0.013   3.579 -0.2748  1.0306 -0.6790
 5664TIP3   OH216955   1.436   6.588   5.025  0.3796 -0.1213  0.2555
 5664TIP3    H116956   1.491   6.602   4.948  0.3989 -0.8261  0.1348
 5664TIP3    H216957   1.471   6.508   5.066 -0.6446 -0.6807  0.0807
 5665TIP3   OH216958   5.480   4.942   0.337 -0.1436  0.1818  0.3946
 5665TIP3    H116959   5.493   4.985   0.252 -1.9099 -0.8614 -0.4491
 5665TIP3    H216960   5.539   4.989   0.397  2.2931 -0.0147 -1.6826
 5666TIP3   OH216961   0.514   1.646   1.888  0.0977 -0.8145 -0.7015
 5666TIP3    H116962   0.510   1.596   1.970 -0.9391  1.6753  0.9286
 5666TIP3    H216963   0.606   1.646   1.864  0.9491  0.5475  2.0548
 5667TIP3   OH216964   6.807   0.665   4.255 -0.1656 -0.2419  0.3303
 5667TIP3    H116965   6.778   0.749   4.220 -1.2801 -0.2498  1.1652
 5667TIP3    H216966   6.776   0.600   4.192 -2.4949 -0.2923  1.4232
 5668TIP3   OH216967   6.934   1.760   1.789 -0.5363 -0.0558 -0.0066
 5668TIP3    H116968   6.992   1.830   1.820  1.1705 -2.1270  1.7912
 5668TIP3    H216969   6.848   1.784   1.823  0.1183  0.8968  1.0602
 5669TIP3   OH216970   0.736   5.311   1.653  0.3690 -0.1601 -0.5920
 5669TIP3    H116971   0.714   5.399   1.624 -0.2716  0.0365  0.4255
 5669TIP3    H216972   0.665   5.256   1.621  0.2582 -0.1318 -0.4021
 5670TIP3   OH216973   5.130   2.093   0.062  0.5480 -0.0387  0.2095
 5670TIP3    H116974   5.194   2.119   0.127  0.5161  0.1891  0.1509
 5670TIP3    H216975   5.159   2.136  -0.019 -0.9817  2.0461  0.6826
 5671TIP3   OH216976   6.727   0.690   1.554  0.4692  0.2269  0.2444
 5671TIP3    H116977   6.702   0.755   1.619 -2.5861  0.3972 -0.9143
 5671TIP3    H216978   6.812   0.719   1.523  0.1743  2.4546  1.2980
 5672TIP3   OH216979   5.154   1.208   1.105 -0.0126 -0.0746  0.1760
 5672TIP3    H116980   5.223   1.205   1.038 -0.8757 -1.3612 -0.7186
 5672TIP3    H216981   5.198   1.237   1.184  1.1227  1.1787 -0.8593
 5673TIP3   OH216982   0.934   3.279   0.157  0.0973 -0.0116 -0.4740
 5673TIP3    H116983   0.850   3.324   0.169 -0.3263 -1.3132  2.1074
 5673TIP3    H216984   0.912   3.186   0.164  1.7030 -0.3822 -0.1075
 5674TIP3   OH216985   6.759   3.273   3.163 -0.6171  0.2510 -0.7251
 5674TIP3    H116986   6.700   3.214   3.211  0.3000 -1.1593 -1.2812
 5674TIP3    H216987   6.821   3.304   3.229  0.1017 -0.9840 -0.8109
 5675TIP3   OH216988   6.476   0.214   1.116 -0.1239  0.0189  0.0028
 5675TIP3    H116989   6.451   0.122   1.108 -1.1804  0.1722  1.2459
 5675TIP3    H216990   6.420   0.259   1.052 -0.7445 -0.0284  0.5009
 5676TIP3   OH216991   0.362   3.803   1.689 -0.3802 -0.4785  0.4371
 5676TIP3    H116992   0.377   3.892   1.656 -1.3759  0.0543  1.3363
 5676TIP3    H216993   0.420   3.795   1.765  2.5825 -2.0248 -1.7873
 5677TIP3   OH216994   5.570   1.847   0.962 -0.1052  0.0974  0.3705
 5677TIP3    H116995   5.558   1.942   0.967 -3.2809 -0.0769 -1.1488
 5677TIP3    H216996   5.637   1.835   0.895 -0.6959  1.2890 -0.4784
 5678TIP3   OH216997   5.263   3.049   3.718 -0.2242 -0.1584  0.1532
 5678TIP3    H116998   5.211   3.002   3.783  0.7840 -1.6850 -0.0868
 5678TIP3    H216999   5.350   3.056   3.757  0.0454  0.1139 -0.4869
 5679TIP3   OH217000   1.275   3.661   0.911  0.3293 -0.1591 -0.0700
 5679TIP3    H117001   1.216   3.632   0.840 -0.2852  0.8078  0.0205
 5679TIP3    H217002   1.326   3.584   0.933  0.1068 -0.6372 -1.1657
 5680TIP3   OH217003   6.097   0.142   3.632  0.4116 -0.0754 -0.3590
 5680TIP3    H117004   6.051   0.059   3.626 -0.0851  0.2216 -0.7568
 5680TIP3    H217005   6.165   0.128   3.698  0.7826 -1.0087 -0.9235
 5681TIP3   OH217006   0.185   3.127   0.844  0.4041 -0.1696  0.7216
 5681TIP3    H117007   0.269   3.122   0.799  0.1088  1.1100 -0.0398
 5681TIP3    H217008   0.134   3.055   0.808  0.4073  0.4225 -0.5353
 5682TIP3   OH217009   1.285   4.503   2.375 -0.2273 -0.1186 -0.1356
 5682TIP3    H117010   1.231   4.582   2.371 -0.9712 -0.6280 -0.2654
 5682TIP3    H217011   1.233   4.441   2.427 -0.1380 -0.8901 -0.9461
 5683TIP3   OH217012   2.206   4.678   3.656  0.0418  0.1081  0.4695
 5683TIP3    H117013   2.295   4.664   3.624 -0.7484  0.4598 -2.0491
 5683TIP3    H217014   2.171   4.747   3.600 -1.9515 -0.2892  1.1662
 5684TIP3   OH217015   5.788   0.474   4.213 -0.1958  1.0177  0.5929
 5684TIP3    H117016   5.731   0.400   4.230 -0.5910  1.1065 -0.3057
 5684TIP3    H217017   5.811   0.507   4.300 -0.5628  0.2657  0.9837
 5685TIP3   OH217018   1.737   1.766   3.862  0.4681  0.1723  0.2109
 5685TIP3    H117019   1.766   1.734   3.948  0.5751  1.4373  0.6727
 5685TIP3    H217020   1.676   1.700   3.831 -0.0390 -0.0146  1.5488
 5686TIP3   OH217021   4.950   1.074   5.227 -0.0999  0.0450 -0.3782
 5686TIP3    H117022   4.943   1.010   5.157 -1.3563  1.7728 -1.9390
 5686TIP3    H217023   4.860   1.089   5.256  0.4605 -1.5492  2.6117
 5687TIP3   OH217024   1.760   3.240   4.476  0.1895 -0.3344 -0.2869
 5687TIP3    H117025   1.805   3.189   4.409 -1.1191 -1.4701 -0.3538
 5687TIP3    H217026   1.695   3.291   4.428  1.7142  1.7742 -0.2647
 5688TIP3   OH217027   4.004   2.419   3.648  0.2815  0.4544  0.4229
 5688TIP3    H117028   3.969   2.360   3.715 -0.3974  1.4469  0.9874
 5688TIP3    H217029   4.038   2.494   3.698 -1.3174  1.7710 -0.3471
 5689TIP3   OH217030   5.785   4.337   3.725 -0.5925 -0.4971  0.1288
 5689TIP3    H117031   5.743   4.267   3.775 -0.7371  0.8773  2.0567
 5689TIP3    H217032   5.732   4.415   3.743  1.5852  0.8748  1.0193
 5690TIP3   OH217033   3.500   5.687   5.724  0.3353 -0.5973 -0.0817
 5690TIP3    H117034   3.581   5.667   5.772 -0.5104 -3.5425  0.2679
 5690TIP3    H217035   3.516   5.654   5.635 -0.6625 -1.7485  0.1467
 5691TIP3   OH217036   4.685   2.374   3.339  0.5423  0.2826  0.0854
 5691TIP3    H117037   4.615   2.322   3.378  1.0619  1.1247  2.2790
 5691TIP3    H217038   4.656   2.465   3.350  0.3496  0.5643 -2.2963
 5692TIP3   OH217039   0.972   3.340   2.642  0.2695 -0.2415 -0.0136
 5692TIP3    H117040   0.910   3.382   2.703 -1.3419 -0.8287 -1.1694
 5692TIP3    H217041   0.922   3.269   2.603  1.8812 -1.0706 -0.6297
 5693TIP3   OH217042   2.513   1.646   2.170 -0.3408  0.1109  0.4934
 5693TIP3    H117043   2.476   1.684   2.249  1.6803  0.7980  1.1852
 5693TIP3    H217044   2.450   1.666   2.101 -1.1452  1.3687  1.5603
 5694TIP3   OH217045   3.854   3.211   0.187 -0.1073  0.2675 -0.5808
 5694TIP3    H117046   3.822   3.227   0.098  1.2653 -0.9395 -1.3475
 5694TIP3    H217047   3.921   3.278   0.201  0.2039 -0.0039 -0.7589
 5695TIP3   OH217048   2.119   2.227   0.737 -0.2131  0.4536  0.2054
 5695TIP3    H117049   2.138   2.266   0.822  2.9987 -3.0622  1.3573
 5695TIP3    H217050   2.196   2.246   0.683  0.1531 -1.6245 -0.1114
 5696TIP3   OH217051   4.146   0.070   1.561  0.4026 -0.6290 -0.4225
 5696TIP3    H117052   4.142  -0.006   1.502 -1.6458 -0.6859 -0.2655
 5696TIP3    H217053   4.097   0.043   1.638  0.9498  0.3410  0.2822
 5697TIP3   OH217054   3.035   1.978   2.981  0.2525 -0.5178  0.8581
 5697TIP3    H117055   2.948   1.973   3.019  0.1392 -1.6466  0.4884
 5697TIP3    H217056   3.075   1.893   3.001  1.2064 -0.0828  0.8709
 5698TIP3   OH217057   5.724   0.252   2.391  0.5377 -0.2757  0.2262
 5698TIP3    H117058   5.791   0.242   2.322 -0.2685 -0.8504 -0.5011
 5698TIP3    H217059   5.731   0.171   2.442  0.5541 -0.2370  0.2846
 5699TIP3   OH217060   4.353   3.280   3.688 -0.1918 -0.2481 -0.4257
 5699TIP3    H117061   4.333   3.193   3.723  0.9782  0.0348  1.0689
 5699TIP3    H217062   4.270   3.310   3.649 -0.9598 -1.5183  0.1718
 5700TIP3   OH217063   4.692   5.557   4.629  0.0596  0.4995  0.4375
 5700TIP3    H117064   4.771   5.505   4.614  1.0232  1.9752  0.0966
 5700TIP3    H217065   4.720   5.625   4.690 -1.0012  0.9562  0.4364
 5701TIP3   OH217066   2.028   3.181   4.041 -0.3336 -0.2503 -0.0741
 5701TIP3    H117067   2.097   3.234   3.999 -0.5879  0.1681  0.0294
 5701TIP3    H217068   1.959   3.244   4.061  0.2779 -0.1837  2.1214
 5702TIP3   OH217069   3.534   3.426   3.816 -0.5495 -0.0919 -0.1368
 5702TIP3    H117070   3.496   3.416   3.729  0.0234  1.7543 -0.6474
 5702TIP3    H217071   3.547   3.337   3.847 -1.3531 -0.7767 -1.6809
 5703TIP3   OH217072   6.946   6.379   2.730 -0.0737  0.6475 -0.0609
 5703TIP3    H117073   7.007   6.317   2.689  0.2936  0.3685  0.8725
 5703TIP3    H217074   6.898   6.327   2.794 -1.2378  0.8922 -0.7139
 5704TIP3   OH217075   5.548   4.881   4.836  0.1612 -0.0057  0.1962
 5704TIP3    H117076   5.615   4.814   4.850  1.1769  1.0504  0.5760
 5704TIP3    H217077   5.548   4.895   4.741 -2.0359 -2.4554 -0.2937
 5705TIP3   OH217078   6.518   0.240   5.288  0.5714  0.6405 -0.6697
 5705TIP3    H117079   6.528   0.324   5.332 -1.8229  0.1272  1.0555
 5705TIP3    H217080   6.564   0.178   5.344 -0.1502  0.3846 -0.3550
 5706TIP3   OH217081   0.488   0.907   5.603  0.0769 -0.2836 -0.7799
 5706TIP3    H117082   0.507   0.963   5.527  0.2286  1.9813  0.8241
 5706TIP3    H217083   0.552   0.836   5.597  0.5390  0.2204 -2.3684
 5707TIP3   OH217084   0.689   3.604   0.380  0.3948  0.0809 -0.0089
 5707TIP3    H117085   0.601   3.627   0.348  0.5567 -0.9628 -1.3191
 5707TIP3    H217086   0.739   3.588   0.300  1.4431 -0.5329  0.7567
 5708TIP3   OH217087   1.098   6.299   3.359 -0.0303  0.0371  0.1660
 5708TIP3    H117088   1.039   6.373   3.373  0.5879  0.7874 -0.9871
 5708TIP3    H217089   1.126   6.308   3.268  0.9913 -0.9381  0.3642
 5709TIP3   OH217090   2.474   3.494   5.688 -0.0103  0.1848 -0.2770
 5709TIP3    H117091   2.432   3.575   5.715  1.1005  0.5987  0.2831
 5709TIP3    H217092   2.568   3.511   5.699  0.2576 -1.0249 -0.5688
 5710TIP3   OH217093   5.072   0.222   4.112  0.2788 -0.7527  0.0797
 5710TIP3    H117094   5.067   0.216   4.207 -2.2534  0.0258  0.0767
 5710TIP3    H217095   4.992   0.180   4.081  0.3435  0.2698 -1.6075
 5711TIP3   OH217096   5.168   0.828   4.072  0.0723  0.5270  0.1713
 5711TIP3    H117097   5.150   0.746   4.117 -0.8273  0.6520  0.0763
 5711TIP3    H217098   5.133   0.815   3.984 -0.3337  1.0920  0.2368
 5712TIP3   OH217099   3.657   6.114   3.143  0.0436 -0.0962  0.3023
 5712TIP3    H117100   3.730   6.093   3.085 -0.1469  0.6995 -0.2473
 5712TIP3    H217101   3.581   6.072   3.103  0.0641 -0.2824  0.4573
 5713TIP3   OH217102   3.909   0.490   1.979 -0.3482  0.1763  0.1984
 5713TIP3    H117103   3.816   0.469   1.968 -0.1209 -0.0191 -1.5916
 5713TIP3    H217104   3.926   0.558   1.915  0.5456  0.9027  1.1764
 5714TIP3   OH217105   1.170   0.718   3.986  0.0965 -0.1624 -0.0074
 5714TIP3    H117106   1.140   0.713   3.895  0.7057 -1.5002 -0.1601
 5714TIP3    H217107   1.089   0.727   4.037 -0.1620  2.2168 -0.7422
 5715TIP3   OH217108   4.913   6.511   0.445  0.3618 -0.6152 -0.6111
 5715TIP3    H117109   4.871   6.585   0.401  1.6709  0.5300 -0.0040
 5715TIP3    H217110   4.987   6.550   0.491  0.8547 -2.2638  0.0400
 5716TIP3   OH217111   5.675   3.906   0.467 -0.0053 -0.3767  0.3971
 5716TIP3    H117112   5.707   3.865   0.386  1.8349  1.0588  0.3374
 5716TIP3    H217113   5.750   3.954   0.501 -1.7504  2.1433  0.9974
 5717TIP3   OH217114   7.106   5.601   0.494  0.0641  0.3271 -0.5888
 5717TIP3    H117115   7.069   5.521   0.458 -1.2718  0.0885  1.2196
 5717TIP3    H217116   7.057   5.617   0.574  3.5271  0.2630  1.7593
 5718TIP3   OH217117   6.824   0.435   4.513 -0.2258  0.2201  0.4733
 5718TIP3    H117118   6.831   0.528   4.489  0.6979 -0.5375 -2.6750
 5718TIP3    H217119   6.755   0.401   4.455 -0.0748 -1.2017  1.0896
 5719TIP3   OH217120   0.734   5.314   2.040  0.0259 -0.3932  0.6263
 5719TIP3    H117121   0.677   5.349   1.972  1.5995  1.6109  0.2345
 5719TIP3    H217122   0.677   5.307   2.117 -1.4139 -1.2930 -0.4736
 5720TIP3   OH217123   3.404   0.140   0.690 -0.1772 -0.4463  0.3716
 5720TIP3    H117124   3.332   0.163   0.749 -0.9812 -0.1467 -0.6885
 5720TIP3    H217125   3.406   0.044   0.690 -0.8508 -0.4660  0.1046
 5721TIP3   OH217126   7.157   1.723   4.395  0.1823 -0.0862  0.0035
 5721TIP3    H117127   7.078   1.674   4.373  1.1365 -1.7982  0.2776
 5721TIP3    H217128   7.160   1.723   4.490  0.7263 -0.3972 -0.0111
 5722TIP3   OH217129   6.611   6.060   5.271 -0.0282  0.2268  0.1079
 5722TIP3    H117130   6.700   6.051   5.304 -0.3355 -0.1814  0.8345
 5722TIP3    H217131   6.610   6.146   5.228  0.7827  0.1174 -0.1441
 5723TIP3   OH217132   4.130   1.198   5.427  0.4117 -0.0353 -0.2452
 5723TIP3    H117133   4.047   1.185   5.472  0.7528  1.4360  0.9137
 5723TIP3    H217134   4.194   1.150   5.480  0.5284  0.1347 -0.2297
 5724TIP3   OH217135   0.881   5.903   3.198  0.0276 -0.6473  0.1896
 5724TIP3    H117136   0.946   5.839   3.225  0.9976  0.9537  1.9056
 5724TIP3    H217137   0.797   5.861   3.215  0.5373 -2.6308 -1.7644
 5725TIP3   OH217138   2.156   4.160   1.004 -0.4605  0.3055 -0.4126
 5725TIP3    H117139   2.109   4.086   1.044 -0.1510 -0.5814 -1.6412
 5725TIP3    H217140   2.246   4.150   1.035  0.3574 -1.8233 -3.1230
 5726TIP3   OH217141   1.949   6.223   0.338  0.1331 -0.2906 -0.1430
 5726TIP3    H117142   1.951   6.179   0.423  0.5202  1.6451  0.9133
 5726TIP3    H217143   1.856   6.230   0.316 -0.0370  0.2206  0.7082
 5727TIP3   OH217144   2.454   4.786   4.239  0.1808  0.3506  0.0383
 5727TIP3    H117145   2.486   4.749   4.321 -0.3889  0.6443  0.4012
 5727TIP3    H217146   2.376   4.836   4.264 -0.2568  0.0810 -0.7452
 5728TIP3   OH217147   3.888   5.995   2.991  0.1786 -0.4137 -0.0779
 5728TIP3    H117148   3.920   5.925   2.935  2.2725  0.6255 -0.2714
 5728TIP3    H217149   3.945   6.069   2.972 -0.7659  0.7770  1.4926
 5729TIP3   OH217150   0.010   0.205   4.456 -0.0958 -0.1636  0.1524
 5729TIP3    H117151   0.038   0.123   4.497  1.2013  0.1532 -0.0462
 5729TIP3    H217152  -0.041   0.249   4.523  0.6380 -0.3767  0.8702
 5730TIP3   OH217153   4.971   5.922   3.078  0.3868  0.3742 -0.0433
 5730TIP3    H117154   5.067   5.917   3.076  0.3527 -1.8324  0.5627
 5730TIP3    H217155   4.948   5.961   2.994  1.8091  0.5247 -0.3967
 5731TIP3   OH217156   3.617   3.008   0.999  0.4487 -0.0440  0.0539
 5731TIP3    H117157   3.624   3.102   1.015  1.4125  0.0172 -0.6227
 5731TIP3    H217158   3.539   2.999   0.945 -1.4819 -0.0050  2.6577
 5732TIP3   OH217159   3.079   6.728   0.647  0.4162  0.3730 -0.5056
 5732TIP3    H117160   2.995   6.743   0.690 -0.5947 -1.7061 -1.6163
 5732TIP3    H217161   3.078   6.787   0.571  0.0022  0.4335 -0.4554
 5733TIP3   OH217162   3.400   3.209   2.577  0.4424  0.6354  0.7125
 5733TIP3    H117163   3.369   3.191   2.489  0.8581  0.5803  0.5766
 5733TIP3    H217164   3.320   3.213   2.630  0.2755 -0.8340  0.6188
 5734TIP3   OH217165   0.056   4.350   3.596 -0.4241 -0.2715 -0.5336
 5734TIP3    H117166   0.012   4.372   3.513  0.4255 -0.0237 -0.9355
 5734TIP3    H217167   0.095   4.432   3.624  1.9522 -0.9859 -1.5295
 5735TIP3   OH217168   6.105   2.109   2.050  0.1239  0.1023  0.0012
 5735TIP3    H117169   6.064   2.024   2.035  1.1458 -0.3193 -0.4633
 5735TIP3    H217170   6.035   2.172   2.032  0.2758 -0.4881 -3.1524
 5736TIP3   OH217171   4.546   0.239   3.474 -0.0562 -0.5857 -0.5033
 5736TIP3    H117172   4.461   0.196   3.464  1.0405 -3.0147 -0.1385
 5736TIP3    H217173   4.547   0.269   3.565 -0.5901 -0.3480 -0.5721
 5737TIP3   OH217174   7.020   1.636   1.535  0.1607 -0.3666  0.0699
 5737TIP3    H117175   7.002   1.654   1.627  2.3315 -0.1581  0.5065
 5737TIP3    H217176   6.997   1.543   1.524 -1.5318 -0.0235  0.3878
 5738TIP3   OH217177   2.991   3.564   0.282 -0.1636  0.5334  0.0003
 5738TIP3    H117178   2.997   3.605   0.195 -1.7697  0.7686 -0.0329
 5738TIP3    H217179   3.079   3.574   0.319  0.3530  1.1024 -1.2982
 5739TIP3   OH217180   6.698   6.082   4.013  0.2587 -0.1736  0.0569
 5739TIP3    H117181   6.730   6.106   3.926  1.2062 -0.7248  0.2316
 5739TIP3    H217182   6.777   6.079   4.067 -0.3598  0.4820  1.0129
 5740TIP3   OH217183   4.560   2.046   1.420 -0.1272  1.1078 -0.3964
 5740TIP3    H117184   4.604   2.000   1.349  1.3256  0.7215  0.7004
 5740TIP3    H217185   4.624   2.111   1.450 -0.7265  1.3031  0.5119
 5741TIP3   OH217186   6.022   5.577   4.216  0.6058  0.1587  0.3942
 5741TIP3    H117187   5.956   5.509   4.228 -0.2357  0.9722  0.4809
 5741TIP3    H217188   6.104   5.529   4.206  0.0133 -0.8731  0.3170
 5742TIP3   OH217189   7.159   6.557   3.347 -0.4905 -0.0171 -0.5806
 5742TIP3    H117190   7.073   6.586   3.378 -0.6984 -1.7391  0.5634
 5742TIP3    H217191   7.206   6.532   3.426  0.7797  0.1156 -1.2711
 5743TIP3   OH217192   2.313   1.191   1.254  0.5111  0.4237  0.2982
 5743TIP3    H117193   2.302   1.237   1.170  0.1789  0.0831  0.1489
 5743TIP3    H217194   2.234   1.214   1.303 -0.0835 -0.6819 -0.1185
 5744TIP3   OH217195   1.599   1.061   0.603  0.3398 -0.0109  0.0291
 5744TIP3    H117196   1.541   1.137   0.592  0.4320 -0.0481 -0.7572
 5744TIP3    H217197   1.687   1.097   0.594  0.4353 -0.0087  0.9031
 5745TIP3   OH217198   1.900   3.274   3.417  0.1236  0.2710  0.5949
 5745TIP3    H117199   1.947   3.192   3.405 -2.4195 -1.1797 -0.2750
 5745TIP3    H217200   1.889   3.282   3.511  1.8824  0.5722  0.8059
 5746TIP3   OH217201   4.853   6.761   2.623  0.3747 -0.3129 -0.5536
 5746TIP3    H117202   4.911   6.686   2.637  0.0942 -0.5595 -0.7153
 5746TIP3    H217203   4.770   6.723   2.595 -0.0439  0.0056  0.2311
 5747TIP3   OH217204   3.667   4.459   3.714 -0.5539  0.0008 -0.3025
 5747TIP3    H117205   3.692   4.369   3.693 -0.8176 -1.0538  3.2538
 5747TIP3    H217206   3.572   4.458   3.711 -0.6497 -0.4864  1.7488
 5748TIP3   OH217207   5.964   5.142   0.473  0.3771  0.2141  0.0569
 5748TIP3    H117208   6.045   5.097   0.447  0.3070 -0.0352  0.2626
 5748TIP3    H217209   5.900   5.071   0.484  0.0603  0.4334 -0.3557
 5749TIP3   OH217210   4.360   0.220   1.481 -0.2224  0.1733  0.0562
 5749TIP3    H117211   4.354   0.299   1.535  0.7413  0.1459  0.2120
 5749TIP3    H217212   4.273   0.179   1.490 -1.0534  1.6710 -0.7664
 5750TIP3   OH217213   1.069   2.827   4.776  0.1880 -0.2091 -0.0571
 5750TIP3    H117214   1.061   2.922   4.785 -0.6885 -0.2712 -0.0644
 5750TIP3    H217215   1.102   2.797   4.861 -1.1052 -0.0550  0.5237
 5751TIP3   OH217216   6.523   0.602   0.813  0.6182  0.1237 -0.1874
 5751TIP3    H117217   6.552   0.541   0.745 -0.4051  0.0918 -0.6153
 5751TIP3    H217218   6.508   0.685   0.766  2.3172  0.8323  0.4416
 5752TIP3   OH217219   2.546   5.896   1.066  0.1165  0.2396  0.5162
 5752TIP3    H117220   2.533   5.984   1.100  2.1558  0.9729 -0.4374
 5752TIP3    H217221   2.518   5.838   1.137 -0.3358  1.6504  1.5271
 5753TIP3   OH217222   2.734   5.276   3.889 -0.1674  0.0871 -0.1083
 5753TIP3    H117223   2.739   5.349   3.828 -0.9961 -0.1500 -0.4823
 5753TIP3    H217224   2.706   5.201   3.835  0.2724 -0.4085  0.3389
 5754TIP3   OH217225   5.781   4.400   2.186 -0.6493 -0.1928 -0.0741
 5754TIP3    H117226   5.816   4.315   2.159 -3.3215 -1.5832  0.4825
 5754TIP3    H217227   5.814   4.412   2.275 -1.1063 -1.2089  0.2505
 5755TIP3   OH217228   2.572   4.735   2.144 -0.2946 -0.1631 -0.2070
 5755TIP3    H117229   2.552   4.820   2.105 -1.4195 -1.1151 -1.8055
 5755TIP3    H217230   2.604   4.756   2.232  4.0823  2.2346 -2.0651
 5756TIP3   OH217231   4.444   4.746   3.157 -0.2655 -0.1477  0.4501
 5756TIP3    H117232   4.468   4.731   3.065  0.9017 -0.4740  0.7873
 5756TIP3    H217233   4.395   4.668   3.182 -2.9555  1.0658 -0.6078
 5757TIP3   OH217234   6.976   6.411   3.171 -0.0437  0.2793  0.2524
 5757TIP3    H117235   6.924   6.362   3.235 -0.2494 -0.4377 -0.4557
 5757TIP3    H217236   7.054   6.437   3.220 -1.7089  2.8014  1.8437
 5758TIP3   OH217237   1.902   2.127   3.350 -0.5716  0.0938 -0.6012
 5758TIP3    H117238   1.868   2.111   3.438 -0.4871 -0.3025 -0.6372
 5758TIP3    H217239   1.965   2.199   3.361  0.1454 -0.5779 -0.1675
 5759TIP3   OH217240   2.497   6.033   1.835 -0.1133  0.8677  0.5139
 5759TIP3    H117241   2.452   6.096   1.779  0.1508  0.2123 -0.4616
 5759TIP3    H217242   2.431   5.967   1.856  0.1309  0.4107 -0.1315
 5760TIP3   OH217243   1.360   2.004   1.773  0.0834 -0.3312 -0.1270
 5760TIP3    H117244   1.377   1.912   1.790 -1.0920 -0.2943  1.4479
 5760TIP3    H217245   1.283   2.004   1.716 -0.3867 -0.3123  0.5051
 5761TIP3   OH217246   4.720   3.068   1.009  0.2496  0.1683 -0.4154
 5761TIP3    H117247   4.648   3.131   1.002  1.0925  1.2896  0.6200
 5761TIP3    H217248   4.799   3.121   1.003  1.0164 -1.0111 -1.2351
 5762TIP3   OH217249   0.425   5.889   0.375  0.3859  0.4189 -0.5369
 5762TIP3    H117250   0.436   5.919   0.465 -1.3351  1.2043 -0.5489
 5762TIP3    H217251   0.514   5.880   0.342  1.0770 -0.2693  1.3435
 5763TIP3   OH217252   7.034   0.643   0.382 -0.0996 -0.5464 -0.4209
 5763TIP3    H117253   7.035   0.706   0.455 -1.2965  0.6282 -1.3582
 5763TIP3    H217254   7.015   0.559   0.424 -1.6667  0.2463  0.5727
 5764TIP3   OH217255   3.029   1.224   3.264  0.0299  0.4158  0.1098
 5764TIP3    H117256   2.947   1.268   3.241 -0.7567 -0.7440  0.5755
 5764TIP3    H217257   3.021   1.208   3.359  0.4845 -0.3119  0.0292
 5765TIP3   OH217258   3.011   4.793  -0.002 -0.4254  0.1089 -0.1281
 5765TIP3    H117259   3.064   4.756   0.069  0.4751  0.0161 -0.8325
 5765TIP3    H217260   2.921   4.768   0.020 -0.7089  3.0885  2.8825
 5766TIP3   OH217261   7.173   4.326   2.725  0.2411 -0.3059 -0.0314
 5766TIP3    H117262   7.113   4.367   2.663 -0.2755  2.8694  2.2812
 5766TIP3    H217263   7.259   4.360   2.702  0.3933 -0.8817 -0.3242
 5767TIP3   OH217264   0.136   3.438   1.837  0.4119 -0.0467 -0.9117
 5767TIP3    H117265   0.043   3.418   1.839  0.2129  0.8453 -0.8224
 5767TIP3    H217266   0.142   3.517   1.783  1.1240 -0.1629 -1.0066
 5768TIP3   OH217267   4.271   0.716   1.702  0.3708  0.4101  0.6082
 5768TIP3    H117268   4.198   0.760   1.746  0.2603  0.3628  0.4719
 5768TIP3    H217269   4.323   0.787   1.664  0.1300  0.4213  0.2904
 5769TIP3   OH217270   3.554   1.484   4.685 -0.4049  1.1022  0.4160
 5769TIP3    H117271   3.468   1.522   4.701 -1.0527 -0.5608  1.0817
 5769TIP3    H217272   3.540   1.423   4.613  0.3727  1.2662  0.1094
 5770TIP3   OH217273   3.115   0.039   1.770  0.2686 -0.0334  0.2421
 5770TIP3    H117274   3.122   0.109   1.835 -2.9938 -1.2658  2.1778
 5770TIP3    H217275   3.116  -0.042   1.821 -0.4293 -1.1673 -1.4487
 5771TIP3   OH217276   4.954   5.473   5.204 -0.5127 -0.0038  0.1912
 5771TIP3    H117277   4.954   5.568   5.202  1.8052  0.0395 -0.3743
 5771TIP3    H217278   4.979   5.450   5.294  0.8965 -0.0090 -0.1806
 5772TIP3   OH217279   2.166   5.137   4.693  0.2879 -0.2415 -0.0846
 5772TIP3    H117280   2.227   5.210   4.697  1.6793 -1.2718 -1.3639
 5772TIP3    H217281   2.134   5.128   4.783  0.1911  1.8089  0.1269
 5773TIP3   OH217282   0.911   2.017   2.461  0.2324 -0.5659  0.2487
 5773TIP3    H117283   0.880   2.055   2.380  1.9315 -1.8866 -1.1028
 5773TIP3    H217284   0.845   1.952   2.484  0.5264 -1.3377 -1.0128
 5774TIP3   OH217285   1.373   1.203   0.901  0.1289 -0.2839 -0.3217
 5774TIP3    H117286   1.304   1.142   0.928 -0.9497  0.3699 -1.5022
 5774TIP3    H217287   1.448   1.181   0.958 -1.5820  0.1851  2.2914
 5775TIP3   OH217288   1.154   4.707   3.738 -0.1365  0.0297 -0.1945
 5775TIP3    H117289   1.139   4.653   3.816  0.0893  0.2031 -0.0304
 5775TIP3    H217290   1.246   4.731   3.742 -0.0050 -0.3533 -0.7694
 5776TIP3   OH217291   1.450   2.924   4.848 -0.1213  0.1951 -0.3614
 5776TIP3    H117292   1.397   2.965   4.779 -1.0593  0.0516  0.2574
 5776TIP3    H217293   1.407   2.949   4.930  0.4847 -0.3402  0.1319
 5777TIP3   OH217294   6.679   2.956   0.405 -0.0224 -0.2124 -0.3472
 5777TIP3    H117295   6.754   2.945   0.463 -0.2007 -1.8444 -0.3739
 5777TIP3    H217296   6.657   3.049   0.411  1.8130  0.2445 -0.1338
 5778TIP3   OH217297   6.539   1.249   4.261  0.4374 -0.2812  0.2612
 5778TIP3    H117298   6.593   1.279   4.187  0.6909 -0.4284  0.3872
 5778TIP3    H217299   6.600   1.243   4.334  0.1289  0.1630  0.5638
 5779TIP3   OH217300   2.825   6.657   3.139 -0.3491 -0.1657 -0.2468
 5779TIP3    H117301   2.748   6.601   3.148 -0.4009  0.0844  1.1448
 5779TIP3    H217302   2.833   6.700   3.224  0.7653  0.5476 -0.6916
 5780TIP3   OH217303   0.382   0.649   2.037  0.3178  0.2985 -0.1358
 5780TIP3    H117304   0.425   0.627   2.120 -0.3593  0.8298  0.3717
 5780TIP3    H217305   0.453   0.665   1.976  0.8361  0.7056  0.5623
 5781TIP3   OH217306   0.684   2.219   4.007 -0.2253 -0.5504 -0.5142
 5781TIP3    H117307   0.736   2.235   3.928 -1.4835  1.3148 -1.0267
 5781TIP3    H217308   0.727   2.144   4.049  1.4610 -0.5461 -2.0982
 5782TIP3   OH217309   0.239   2.272   4.576 -0.1657 -0.0116  0.1070
 5782TIP3    H117310   0.264   2.199   4.519  0.9585 -0.2644  0.8750
 5782TIP3    H217311   0.181   2.326   4.523  1.6820  0.3488 -1.6685
 5783TIP3   OH217312   2.157   4.985   0.901 -0.4284 -0.1451  0.4331
 5783TIP3    H117313   2.125   4.941   0.980 -0.2037  1.1074  1.2511
 5783TIP3    H217314   2.217   5.052   0.933 -2.1036  1.9950 -0.5779
 5784TIP3   OH217315   3.043   5.504   5.348 -0.0872 -0.0087  0.0734
 5784TIP3    H117316   3.053   5.485   5.254 -2.7445 -2.2827  0.1236
 5784TIP3    H217317   2.951   5.530   5.357 -0.4676 -1.8384  2.2863
 5785TIP3   OH217318   2.764   6.628   0.697 -0.3241 -0.7674  0.0751
 5785TIP3    H117319   2.758   6.721   0.719 -1.1283 -0.7635 -0.1104
 5785TIP3    H217320   2.770   6.584   0.782 -0.8760 -0.5994  0.2044
 5786TIP3   OH217321   6.138   4.029   5.750  0.1150  0.2418 -0.0415
 5786TIP3    H117322   6.083   3.951   5.758 -1.7057  1.3037 -1.4236
 5786TIP3    H217323   6.121   4.078   5.830 -0.4895  0.2487 -0.1628
 5787TIP3   OH217324   2.116   6.295   2.012  0.0906  0.1539  0.2497
 5787TIP3    H117325   2.106   6.207   2.046  1.7927  0.3261  1.2578
 5787TIP3    H217326   2.192   6.331   2.056  1.4836  0.9730 -2.5566
 5788TIP3   OH217327   5.069   5.958   3.850  0.2525  0.3554 -0.2548
 5788TIP3    H117328   5.012   5.913   3.912  1.8094 -0.1647  0.8807
 5788TIP3    H217329   5.053   6.051   3.865 -0.7874  0.2220 -0.4657
 5789TIP3   OH217330   2.442   1.531   4.566  0.4457  0.0440  0.3610
 5789TIP3    H117331   2.353   1.563   4.584  0.0619  0.5099 -1.9834
 5789TIP3    H217332   2.468   1.487   4.646 -0.8946  2.1206  2.0583
 5790TIP3   OH217333   2.118   2.469   2.007 -0.3583  0.1755 -0.6924
 5790TIP3    H117334   2.118   2.439   2.098  1.0189 -0.6364 -0.9310
 5790TIP3    H217335   2.210   2.466   1.981 -0.3932  2.8331 -1.3510
 5791TIP3   OH217336   4.239   2.348   0.344  0.2843  0.6908  0.6509
 5791TIP3    H117337   4.211   2.263   0.379  1.0403  1.1324  2.4266
 5791TIP3    H217338   4.180   2.411   0.386 -0.0309  1.1028 -0.3779
 5792TIP3   OH217339   6.165   5.956   1.314  0.6958 -0.1759  0.3566
 5792TIP3    H117340   6.225   5.912   1.254 -0.0380 -2.5054  1.2316
 5792TIP3    H217341   6.199   5.934   1.401 -1.0323 -1.0527  0.8538
 5793TIP3   OH217342   6.942   0.761   3.957  0.0577 -0.0436 -0.6639
 5793TIP3    H117343   6.890   0.830   3.997 -0.6766 -1.5754  1.1255
 5793TIP3    H217344   6.881   0.712   3.902  0.9420  1.7098 -3.4446
 5794TIP3   OH217345   6.683   4.196   0.061 -0.2967 -0.0705  0.1705
 5794TIP3    H117346   6.645   4.117   0.100  1.4538 -1.1132 -0.0994
 5794TIP3    H217347   6.776   4.174   0.049  0.1901  1.9564 -0.1441
 5795TIP3   OH217348   3.589   1.026   0.165 -0.5768 -0.5144 -0.2727
 5795TIP3    H117349   3.534   1.094   0.126 -1.6164 -0.7788  0.6720
 5795TIP3    H217350   3.619   1.064   0.247 -0.4938 -0.8946 -0.1256
 5796TIP3   OH217351   6.728   6.731   1.664  0.3782 -0.5211  0.0621
 5796TIP3    H117352   6.776   6.654   1.632  0.9269  0.3976 -1.3976
 5796TIP3    H217353   6.636   6.710   1.647  0.4612 -1.1529  0.3496
 5797TIP3   OH217354   0.793   3.205   1.256  0.0963  0.6567 -1.3602
 5797TIP3    H117355   0.871   3.197   1.202  0.1030 -0.7935 -1.1785
 5797TIP3    H217356   0.777   3.116   1.289  0.8879  1.6355  2.1242
 5798TIP3   OH217357   3.321   1.349   5.613  0.0785 -0.4793  0.2548
 5798TIP3    H117358   3.254   1.303   5.664 -0.3377 -1.1610 -0.8809
 5798TIP3    H217359   3.363   1.280   5.562  0.1838  0.2533 -0.6605
 5799TIP3   OH217360   5.520   5.401   1.225  0.1877 -0.3697 -0.6489
 5799TIP3    H117361   5.585   5.464   1.256 -1.4063  1.4086 -0.6626
 5799TIP3    H217362   5.513   5.337   1.296  0.7322  0.3720  0.1076
 5800TIP3   OH217363   1.559   1.593   2.293 -0.6887  0.3053 -0.0495
 5800TIP3    H117364   1.603   1.677   2.276 -1.1501  0.5732  0.0654
 5800TIP3    H217365   1.618   1.547   2.353  1.4114 -1.0147 -2.9048
 5801TIP3   OH217366   1.006   1.834   2.643  0.0228  0.4084 -0.5298
 5801TIP3    H117367   0.925   1.786   2.626 -0.4686  0.9540  0.2041
 5801TIP3    H217368   1.030   1.870   2.558 -0.3232 -0.0293 -0.8195
 5802TIP3   OH217369   6.205   3.626   4.974  0.1972 -0.1751  0.0414
 5802TIP3    H117370   6.123   3.583   4.995  0.8830 -1.1498  0.8330
 5802TIP3    H217371   6.246   3.569   4.909 -0.1553  0.7952 -1.0644
 5803TIP3   OH217372   5.348   6.023   0.369 -0.1520  0.2021  0.4359
 5803TIP3    H117373   5.257   6.047   0.359  0.0190  0.5863 -0.2469
 5803TIP3    H217374   5.361   6.015   0.464 -0.3154  2.4063  0.6918
 5804TIP3   OH217375   4.092   0.354   3.745 -0.4045 -0.0366  0.2827
 5804TIP3    H117376   4.102   0.423   3.810 -0.7429  0.1842  0.1032
 5804TIP3    H217377   4.142   0.280   3.780  1.9923  1.0405 -0.6214
 5805TIP3   OH217378   1.323   1.752   1.119 -0.3938 -0.0089 -0.1851
 5805TIP3    H117379   1.409   1.795   1.116 -1.3379  2.0160 -3.6139
 5805TIP3    H217380   1.340   1.663   1.086  0.3540  0.5826 -1.4806
 5806TIP3   OH217381   0.382   2.864   4.614  0.6013 -0.2530  0.4159
 5806TIP3    H117382   0.417   2.916   4.542  0.2001 -1.7530 -0.9373
 5806TIP3    H217383   0.433   2.783   4.610  0.4256 -0.4363  1.7004
 5807TIP3   OH217384   1.095   1.633   1.965 -0.6758 -0.0602 -0.5994
 5807TIP3    H117385   1.146   1.569   1.916  0.4557 -0.7561  1.3906
 5807TIP3    H217386   1.160   1.699   1.992 -1.3958  0.6406 -0.5336
 5808TIP3   OH217387   3.751   2.839   5.754  0.0597 -0.4459  0.0389
 5808TIP3    H117388   3.749   2.821   5.848  2.0305 -1.9686 -0.1307
 5808TIP3    H217389   3.707   2.763   5.714 -2.0773  0.8737 -0.2766
 5809TIP3   OH217390   0.116   0.544   3.422  0.4159  0.0274 -0.4943
 5809TIP3    H117391   0.080   0.522   3.507  0.9133 -0.4648 -0.4098
 5809TIP3    H217392   0.206   0.512   3.424  0.3076 -0.3716 -1.3538
 5810TIP3   OH217393   6.685   6.638   5.128  0.2790 -0.1258 -0.2939
 5810TIP3    H117394   6.728   6.712   5.172  0.8271 -0.8751  0.4753
 5810TIP3    H217395   6.733   6.629   5.045  0.6562 -0.0364 -0.0925
 5811TIP3   OH217396   4.211   2.872   2.699  0.1452 -0.3594  0.3706
 5811TIP3    H117397   4.124   2.895   2.666  0.1387 -0.6502  0.1821
 5811TIP3    H217398   4.235   2.945   2.756  0.4309  0.4489 -0.7651
 5812TIP3   OH217399   0.377   6.412   3.106  0.0781  0.1303  0.1122
 5812TIP3    H117400   0.438   6.486   3.106 -0.5457  0.6700  1.7303
 5812TIP3    H217401   0.308   6.439   3.046  2.0270 -1.0978 -2.9479
 5813TIP3   OH217402   5.132   1.204   3.804 -0.0342  0.4454  0.2413
 5813TIP3    H117403   5.091   1.138   3.748 -0.7353  1.1575 -0.1171
 5813TIP3    H217404   5.149   1.159   3.887  1.4753 -0.7688 -0.6756
 5814TIP3   OH217405   2.894   1.939   1.267 -0.2222 -0.2175 -0.5210
 5814TIP3    H117406   2.859   1.897   1.346 -2.9558 -1.1881 -2.1100
 5814TIP3    H217407   2.975   1.891   1.248 -0.6888 -1.4721  0.4777
 5815TIP3   OH217408   2.505   3.934   4.343  0.2526 -0.2904  0.8099
 5815TIP3    H117409   2.448   3.965   4.413  0.2194 -1.9513  1.5551
 5815TIP3    H217410   2.528   4.013   4.294 -1.9508  0.5387  1.0176
 5816TIP3   OH217411   6.805   1.268   1.982  0.1195  0.3147  0.1445
 5816TIP3    H117412   6.781   1.326   1.910  0.6938  1.8504  1.1277
 5816TIP3    H217413   6.789   1.321   2.061  2.1637 -0.2830  1.0336
 5817TIP3   OH217414   2.305   3.968   5.123 -0.0534 -0.1683  0.1005
 5817TIP3    H117415   2.391   3.927   5.126  0.7528  1.4366  0.2619
 5817TIP3    H217416   2.273   3.965   5.213 -0.5881 -1.5554 -0.1130
 5818TIP3   OH217417   2.133   0.683   0.693  0.2334 -0.2163 -0.0789
 5818TIP3    H117418   2.173   0.769   0.707 -0.3325  0.0057  0.1929
 5818TIP3    H217419   2.087   0.665   0.775  1.4602 -1.3842  0.3990
 5819TIP3   OH217420   7.113   4.001   5.049 -0.2254  0.2550  0.0767
 5819TIP3    H117421   7.141   3.938   5.116 -1.2657  0.2423  0.5200
 5819TIP3    H217422   7.018   3.996   5.050 -0.3423  1.9704  0.2607
 5820TIP3   OH217423   4.116   2.690   3.743  0.0708  0.5766  0.4056
 5820TIP3    H117424   4.195   2.653   3.783  0.1151  2.0723  1.7862
 5820TIP3    H217425   4.140   2.702   3.651  1.1438  0.1434  0.6133
 5821TIP3   OH217426   2.436   3.431   4.360  0.4642  0.3409 -0.2491
 5821TIP3    H117427   2.476   3.513   4.390 -2.6916  2.1138 -0.3926
 5821TIP3    H217428   2.392   3.455   4.279 -0.1149 -1.6423 -0.5537
 5822TIP3   OH217429   5.445   5.580   0.944  0.4719 -0.6265 -0.4330
 5822TIP3    H117430   5.441   5.663   0.990 -0.9547 -0.8216 -0.1480
 5822TIP3    H217431   5.535   5.574   0.912  0.4443  1.3162 -1.0158
 5823TIP3   OH217432   0.616   1.412   4.347 -0.4936 -0.7407  0.3563
 5823TIP3    H117433   0.571   1.394   4.429  0.0785 -1.5972  0.4876
 5823TIP3    H217434   0.678   1.340   4.337  1.3908  0.7512  0.5682
 5824TIP3   OH217435   7.124   2.263   5.342 -0.3447 -0.3659  0.6247
 5824TIP3    H117436   7.179   2.289   5.268 -1.3766  0.5960  0.1654
 5824TIP3    H217437   7.058   2.332   5.348  0.1091 -0.0459  2.8925
 5825TIP3   OH217438   5.691   1.067   3.248  0.2589  0.6155  0.7885
 5825TIP3    H117439   5.689   0.991   3.306 -0.7310  0.1843  0.2140
 5825TIP3    H217440   5.631   1.130   3.288 -0.7638  0.1477  0.0331
 5826TIP3   OH217441   6.968   2.307   4.379  0.1231  0.1974  0.1302
 5826TIP3    H117442   6.949   2.307   4.285  1.3780  1.6721 -0.1442
 5826TIP3    H217443   6.907   2.242   4.415  0.2755 -1.1044 -1.8127
 5827TIP3   OH217444   3.971   0.538   5.671  0.2694 -0.3201  0.4341
 5827TIP3    H117445   3.990   0.454   5.630 -0.8044 -0.9987  1.2761
 5827TIP3    H217446   3.876   0.538   5.683  0.2848  0.9021  0.6877
 5828TIP3   OH217447   0.448   0.327   0.655 -0.2459 -0.1798 -0.3184
 5828TIP3    H117448   0.535   0.293   0.633  0.2665  0.1007  1.1539
 5828TIP3    H217449   0.389   0.255   0.636  0.1765 -0.0963 -2.1569
 5829TIP3   OH217450   2.113   1.600   4.398 -0.3067 -0.0066  0.0089
 5829TIP3    H117451   2.132   1.585   4.491 -0.4959 -0.5409 -0.0357
 5829TIP3    H217452   2.103   1.695   4.391 -1.1980 -0.0274  0.7127
 5830TIP3   OH217453   1.082   4.032   2.150 -0.7708 -0.4511 -0.3593
 5830TIP3    H117454   1.174   4.037   2.176 -0.2332  1.0740 -2.3411
 5830TIP3    H217455   1.038   3.995   2.227  1.2393  0.2368  1.2218
 5831TIP3   OH217456   2.183   6.744   0.550  0.1474  0.4585  0.6071
 5831TIP3    H117457   2.102   6.777   0.588 -1.1554 -1.4379 -0.3180
 5831TIP3    H217458   2.187   6.783   0.463 -0.1883 -0.0100  0.3751
 5832TIP3   OH217459   0.887   0.176   2.877 -0.2346 -0.0433 -0.1899
 5832TIP3    H117460   0.800   0.189   2.914 -0.4174 -0.0660 -0.6025
 5832TIP3    H217461   0.877   0.198   2.784  0.2119  0.0075 -0.2302
 5833TIP3   OH217462   6.684   3.274   2.397  0.1171 -0.2971  0.1024
 5833TIP3    H117463   6.667   3.354   2.448 -1.1745 -0.8712  0.6249
 5833TIP3    H217464   6.749   3.300   2.333  0.7059  0.8387  1.1154
 5834TIP3   OH217465   4.024   6.469   0.040  0.2631 -0.8516 -0.2287
 5834TIP3    H117466   4.044   6.393   0.094  3.0929  0.9660  1.5275
 5834TIP3    H217467   4.099   6.478  -0.018 -0.5095  0.0452 -1.1238
 5835TIP3   OH217468   6.386   6.475   2.805 -0.1890  0.5613 -0.0803
 5835TIP3    H117469   6.364   6.452   2.715 -0.4117  0.7742 -0.0805
 5835TIP3    H217470   6.352   6.564   2.816  0.0230  0.6154  0.1480
 5836TIP3   OH217471   0.383   0.493   2.660  0.3344  0.1536  0.4103
 5836TIP3    H117472   0.353   0.583   2.653  0.1534 -0.0213 -1.6081
 5836TIP3    H217473   0.331   0.455   2.731  0.2929  1.5606  1.1656
 5837TIP3   OH217474   3.339   4.991   1.158  0.7518 -0.2262  0.0377
 5837TIP3    H117475   3.260   5.035   1.192  0.9524  1.8242 -1.9680
 5837TIP3    H217476   3.397   4.985   1.234 -1.0078 -1.1218  1.3947
 5838TIP3   OH217477   6.005   4.445   0.495  0.3002  0.3676  0.4486
 5838TIP3    H117478   6.076   4.464   0.434  0.8606 -2.4843  0.0691
 5838TIP3    H217479   5.928   4.487   0.457  0.8958 -0.2762 -1.5656
 5839TIP3   OH217480   5.860   2.073   2.868 -0.1409 -0.1400 -0.2921
 5839TIP3    H117481   5.856   2.070   2.964  3.5906  0.5831  0.0065
 5839TIP3    H217482   5.937   2.125   2.848 -1.3074  0.5365 -3.7785
 5840TIP3   OH217483   0.587   0.521   0.122  0.2155 -0.6592 -0.4770
 5840TIP3    H117484   0.664   0.466   0.136  0.4303  0.0133  1.3551
 5840TIP3    H217485   0.512   0.463   0.136  0.2968 -1.5345 -3.1459
 5841TIP3   OH217486   5.656   3.795   0.181  0.0099  0.1194 -0.4778
 5841TIP3    H117487   5.563   3.796   0.158 -0.1393  0.4237  0.1341
 5841TIP3    H217488   5.694   3.865   0.128 -0.2334  0.4481 -0.2254
 5842TIP3   OH217489   3.345   4.802   5.183  0.1607  0.2837 -0.0306
 5842TIP3    H117490   3.415   4.737   5.181 -1.5764 -1.6947 -2.1593
 5842TIP3    H217491   3.305   4.792   5.269  0.8321 -0.4602  0.2055
 5843TIP3   OH217492   4.417   3.239   4.761  0.3921 -0.0827 -0.2509
 5843TIP3    H117493   4.331   3.198   4.760 -0.0578  0.8168  0.0402
 5843TIP3    H217494   4.452   3.219   4.847  0.8537 -1.1768 -0.6748
 5844TIP3   OH217495   4.539   3.212   3.506 -0.1026  0.4310 -0.4266
 5844TIP3    H117496   4.473   3.237   3.571  1.3223  1.5084  0.6809
 5844TIP3    H217497   4.502   3.241   3.422 -0.4210  2.4034  0.3369
 5845TIP3   OH217498   3.748   0.973   0.530 -0.3162  0.1410 -0.1776
 5845TIP3    H117499   3.824   0.926   0.563  0.4499  1.7897  0.5264
 5845TIP3    H217500   3.713   1.019   0.606 -0.5104  1.3787 -0.9850
 5846TIP3   OH217501   5.746   0.738   5.159 -0.0837  0.0518  0.1280
 5846TIP3    H117502   5.810   0.671   5.135  0.3831  0.2634  0.7709
 5846TIP3    H217503   5.661   0.694   5.151  0.2234 -0.6339  0.6225
 5847TIP3   OH217504   5.303   6.673   4.492  0.2303 -0.2237  0.0162
 5847TIP3    H117505   5.368   6.668   4.422  0.3858 -0.2419  0.1620
 5847TIP3    H217506   5.231   6.724   4.454 -1.3315 -3.2304 -1.4874
 5848TIP3   OH217507   6.550   1.522   1.544  0.3328  0.1445  0.1444
 5848TIP3    H117508   6.542   1.451   1.480  1.5228  1.9732 -2.2091
 5848TIP3    H217509   6.467   1.522   1.591  0.8893 -3.8597  1.5436
 5849TIP3   OH217510   6.279   4.504   3.713 -0.2929  0.1291 -0.0603
 5849TIP3    H117511   6.321   4.428   3.754 -0.1659 -1.9405 -3.6210
 5849TIP3    H217512   6.188   4.499   3.743  0.2961  0.3555  1.9696
 5850TIP3   OH217513   5.403   3.908   5.503  0.2672 -0.6298  0.8791
 5850TIP3    H117514   5.400   3.942   5.414  0.5646 -1.4338  0.5504
 5850TIP3    H217515   5.390   3.813   5.493  0.8780 -0.8063  1.6358
 5851TIP3   OH217516   4.300   1.054   5.596  0.3140  0.2028  0.0074
 5851TIP3    H117517   4.376   0.999   5.614  1.4293  1.0458 -1.7905
 5851TIP3    H217518   4.316   1.133   5.648  0.9871  0.6110 -0.7954
 5852TIP3   OH217519   4.289   2.006   4.244  0.1063 -0.3054 -0.4004
 5852TIP3    H117520   4.245   1.937   4.294  0.9145 -0.8001 -0.3494
 5852TIP3    H217521   4.218   2.056   4.204 -0.5628 -0.0706  0.9972
 5853TIP3   OH217522   0.790   0.524   3.845 -0.3261  0.2902 -0.2292
 5853TIP3    H117523   0.742   0.464   3.902  0.3732 -0.8791 -0.8075
 5853TIP3    H217524   0.730   0.596   3.829 -2.5308 -1.7888 -2.1289
 5854TIP3   OH217525   4.259   0.374   1.111  0.1262  0.3860  0.6570
 5854TIP3    H117526   4.353   0.384   1.126  0.1061  0.1853  0.9194
 5854TIP3    H217527   4.248   0.283   1.083 -0.0387  0.2998  1.0021
 5855TIP3   OH217528   0.320   4.578   1.150  0.0752  0.2147  0.2182
 5855TIP3    H117529   0.233   4.611   1.127  0.6245  0.6028 -1.4271
 5855TIP3    H217530   0.349   4.532   1.072  0.7621 -1.1981  1.2766
 5856TIP3   OH217531   5.261   4.023   3.083 -0.1720  0.3096 -0.3861
 5856TIP3    H117532   5.260   3.970   3.163 -2.5607 -0.4197 -0.8310
 5856TIP3    H217533   5.340   3.995   3.037 -0.2887 -1.3831  0.3537
 5857TIP3   OH217534   2.749   3.311   5.416 -0.2692 -0.8864  0.3263
 5857TIP3    H117535   2.734   3.399   5.380  1.5360 -1.4401 -2.0978
 5857TIP3    H217536   2.844   3.298   5.408 -0.2002 -2.2893  2.6214
 5858TIP3   OH217537   6.964   2.788   4.601 -0.4650 -0.2378 -0.4456
 5858TIP3    H117538   7.009   2.872   4.614  0.0590 -0.4833 -0.6490
 5858TIP3    H217539   7.030   2.731   4.561 -0.6367 -0.9280  0.2216
 5859TIP3   OH217540   6.456   3.910   0.741 -0.2292 -0.0206 -0.3306
 5859TIP3    H117541   6.427   3.866   0.820 -1.4384 -0.3881 -0.9588
 5859TIP3    H217542   6.460   3.841   0.675  0.6770  0.2977 -0.6267
 5860TIP3   OH217543   2.816   6.604   4.339  0.3222 -0.0292 -0.0721
 5860TIP3    H117544   2.746   6.590   4.402 -0.4743 -0.6689 -1.0528
 5860TIP3    H217545   2.786   6.557   4.260  1.9598 -0.5305 -0.4323
 5861TIP3   OH217546   0.472   1.036   4.043 -0.7111 -0.2998  0.5607
 5861TIP3    H117547   0.515   1.080   4.116 -1.5619  1.5528  0.0197
 5861TIP3    H217548   0.446   0.950   4.078  3.3920 -1.6097  0.8782
 5862TIP3   OH217549   5.852   0.320   5.562 -1.2376  0.0087  0.2048
 5862TIP3    H117550   5.784   0.270   5.516 -1.4504  1.4318 -1.1250
 5862TIP3    H217551   5.832   0.412   5.541  2.0083  0.4440 -1.6498
 5863TIP3   OH217552   5.517   6.332   1.710 -0.0287 -0.5271 -0.1473
 5863TIP3    H117553   5.588   6.388   1.679  1.2449 -2.1126 -0.1909
 5863TIP3    H217554   5.490   6.283   1.632 -0.6829 -0.4713  0.0394
 5864TIP3   OH217555   3.432   4.542   5.126 -0.0364  0.3202  0.1191
 5864TIP3    H117556   3.365   4.477   5.106  0.7925 -0.3281 -0.6803
 5864TIP3    H217557   3.484   4.548   5.046 -1.1819  3.3868 -0.4874
 5865TIP3   OH217558   1.126   2.195   2.609 -0.9371  0.8550  0.6482
 5865TIP3    H117559   1.032   2.208   2.615 -1.3670 -2.1504  3.0010
 5865TIP3    H217560   1.156   2.195   2.700  1.0067 -0.1510  0.0706
 5866TIP3   OH217561   5.202   3.410   1.031 -0.4674  0.7055  0.2974
 5866TIP3    H117562   5.242   3.448   0.953 -2.2610 -0.5856 -1.3538
 5866TIP3    H217563   5.272   3.409   1.096  1.3054  1.1607 -1.5067
 5867TIP3   OH217564   5.761   5.547   0.479  0.5563 -0.4030  0.9098
 5867TIP3    H117565   5.771   5.480   0.547 -1.0173 -2.7271 -0.9721
 5867TIP3    H217566   5.847   5.552   0.438  0.9858 -0.4234  1.7685
 5868TIP3   OH217567   3.520   1.832   1.494  0.4817 -0.5810  0.2561
 5868TIP3    H117568   3.445   1.775   1.480  0.6243 -1.9587  3.9836
 5868TIP3    H217569   3.490   1.919   1.466 -1.3440 -1.6251 -1.2509
 5869TIP3   OH217570   1.355   2.394   1.188  0.1237  0.8854 -0.2807
 5869TIP3    H117571   1.352   2.446   1.268  0.3257  0.7328 -0.1727
 5869TIP3    H217572   1.418   2.324   1.207 -0.1018  0.6366 -0.4452
 5870TIP3   OH217573   6.456   2.624   1.989  0.2903 -0.1937 -0.1479
 5870TIP3    H117574   6.408   2.654   1.912  0.4264 -1.3330 -0.7031
 5870TIP3    H217575   6.424   2.534   2.003  1.5731 -0.6425  0.0236
 5871TIP3   OH217576   0.199   3.683   1.057  0.0915 -0.5070 -0.3390
 5871TIP3    H117577   0.248   3.629   1.119  1.7596  0.8229 -0.4532
 5871TIP3    H217578   0.141   3.736   1.112  0.7548 -0.1301 -0.0049
 5872TIP3   OH217579   3.624   0.751   5.299  0.9745  0.6050 -0.5640
 5872TIP3    H117580   3.663   0.804   5.229  2.7941 -0.8317 -0.7405
 5872TIP3    H217581   3.580   0.679   5.252  1.2748  0.2285 -0.2768
 5873TIP3   OH217582   5.980   0.823   3.488 -0.1273 -0.3738  0.2627
 5873TIP3    H117583   5.902   0.777   3.457 -0.7049 -0.6103  2.0182
 5873TIP3    H217584   5.959   0.916   3.476 -0.7501 -0.4300  0.9032
 5874TIP3   OH217585   5.973   3.702   4.288 -0.6853 -0.6541  0.3547
 5874TIP3    H117586   5.939   3.747   4.366  0.1300  2.4740 -0.9228
 5874TIP3    H217587   6.067   3.695   4.303 -0.3512  0.9487 -0.6825
 5875TIP3   OH217588   2.306   5.430   1.543  0.1593 -0.1396 -0.0278
 5875TIP3    H117589   2.320   5.346   1.500  1.2766  0.3205 -0.5872
 5875TIP3    H217590   2.265   5.485   1.477  5.0581  1.7381 -1.9973
 5876TIP3   OH217591   0.283   0.294   4.485  0.0804 -0.0158 -0.3445
 5876TIP3    H117592   0.290   0.214   4.434  0.7978  0.7435 -1.4886
 5876TIP3    H217593   0.190   0.306   4.500 -0.3237  0.5119 -2.8030
 5877TIP3   OH217594   6.669   3.868   4.271 -0.6826 -0.5607  0.0254
 5877TIP3    H117595   6.636   3.806   4.336 -1.6420 -0.4162 -0.3078
 5877TIP3    H217596   6.620   3.948   4.286  1.4619  0.5914  1.2967
 5878TIP3   OH217597   4.524   5.468   2.056  0.0708 -0.4681  0.3818
 5878TIP3    H117598   4.477   5.471   2.139  1.4445  0.2588  1.1714
 5878TIP3    H217599   4.543   5.374   2.043  0.0258 -0.5662  1.0012
 5879TIP3   OH217600   6.951   3.240   2.469  0.1835  0.1338 -0.3838
 5879TIP3    H117601   6.968   3.318   2.416 -1.4700 -0.0244 -1.1860
 5879TIP3    H217602   6.857   3.242   2.487  0.2005 -1.3816  0.0412
 5880TIP3   OH217603   2.807   4.300   4.264  0.3994 -0.7020  0.1034
 5880TIP3    H117604   2.780   4.239   4.333  2.0110 -1.1590  0.3775
 5880TIP3    H217605   2.854   4.370   4.310  0.0696 -0.1595 -0.3762
 5881TIP3   OH217606   6.932   5.394   3.289 -0.1993  0.2591  0.1264
 5881TIP3    H117607   6.958   5.331   3.221  0.8315  0.7980  0.0067
 5881TIP3    H217608   6.900   5.340   3.361  2.3107 -0.5219  0.7263
 5882TIP3   OH217609   5.331   5.924   0.639  0.2811 -0.1553 -0.1110
 5882TIP3    H117610   5.324   5.974   0.720  0.6625 -0.1431 -0.0840
 5882TIP3    H217611   5.260   5.860   0.644 -0.1351  0.3050 -0.0945
 5883TIP3   OH217612   6.337   0.312   4.183  0.5608  0.0857 -0.4247
 5883TIP3    H117613   6.377   0.351   4.106  0.4231  1.2365  0.0698
 5883TIP3    H217614   6.263   0.369   4.203 -0.6205 -1.3399 -0.6246
 5884TIP3   OH217615   5.143   0.788   3.102 -0.4940  0.0722 -0.4903
 5884TIP3    H117616   5.126   0.866   3.156  0.3607 -0.4110  0.5046
 5884TIP3    H217617   5.074   0.790   3.036 -1.1072  1.1098  0.1450
 5885TIP3   OH217618   0.180   6.016   0.678  0.1448  0.1875  0.0226
 5885TIP3    H117619   0.116   5.980   0.616  0.3790  0.7055 -0.5146
 5885TIP3    H217620   0.149   6.104   0.697  1.5477  1.0305 -1.4545
 5886TIP3   OH217621   6.093   4.738   1.962  0.2153  0.9305  0.3320
 5886TIP3    H117622   6.170   4.791   1.943  0.7937 -0.5847 -1.9064
 5886TIP3    H217623   6.124   4.671   2.024  0.0313  1.8290  1.4178
 5887TIP3   OH217624   0.830   5.172   4.254  0.7347 -0.5668  0.0401
 5887TIP3    H117625   0.913   5.126   4.244  1.2253  0.4682 -0.7635
 5887TIP3    H217626   0.763   5.104   4.240  1.3444 -2.0496  3.3483
 5888TIP3   OH217627   0.093   0.022   3.894 -0.3107  0.4285  0.2522
 5888TIP3    H117628   0.112   0.088   3.827  0.2866  0.5641  0.5433
 5888TIP3    H217629   0.171  -0.034   3.895 -0.4157  0.2858  0.6621
 5889TIP3   OH217630   0.300   5.782   2.195  0.0506 -0.3451 -0.1013
 5889TIP3    H117631   0.370   5.808   2.135  0.1211  0.4779  0.3136
 5889TIP3    H217632   0.334   5.706   2.241  1.5563  1.2180  1.5410
 5890TIP3   OH217633   4.472   0.234   3.771 -0.5324  0.3893  0.3609
 5890TIP3    H117634   4.425   0.160   3.809  0.9229 -1.1744 -0.7560
 5890TIP3    H217635   4.414   0.309   3.786 -2.2780 -1.0285  1.0998
 5891TIP3   OH217636   6.624   4.150   3.435 -0.8046 -0.5414 -0.3477
 5891TIP3    H117637   6.709   4.124   3.471 -0.4678  2.9093  1.8842
 5891TIP3    H217638   6.574   4.069   3.429  2.7397 -2.8696 -2.4633
 5892TIP3   OH217639   6.165   5.180   5.639 -0.0239 -0.0772  0.0847
 5892TIP3    H117640   6.195   5.126   5.713 -1.0009 -0.7597 -0.0037
 5892TIP3    H217641   6.124   5.256   5.681  1.3351  0.6166  0.2097
 5893TIP3   OH217642   2.774   3.733   0.090  0.3845 -0.2559  0.3184
 5893TIP3    H117643   2.707   3.787   0.048  1.5597  0.8558 -0.1865
 5893TIP3    H217644   2.776   3.763   0.181  0.7929  0.3144  0.1231
 5894TIP3   OH217645   6.294   2.746   3.635 -0.4405 -0.2448  0.0119
 5894TIP3    H117646   6.279   2.787   3.550 -0.6043  2.7102  1.3380
 5894TIP3    H217647   6.207   2.736   3.673 -0.2651  0.2261  0.5628
 5895TIP3   OH217648   3.161   0.869   3.262  0.1180 -0.7322  0.1637
 5895TIP3    H117649   3.222   0.832   3.197  2.0349 -0.0341  1.4869
 5895TIP3    H217650   3.184   0.825   3.344  0.2772  1.0226  1.1119
 5896TIP3   OH217651   3.076   3.862   5.356  0.3038 -0.1778  0.2041
 5896TIP3    H117652   3.124   3.933   5.398  0.8299  0.3495 -1.2223
 5896TIP3    H217653   3.133   3.785   5.365  0.2900 -0.1322  0.6775
 5897TIP3   OH217654   4.090   1.183   2.127 -0.1826 -0.5730 -0.3114
 5897TIP3    H117655   4.184   1.205   2.125 -0.3102  0.3392  1.3128
 5897TIP3    H217656   4.087   1.094   2.162  0.0367  0.6521  3.2298
 5898TIP3   OH217657   4.525   5.355   3.514  0.5608 -0.0806  0.3648
 5898TIP3    H117658   4.602   5.299   3.523  0.5713 -0.1116  0.0866
 5898TIP3    H217659   4.527   5.385   3.423  0.4940  0.2860  0.4803
 5899TIP3   OH217660   5.733   6.280   2.640 -0.1397 -0.0532 -0.0113
 5899TIP3    H117661   5.653   6.249   2.682 -1.7076  3.1413 -0.3701
 5899TIP3    H217662   5.781   6.326   2.710  0.1335  0.2522 -0.3947
 5900TIP3   OH217663   2.404   2.763   4.938  0.5871  0.2712  0.2300
 5900TIP3    H117664   2.321   2.758   4.985  0.9802  0.2994  0.9421
 5900TIP3    H217665   2.387   2.723   4.853 -0.0809  0.0309  0.4759
 5901TIP3   OH217666   3.646   3.278   1.042 -0.6761 -0.0903 -0.2170
 5901TIP3    H117667   3.716   3.316   1.094 -1.5337  0.3284  0.6679
 5901TIP3    H217668   3.634   3.340   0.969 -0.8448  0.4030  0.2246
 5902TIP3   OH217669   6.284   6.742   2.608  0.2993  0.5682  0.1254
 5902TIP3    H117670   6.222   6.677   2.574  0.8337  0.4848 -0.7256
 5902TIP3    H217671   6.296   6.804   2.536 -0.6063  1.9305  1.0998
 5903TIP3   OH217672   6.882   0.243   0.103  0.5412 -0.6070 -0.5645
 5903TIP3    H117673   6.916   0.322   0.144 -0.0603 -0.3844 -0.4866
 5903TIP3    H217674   6.799   0.226   0.149 -0.1248 -0.3789 -1.6405
 5904TIP3   OH217675   5.669   6.499   1.563  0.4721  0.5420 -0.7419
 5904TIP3    H117676   5.690   6.542   1.647 -1.8130  0.7926 -0.2316
 5904TIP3    H217677   5.640   6.571   1.507 -1.0275 -0.0094 -0.6948
 5905TIP3   OH217678   6.003   5.872   5.511  0.2670 -0.2544  0.2601
 5905TIP3    H117679   5.909   5.888   5.511  0.4335  0.8335  1.3016
 5905TIP3    H217680   6.014   5.794   5.456 -1.0609  0.5684 -1.2579
 5906TIP3   OH217681   3.090   1.864   5.258 -0.3297 -0.7754 -0.0240
 5906TIP3    H117682   3.086   1.892   5.167  0.1945 -0.3244  0.0852
 5906TIP3    H217683   3.137   1.935   5.303 -1.0888 -0.7177  0.6994
 5907TIP3   OH217684   6.927   5.775   4.348 -0.1291 -0.1907 -0.2192
 5907TIP3    H117685   7.022   5.769   4.356 -0.0980 -0.2960 -0.6262
 5907TIP3    H217686   6.910   5.754   4.256 -0.5177  0.1784 -0.2317
 5908TIP3   OH217687   3.700   4.962   1.711 -0.2746 -0.3319  0.0480
 5908TIP3    H117688   3.680   4.871   1.689  1.5837 -0.4711 -1.2609
 5908TIP3    H217689   3.620   5.010   1.687 -0.8388 -1.4473 -0.3786
 5909TIP3   OH217690   6.345   2.721   1.758  0.0641 -0.3120 -0.3997
 5909TIP3    H117691   6.251   2.727   1.772  0.1006  0.4933 -0.4332
 5909TIP3    H217692   6.374   2.812   1.748  0.9645 -0.4816  0.3969
 5910TIP3   OH217693   5.944   1.725   2.252 -0.0259  0.1246 -0.1677
 5910TIP3    H117694   5.918   1.804   2.203  1.0577  0.9262  0.5161
 5910TIP3    H217695   5.979   1.666   2.185  1.0256  1.0301 -0.4444
 5911TIP3   OH217696   3.106   1.668   4.900  0.2799  0.5702 -0.3921
 5911TIP3    H117697   3.055   1.730   4.952  0.5962  0.5562 -0.0611
 5911TIP3    H217698   3.041   1.621   4.847  0.0763  1.4310 -0.9112
 5912TIP3   OH217699   3.892   4.876   5.749  0.4458  0.5531  0.0370
 5912TIP3    H117700   3.899   4.970   5.762  0.8343  0.3012  1.9008
 5912TIP3    H217701   3.975   4.841   5.782 -0.4439 -0.5876  1.1437
 5913TIP3   OH217702   0.196   6.537   4.492 -0.3040 -0.0548 -0.6218
 5913TIP3    H117703   0.163   6.586   4.567 -0.5640 -1.7833  0.4545
 5913TIP3    H217704   0.282   6.575   4.475  0.3542 -0.4625  1.4459
 5914TIP3   OH217705   1.613   4.915   0.440 -0.5324  0.1347  0.8697
 5914TIP3    H117706   1.574   4.831   0.465 -1.9524  0.5054 -0.0102
 5914TIP3    H217707   1.707   4.901   0.452 -0.7194 -1.6030  0.6988
 5915TIP3   OH217708   0.749   1.199   4.887 -0.1944 -0.1396  0.0494
 5915TIP3    H117709   0.816   1.184   4.954 -0.9858 -0.0679  0.8829
 5915TIP3    H217710   0.780   1.275   4.839 -0.0249  0.3405  0.8951
 5916TIP3   OH217711   5.888   3.953   1.459  0.5921 -0.1476 -0.5602
 5916TIP3    H117712   5.914   3.973   1.549  0.8032 -1.6029 -0.2630
 5916TIP3    H217713   5.795   3.930   1.466  0.5294  0.0420 -0.7668
 5917TIP3   OH217714   1.404   1.743   2.921  0.2858  0.1315 -0.2396
 5917TIP3    H117715   1.315   1.774   2.902  0.4489  0.0091 -1.2313
 5917TIP3    H217716   1.426   1.783   3.005  0.0231  1.7010 -0.8942
 5918TIP3   OH217717   4.408   2.775   4.262  0.5344 -0.1208  0.2615
 5918TIP3    H117718   4.379   2.684   4.269 -0.7175  0.2945  0.6500
 5918TIP3    H217719   4.464   2.776   4.184  1.0882 -1.3420  0.6109
 5919TIP3   OH217720   0.274   4.879   0.013 -0.6301 -0.5629 -0.2072
 5919TIP3    H117721   0.220   4.821   0.066  0.2720  0.2707  1.7225
 5919TIP3    H217722   0.364   4.859   0.040 -0.0948 -0.3519 -1.7173
 5920TIP3   OH217723   5.442   4.350   3.989  0.0822 -0.2847 -0.0560
 5920TIP3    H117724   5.434   4.437   4.028 -0.9277 -0.8668  1.0862
 5920TIP3    H217725   5.352   4.318   3.983  0.4428 -1.2509 -0.4911
 5921TIP3   OH217726   0.735   6.246   2.552  0.1689  0.6088  0.0290
 5921TIP3    H117727   0.797   6.217   2.619  1.2869  1.2094 -0.7124
 5921TIP3    H217728   0.681   6.169   2.535 -0.6637  0.6643  2.1521
 5922TIP3   OH217729   5.842   3.146   4.478  0.1335  0.2566  0.4021
 5922TIP3    H117730   5.937   3.158   4.489  0.1804 -0.4740  0.8570
 5922TIP3    H217731   5.804   3.230   4.503  0.5775  0.1379  1.5366
 5923TIP3   OH217732   1.110   1.382   4.601  0.0400  0.3007  0.0244
 5923TIP3    H117733   1.184   1.429   4.561  0.1294  1.2620  1.2683
 5923TIP3    H217734   1.049   1.368   4.528  0.5904  1.2079 -0.6351
 5924TIP3   OH217735   3.622   1.358   3.762  0.4498 -0.0132 -0.1159
 5924TIP3    H117736   3.693   1.296   3.777  0.4477  0.1590  0.6129
 5924TIP3    H217737   3.649   1.407   3.684 -0.5183 -2.3203 -2.0301
 5925TIP3   OH217738   3.872   3.024   3.783 -0.1270  0.4328 -0.2289
 5925TIP3    H117739   3.840   3.075   3.709 -0.1066  2.2156  0.9302
 5925TIP3    H217740   3.962   3.001   3.760  0.4489  2.4131 -0.0874
 5926TIP3   OH217741   3.378   2.633   5.835 -0.4099  0.2494  0.4899
 5926TIP3    H117742   3.297   2.599   5.796 -1.6627  0.6503  2.5408
 5926TIP3    H217743   3.423   2.556   5.868 -0.1002  0.0548 -0.3587
 5927TIP3   OH217744   4.991   5.842   3.432 -0.3024 -0.4620 -0.0745
 5927TIP3    H117745   5.073   5.864   3.389 -0.1917 -1.2952 -0.3008
 5927TIP3    H217746   4.954   5.771   3.380 -0.7614 -0.6629  0.5058
 5928TIP3   OH217747   4.798   4.093   1.314 -0.1503  0.7267  0.5969
 5928TIP3    H117748   4.880   4.101   1.362 -0.7326 -0.8912  1.9308
 5928TIP3    H217749   4.776   4.000   1.317 -0.5168  0.5955 -2.3921
 5929TIP3   OH217750   4.336   2.901   4.877  0.0723 -0.3496 -0.0637
 5929TIP3    H117751   4.431   2.891   4.872 -0.0051 -0.5362 -1.5128
 5929TIP3    H217752   4.302   2.813   4.861 -0.3484 -0.7938  2.7109
 5930TIP3   OH217753   4.494   4.629   3.662  0.6247 -0.0691 -0.0703
 5930TIP3    H117754   4.482   4.695   3.730 -0.2978  0.0257 -0.3233
 5930TIP3    H217755   4.589   4.625   3.649  0.6492  2.2169 -1.0443
 5931TIP3   OH217756   0.582   3.748   4.012  1.2158 -0.1226 -0.5715
 5931TIP3    H117757   0.545   3.751   3.924  1.4297 -1.4175 -0.7336
 5931TIP3    H217758   0.539   3.673   4.053  0.4286  1.0229  0.7683
 5932TIP3   OH217759   2.905   0.727   3.688 -0.0279  0.9517 -0.2662
 5932TIP3    H117760   2.815   0.696   3.679 -0.0080  0.9931 -0.5918
 5932TIP3    H217761   2.907   0.767   3.775 -0.5183  1.5879 -0.5356
 5933TIP3   OH217762   4.957   3.561   0.244 -0.2392 -0.2908 -0.5829
 5933TIP3    H117763   4.893   3.605   0.187 -1.0286 -0.6477  0.0030
 5933TIP3    H217764   5.021   3.524   0.183 -0.9321 -0.4630 -1.2287
 5934TIP3   OH217765   4.173   2.296   0.976  0.5302 -0.1212 -0.2206
 5934TIP3    H117766   4.234   2.231   1.010  0.2104 -0.1684  0.2899
 5934TIP3    H217767   4.146   2.345   1.054 -1.2086 -1.0554 -0.1833
 5935TIP3   OH217768   5.078   5.400   4.139  0.5647 -0.2246 -0.3166
 5935TIP3    H117769   5.167   5.437   4.136  0.7701 -0.5129  1.3999
 5935TIP3    H217770   5.030   5.459   4.196 -1.0988  1.3094 -3.0718
 5936TIP3   OH217771   5.249   0.030   3.953  0.1185  0.1179  0.0994
 5936TIP3    H117772   5.196   0.102   3.988 -0.7288  0.8720 -2.5396
 5936TIP3    H217773   5.298   0.069   3.881  0.3345 -1.7268 -0.8190
 5937TIP3   OH217774   1.909   3.107   4.286 -0.4571  0.9950 -0.0198
 5937TIP3    H117775   1.924   3.141   4.198 -1.3929  0.2157 -0.4959
 5937TIP3    H217776   1.995   3.078   4.316 -0.2851  0.4178 -1.0486
 5938TIP3   OH217777   0.925   2.255   5.780 -0.5488  0.3419  0.6129
 5938TIP3    H117778   0.907   2.219   5.693  3.8943  1.3277 -1.0030
 5938TIP3    H217779   0.886   2.342   5.778  0.4344  0.7962 -0.9288
 5939TIP3   OH217780   2.300   0.397   4.202 -0.0954  0.4484  0.0083
 5939TIP3    H117781   2.244   0.417   4.126  0.6889  0.0270 -0.6914
 5939TIP3    H217782   2.353   0.323   4.174  0.9596  0.9552  0.5943
 5940TIP3   OH217783   6.760   5.256   4.694 -0.2012  0.2396 -0.2775
 5940TIP3    H117784   6.733   5.337   4.736  1.1766  0.2042  0.7577
 5940TIP3    H217785   6.795   5.202   4.766 -0.0490 -0.8116 -1.1115
 5941TIP3   OH217786   4.622   1.520   3.693  0.0767 -0.1170 -0.0755
 5941TIP3    H117787   4.543   1.527   3.747 -1.3999 -1.9984 -1.8442
 5941TIP3    H217788   4.652   1.610   3.682 -3.2253  0.9577 -1.3072
 5942TIP3   OH217789   4.648   5.649   2.736  0.4052  0.8016  0.3395
 5942TIP3    H117790   4.638   5.743   2.720  0.5355  0.7998  0.2498
 5942TIP3    H217791   4.715   5.643   2.804  0.5962  0.7619  0.1494
 5943TIP3   OH217792   3.501   3.842   0.033 -0.0243 -0.2991  0.0036
 5943TIP3    H117793   3.588   3.826  -0.002 -0.5774 -0.3382 -1.4140
 5943TIP3    H217794   3.477   3.929   0.001 -1.1048 -0.9172 -0.9671
 5944TIP3   OH217795   5.267   1.897   4.344  0.3630 -0.0432 -0.6774
 5944TIP3    H117796   5.200   1.962   4.325  0.0022  0.3897  1.8340
 5944TIP3    H217797   5.220   1.824   4.382  1.2312  0.0511  0.6383
 5945TIP3   OH217798   3.028   1.565   1.310 -0.8255 -0.1235 -0.2702
 5945TIP3    H117799   3.035   1.497   1.244  1.2804  0.1649 -0.3979
 5945TIP3    H217800   3.043   1.647   1.263 -0.5712  0.1982  0.3527
 5946TIP3   OH217801   2.922   5.808   2.684 -0.8923  0.0395  0.0526
 5946TIP3    H117802   3.009   5.828   2.651 -1.5355  0.1352 -1.6725
 5946TIP3    H217803   2.917   5.712   2.683 -1.0271  0.0493 -0.4796
 5947TIP3   OH217804   4.093   4.303   2.948  0.1346 -0.3537  0.1769
 5947TIP3    H117805   4.004   4.309   2.911 -0.0063 -0.5856  0.4741
 5947TIP3    H217806   4.146   4.267   2.877  0.2719  1.0078 -0.4559
 5948TIP3   OH217807   0.590   6.428   2.093  0.1466  0.0789  0.1445
 5948TIP3    H117808   0.616   6.386   2.012 -1.0441  0.2575 -0.3502
 5948TIP3    H217809   0.562   6.516   2.067 -1.9080 -0.4235  0.4534
 5949TIP3   OH217810   2.220   1.690   5.553  0.0756  0.8730 -0.0570
 5949TIP3    H117811   2.159   1.749   5.596 -1.1014 -0.6829  0.5198
 5949TIP3    H217812   2.295   1.745   5.531 -0.4454  2.3131  1.5185
 5950TIP3   OH217813   6.836   1.830   0.123  0.1114 -0.2041 -0.4911
 5950TIP3    H117814   6.797   1.768   0.185 -0.4562 -2.7757 -3.2157
 5950TIP3    H217815   6.893   1.885   0.177  0.3344 -2.8281  2.2025
 5951TIP3   OH217816   2.295   6.370   0.856  0.3382 -0.5647  0.1265
 5951TIP3    H117817   2.277   6.409   0.942 -0.9221 -0.9424  0.0427
 5951TIP3    H217818   2.214   6.326   0.832  0.8764 -0.9672 -1.0012
 5952TIP3   OH217819   7.007   4.433   2.094  0.1388  0.1440 -0.1857
 5952TIP3    H117820   7.011   4.504   2.158 -0.2991 -0.0009  0.0052
 5952TIP3    H217821   7.064   4.365   2.130  0.0348  0.1346 -0.0382
 5953TIP3   OH217822   6.780   3.709   0.529  0.0114 -0.0701  0.1284
 5953TIP3    H117823   6.786   3.644   0.459  2.8349  1.4406 -1.2111
 5953TIP3    H217824   6.711   3.676   0.586 -1.2461 -2.2783 -2.4281
 5954TIP3   OH217825   1.584   2.226   1.302  0.0368 -0.0770  0.1763
 5954TIP3    H117826   1.649   2.195   1.240  0.0481 -0.1044  0.2017
 5954TIP3    H217827   1.547   2.146   1.340 -0.9970 -0.1110 -0.8461
 5955TIP3   OH217828   6.974   6.706   2.409  0.4848  0.0035 -0.1137
 5955TIP3    H117829   7.042   6.648   2.441  2.3709  1.1524 -1.8249
 5955TIP3    H217830   6.935   6.743   2.488  0.6042 -1.9919  0.9396
 5956TIP3   OH217831   0.717   4.975   0.636  0.3139  0.1369 -0.4131
 5956TIP3    H117832   0.640   4.919   0.626 -0.3941  1.2200 -1.2693
 5956TIP3    H217833   0.790   4.922   0.605 -0.1969 -0.6362 -0.3136
 5957TIP3   OH217834   3.424   1.369   0.984  0.3646  0.7784  0.0305
 5957TIP3    H117835   3.381   1.288   1.010 -1.2783  1.1385 -1.3373
 5957TIP3    H217836   3.380   1.394   0.903  3.0677  1.3340 -1.3690
 5958TIP3   OH217837   0.866   3.334   4.680 -0.0038  0.2077 -0.1745
 5958TIP3    H117838   0.913   3.284   4.747 -0.4157 -3.5537 -2.3947
 5958TIP3    H217839   0.936   3.374   4.628  0.3396  2.0512  1.5768
 5959TIP3   OH217840   4.122   0.361   1.821 -0.7799  0.1274  0.2895
 5959TIP3    H117841   4.037   0.379   1.780 -1.1452 -0.2093  0.8785
 5959TIP3    H217842   4.106   0.285   1.877 -0.0965  0.0891  0.4424
 5960TIP3   OH217843   1.833   6.311   3.912 -0.0556 -0.0681 -0.0156
 5960TIP3    H117844   1.826   6.398   3.873 -0.5039  0.7854  1.8979
 5960TIP3    H217845   1.871   6.325   3.998  1.2815 -1.9568 -0.2228
 5961TIP3   OH217846   6.868   2.339   1.092  0.5399 -0.7998 -0.0049
 5961TIP3    H117847   6.919   2.417   1.068  0.6698 -0.0855  2.3286
 5961TIP3    H217848   6.933   2.279   1.129  0.1370 -1.1459  0.1411
 5962TIP3   OH217849   0.564   5.399   0.660 -0.2716 -0.2762 -0.4285
 5962TIP3    H117850   0.624   5.334   0.698  0.7249  0.8184 -0.0784
 5962TIP3    H217851   0.530   5.447   0.735 -0.6127 -0.0554 -0.7242
 5963TIP3   OH217852   6.365   4.376   5.721  0.2988  0.5826 -0.0140
 5963TIP3    H117853   6.316   4.304   5.681  0.0434  0.7774 -0.0547
 5963TIP3    H217854   6.372   4.351   5.814 -1.6550  1.4952  0.4398
 5964TIP3   OH217855   5.257   5.040   2.492  0.6962 -0.2160 -0.1275
 5964TIP3    H117856   5.329   5.091   2.528  0.3018  0.1432  0.1722
 5964TIP3    H217857   5.297   4.984   2.426  1.0384  1.0622 -1.0464
 5965TIP3   OH217858   5.504   3.083   2.935 -0.0444 -0.0952 -0.7690
 5965TIP3    H117859   5.520   3.156   2.995 -1.3194 -0.4504  0.0417
 5965TIP3    H217860   5.590   3.041   2.925  0.0437 -0.6690  1.6832
 5966TIP3   OH217861   2.554   0.057   2.422  0.1454 -0.3947 -0.2577
 5966TIP3    H117862   2.642   0.080   2.452 -0.4058 -1.3700  2.4831
 5966TIP3    H217863   2.507   0.140   2.417  0.2425 -0.1244  2.0777
 5967TIP3   OH217864   1.733   2.637   0.071  0.0417  0.1276 -0.5071
 5967TIP3    H117865   1.641   2.648   0.048 -0.2063  1.6466  1.1088
 5967TIP3    H217866   1.780   2.660  -0.009 -0.9420  0.2016 -1.0792
 5968TIP3   OH217867   0.620   6.568   4.252  0.0305  0.8635  0.2229
 5968TIP3    H117868   0.632   6.552   4.346 -1.7999  1.2735  0.5575
 5968TIP3    H217869   0.632   6.663   4.243 -0.1682  0.8777  0.1103
 5969TIP3   OH217870   3.734   0.425   4.018  0.0010 -0.0507 -0.0264
 5969TIP3    H117871   3.679   0.359   4.060 -0.9180  0.9114  0.3248
 5969TIP3    H217872   3.674   0.497   3.999  0.8160  0.3387 -1.1856
 5970TIP3   OH217873   0.852   1.956   4.676 -0.4297  0.4038  0.5421
 5970TIP3    H117874   0.773   1.968   4.729 -0.3526 -0.4079  0.8465
 5970TIP3    H217875   0.820   1.947   4.586 -0.5447  2.0985  0.3639
 5971TIP3   OH217876   1.473   3.390   1.266 -0.2750 -0.0177  0.1292
 5971TIP3    H117877   1.397   3.333   1.254 -0.2401  0.1344 -0.9364
 5971TIP3    H217878   1.545   3.344   1.222  0.2902 -0.2326  1.2626
 5972TIP3   OH217879   4.393   6.283   3.147  0.3815 -0.1630  0.3227
 5972TIP3    H117880   4.455   6.316   3.211  0.7132 -0.6222  0.2434
 5972TIP3    H217881   4.369   6.360   3.095  1.1872 -0.0479  0.1018
 5973TIP3   OH217882   1.031   5.780   1.063 -0.1064 -0.5709 -0.4551
 5973TIP3    H117883   1.055   5.759   0.972  0.9741  2.1081 -0.8791
 5973TIP3    H217884   0.996   5.869   1.058 -0.9750 -0.7609  1.6453
 5974TIP3   OH217885   2.423   3.563   2.334 -0.1956 -0.0395  0.2790
 5974TIP3    H117886   2.489   3.495   2.349 -0.9251 -0.9090 -0.3211
 5974TIP3    H217887   2.358   3.521   2.277 -2.6081 -0.0667  2.8562
 5975TIP3   OH217888   7.178   0.631   1.542 -0.3900  0.4894 -0.1785
 5975TIP3    H117889   7.126   0.709   1.560 -0.6407  0.7202 -1.8042
 5975TIP3    H217890   7.257   0.663   1.500 -0.8601 -0.1680 -1.6197
 5976TIP3   OH217891   5.256   0.282   1.934 -0.2974 -0.2581  0.4584
 5976TIP3    H117892   5.346   0.312   1.924 -0.3852 -0.5005 -1.4007
 5976TIP3    H217893   5.212   0.352   1.982  0.5042  0.5897 -0.0332
 5977TIP3   OH217894   2.967   4.034   2.218  0.2884  0.4349  0.2038
 5977TIP3    H117895   2.889   4.039   2.163 -0.4702  0.3857  1.2315
 5977TIP3    H217896   3.008   3.951   2.194  0.2969  0.6946 -0.6948
 5978TIP3   OH217897   2.931   6.390   4.945 -0.0148 -0.1897 -0.2679
 5978TIP3    H117898   2.932   6.382   5.041 -0.6717  0.3149 -0.2093
 5978TIP3    H217899   2.933   6.300   4.913  1.6177 -0.3618  0.1872
 5979TIP3   OH217900   1.471   0.796   5.036  0.5249  0.2223  0.3914
 5979TIP3    H117901   1.517   0.873   5.071  0.0652 -0.5562  2.9763
 5979TIP3    H217902   1.527   0.722   5.061 -0.4681 -0.4865  0.5891
 5980TIP3   OH217903   4.252   4.822   4.928  0.5306  0.0722  0.2300
 5980TIP3    H117904   4.255   4.730   4.903  0.9332 -0.1950  1.2217
 5980TIP3    H217905   4.254   4.821   5.023  0.6383  1.1122  0.2479
 5981TIP3   OH217906   6.239   1.954   3.727 -0.1295 -0.2074 -0.4463
 5981TIP3    H117907   6.234   1.974   3.821  0.6213 -2.4431  0.1397
 5981TIP3    H217908   6.317   2.000   3.697 -0.7117  1.0225 -0.1350
 5982TIP3   OH217909   5.933   5.412   5.087  0.1424  0.7181 -0.0675
 5982TIP3    H117910   5.963   5.323   5.070 -1.7282 -0.1115  0.6388
 5982TIP3    H217911   6.011   5.458   5.117  0.8375 -1.1625  1.2494
 5983TIP3   OH217912   0.972   2.239   1.285 -0.0384  0.3548 -0.1586
 5983TIP3    H117913   1.044   2.230   1.347 -0.4032  0.4773  0.2908
 5983TIP3    H217914   0.987   2.171   1.219  0.3362  0.2081  0.0823
 5984TIP3   OH217915   3.026   5.031   2.159  0.4968  0.0587  0.2874
 5984TIP3    H117916   3.121   5.015   2.163  0.6094  0.8500  1.1555
 5984TIP3    H217917   2.991   4.957   2.109  1.8797  1.0048 -2.3113
 5985TIP3   OH217918   4.595   1.701   4.871  0.0226  0.3617  0.1897
 5985TIP3    H117919   4.549   1.665   4.795  0.9666 -0.0070 -0.2284
 5985TIP3    H217920   4.568   1.645   4.944  1.0449 -0.8997 -0.3549
 5986TIP3   OH217921   2.956   1.925   5.005  0.0109  0.3013  0.0374
 5986TIP3    H117922   2.887   1.989   5.025 -0.8474 -0.9701  1.3046
 5986TIP3    H217923   2.989   1.952   4.919 -0.7153  2.0919  0.2693
 5987TIP3   OH217924   0.687   2.829   1.856  0.1699 -0.4997  0.1679
 5987TIP3    H117925   0.612   2.882   1.884  0.3593 -0.4858  0.6553
 5987TIP3    H217926   0.719   2.788   1.936  0.7585 -0.4124 -0.0137
 5988TIP3   OH217927   0.418   1.708   4.336  0.8553 -0.2985 -0.1100
 5988TIP3    H117928   0.386   1.637   4.392 -2.4840  1.3965  0.3530
 5988TIP3    H217929   0.472   1.761   4.394 -0.6424  0.1490  0.9460
 5989TIP3   OH217930   4.353   6.657   5.736  0.1617 -0.0959  0.2216
 5989TIP3    H117931   4.278   6.711   5.710  0.9625  1.2213  0.5483
 5989TIP3    H217932   4.366   6.597   5.662 -1.7926 -1.0193  0.5787
 5990TIP3   OH217933   1.751   4.403   0.169  0.1090 -0.1889  0.3591
 5990TIP3    H117934   1.703   4.320   0.173  0.4390 -0.3867  0.2585
 5990TIP3    H217935   1.769   4.417   0.076 -1.5158  0.9184  0.1644
 5991TIP3   OH217936   2.797   4.558   0.344  0.5832  0.1708 -0.0808
 5991TIP3    H117937   2.777   4.633   0.400 -3.6211 -2.0413  1.8356
 5991TIP3    H217938   2.745   4.573   0.265 -0.2742 -0.6840  0.3115
 5992TIP3   OH217939   1.462   0.901   4.745 -0.1259 -1.7794  0.4938
 5992TIP3    H117940   1.432   0.880   4.834  1.1229  1.5915  1.8771
 5992TIP3    H217941   1.503   0.987   4.753  1.7487 -2.1504 -3.0320
 5993TIP3   OH217942   0.139   1.678   2.901 -0.0392  0.1781 -0.1812
 5993TIP3    H117943   0.114   1.766   2.871 -0.9430  0.0116  0.0386
 5993TIP3    H217944   0.068   1.622   2.871  0.2528 -0.3884  0.1720
 5994TIP3   OH217945   2.523   6.705   1.934  0.1623  0.5812  0.2508
 5994TIP3    H117946   2.471   6.768   1.885  2.1167  1.6604 -0.5345
 5994TIP3    H217947   2.476   6.695   2.017 -2.4961 -0.2792 -1.2298
 5995TIP3   OH217948   0.095   2.697   2.759 -0.5088  0.4921 -0.4898
 5995TIP3    H117949   0.135   2.729   2.840  2.9979 -1.2058 -1.3428
 5995TIP3    H217950   0.100   2.771   2.699  1.0785  0.4896 -0.4095
 5996TIP3   OH217951   3.406   3.317   1.155  0.3249 -0.4431 -0.4835
 5996TIP3    H117952   3.381   3.385   1.092  0.3786 -0.2074 -0.2504
 5996TIP3    H217953   3.487   3.279   1.119 -0.0034 -0.7661 -0.9018
 5997TIP3   OH217954   3.282   2.510   2.732  0.2544 -0.2439 -0.0704
 5997TIP3    H117955   3.366   2.463   2.729  0.5621  0.2999 -0.1982
 5997TIP3    H217956   3.233   2.476   2.657  0.2214 -0.8180  0.2091
 5998TIP3   OH217957   3.787   6.749   1.757 -0.4662  0.3238  0.3081
 5998TIP3    H117958   3.757   6.839   1.761 -0.3577  0.5856 -2.5490
 5998TIP3    H217959   3.881   6.753   1.774  0.2903  1.3859 -3.3278
 5999TIP3   OH217960   1.691   2.780   3.334  0.1221  0.0398 -0.2791
 5999TIP3    H117961   1.695   2.720   3.260  1.2076 -0.4682  0.1582
 5999TIP3    H217962   1.762   2.751   3.392 -1.0601  0.0430  1.2427
 6000TIP3   OH217963   2.647   5.943   2.370 -0.3679  0.1215 -0.3037
 6000TIP3    H117964   2.575   5.916   2.314  1.5792 -0.3792 -2.7849
 6000TIP3    H217965   2.710   5.984   2.311  2.0310 -0.7725  1.4196
 6001TIP3   OH217966   4.339   1.866   3.554  0.0846 -0.0018 -0.1820
 6001TIP3    H117967   4.403   1.937   3.563  1.8200 -1.6047  0.8944
 6001TIP3    H217968   4.319   1.840   3.644 -0.9299 -0.5329 -0.5458
 6002TIP3   OH217969   7.088   1.380   4.786  0.1177 -0.0288 -0.2726
 6002TIP3    H117970   7.082   1.456   4.844  0.1936 -0.5155  0.3740
 6002TIP3    H217971   7.156   1.325   4.824  1.0962  0.2450 -1.5386
 6003TIP3   OH217972   6.029   3.747   0.577  0.4116 -0.7733  0.7751
 6003TIP3    H117973   6.092   3.799   0.529  1.6312 -2.3520  0.5900
 6003TIP3    H217974   6.028   3.785   0.665 -0.6937  1.1616 -0.0203
 6004TIP3   OH217975   1.908   4.783   1.949  0.2173  0.1268 -0.4776
 6004TIP3    H117976   1.865   4.769   2.034 -1.1624  0.2012 -1.1328
 6004TIP3    H217977   1.891   4.702   1.900 -1.1033  1.0022 -1.5260
 6005TIP3   OH217978   3.715   3.562  -0.021 -0.1756 -0.5446  0.0787
 6005TIP3    H117979   3.641   3.541   0.036 -0.3499 -1.7234 -0.5538
 6005TIP3    H217980   3.725   3.656  -0.013 -1.6968 -0.3666  0.2386
 6006TIP3   OH217981   1.215   5.019   0.649  0.7464  0.0711 -0.1227
 6006TIP3    H117982   1.287   5.052   0.701  0.4203  0.6600 -0.0370
 6006TIP3    H217983   1.252   5.004   0.561  1.0283  0.1103 -0.0098
 6007TIP3   OH217984   6.001   3.245   2.599  0.6184  0.6847 -0.7587
 6007TIP3    H117985   6.055   3.256   2.677  0.4449 -1.1760 -0.3263
 6007TIP3    H217986   5.921   3.296   2.617  0.8226  0.7284  0.0266
 6008TIP3   OH217987   5.757   4.296   2.486 -0.1826  0.2256 -0.4418
 6008TIP3    H117988   5.682   4.276   2.430  0.7567 -0.5005 -1.5041
 6008TIP3    H217989   5.727   4.276   2.574 -0.6607 -1.9733 -1.0316
 6009TIP3   OH217990   4.510   2.184   2.501 -0.0808 -0.1671  0.4270
 6009TIP3    H117991   4.555   2.262   2.532  0.1736 -0.2137  0.1776
 6009TIP3    H217992   4.547   2.167   2.414 -0.9656  0.1080 -0.0163
 6010TIP3   OH217993   4.995   5.817   5.752 -0.3833  0.1238 -0.1296
 6010TIP3    H117994   5.028   5.906   5.737 -0.7388  0.2650 -0.0836
 6010TIP3    H217995   4.989   5.778   5.665 -1.6546  0.6612 -0.3103
 6011TIP3   OH217996   5.936   4.167   2.142 -0.0087  0.7798 -0.4864
 6011TIP3    H117997   5.988   4.089   2.121  1.0997  1.4579 -0.3674
 6011TIP3    H217998   5.892   4.189   2.061  1.1610  1.1060 -1.0611
 6012TIP3   OH217999   5.434   5.859   5.155  0.0056  0.2044 -0.1918
 6012TIP3    H118000   5.393   5.911   5.086 -0.2556 -1.1678 -1.1269
 6012TIP3    H218001   5.526   5.884   5.153 -0.4143  2.0105  0.7115
 6013TIP3   OH218002   6.115   2.336   3.224  0.0521  0.7468  0.0951
 6013TIP3    H118003   6.099   2.242   3.217 -1.2336  0.8448  1.2611
 6013TIP3    H218004   6.048   2.368   3.285  0.9919  2.2760  0.4042
 6014TIP3   OH218005   7.233   5.891   1.866  0.6517  0.2804  0.2114
 6014TIP3    H118006   7.147   5.928   1.845  0.1525 -1.0316 -0.1361
 6014TIP3    H218007   7.230   5.802   1.832  3.2668  1.1049 -2.6959
 6015TIP3   OH218008   4.591   2.632   0.806  0.0959  0.0355 -0.1811
 6015TIP3    H118009   4.559   2.557   0.856 -1.0246  0.4180 -0.3000
 6015TIP3    H218010   4.625   2.594   0.725 -3.0198 -0.1920 -1.5257
 6016TIP3   OH218011   4.966   0.444   3.844 -0.0544 -0.1276  0.5123
 6016TIP3    H118012   4.902   0.385   3.883  0.1489  0.2674  1.4564
 6016TIP3    H218013   4.985   0.508   3.912  1.4065 -0.2787  0.2680
 6017TIP3   OH218014   5.116   3.809   2.878 -0.0923 -0.2541 -0.0568
 6017TIP3    H118015   5.179   3.775   2.815 -0.0560 -1.2776  0.5035
 6017TIP3    H218016   5.149   3.779   2.963  0.0368  1.3587  0.4968
 6018TIP3   OH218017   0.467   4.816   0.449  0.0928  0.3629  0.1435
 6018TIP3    H118018   0.393   4.759   0.429 -0.8636  2.0062 -1.2612
 6018TIP3    H218019   0.427   4.898   0.479  1.2957  1.4338 -1.0480
 6019TIP3   OH218020   5.857   0.797   3.011  0.3905  0.2685  0.7200
 6019TIP3    H118021   5.931   0.748   2.975  0.9875  1.2006  0.6592
 6019TIP3    H218022   5.897   0.866   3.063 -0.4035  1.6115 -0.3966
 6020TIP3   OH218023   5.643   0.889   5.399 -0.0102  0.3881  0.0674
 6020TIP3    H118024   5.689   0.890   5.482  1.0165  1.7825 -0.4875
 6020TIP3    H218025   5.676   0.811   5.354  1.5515  1.1427 -0.1561
 6021TIP3   OH218026   5.454   5.164   1.440  0.3070  0.0491 -0.4558
 6021TIP3    H118027   5.384   5.137   1.379  1.0814 -0.6975 -1.0349
 6021TIP3    H218028   5.468   5.088   1.496 -0.2214  0.6463  0.5149
 6022TIP3   OH218029   0.188   4.557   3.303 -0.1090  0.4746  0.3036
 6022TIP3    H118030   0.237   4.628   3.261  0.9969 -0.2927  0.2623
 6022TIP3    H218031   0.127   4.602   3.361 -0.1028  1.4871 -0.4402
 6023TIP3   OH218032   1.373   3.543   4.200 -0.0225 -0.0189 -0.2262
 6023TIP3    H118033   1.332   3.502   4.124  0.5247  0.5532 -0.8472
 6023TIP3    H218034   1.411   3.624   4.165  0.5710  0.0580  0.5826
 6024TIP3   OH218035   0.427   5.937   5.634  0.0860  0.1834 -0.4681
 6024TIP3    H118036   0.387   5.919   5.549  0.0720  1.1771 -0.6903
 6024TIP3    H218037   0.463   6.025   5.625  0.2634  0.2218  0.4919
 6025TIP3   OH218038   5.093   2.051   2.921 -0.0934 -0.3817 -0.9836
 6025TIP3    H118039   5.072   1.971   2.874  1.2457 -1.1005 -0.4233
 6025TIP3    H218040   5.188   2.061   2.911 -0.2798  1.3779 -1.4001
 6026TIP3   OH218041   6.186   2.871   0.783 -0.1318  0.7294  0.2181
 6026TIP3    H118042   6.177   2.952   0.834 -2.8253  0.5592  0.1520
 6026TIP3    H218043   6.153   2.894   0.696  0.7293 -0.0230 -0.3296
 6027TIP3   OH218044   4.667   1.699   0.041 -0.1820 -0.5002 -0.2271
 6027TIP3    H118045   4.602   1.706  -0.029 -0.5904 -0.4048  0.1583
 6027TIP3    H218046   4.695   1.789   0.057  1.2316 -0.6676 -1.4778
 6028TIP3   OH218047   5.529   3.305   4.745 -0.3405 -0.0152 -0.1042
 6028TIP3    H118048   5.533   3.239   4.814 -0.2769 -0.0457 -0.1368
 6028TIP3    H218049   5.491   3.260   4.670 -1.3766  0.2902  0.2173
 6029TIP3   OH218050   1.776   2.615   2.746  0.0087 -0.2360 -0.3021
 6029TIP3    H118051   1.782   2.644   2.655  0.3167 -1.2983 -0.6325
 6029TIP3    H218052   1.765   2.520   2.741  1.2922 -0.4836  0.7756
 6030TIP3   OH218053   4.885   5.358   2.863  0.2847  0.8502 -0.3055
 6030TIP3    H118054   4.905   5.369   2.770  1.8228 -3.1746 -0.6110
 6030TIP3    H218055   4.825   5.283   2.866  0.7037  0.5464  1.9808
 6031TIP3   OH218056   0.324   4.147   0.584  0.1211  0.6892 -1.0016
 6031TIP3    H118057   0.374   4.157   0.666  0.6601 -0.1713 -1.2091
 6031TIP3    H218058   0.264   4.075   0.602 -2.1007  2.5999 -0.2773
 6032TIP3   OH218059   4.133   6.424   0.675  0.1320  0.0340 -0.5180
 6032TIP3    H118060   4.192   6.428   0.599  1.3285 -0.9880  0.3144
 6032TIP3    H218061   4.145   6.509   0.718  0.1754  0.2528 -0.9605
 6033TIP3   OH218062   2.383   3.985   0.522  0.2291 -0.1260  0.1148
 6033TIP3    H118063   2.451   3.922   0.498  0.3240  0.7508 -2.1648
 6033TIP3    H218064   2.331   3.940   0.590  1.3179 -1.9434 -0.1927
 6034TIP3   OH218065   4.808   4.129   2.298 -0.0127  0.3596  0.1717
 6034TIP3    H118066   4.898   4.096   2.305  0.1250  1.0915  2.2912
 6034TIP3    H218067   4.773   4.084   2.220  1.4500 -1.6516  0.5832
 6035TIP3   OH218068   5.712   0.782   5.850 -0.2248  0.0172  0.6767
 6035TIP3    H118069   5.624   0.820   5.855 -0.2687  0.0225 -0.0196
 6035TIP3    H218070   5.756   0.813   5.929 -0.6682  0.4769  0.7505
 6036TIP3   OH218071   1.557   0.722   2.006 -1.0763  0.2754 -0.1386
 6036TIP3    H118072   1.597   0.731   1.920  1.0650 -1.4017  0.5983
 6036TIP3    H218073   1.553   0.812   2.040 -0.2890  0.7562 -1.2733
 6037TIP3   OH218074   0.890   6.503   3.075  0.1898 -0.1793 -0.2429
 6037TIP3    H118075   0.917   6.513   3.166  1.6574 -0.8688 -0.5767
 6037TIP3    H218076   0.822   6.436   3.077  0.7098 -0.6972  0.2692
 6038TIP3   OH218077   5.560   0.661   4.056  0.2568 -0.7586  0.5103
 6038TIP3    H118078   5.531   0.670   4.147 -3.3817 -1.3402 -0.3975
 6038TIP3    H218079   5.635   0.603   4.059  0.5584 -0.3291  3.1651
 6039TIP3   OH218080   0.663   6.014   2.328  0.1888 -0.0274 -0.2419
 6039TIP3    H118081   0.623   6.100   2.338  1.3967  0.3552  2.0011
 6039TIP3    H218082   0.754   6.026   2.355  0.7639 -1.7319 -1.2165
 6040TIP3   OH218083   6.939   4.572   0.016 -0.1776 -0.2596  0.0046
 6040TIP3    H118084   6.904   4.594   0.103 -0.1176 -0.9236  0.2024
 6040TIP3    H218085   6.867   4.524  -0.026  0.3793 -1.4169  0.3208
 6041TIP3   OH218086   5.445   0.207   3.796  0.1817 -0.3800 -0.5733
 6041TIP3    H118087   5.448   0.280   3.734  0.7085 -0.0141 -0.1269
 6041TIP3    H218088   5.449   0.249   3.882 -0.2110 -0.8996 -0.2970
 6042TIP3   OH218089   2.566   0.869   2.829 -0.1879  0.2877 -0.2529
 6042TIP3    H118090   2.514   0.888   2.907  1.4035 -0.0395  0.9521
 6042TIP3    H218091   2.566   0.951   2.779 -0.5741  0.7650  0.5110
 6043TIP3   OH218092   2.673   4.279   0.357 -0.1468 -0.1139 -0.3837
 6043TIP3    H118093   2.714   4.364   0.374  1.8663 -1.4008  1.9272
 6043TIP3    H218094   2.725   4.241   0.286 -0.2065  0.0670 -0.5233
 6044TIP3   OH218095   5.696   4.880   4.093  0.0324  0.1726 -0.2354
 6044TIP3    H118096   5.651   4.924   4.021 -0.7732  0.8855  0.6845
 6044TIP3    H218097   5.755   4.819   4.050  0.6743  1.6408 -1.5454
 6045TIP3   OH218098   6.443   6.062   2.114  0.6083 -0.4672 -0.2397
 6045TIP3    H118099   6.457   6.146   2.069  0.7242  0.5387  1.5822
 6045TIP3    H218100   6.513   6.005   2.082  3.0802  1.4168  1.4511
 6046TIP3   OH218101   4.380   6.065   3.808  0.2458  0.3445 -0.2243
 6046TIP3    H118102   4.303   6.069   3.751 -1.7036  0.8989  2.2922
 6046TIP3    H218103   4.392   5.972   3.827 -0.6445  0.3542  0.4184
 6047TIP3   OH218104   5.915   0.962   0.392  0.6513  0.2380 -0.5849
 6047TIP3    H118105   5.830   0.932   0.357 -0.1146  1.6264 -0.0084
 6047TIP3    H218106   5.970   0.884   0.391 -1.3666 -1.3274  1.3215
 6048TIP3   OH218107   3.614   6.201   5.714 -0.3504 -0.2745  0.7224
 6048TIP3    H118108   3.552   6.131   5.735 -1.2803  0.5666  0.8876
 6048TIP3    H218109   3.646   6.180   5.626 -0.7733 -0.8019  0.6939
 6049TIP3   OH218110   4.751   3.793   0.309  0.2912 -0.0164 -0.5293
 6049TIP3    H118111   4.734   3.776   0.217 -0.0710  2.3548 -0.9667
 6049TIP3    H218112   4.776   3.885   0.312 -2.6737  0.8971  2.0482
 6050TIP3   OH218113   1.691   3.077   4.830 -0.2926 -0.2877 -0.0464
 6050TIP3    H118114   1.660   3.161   4.796 -0.3329 -0.8022 -1.3247
 6050TIP3    H218115   1.612   3.022   4.833  0.0892 -0.9265 -1.2496
 6051TIP3   OH218116   3.101   1.793   1.153 -0.3187  0.5002 -0.2054
 6051TIP3    H118117   3.091   1.803   1.059 -0.7594 -2.6264 -0.6025
 6051TIP3    H218118   3.196   1.787   1.167 -0.3057 -1.2107 -0.8101
 6052TIP3   OH218119   0.155   3.374   1.441 -0.7848 -0.0080 -0.6588
 6052TIP3    H118120   0.250   3.367   1.432 -0.8953 -0.2500 -1.7210
 6052TIP3    H218121   0.132   3.308   1.506 -0.1838  0.3494 -0.0678
 6053TIP3   OH218122   0.090   3.931   3.507  0.3900  0.2430 -0.4007
 6053TIP3    H118123   0.029   3.934   3.433 -0.3326 -0.7132  0.1404
 6053TIP3    H218124   0.116   3.839   3.513  0.1082  0.2214  0.7925
 6054TIP3   OH218125   3.897   6.145   2.512 -0.5439  0.2730 -0.3866
 6054TIP3    H118126   3.843   6.067   2.522 -1.0335  0.7960  1.3060
 6054TIP3    H218127   3.980   6.112   2.479 -0.2502 -1.1847  1.6313
 6055TIP3   OH218128   2.365   4.002   3.609  0.3297 -0.3420 -0.3456
 6055TIP3    H118129   2.377   3.918   3.654  0.4021 -0.3773 -0.4294
 6055TIP3    H218130   2.270   4.010   3.597  0.2646 -0.0618  0.3234
 6056TIP3   OH218131   5.696   5.596   1.379 -0.3172  0.0490 -0.1225
 6056TIP3    H118132   5.757   5.669   1.378 -0.0126 -0.2096 -0.9192
 6056TIP3    H218133   5.748   5.521   1.409 -0.2733 -0.1353 -0.6407
 6057TIP3   OH218134   4.214   2.430   5.640 -0.6415 -0.1668  0.6204
 6057TIP3    H118135   4.289   2.401   5.693 -0.8730 -0.6551  0.6866
 6057TIP3    H218136   4.238   2.408   5.550 -1.0067 -0.9822  0.7185
 6058TIP3   OH218137   3.283   4.255   3.478  0.3947  0.6306 -0.5450
 6058TIP3    H118138   3.295   4.344   3.510  1.2218  0.9783 -1.7868
 6058TIP3    H218139   3.188   4.243   3.475  0.1658  0.1753  3.0379
 6059TIP3   OH218140   4.478   3.978   3.990 -0.5033  0.1083  0.1792
 6059TIP3    H118141   4.425   4.026   3.926 -0.5186 -2.1711 -1.6563
 6059TIP3    H218142   4.562   4.022   3.990 -1.3562  1.8300  0.7222
 6060TIP3   OH218143   4.849   5.831   4.030 -0.3613 -0.4094  0.5667
 6060TIP3    H118144   4.862   5.772   3.956  4.5369  0.7126  0.1536
 6060TIP3    H218145   4.755   5.831   4.045 -1.6949 -1.0261 -5.3400
 6061TIP3   OH218146   4.184   1.459   4.474  0.1185 -0.1479  0.2328
 6061TIP3    H118147   4.160   1.381   4.525 -0.9776  0.2449  0.3547
 6061TIP3    H218148   4.192   1.529   4.540  1.3085 -0.1908  0.1509
 6062TIP3   OH218149   1.574   3.666   1.347 -0.0930  0.1439  0.4343
 6062TIP3    H118150   1.488   3.708   1.352  0.1975  1.5605 -3.1909
 6062TIP3    H218151   1.556   3.581   1.306  0.0517 -0.5635  1.7769
 6063TIP3   OH218152   5.126   4.061   1.485  0.1055 -0.4483  0.0576
 6063TIP3    H118153   5.066   3.993   1.454 -1.0806 -0.0635  1.4068
 6063TIP3    H218154   5.208   4.044   1.439 -1.4719  0.0476 -3.1811
 6064TIP3   OH218155   3.091   5.545   2.326  0.3049  0.2518 -0.0549
 6064TIP3    H118156   3.184   5.528   2.309  0.0785  0.7935 -2.0405
 6064TIP3    H218157   3.044   5.482   2.271 -0.5078  0.8552 -0.0775
 6065TIP3   OH218158   0.102   0.215   2.730  0.2653  0.0522  0.1414
 6065TIP3    H118159   0.016   0.256   2.724  0.2482  0.0863  0.5668
 6065TIP3    H218160   0.094   0.134   2.679  0.2898  0.5465 -0.6716
 6066TIP3   OH218161   1.588   4.769   1.668  0.1271 -0.1256  0.1417
 6066TIP3    H118162   1.537   4.715   1.608 -2.0180  1.0850  0.7628
 6066TIP3    H218163   1.662   4.801   1.615 -1.0385 -0.0474 -1.5111
 6067TIP3   OH218164   4.630   1.414   2.042 -0.0891 -0.3607  0.1996
 6067TIP3    H118165   4.705   1.418   2.100  0.6537  0.7048 -0.7899
 6067TIP3    H218166   4.636   1.327   2.001 -0.5161 -1.0468  1.5152
 6068TIP3   OH218167   3.289   1.559   2.906  0.4216  0.3911  0.1732
 6068TIP3    H118168   3.328   1.634   2.861  0.7139 -0.8445 -1.7878
 6068TIP3    H218169   3.205   1.545   2.862  0.4860 -0.5598  0.3236
 6069TIP3   OH218170   5.355   3.371   1.272  0.1604  0.2211  0.6617
 6069TIP3    H118171   5.313   3.294   1.310  1.1802 -0.1109  1.1555
 6069TIP3    H218172   5.445   3.344   1.257 -0.1853  0.2674 -2.1955
 6070TIP3   OH218173   2.828   3.093   0.177 -0.2848  0.0733 -0.0563
 6070TIP3    H118174   2.842   3.004   0.146 -1.2909 -0.4385  0.8766
 6070TIP3    H218175   2.760   3.084   0.245 -0.0624  1.4821  0.3797
 6071TIP3   OH218176   3.737   6.753   4.844 -0.1226 -0.0339 -0.0510
 6071TIP3    H118177   3.705   6.746   4.754  0.1797 -1.3441 -0.0861
 6071TIP3    H218178   3.793   6.676   4.855  0.1075  0.2868  1.1552
 6072TIP3   OH218179   1.653   6.121   5.571  0.3125  0.1177 -0.3060
 6072TIP3    H118180   1.657   6.198   5.627  0.9579  0.0061 -0.1872
 6072TIP3    H218181   1.578   6.071   5.603  0.4301  0.2587  0.1913
 6073TIP3   OH218182   6.199   1.587   5.771  0.1966  0.1821 -0.3937
 6073TIP3    H118183   6.157   1.596   5.857  0.3126  0.0170 -0.3182
 6073TIP3    H218184   6.290   1.610   5.786  0.6109 -1.5088 -0.0856
 6074TIP3   OH218185   6.469   2.252   4.205 -0.3825 -0.8811  0.0480
 6074TIP3    H118186   6.504   2.320   4.262 -1.0592 -0.8578  0.4561
 6074TIP3    H218187   6.378   2.279   4.189  0.1480 -0.1507 -2.1721
 6075TIP3   OH218188   6.931   4.646   1.245 -0.0737 -0.6956 -0.4409
 6075TIP3    H118189   6.958   4.673   1.157 -1.3569 -0.2759 -0.7300
 6075TIP3    H218190   7.006   4.668   1.301  0.3213  0.0934 -1.2486
 6076TIP3   OH218191   0.284   0.274   5.285 -0.3107  0.2755 -0.4945
 6076TIP3    H118192   0.373   0.308   5.300 -0.1684  0.1366 -1.0386
 6076TIP3    H218193   0.256   0.244   5.372  0.0191  0.6877 -0.2388
 6077TIP3   OH218194   4.646   2.333   0.815  0.1111  0.5065 -0.1149
 6077TIP3    H118195   4.595   2.331   0.896  2.0656  0.0243  1.1695
 6077TIP3    H218196   4.613   2.260   0.763  0.1394 -0.4081  1.1122
 6078TIP3   OH218197   5.565   2.450   4.491  0.5422  0.4119 -0.3694
 6078TIP3    H118198   5.515   2.520   4.534  1.5596  1.7268 -1.2404
 6078TIP3    H218199   5.501   2.401   4.441  0.0884  2.1192 -1.5400
 6079TIP3   OH218200   0.088   4.044   4.549  0.8328 -0.1415  0.7222
 6079TIP3    H118201   0.029   4.099   4.600  1.0764 -1.8369  2.9958
 6079TIP3    H218202   0.039   3.963   4.535  0.9829  0.0718 -1.3626
 6080TIP3   OH218203   0.435   6.707   5.335  0.7147  0.2769  0.0610
 6080TIP3    H118204   0.530   6.706   5.349  0.7369 -0.4486 -0.1103
 6080TIP3    H218205   0.418   6.632   5.278  0.1391  0.8888 -0.6003
 6081TIP3   OH218206   5.177   4.904   0.705  0.4533 -0.5784 -0.5224
 6081TIP3    H118207   5.135   4.842   0.766  0.1695  1.3316  1.3322
 6081TIP3    H218208   5.236   4.955   0.760 -1.0103  2.3379 -1.4643
 6082TIP3   OH218209   2.180   1.590   4.653  0.5724  0.0051 -0.4710
 6082TIP3    H118210   2.205   1.682   4.655 -1.8562  0.7444  1.6935
 6082TIP3    H218211   2.214   1.554   4.735 -0.3220 -0.4497 -0.2859
 6083TIP3   OH218212   5.576   6.171   4.887 -0.5281  0.1210 -0.6288
 6083TIP3    H118213   5.559   6.093   4.835  1.0783 -1.7207  1.4585
 6083TIP3    H218214   5.670   6.187   4.876 -0.4285  0.4948  0.6323
 6084TIP3   OH218215   2.928   6.187   4.460  0.4262 -0.0440  0.1952
 6084TIP3    H118216   2.854   6.144   4.503  1.1752 -1.6123 -0.0121
 6084TIP3    H218217   2.976   6.229   4.532 -0.8515  1.3481  0.2810
 6085TIP3   OH218218   1.529   1.691   5.558  0.2122  0.2375  0.3417
 6085TIP3    H118219   1.583   1.611   5.559  1.8117  1.2463 -0.5554
 6085TIP3    H218220   1.494   1.695   5.469 -0.2957  0.2812  0.5390
 6086TIP3   OH218221   6.123   6.322   5.096 -0.6446  0.4315  0.2273
 6086TIP3    H118222   6.120   6.285   5.008  2.7568  0.3418  0.0086
 6086TIP3    H218223   6.078   6.257   5.150  0.1405 -1.2132 -0.9897
 6087TIP3   OH218224   2.391   4.351   0.871  0.3616  0.2110  0.2242
 6087TIP3    H118225   2.483   4.331   0.857  1.1234  3.1526  0.3870
 6087TIP3    H218226   2.385   4.379   0.962 -0.1516  2.4025 -0.4268
 6088TIP3   OH218227   2.237   1.596   1.297  0.1632  0.4893  0.0803
 6088TIP3    H118228   2.143   1.613   1.308  0.3550  2.0442 -0.5127
 6088TIP3    H218229   2.267   1.574   1.386 -1.1453 -2.4547 -0.0699
 6089TIP3   OH218230   0.789   2.871   5.167 -0.6043  0.4402  0.1809
 6089TIP3    H118231   0.840   2.948   5.141 -0.4154  0.3659  0.3339
 6089TIP3    H218232   0.798   2.867   5.262 -0.8457  0.3904  0.2033
 6090TIP3   OH218233   6.362   1.117   4.111  0.3785 -0.6152  0.1723
 6090TIP3    H118234   6.381   1.030   4.146  1.3203  0.4037  2.4176
 6090TIP3    H218235   6.430   1.173   4.148 -1.0981  1.3553  0.0771
 6091TIP3   OH218236   5.408   6.697   2.807 -0.3280 -0.1670  0.0050
 6091TIP3    H118237   5.325   6.660   2.838 -0.5532  0.6508  0.4109
 6091TIP3    H218238   5.405   6.686   2.712 -0.3594 -1.2163  0.1073
 6092TIP3   OH218239   6.335   1.230   2.548  0.0246 -0.7149 -0.0143
 6092TIP3    H118240   6.364   1.189   2.629  1.0223 -1.3068 -0.6527
 6092TIP3    H218241   6.399   1.201   2.482  0.3402  1.2539 -0.6393
 6093TIP3   OH218242   2.178   1.572   4.926 -0.0713 -0.3469  0.8648
 6093TIP3    H118243   2.155   1.647   4.980  0.2787  0.2213  0.2366
 6093TIP3    H218244   2.103   1.513   4.935 -2.6148  2.0402 -2.1941
 6094TIP3   OH218245   6.560   2.108   2.259 -0.8382 -0.1739  0.6946
 6094TIP3    H118246   6.576   2.094   2.166 -0.8946  1.3406  0.4198
 6094TIP3    H218247   6.465   2.099   2.268 -1.0593  1.3497  0.2416
 6095TIP3   OH218248   1.211   3.124   1.249 -0.2685 -0.0279  0.3773
 6095TIP3    H118249   1.150   3.198   1.246  0.6598  0.7309 -0.5426
 6095TIP3    H218250   1.221   3.098   1.157 -1.0556 -1.7268  0.7262
 6096TIP3   OH218251   2.054   3.247   2.134 -0.1028 -0.0145 -0.2828
 6096TIP3    H118252   2.017   3.166   2.170  0.2153 -0.0051  0.0766
 6096TIP3    H218253   2.016   3.254   2.046  0.2496 -0.8126 -0.5033
 6097TIP3   OH218254   1.072   1.127   0.740 -0.4101  0.2947 -0.2132
 6097TIP3    H118255   1.131   1.066   0.784  0.1594  0.6289 -0.5076
 6097TIP3    H218256   1.061   1.199   0.802  0.3406  0.7346 -0.5762
 6098TIP3   OH218257  -0.001   3.145   2.360  0.1424  0.5459 -0.0690
 6098TIP3    H118258   0.062   3.076   2.344  2.0591  1.6008  2.2096
 6098TIP3    H218259  -0.045   3.119   2.442  2.2804  2.7451  1.9592
 6099TIP3   OH218260   1.062   1.329   3.630  0.2891 -0.1504 -0.0323
 6099TIP3    H118261   1.014   1.379   3.564  1.8361  0.8495 -0.4568
 6099TIP3    H218262   1.153   1.333   3.601  0.7628 -1.1988  1.2360
 6100TIP3   OH218263   1.899   3.760   1.682 -0.4833 -0.2150 -0.2124
 6100TIP3    H118264   1.851   3.825   1.630 -0.2924 -0.3962 -0.6246
 6100TIP3    H218265   1.877   3.676   1.641 -1.1704 -0.4758  0.6603
 6101TIP3   OH218266   1.140   5.894   3.564 -0.5754 -0.3208 -0.1193
 6101TIP3    H118267   1.128   5.927   3.475 -1.8744  1.1403  0.5583
 6101TIP3    H218268   1.051   5.886   3.599 -0.0415  0.1744  1.4140
 6102TIP3   OH218269   6.735   6.671   2.786 -0.0405  0.1832  0.4609
 6102TIP3    H118270   6.760   6.656   2.877  0.0689 -0.1435  0.3775
 6102TIP3    H218271   6.813   6.650   2.735 -0.0614  0.4952  0.3023
 6103TIP3   OH218272   2.923   4.331   5.314  0.3624 -0.6673 -0.0509
 6103TIP3    H118273   2.949   4.260   5.255  1.0063 -1.0990  0.7472
 6103TIP3    H218274   2.995   4.394   5.309  0.2998 -0.5848  0.0843
 6104TIP3   OH218275   2.405   4.142   2.960 -0.4026  0.5696  0.1701
 6104TIP3    H118276   2.379   4.156   2.869 -2.7578  0.9687  0.8126
 6104TIP3    H218277   2.486   4.093   2.956 -1.5218 -1.2406 -2.1516
 6105TIP3   OH218278   6.783   4.032   2.313  0.1974  0.0354  0.3555
 6105TIP3    H118279   6.689   4.050   2.321 -0.1922 -1.9791  0.7608
 6105TIP3    H218280   6.794   4.005   2.222  0.4585  0.6037  0.2156
 6106TIP3   OH218281   1.803   6.049   2.966  0.0892  0.4438 -0.1253
 6106TIP3    H118282   1.886   6.021   3.003 -0.5891 -0.0214  1.1001
 6106TIP3    H218283   1.793   5.997   2.886  0.8096  0.2727 -0.1111
 6107TIP3   OH218284   0.485   4.299   4.754 -0.0845  0.0445 -0.0884
 6107TIP3    H118285   0.553   4.335   4.810 -0.3169  0.6002 -0.1543
 6107TIP3    H218286   0.411   4.283   4.812  0.1116 -0.6004 -0.0084
 6108TIP3   OH218287   0.921   4.156   2.974  0.8769 -0.1864  0.1662
 6108TIP3    H118288   0.844   4.197   3.013  0.4457 -1.7929  1.0674
 6108TIP3    H218289   0.961   4.226   2.922 -1.1303  0.7058 -0.2838
 6109TIP3   OH218290   3.916   2.528   0.719 -0.5599 -0.3375  0.8122
 6109TIP3    H118291   3.849   2.503   0.655 -0.1766 -0.6995  0.5411
 6109TIP3    H218292   3.887   2.488   0.801 -1.4072  0.6949  1.0291
 6110TIP3   OH218293   1.448   2.890   2.942 -0.2940  0.2107 -0.2411
 6110TIP3    H118294   1.540   2.918   2.934 -0.9294  2.0246 -2.3662
 6110TIP3    H218295   1.427   2.854   2.856 -1.5048 -0.4774  0.3303
 6111TIP3   OH218296   6.141   5.468   3.553  0.0958 -0.4138 -0.0167
 6111TIP3    H118297   6.189   5.524   3.613  1.7993 -1.3319 -0.4532
 6111TIP3    H218298   6.088   5.411   3.609  0.3498 -0.1128  0.5334
 6112TIP3   OH218299   4.063   1.977   5.310  0.8194  0.5831 -0.1518
 6112TIP3    H118300   4.148   2.019   5.300  0.7042  0.5913 -1.3004
 6112TIP3    H218301   4.003   2.032   5.259  0.3412 -0.0251 -0.2545
 6113TIP3   OH218302   1.291   5.930   3.818 -0.3042  0.0710  0.5581
 6113TIP3    H118303   1.273   5.904   3.728 -0.6770 -1.3253  1.0039
 6113TIP3    H218304   1.223   5.886   3.870 -0.2852  1.0931  1.4905
 6114TIP3   OH218305   3.737   5.747   5.202 -0.2292  0.1886 -0.4882
 6114TIP3    H118306   3.812   5.692   5.226  0.1621  1.1793  0.7014
 6114TIP3    H218307   3.696   5.702   5.129  0.6768 -1.1399 -0.2114
 6115TIP3   OH218308   3.794   1.200   4.132 -0.3142 -0.1787  0.0027
 6115TIP3    H118309   3.822   1.112   4.104  0.4540 -0.1746  0.7125
 6115TIP3    H218310   3.876   1.248   4.145 -0.7095  0.4099  0.3735
 6116TIP3   OH218311   5.569   1.368   4.970  0.3837  0.4419  0.0617
 6116TIP3    H118312   5.592   1.277   4.989 -0.1564  0.0422 -1.1207
 6116TIP3    H218313   5.626   1.419   5.028 -1.8530 -0.6439  3.4735
 6117TIP3   OH218314   2.792   2.260   3.044  0.1902  0.2294 -0.3156
 6117TIP3    H118315   2.881   2.295   3.042  0.7175 -0.9693  1.0077
 6117TIP3    H218316   2.789   2.198   2.972  0.7530 -0.4521  0.2381
 6118TIP3   OH218317   5.612   5.702   5.835 -0.2859 -0.0508  0.5459
 6118TIP3    H118318   5.668   5.637   5.878 -1.6027 -1.2446  0.5186
 6118TIP3    H218319   5.674   5.762   5.793  0.9897 -0.3431  1.9151
 6119TIP3   OH218320   5.428   5.985   1.262 -0.1134 -0.2453  0.2022
 6119TIP3    H118321   5.349   6.018   1.220 -0.9732 -1.0582  1.1426
 6119TIP3    H218322   5.443   5.899   1.222  1.6824  0.8320 -1.6768
 6120TIP3   OH218323   1.328   5.105   0.132 -0.1540  0.2602  0.3527
 6120TIP3    H118324   1.341   5.199   0.139  0.5018  0.1357  0.9070
 6120TIP3    H218325   1.254   5.086   0.190 -0.2526  0.4229  0.2800
 6121TIP3   OH218326   1.361   3.746   3.241 -0.3646 -0.1275  0.3725
 6121TIP3    H118327   1.454   3.758   3.259 -0.0362 -1.8226 -0.0195
 6121TIP3    H218328   1.335   3.673   3.297 -1.3957  0.1052  0.2242
 6122TIP3   OH218329   4.575   2.315   3.843  0.0083  0.7905  0.4273
 6122TIP3    H118330   4.533   2.339   3.760 -2.1132 -2.2996  0.4731
 6122TIP3    H218331   4.508   2.332   3.909 -0.1664 -1.4404  0.8702
 6123TIP3   OH218332   3.770   3.234   1.503  0.4492 -0.1854 -0.0537
 6123TIP3    H118333   3.759   3.259   1.595 -0.3403  0.3035 -0.2686
 6123TIP3    H218334   3.686   3.194   1.479  0.0470  1.1549 -0.9960
 6124TIP3   OH218335   0.632   0.302   0.921  0.1168  0.2565 -0.0611
 6124TIP3    H118336   0.713   0.270   0.880  0.8967  1.7744  0.2180
 6124TIP3    H218337   0.621   0.390   0.886 -1.5678  0.0065 -0.2523
 6125TIP3   OH218338   6.711   6.379   3.638  0.4189 -0.0234 -0.0290
 6125TIP3    H118339   6.728   6.324   3.715 -2.6960 -2.1130 -0.6030
 6125TIP3    H218340   6.632   6.427   3.661  0.9758  1.3845 -0.9750
 6126TIP3   OH218341   0.792   6.387   5.507 -0.2555 -0.0223 -0.2140
 6126TIP3    H118342   0.871   6.408   5.457 -0.2343  1.2775  0.3281
 6126TIP3    H218343   0.790   6.292   5.509  1.2599 -0.0814 -0.3054
 6127TIP3   OH218344   5.036   4.074   0.599  0.2381  0.1584 -0.0727
 6127TIP3    H118345   5.123   4.054   0.633  0.7389  0.8924 -0.8819
 6127TIP3    H218346   4.983   4.092   0.677 -0.4238 -4.5499  0.8230
 6128TIP3   OH218347   6.804   5.539   0.812  0.2544  0.3180  0.3364
 6128TIP3    H118348   6.835   5.595   0.741  0.2918  0.5621  0.5415
 6128TIP3    H218349   6.709   5.549   0.811  0.1424 -0.6970 -0.5116
 6129TIP3   OH218350   2.213   5.109   0.153 -0.4011 -0.1346  0.0348
 6129TIP3    H118351   2.122   5.078   0.157  0.1144 -1.8599 -0.7343
 6129TIP3    H218352   2.264   5.032   0.128  0.9718  1.3927 -2.2524
 6130TIP3   OH218353   0.801   0.427   0.416  0.2387  0.1250 -0.3386
 6130TIP3    H118354   0.811   0.521   0.431 -1.1849  0.3140 -0.4502
 6130TIP3    H218355   0.884   0.389   0.446  0.9607  1.4378 -0.5789
 6131TIP3   OH218356   2.121   5.827   4.987  0.5116  0.6828 -0.1383
 6131TIP3    H118357   2.069   5.753   4.957 -0.5392  2.1569 -2.1724
 6131TIP3    H218358   2.063   5.877   5.043  0.4372  1.1703 -0.6392
 6132TIP3   OH218359   5.575   5.361   4.247  0.5270  1.0819 -0.5464
 6132TIP3    H118360   5.617   5.427   4.192  0.1286 -0.9005 -3.4519
 6132TIP3    H218361   5.645   5.300   4.269  0.2598  0.6787 -0.7918
 6133TIP3   OH218362   6.815   2.690   4.828 -0.1649  0.1386  0.0190
 6133TIP3    H118363   6.870   2.722   4.757 -1.5614  0.6921 -0.8669
 6133TIP3    H218364   6.794   2.769   4.879 -0.7076  0.0619 -0.0773
 6134TIP3   OH218365   6.833   2.529   5.058 -0.6026 -0.1460 -0.0639
 6134TIP3    H118366   6.839   2.445   5.012 -0.8313 -0.5627  0.6522
 6134TIP3    H218367   6.840   2.595   4.989 -0.6585 -0.7589 -0.6622
 6135TIP3   OH218368   3.607   6.382   3.076 -0.3511  0.3802 -0.3680
 6135TIP3    H118369   3.512   6.385   3.065 -0.2809  0.3515 -0.9835
 6135TIP3    H218370   3.623   6.300   3.123 -0.4500 -0.7804 -2.2404
 6136TIP3   OH218371   2.128   3.149   3.616 -0.2899  0.2484 -0.1759
 6136TIP3    H118372   2.175   3.219   3.571 -1.2387  1.1329  0.1591
 6136TIP3    H218373   2.079   3.105   3.547 -1.0609  1.0497 -0.1673
 6137TIP3   OH218374   1.586   0.163   1.799  0.6282  0.0721  0.5925
 6137TIP3    H118375   1.607   0.200   1.885 -0.1511  0.2252  0.7162
 6137TIP3    H218376   1.667   0.175   1.748  0.3089  2.2721  0.5130
 6138TIP3   OH218377   0.644   2.956   4.753  0.0470 -0.1913 -0.4236
 6138TIP3    H118378   0.735   2.962   4.725  0.0140  1.4621 -0.3180
 6138TIP3    H218379   0.594   2.945   4.672  0.2213  0.8413 -0.6855
 6139TIP3   OH218380   3.937   2.722   3.066 -0.2448  0.0372  0.2564
 6139TIP3    H118381   3.938   2.697   2.974 -0.0930  2.1120 -0.3531
 6139TIP3    H218382   3.880   2.657   3.108 -0.1059 -1.0975 -1.2217
 6140TIP3   OH218383   6.253   3.940   5.379  0.5658  0.2331  0.1195
 6140TIP3    H118384   6.301   3.858   5.363  1.5852  0.7506  0.4451
 6140TIP3    H218385   6.206   3.924   5.461  0.6819 -0.0638  0.1290
 6141TIP3   OH218386   1.793   6.503   2.363 -0.4721 -0.2023  0.1212
 6141TIP3    H118387   1.835   6.427   2.321 -0.5773  0.4551 -1.2116
 6141TIP3    H218388   1.866   6.557   2.391 -0.3963 -0.7644  1.0417
 6142TIP3   OH218389   4.358   5.806   3.881 -0.5551  0.5534 -0.1482
 6142TIP3    H118390   4.417   5.774   3.814  0.4740  1.5694  0.2429
 6142TIP3    H218391   4.309   5.729   3.910  0.6418 -0.3253 -0.4150
 6143TIP3   OH218392   6.705   4.891   0.635  0.9285  0.1817  0.1663
 6143TIP3    H118393   6.715   4.929   0.548 -0.9301  2.0772  0.7017
 6143TIP3    H218394   6.611   4.893   0.652  1.3295  1.2001  2.7338
 6144TIP3   OH218395   2.209   3.472   2.115 -0.1398  0.2856 -0.6854
 6144TIP3    H118396   2.195   3.378   2.122  2.2030  0.0075  2.1343
 6144TIP3    H218397   2.123   3.510   2.133 -0.4041 -1.3387  2.0829
 6145TIP3   OH218398   5.802   6.757   2.988  0.0123 -0.3990 -0.0212
 6145TIP3    H118399   5.894   6.776   3.003 -0.0611 -0.0251 -0.0300
 6145TIP3    H218400   5.765   6.840   2.958 -0.4915 -0.3347  0.7408
 6146TIP3   OH218401   3.222   2.978   4.937 -0.7483  0.8091 -0.4171
 6146TIP3    H118402   3.233   2.886   4.912 -1.9470  0.4471  0.3002
 6146TIP3    H218403   3.281   2.990   5.011  1.1252  1.2781 -1.8927
 6147TIP3   OH218404   1.080   5.619   2.756 -0.3642 -0.0873 -0.2300
 6147TIP3    H118405   1.057   5.671   2.833 -0.4700 -0.1500 -0.2190
 6147TIP3    H218406   1.076   5.681   2.683 -0.7215 -0.1300 -0.2506
 6148TIP3   OH218407   6.054   6.044   5.774 -0.1326 -0.1525  0.3002
 6148TIP3    H118408   6.131   6.024   5.826  0.3160 -1.6111 -0.8692
 6148TIP3    H218409   6.085   6.105   5.708 -0.3788  0.5576  0.8233
 6149TIP3   OH218410   2.367   4.802   0.896  0.1019 -0.0942  0.7553
 6149TIP3    H118411   2.399   4.801   0.987 -0.8299 -2.2415  1.0975
 6149TIP3    H218412   2.289   4.857   0.899  0.5753  0.5854  1.0426
 6150TIP3   OH218413   5.180   0.096   2.467  0.0686  0.8867  0.3923
 6150TIP3    H118414   5.233   0.128   2.394 -1.2941  2.3194 -0.0271
 6150TIP3    H218415   5.240   0.094   2.541  1.2320  0.3413 -0.5348
 6151TIP3   OH218416   3.103   3.642   5.637  0.2285 -0.5998  0.0768
 6151TIP3    H118417   3.154   3.608   5.563  0.2802 -0.5278  0.0793
 6151TIP3    H218418   3.017   3.600   5.629 -0.1106  0.2025 -0.6237
 6152TIP3   OH218419   5.445   3.581   3.429 -0.3114 -0.3492  0.6308
 6152TIP3    H118420   5.476   3.666   3.461 -0.2229  0.3815 -1.2599
 6152TIP3    H218421   5.388   3.548   3.498  1.6215  0.0608  2.5057
 6153TIP3   OH218422   2.794   3.241   0.581  0.0699  0.0979  0.0319
 6153TIP3    H118423   2.779   3.321   0.631 -0.5675  0.2690 -0.4264
 6153TIP3    H218424   2.866   3.264   0.521  0.5698  0.0113  0.5917
 6154TIP3   OH218425   3.519   6.346   1.180 -0.1833 -0.0693 -0.0039
 6154TIP3    H118426   3.470   6.340   1.098 -0.9418  2.3546  0.1958
 6154TIP3    H218427   3.516   6.439   1.203  2.9440 -0.0903  1.0002
 6155TIP3   OH218428   0.286   0.512   3.926  0.5609  0.1582  0.1014
 6155TIP3    H118429   0.353   0.577   3.949  0.4016  1.3217 -2.4690
 6155TIP3    H218430   0.208   0.564   3.906 -0.5993 -1.0745  1.2296
 6156TIP3   OH218431   2.038   5.671   4.453  0.3699  0.3247  0.5892
 6156TIP3    H118432   1.950   5.643   4.432  0.8297  0.8411 -2.5231
 6156TIP3    H218433   2.093   5.595   4.435  0.9249  1.1633 -1.4850
 6157TIP3   OH218434   6.117   5.333   3.105  0.3390  0.3687 -0.2153
 6157TIP3    H118435   6.063   5.371   3.174  0.0640  1.0567 -0.8013
 6157TIP3    H218436   6.205   5.367   3.123  0.4333 -0.1354  0.2895
 6158TIP3   OH218437   0.783   3.653   0.055  0.9993 -0.0915 -0.1768
 6158TIP3    H118438   0.777   3.650  -0.041  0.2819  0.0893 -0.1448
 6158TIP3    H218439   0.819   3.740   0.073 -1.5842  1.0869 -0.2036
 6159TIP3   OH218440   3.885   2.997   1.019  0.8172  0.1251  0.4160
 6159TIP3    H118441   3.794   3.005   0.991  1.1608  0.7729 -0.5509
 6159TIP3    H218442   3.884   3.021   1.112  0.1384  0.9817  0.1883
 6160TIP3   OH218443   6.341   5.416   4.913 -0.7146 -0.4384 -0.3197
 6160TIP3    H118444   6.362   5.443   4.824  1.7115  1.2742  0.6642
 6160TIP3    H218445   6.354   5.321   4.913  0.3439 -0.3180 -1.5285
 6161TIP3   OH218446   6.930   4.854   4.781  0.7670 -0.4440 -0.3475
 6161TIP3    H118447   6.982   4.833   4.703  2.2629  1.8140 -0.0763
 6161TIP3    H218448   6.854   4.901   4.747  0.3037 -1.3522 -0.5755
 6162TIP3   OH218449   7.075   6.511   4.825  0.2007 -0.4433 -0.2024
 6162TIP3    H118450   7.117   6.425   4.827  2.5506  0.5193 -2.2463
 6162TIP3    H218451   7.110   6.556   4.902  0.4901 -0.6933 -0.1848
 6163TIP3   OH218452   2.167   4.409   3.488 -0.0306 -0.0898 -0.2464
 6163TIP3    H118453   2.100   4.439   3.551 -0.3842 -2.6315  0.7064
 6163TIP3    H218454   2.204   4.330   3.529  0.4331 -1.2707 -2.7867
 6164TIP3   OH218455   0.746   6.430   5.774  0.5274 -0.2108  1.0742
 6164TIP3    H118456   0.839   6.454   5.778  0.5925 -0.2801  0.1785
 6164TIP3    H218457   0.724   6.437   5.681 -0.2493 -0.6210  1.2257
 6165TIP3   OH218458   5.023   1.816   2.793  0.2612  0.1197 -0.3114
 6165TIP3    H118459   5.086   1.766   2.741 -0.0736 -0.1423 -0.4638
 6165TIP3    H218460   4.937   1.784   2.765  0.0910 -0.6983  1.0728
 6166TIP3   OH218461   5.896   6.635   5.765  0.5240  0.7284  0.0929
 6166TIP3    H118462   5.904   6.627   5.670 -0.5392 -3.4337  0.1523
 6166TIP3    H218463   5.809   6.674   5.779 -0.7044 -1.4848 -0.7934
 6167TIP3   OH218464   3.888   6.388   5.374 -0.0419  0.1111 -0.1277
 6167TIP3    H118465   3.862   6.415   5.462 -1.2380  1.8428 -0.9471
 6167TIP3    H218466   3.983   6.378   5.378  0.2205  2.4102  0.8262
 6168TIP3   OH218467   0.079   5.822   3.707  0.3958 -0.2832 -0.2202
 6168TIP3    H118468   0.161   5.868   3.693  0.4401 -0.3646 -0.2258
 6168TIP3    H218469   0.086   5.743   3.654 -0.8823  1.0966 -2.6141
 6169TIP3   OH218470   3.903   6.301   4.772 -0.1942 -0.0118  0.2686
 6169TIP3    H118471   3.918   6.385   4.814  0.0407  0.0842 -0.0072
 6169TIP3    H218472   3.825   6.314   4.717 -1.2671 -0.4843  1.6284
 6170TIP3   OH218473   4.771   3.314   4.931  0.2781 -0.3977  0.2345
 6170TIP3    H118474   4.816   3.313   4.847  0.7441  2.0238  0.3680
 6170TIP3    H218475   4.840   3.338   4.994 -0.1238 -1.8709  1.2909
 6171TIP3   OH218476   5.316   4.968   4.135  0.2784  0.1496  0.5617
 6171TIP3    H118477   5.260   4.980   4.212 -0.6133 -1.5712  0.2483
 6171TIP3    H218478   5.350   5.055   4.116 -1.5418  1.0954  1.3691
 6172TIP3   OH218479   6.030   4.997   4.558  0.0183 -0.1932  0.5846
 6172TIP3    H118480   5.937   4.978   4.552 -0.2798  1.4069 -0.3679
 6172TIP3    H218481   6.040   5.084   4.519  2.1446 -1.0480 -1.0504
 6173TIP3   OH218482   0.252   1.976   4.717  0.7271  0.5670 -0.3546
 6173TIP3    H118483   0.214   1.955   4.631 -0.3009 -0.4737  0.3313
 6173TIP3    H218484   0.319   1.909   4.730  1.3963  1.1689 -0.6579
 6174TIP3   OH218485   0.470   0.543   4.583 -0.0994 -0.6896  0.3489
 6174TIP3    H118486   0.419   0.491   4.521  1.4828 -3.1421  0.9860
 6174TIP3    H218487   0.525   0.598   4.528 -1.7904  0.4028 -0.3411
 6175TIP3   OH218488   6.246   4.295   3.331  0.4113  0.1984  0.5452
 6175TIP3    H118489   6.171   4.339   3.373  0.0573 -0.0798  0.2155
 6175TIP3    H218490   6.320   4.313   3.389 -0.3061 -1.2094  1.9509
 6176TIP3   OH218491   1.900   1.443   4.313  0.3224  0.0087 -0.5997
 6176TIP3    H118492   1.925   1.374   4.376 -2.9204  0.5452  1.5552
 6176TIP3    H218493   1.964   1.513   4.327  0.4104 -0.3927  1.2802
 6177TIP3   OH218494   5.862   2.335   5.739 -0.1031  0.5272  0.4775
 6177TIP3    H118495   5.931   2.271   5.719 -0.7459 -0.6333  1.7180
 6177TIP3    H218496   5.781   2.283   5.739 -0.9846  1.8449 -0.8708
 6178TIP3   OH218497   5.503   4.371   0.278  0.2187 -0.0289  0.4258
 6178TIP3    H118498   5.521   4.280   0.303 -2.7134 -0.4896  1.2879
 6178TIP3    H218499   5.491   4.416   0.362  0.1471  0.7866 -0.0204
 6179TIP3   OH218500   0.488   3.084   1.626 -0.5560  0.2201  0.0262
 6179TIP3    H118501   0.441   3.038   1.695 -0.6979  1.4495  0.7774
 6179TIP3    H218502   0.574   3.102   1.663 -1.1388  2.2695  0.5396
 6180TIP3   OH218503   7.015   3.859   5.522 -0.3405 -1.3881 -0.2582
 6180TIP3    H118504   7.102   3.881   5.554 -0.5210 -0.4533 -0.3895
 6180TIP3    H218505   7.030   3.799   5.449  0.2389 -0.5390 -0.8589
 6181TIP3   OH218506   5.547   1.330   1.277 -0.1384 -0.1126  0.2012
 6181TIP3    H118507   5.469   1.283   1.308 -1.2383  0.9996 -0.7251
 6181TIP3    H218508   5.616   1.307   1.339 -0.9729 -1.8530  0.5225
 6182TIP3   OH218509   5.092   2.296   0.281  0.4242 -0.3296 -0.0033
 6182TIP3    H118510   5.021   2.361   0.280  1.1818  0.5177 -0.7252
 6182TIP3    H218511   5.147   2.322   0.355  1.0033  0.1638 -0.6033
 6183TIP3   OH218512   1.321   4.064   3.618 -0.5350  0.1751  0.6624
 6183TIP3    H118513   1.361   4.050   3.532  1.6447  2.2746  1.2317
 6183TIP3    H218514   1.231   4.090   3.599 -0.7681 -1.5090 -0.8266
 6184TIP3   OH218515   1.263   0.771   0.197 -0.1783  0.5361  0.0061
 6184TIP3    H118516   1.337   0.728   0.153  0.0298 -0.7759  1.5747
 6184TIP3    H218517   1.304   0.838   0.252 -0.0946 -0.5025  1.2316
 6185TIP3   OH218518   4.581   0.771   0.649  0.8629 -0.0689  0.2097
 6185TIP3    H118519   4.634   0.805   0.721  0.4344  0.6558  0.1909
 6185TIP3    H218520   4.561   0.681   0.673 -1.8982  1.0240  2.5307
 6186TIP3   OH218521   1.873   6.669   0.425 -0.1261 -0.1022  0.2244
 6186TIP3    H118522   1.911   6.583   0.406  0.4038  0.1424  0.1635
 6186TIP3    H218523   1.821   6.690   0.347 -1.1389 -0.8381  0.6721
 6187TIP3   OH218524   5.209   2.684   2.521 -0.1339 -0.2359 -0.6925
 6187TIP3    H118525   5.237   2.731   2.443  1.6766  0.3741  0.2718
 6187TIP3    H218526   5.244   2.595   2.511 -1.4405 -0.7090 -1.3618
 6188TIP3   OH218527   4.591   3.066   2.916 -0.6342  0.1843  0.8116
 6188TIP3    H118528   4.498   3.076   2.898 -0.8776 -1.5907  0.8537
 6188TIP3    H218529   4.596   2.996   2.981  0.7591 -0.2361  0.3053
 6189TIP3   OH218530   3.527   2.862   4.787  0.0132 -0.5966  0.4011
 6189TIP3    H118531   3.534   2.781   4.839  1.0393 -0.7048  0.1227
 6189TIP3    H218532   3.434   2.872   4.770 -0.2114 -1.2675  1.1571
 6190TIP3   OH218533   0.375   6.248   0.794 -0.4358  0.2105 -1.1581
 6190TIP3    H118534   0.398   6.159   0.819 -1.2395 -0.1036 -1.4775
 6190TIP3    H218535   0.412   6.258   0.706  0.0601  0.3617 -0.9341
 6191TIP3   OH218536   2.323   5.864   4.551  0.0736  0.2123  0.0889
 6191TIP3    H118537   2.277   5.784   4.576  0.5215 -0.1330 -0.2043
 6191TIP3    H218538   2.378   5.839   4.477  0.4753  0.7084  0.2167
 6192TIP3   OH218539   7.059   3.710   0.552  0.3925  0.6105  0.1419
 6192TIP3    H118540   6.965   3.724   0.561  0.4025  1.0321 -0.3683
 6192TIP3    H218541   7.096   3.739   0.635  0.3646  3.2316 -0.6722
 6193TIP3   OH218542   6.859   2.303   4.894  0.1846  0.0514  0.2728
 6193TIP3    H118543   6.832   2.354   4.817  0.7459 -0.0257  0.0201
 6193TIP3    H218544   6.826   2.215   4.877  1.7335 -0.3825 -0.6843
 6194TIP3   OH218545   7.064   1.658   2.049  0.5000  0.1592  0.0329
 6194TIP3    H118546   7.015   1.709   2.114  1.1286  0.0676  0.6020
 6194TIP3    H218547   7.014   1.667   1.968 -0.6812 -0.2973  0.6896
 6195TIP3   OH218548   0.668   0.012   0.988 -0.1812  0.3968 -0.4157
 6195TIP3    H118549   0.675   0.107   0.996 -0.0587  0.5485 -1.9990
 6195TIP3    H218550   0.635  -0.017   1.073 -0.5958  1.8922 -0.0381
 6196TIP3   OH218551   2.542   3.707   1.727 -0.0361  0.3488 -0.0400
 6196TIP3    H118552   2.532   3.742   1.639  1.2595  0.7479 -0.0423
 6196TIP3    H218553   2.602   3.632   1.717 -0.0720  0.2487  0.4664
 6197TIP3   OH218554   5.615   4.844   0.749  0.3584  0.0556  0.2344
 6197TIP3    H118555   5.565   4.915   0.788  0.9355  0.3785  0.3951
 6197TIP3    H218556   5.619   4.777   0.816 -0.5684 -0.3205 -0.0745
 6198TIP3   OH218557   2.106   5.799   1.743  0.1463  0.2436  0.0286
 6198TIP3    H118558   2.034   5.740   1.763  0.1681  0.0023 -0.5833
 6198TIP3    H218559   2.129   5.779   1.652  1.8192 -0.5791  0.5940
 6199TIP3   OH218560   2.672   6.176   4.816 -0.2670 -0.2608  0.3140
 6199TIP3    H118561   2.727   6.146   4.889 -1.0975 -0.9153  0.6794
 6199TIP3    H218562   2.600   6.114   4.813 -1.1697  0.7749  0.0413
 6200TIP3   OH218563   4.873   5.905   1.728 -0.5533 -0.0642 -0.5513
 6200TIP3    H118564   4.805   5.928   1.792  0.4858  1.6350  0.0227
 6200TIP3    H218565   4.825   5.891   1.646 -1.7188 -0.3679  0.1554
 6201TIP3   OH218566   0.121   3.040   3.415  0.1562  0.0594  0.3489
 6201TIP3    H118567   0.031   3.062   3.391 -0.3971 -0.7699  1.5600
 6201TIP3    H218568   0.175   3.107   3.372 -1.1495  1.3470  0.6689
 6202TIP3   OH218569   4.644   3.980   3.740  0.1489  0.5765 -0.7283
 6202TIP3    H118570   4.675   4.069   3.723  1.5461 -0.1070 -1.9508
 6202TIP3    H218571   4.576   3.965   3.674 -0.3935  0.8519 -0.2510
 6203TIP3   OH218572  -0.024   4.017   3.766  0.4009  0.3165 -0.0464
 6203TIP3    H118573   0.038   4.084   3.795 -2.3922  3.4369 -0.6372
 6203TIP3    H218574   0.006   3.992   3.679  1.8093  0.3015  0.4173
 6204TIP3   OH218575   6.242   1.465   1.845  0.8396 -0.7498  0.2000
 6204TIP3    H118576   6.266   1.443   1.755 -0.9665 -1.1613 -0.2300
 6204TIP3    H218577   6.213   1.382   1.883  1.6990 -0.6050  1.2223
 6205TIP3   OH218578   6.563   0.984   0.477 -0.2982 -0.4099 -0.1493
 6205TIP3    H118579   6.639   1.004   0.423 -0.9566 -2.5079 -1.9816
 6205TIP3    H218580   6.559   1.057   0.539  1.3313  1.4121 -2.0064
 6206TIP3   OH218581   0.666   4.971   4.173 -0.6593 -0.0631 -0.6018
 6206TIP3    H118582   0.644   4.888   4.217 -0.0516 -0.3110 -0.7562
 6206TIP3    H218583   0.725   4.945   4.103 -1.2693  0.3865 -1.2919
 6207TIP3   OH218584   3.561   3.902   3.150  0.0906  0.0855 -0.0721
 6207TIP3    H118585   3.624   3.850   3.199  0.5646 -0.1841 -0.9446
 6207TIP3    H218586   3.556   3.985   3.197  1.2218  0.1734 -0.0909
 6208TIP3   OH218587   4.787   5.457   5.819 -0.2616  0.1291 -0.2980
 6208TIP3    H118588   4.785   5.502   5.734  0.1323  0.6824 -0.0172
 6208TIP3    H218589   4.870   5.485   5.858 -0.0527 -0.7668 -0.0790
 6209TIP3   OH218590   0.217   0.972   0.595 -0.6227 -0.4610  0.6439
 6209TIP3    H118591   0.286   0.914   0.628 -0.4740 -0.2908  0.6301
 6209TIP3    H218592   0.211   0.951   0.502  0.1946  0.3261  0.4097
 6210TIP3   OH218593   7.048   0.939   2.767  0.3310  0.5954  0.3169
 6210TIP3    H118594   6.982   0.887   2.814  1.0617  1.2973  2.1908
 6210TIP3    H218595   7.130   0.921   2.813  0.8181  2.4414  0.2429
 6211TIP3   OH218596   0.693   0.346   3.059  0.1679 -0.4395  0.1559
 6211TIP3    H118597   0.671   0.394   2.979 -0.5780 -0.2542  0.4661
 6211TIP3    H218598   0.640   0.267   3.056 -0.0174 -0.3348  0.5602
 6212TIP3   OH218599   3.194   0.466   1.291  0.2672  0.3618 -0.4859
 6212TIP3    H118600   3.184   0.554   1.254  0.3045 -0.1184 -1.6797
 6212TIP3    H218601   3.194   0.408   1.215 -1.1907 -0.8160  0.3564
 6213TIP3   OH218602   4.894   4.550   5.365 -0.1099  0.0126 -0.3987
 6213TIP3    H118603   4.822   4.611   5.351  2.1527  3.2581  0.8960
 6213TIP3    H218604   4.894   4.534   5.460  0.3151 -0.6713 -0.5061
 6214TIP3   OH218605   6.334   1.472   0.375  0.1467 -0.1526 -0.3987
 6214TIP3    H118606   6.282   1.395   0.396  0.2670 -0.5651 -1.5421
 6214TIP3    H218607   6.302   1.500   0.290  0.2422  0.9554 -0.0788
 6215TIP3   OH218608   2.814   4.317   4.825  0.0584 -0.5903 -0.1688
 6215TIP3    H118609   2.879   4.354   4.884 -1.3461  0.4439  0.8042
 6215TIP3    H218610   2.763   4.257   4.880 -0.6090 -0.4125 -0.5749
 6216TIP3   OH218611   1.634   4.793   3.464 -0.0494 -0.4542  0.1241
 6216TIP3    H118612   1.708   4.842   3.498 -0.9438  2.0012 -1.2348
 6216TIP3    H218613   1.626   4.820   3.373 -2.7205 -0.4237  0.2716
 6217TIP3   OH218614   0.663   6.755   2.512  0.9140  0.1478 -0.2427
 6217TIP3    H118615   0.726   6.816   2.550 -3.4355  2.8514  3.7653
 6217TIP3    H218616   0.662   6.681   2.573  0.0968  0.2453 -0.1269
 6218TIP3   OH218617   0.856  -0.025   5.807 -0.3972 -0.1086 -0.3899
 6218TIP3    H118618   0.894   0.053   5.848  2.3211 -0.9741 -1.0718
 6218TIP3    H218619   0.799   0.009   5.738 -2.1459  1.2845  1.6224
 6219TIP3   OH218620   5.917   1.167   2.836 -0.0116  0.3744  0.1255
 6219TIP3    H118621   5.877   1.221   2.768 -3.0036 -1.6919  0.0657
 6219TIP3    H218622   5.977   1.110   2.789 -2.6189 -1.5779 -1.1040
 6220TIP3   OH218623   4.842   2.133   2.558 -0.4277  0.0875  0.1795
 6220TIP3    H118624   4.789   2.054   2.546 -0.1569  0.1462 -1.7705
 6220TIP3    H218625   4.781   2.205   2.539 -0.3874  0.3036  0.8454
 6221TIP3   OH218626   6.649   3.707   3.316  0.4042  0.3470  0.2058
 6221TIP3    H118627   6.558   3.734   3.304 -0.2061 -1.2561  0.9364
 6221TIP3    H218628   6.686   3.706   3.228  0.0209  1.9205 -0.0140
 6222TIP3   OH218629   5.257   4.751   4.669 -0.3774  0.0242 -0.1955
 6222TIP3    H118630   5.264   4.698   4.748  1.5971 -1.2926 -1.1750
 6222TIP3    H218631   5.180   4.717   4.624  0.6160 -1.8336 -0.6009
 6223TIP3   OH218632   6.305   5.867   1.106 -0.4409  0.7171  0.4154
 6223TIP3    H118633   6.261   5.885   1.023 -0.6379  0.1568  0.3894
 6223TIP3    H218634   6.396   5.891   1.091 -0.5560  1.0130  0.1713
 6224TIP3   OH218635   0.200   1.600   4.758  0.3309  0.1075  0.5336
 6224TIP3    H118636   0.127   1.662   4.760  0.7654  0.7027 -0.7775
 6224TIP3    H218637   0.278   1.656   4.752  0.6357 -0.4726 -3.3444
 6225TIP3   OH218638   1.796   1.830   3.596  0.0293  0.4396  0.6233
 6225TIP3    H118639   1.767   1.819   3.687 -0.9816  0.5517  0.3319
 6225TIP3    H218640   1.756   1.912   3.568  0.0094  0.2104 -0.0408
 6226TIP3   OH218641   0.227   6.802   0.895  0.4972  0.0214  0.1568
 6226TIP3    H118642   0.247   6.780   0.986  1.0400 -2.1727 -0.4160
 6226TIP3    H218643   0.198   6.719   0.856 -3.4060  1.6023 -0.8018
 6227TIP3   OH218644   2.463   2.596   3.402 -0.4806  0.2576 -0.0798
 6227TIP3    H118645   2.554   2.609   3.377  0.0459 -0.1546  1.5219
 6227TIP3    H218646   2.414   2.660   3.350  1.0062  2.2767  0.8832
 6228TIP3   OH218647   0.307   3.455   5.688  0.3673  0.3655  0.0421
 6228TIP3    H118648   0.353   3.519   5.743  0.7739 -0.4932  0.7425
 6228TIP3    H218649   0.214   3.476   5.699  0.5325  1.4720 -0.5622
 6229TIP3   OH218650   5.963   6.115   3.026 -0.0795  0.1986 -0.2495
 6229TIP3    H118651   5.907   6.191   3.012  0.2652  0.3750 -0.6731
 6229TIP3    H218652   5.918   6.044   2.979  0.8005  0.6695 -1.8726
 6230TIP3   OH218653   3.399   2.047   2.914 -0.0130 -0.1804  0.1593
 6230TIP3    H118654   3.436   2.131   2.941 -0.3558 -0.4931  1.6968
 6230TIP3    H218655   3.384   1.999   2.996  0.2626 -1.7891 -0.6774
 6231TIP3   OH218656   1.172   2.595   4.622 -0.0849 -0.6643 -0.3338
 6231TIP3    H118657   1.122   2.649   4.684  0.5845  0.7802 -1.0065
 6231TIP3    H218658   1.177   2.648   4.543  3.2574 -0.3211 -0.0232
 6232TIP3   OH218659   0.434   3.033   0.710  0.2038 -0.2382 -0.5086
 6232TIP3    H118660   0.439   3.016   0.616  0.4059  0.2500 -0.5870
 6232TIP3    H218661   0.423   2.946   0.749  1.3047 -0.5804 -0.9033
 6233TIP3   OH218662   2.956   5.621   4.983  0.2819  0.1983  0.0712
 6233TIP3    H118663   3.029   5.665   4.940 -0.9608  1.2373 -1.0809
 6233TIP3    H218664   2.929   5.682   5.052 -0.6038  0.6664 -0.6692
 6234TIP3   OH218665   0.445   6.086   3.971 -0.0541  0.3776  0.3242
 6234TIP3    H118666   0.458   6.097   4.065 -1.9162  1.1157  0.5489
 6234TIP3    H218667   0.521   6.127   3.931  0.2576  0.9993  1.4922
 6235TIP3   OH218668   4.032   2.164   1.388 -0.1356  0.0621 -0.1097
 6235TIP3    H118669   3.967   2.096   1.372 -2.2880  1.9620  0.0444
 6235TIP3    H218670   4.040   2.168   1.483  0.8399 -0.6980 -0.1481
 6236TIP3   OH218671   4.087   1.921   1.163 -0.1151  0.5904  0.0840
 6236TIP3    H118672   4.145   1.965   1.100  2.3978 -1.6192  0.6266
 6236TIP3    H218673   4.000   1.930   1.126  0.7330  2.8008 -1.6218
 6237TIP3   OH218674   1.832   5.727   3.839  0.0370 -0.3470 -0.5673
 6237TIP3    H118675   1.927   5.723   3.839  0.1360  1.4811 -0.8033
 6237TIP3    H218676   1.805   5.635   3.839  1.7773 -0.9019 -0.0382
 6238TIP3   OH218677   4.438   6.676   3.790  0.3152 -0.9212  0.4312
 6238TIP3    H118678   4.532   6.656   3.797  0.3735 -0.1487  2.3485
 6238TIP3    H218679   4.405   6.668   3.879 -1.4521 -1.1108 -0.2036
 6239TIP3   OH218680   2.659   1.609   5.627  0.1610  0.0047 -0.3295
 6239TIP3    H118681   2.636   1.571   5.712 -2.1233  0.5122 -0.6691
 6239TIP3    H218682   2.672   1.533   5.570  1.7319 -0.3392  0.4203
 6240TIP3   OH218683   7.206   3.894   5.284  0.0638  0.8430  0.8596
 6240TIP3    H118684   7.165   3.956   5.344 -1.6925 -0.4343  1.0683
 6240TIP3    H218685   7.159   3.812   5.299  0.1064  0.2724 -1.6712
 6241TIP3   OH218686   0.851   5.450   3.781 -0.5959 -0.0448 -0.0108
 6241TIP3    H118687   0.944   5.456   3.761 -0.3333 -2.9114 -0.1092
 6241TIP3    H218688   0.847   5.438   3.876 -0.9444  0.8574  0.0989
 6242TIP3   OH218689   6.796   4.622   1.841 -0.1797  0.2355  0.1644
 6242TIP3    H118690   6.838   4.701   1.874  3.4577 -1.6980  0.6637
 6242TIP3    H218691   6.772   4.573   1.919  1.7318 -1.0762 -0.0110
 6243TIP3   OH218692   5.852   1.063   5.248  0.1507  0.6389  0.1504
 6243TIP3    H118693   5.862   1.121   5.324 -0.2405  1.4270 -0.3727
 6243TIP3    H218694   5.805   0.987   5.282 -0.0925  1.0160  0.6897
 6244TIP3   OH218695   3.129   2.492   2.515 -0.1134  0.3211  0.2557
 6244TIP3    H118696   3.169   2.502   2.428 -0.7645  0.0727 -0.0772
 6244TIP3    H218697   3.036   2.506   2.500 -0.1569  0.8903  1.0323
 6245TIP3   OH218698   4.120   5.142   4.312 -0.3794  0.1683 -0.0292
 6245TIP3    H118699   4.155   5.084   4.244  1.4968  1.8842 -0.5992
 6245TIP3    H218700   4.044   5.094   4.347 -0.3215 -1.5578 -2.0687
 6246TIP3   OH218701   1.330   0.277   4.224  0.1153  0.0557  0.1982
 6246TIP3    H118702   1.319   0.262   4.130  0.9606 -0.4662  0.1776
 6246TIP3    H218703   1.338   0.372   4.231 -1.5533  0.2509 -0.0690
 6247TIP3   OH218704   3.718   3.331   2.657  0.6580  0.6422 -0.1444
 6247TIP3    H118705   3.642   3.383   2.684  1.1837  0.7562  1.2289
 6247TIP3    H218706   3.684   3.242   2.649  0.0981  0.9124 -0.9225
 6248TIP3   OH218707   2.431   2.285   5.289 -0.0554 -0.1054 -0.0466
 6248TIP3    H118708   2.415   2.370   5.330 -1.6872  1.4454 -3.4976
 6248TIP3    H218709   2.347   2.240   5.293  0.1248 -0.4904 -0.4818
 6249TIP3   OH218710   2.114   3.254   5.791 -0.1125  0.3066 -0.2001
 6249TIP3    H118711   2.209   3.254   5.795 -0.1439 -0.1129  1.5477
 6249TIP3    H218712   2.087   3.188   5.856 -1.5864  1.7311  0.7253
 6250TIP3   OH218713   0.403   2.743   0.777  0.1954 -0.2149  0.5282
 6250TIP3    H118714   0.359   2.729   0.693  1.4476  0.4336 -0.2678
 6250TIP3    H218715   0.494   2.759   0.754  0.3729  1.0240  1.9225
 6251TIP3   OH218716   4.200   1.075   0.539  0.3927  0.8892  0.2227
 6251TIP3    H118717   4.273   1.013   0.535 -0.9307 -0.6754 -1.1214
 6251TIP3    H218718   4.228   1.149   0.486  0.9661  0.2603 -0.3752
 6252TIP3   OH218719   1.348   0.091   5.338 -0.0823 -0.2003  0.1503
 6252TIP3    H118720   1.337   0.184   5.318  0.1447 -0.3705 -0.7867
 6252TIP3    H218721   1.348   0.047   5.253 -2.9763 -1.3865  0.6610
 6253TIP3   OH218722   7.115   6.572   2.190 -0.0278  0.4148 -0.2921
 6253TIP3    H118723   7.187   6.522   2.228 -0.3526  0.0218 -0.1746
 6253TIP3    H218724   7.067   6.605   2.266  0.5149  1.4035 -0.3709
 6254TIP3   OH218725   1.896   2.546   1.000 -0.2761 -0.5222 -0.3350
 6254TIP3    H118726   1.905   2.465   0.950  0.4492  0.6639 -2.2315
 6254TIP3    H218727   1.949   2.609   0.953  0.4467  0.7065  1.9865
 6255TIP3   OH218728   2.269   4.132   3.189 -0.2175 -0.6384  0.3624
 6255TIP3    H118729   2.186   4.177   3.201 -0.0380 -0.0045 -0.6598
 6255TIP3    H218730   2.306   4.169   3.109  0.9047 -1.1379  0.6199
 6256TIP3   OH218731   6.551   4.197   4.068  0.6315 -0.4078 -0.0295
 6256TIP3    H118732   6.507   4.274   4.032  1.1752  0.2129  0.5963
 6256TIP3    H218733   6.610   4.232   4.135  2.4814 -1.1371 -1.1908
 6257TIP3   OH218734   1.265   6.187   2.184 -0.6864  1.0467  0.0776
 6257TIP3    H118735   1.303   6.100   2.181  2.9868  2.4348  0.8663
 6257TIP3    H218736   1.291   6.228   2.101  0.3302  2.2857  0.9540
 6258TIP3   OH218737   4.444   6.361   1.473  0.7941  0.1188  0.4670
 6258TIP3    H118738   4.518   6.336   1.418  1.1936 -0.1092  1.0989
 6258TIP3    H218739   4.379   6.293   1.459  0.0133  1.1778 -1.3686
 6259TIP3   OH218740   0.219   0.886   0.344 -0.2061  0.1692 -0.2827
 6259TIP3    H118741   0.304   0.864   0.305 -0.5862  0.7137 -1.4579
 6259TIP3    H218742   0.155   0.870   0.274 -0.7620  2.6058 -0.4222
 6260TIP3   OH218743   0.649   3.196   3.772  0.2200 -0.2360 -0.1207
 6260TIP3    H118744   0.634   3.236   3.857  0.1688 -0.1087 -0.1890
 6260TIP3    H218745   0.691   3.112   3.791 -0.3495 -0.4848  0.0629
 6261TIP3   OH218746   6.541   6.479   1.152 -0.1539 -0.6716  0.0344
 6261TIP3    H118747   6.453   6.513   1.140 -0.0540 -0.5042 -0.2276
 6261TIP3    H218748   6.575   6.527   1.227 -0.0435 -0.2515 -0.2825
 6262TIP3   OH218749   5.794   3.726   2.075  0.1400  0.2317 -0.0409
 6262TIP3    H118750   5.875   3.776   2.081  0.7612 -0.8234  0.6314
 6262TIP3    H218751   5.771   3.729   1.982  1.4176 -0.1817 -0.3868
 6263TIP3   OH218752   2.441   5.450   2.140 -0.1595 -0.1178 -0.1544
 6263TIP3    H118753   2.456   5.470   2.232  0.7905  3.7201 -0.9899
 6263TIP3    H218754   2.353   5.411   2.138 -0.9490  1.3286  2.2102
 6264TIP3   OH218755   4.796   4.770   2.659  0.4270  0.6633 -0.0856
 6264TIP3    H118756   4.837   4.806   2.738  0.8900 -0.9097  0.4341
 6264TIP3    H218757   4.861   4.784   2.590  1.3032 -0.5712  0.4479
 6265TIP3   OH218758   0.389   4.149   0.861 -0.1665  0.6706  0.4353
 6265TIP3    H118759   0.465   4.195   0.896 -0.9094  1.3697  1.1754
 6265TIP3    H218760   0.391   4.063   0.904 -0.0489  0.8586  0.8090
 6266TIP3   OH218761   0.240   0.721   2.655 -0.7010 -0.3846  0.3668
 6266TIP3    H118762   0.295   0.796   2.631 -0.4083 -0.4337  0.8762
 6266TIP3    H218763   0.179   0.756   2.720 -0.5828 -0.5788  0.5829
 6267TIP3   OH218764   4.551   4.327   5.001 -0.2723  0.0781  0.2340
 6267TIP3    H118765   4.511   4.410   5.028 -0.0476  0.5514 -0.8344
 6267TIP3    H218766   4.633   4.322   5.052 -1.0845 -0.3258  1.5525
 6268TIP3   OH218767   4.419   5.884   4.439 -0.0459 -0.4500 -0.4593
 6268TIP3    H118768   4.369   5.956   4.400  0.4220 -0.7030 -1.5728
 6268TIP3    H218769   4.391   5.882   4.530 -0.2699  0.9651 -0.4674
 6269TIP3   OH218770   2.295   3.330   1.340  0.4986 -0.0127 -0.7003
 6269TIP3    H118771   2.215   3.277   1.338  1.3255 -1.2584 -1.0781
 6269TIP3    H218772   2.286   3.389   1.265 -0.2652  0.1748 -0.4790
 6270TIP3   OH218773   6.480   1.847   2.401 -0.2613  0.7883 -0.6285
 6270TIP3    H118774   6.450   1.896   2.324  1.8344  1.0541 -1.3692
 6270TIP3    H218775   6.536   1.909   2.448 -0.7330  0.3097  0.5714
 6271TIP3   OH218776   0.993   4.751   5.677 -0.0452  0.2845  0.0748
 6271TIP3    H118777   1.005   4.781   5.586  0.5290  0.4275  0.1942
 6271TIP3    H218778   1.040   4.667   5.681  0.8913  0.8129  0.5284
 6272TIP3   OH218779   1.794   5.482   0.347  0.1929 -0.4138  0.4498
 6272TIP3    H118780   1.879   5.506   0.384  0.0940  0.9424 -0.1372
 6272TIP3    H218781   1.801   5.507   0.255 -0.5798 -1.0152  0.2226
 6273TIP3   OH218782   4.444   5.219   5.054 -0.4240 -0.1268 -0.0456
 6273TIP3    H118783   4.509   5.281   5.020  0.2330  0.0109  1.4139
 6273TIP3    H218784   4.465   5.136   5.010  0.2516  0.0976 -0.1611
 6274TIP3   OH218785   0.458   4.350   2.214  0.1039  0.3448  0.1922
 6274TIP3    H118786   0.439   4.342   2.307  0.5708  0.9441  0.3473
 6274TIP3    H218787   0.494   4.438   2.204  0.2909  0.1980 -0.5140
 6275TIP3   OH218788   3.037   6.133   3.560 -0.0801  0.0154 -0.4576
 6275TIP3    H118789   2.970   6.200   3.548  0.1584  0.0486 -1.8437
 6275TIP3    H218790   2.999   6.054   3.522 -0.3782 -0.6827  1.2091
 6276TIP3   OH218791   5.929   3.617   5.025 -0.3844 -0.5256  0.4070
 6276TIP3    H118792   5.944   3.655   5.111  0.7913 -0.1460  0.0552
 6276TIP3    H218793   5.890   3.688   4.974 -0.2502 -0.4683  0.3822
 6277TIP3   OH218794   5.528   4.734   1.768  0.2753 -0.6734 -0.2967
 6277TIP3    H118795   5.538   4.745   1.862 -4.5698  2.0433  0.2447
 6277TIP3    H218796   5.513   4.641   1.756  2.5089 -1.3125  1.2900
 6278TIP3   OH218797   4.972   3.185   1.931 -0.6244 -0.0447 -0.5327
 6278TIP3    H118798   4.947   3.129   2.004 -0.2537  0.8171  0.2718
 6278TIP3    H218799   4.908   3.256   1.933 -1.2574 -0.5473 -1.7141
 6279TIP3   OH218800   5.291   3.542   2.403  0.1736  0.2669  0.0240
 6279TIP3    H118801   5.339   3.460   2.390 -0.2836 -0.1595  0.9485
 6279TIP3    H218802   5.353   3.598   2.451  0.0654  0.0362  0.4353
 6280TIP3   OH218803   3.424   6.279   1.694  0.1612 -0.5207 -0.2179
 6280TIP3    H118804   3.398   6.221   1.622  0.1048 -0.8442  0.0586
 6280TIP3    H218805   3.497   6.330   1.659 -1.1821  0.8068 -1.2074
 6281TIP3   OH218806   5.804   2.356   2.588  0.1643  0.6724  0.0016
 6281TIP3    H118807   5.814   2.323   2.677  0.8255  1.9143  0.4075
 6281TIP3    H218808   5.856   2.296   2.534  0.4462  0.4047  0.5637
 6282TIP3   OH218809   0.757   3.756   2.567 -0.2911  0.6498 -0.2825
 6282TIP3    H118810   0.815   3.680   2.561 -0.6147  0.3623  0.1619
 6282TIP3    H218811   0.808   3.820   2.617 -0.2293  0.5233 -0.1822
 6283TIP3   OH218812   5.898   4.001   4.854  0.2396  0.0651 -0.0358
 6283TIP3    H118813   5.987   3.989   4.823  0.8914 -0.2777  1.8221
 6283TIP3    H218814   5.861   3.913   4.857  0.2505  0.0703  0.3201
 6284TIP3   OH218815   2.523   6.153   4.055 -0.2336  0.2264 -0.0863
 6284TIP3    H118816   2.584   6.170   3.982 -0.0425 -0.8794 -0.2166
 6284TIP3    H218817   2.550   6.067   4.088 -0.8151  0.3722  0.7988
 6285TIP3   OH218818   7.163   0.259   3.418  0.0802  0.6232 -0.1585
 6285TIP3    H118819   7.232   0.321   3.395  2.0947 -0.9901  1.1275
 6285TIP3    H218820   7.197   0.174   3.391 -0.3246 -0.5133  2.5084
 6286TIP3   OH218821   5.630   3.945   3.210  0.2955  0.5624 -0.2660
 6286TIP3    H118822   5.674   3.909   3.287  1.8565  1.4946 -0.6731
 6286TIP3    H218823   5.620   4.038   3.229  0.5262  0.7704 -1.0911
 6287TIP3   OH218824   0.244   3.995   3.147 -0.3915 -0.0764 -0.3844
 6287TIP3    H118825   0.333   3.995   3.111 -0.1270 -0.8370  0.2540
 6287TIP3    H218826   0.223   4.088   3.157 -0.0838  0.1344 -1.5318
 6288TIP3   OH218827   3.584   1.707   4.011 -0.2658 -0.6932  0.1120
 6288TIP3    H118828   3.643   1.731   3.940  0.2552  0.4189  0.8937
 6288TIP3    H218829   3.498   1.701   3.969 -0.2970  1.7789 -0.3372
 6289TIP3   OH218830   2.192   6.726   4.769 -0.1834  0.1318 -0.1746
 6289TIP3    H118831   2.182   6.814   4.806 -1.4229 -0.0221 -0.1051
 6289TIP3    H218832   2.109   6.683   4.788  0.5713 -1.2123  0.1865
 6290TIP3   OH218833   5.599   5.294   5.666 -0.1513 -0.2425 -0.5421
 6290TIP3    H118834   5.625   5.202   5.674  0.9665  0.0789 -0.3132
 6290TIP3    H218835   5.658   5.331   5.600  0.8845  0.8115  0.8937
 6291TIP3   OH218836   0.648   2.450   5.843 -0.2391 -0.1649 -0.6519
 6291TIP3    H118837   0.717   2.498   5.797 -1.5777  1.4984 -1.0006
 6291TIP3    H218838   0.635   2.371   5.790  0.9266 -0.1847 -0.9404
 6292TIP3   OH218839   1.978   4.349   2.338  0.1055  0.1253  0.2833
 6292TIP3    H118840   1.964   4.382   2.249  0.3216 -2.0199 -0.6144
 6292TIP3    H218841   1.889   4.337   2.373 -0.0248 -0.1523 -0.1240
 6293TIP3   OH218842   3.814   1.408   2.641 -0.2239  0.0476  0.4682
 6293TIP3    H118843   3.733   1.363   2.617  0.8612 -1.3285 -0.7666
 6293TIP3    H218844   3.794   1.501   2.627 -0.7056 -0.4398 -2.7748
 6294TIP3   OH218845   0.369   0.427   3.401  0.0812 -0.0355 -0.0127
 6294TIP3    H118846   0.433   0.487   3.363 -1.6827  1.7346 -0.4199
 6294TIP3    H218847   0.400   0.411   3.490  0.6818  1.4520  0.0726
 6295TIP3   OH218848   3.816   0.178   1.149 -0.2445 -0.1769  0.0904
 6295TIP3    H118849   3.796   0.271   1.143  0.3156  0.0966  2.0937
 6295TIP3    H218850   3.738   0.135   1.113 -0.0610  1.0225 -1.9274
 6296TIP3   OH218851   6.801   1.800   4.815 -0.8760  0.1163 -0.3252
 6296TIP3    H118852   6.824   1.791   4.722 -1.7095  0.5564 -0.5926
 6296TIP3    H218853   6.758   1.717   4.837  0.0960 -0.3361 -0.0794
 6297TIP3   OH218854   1.993   4.446   5.360  0.0637  0.5913 -0.5869
 6297TIP3    H118855   1.926   4.504   5.324 -0.8851 -0.7809 -1.1084
 6297TIP3    H218856   2.076   4.489   5.339 -0.5519  1.0211 -2.2731
 6298TIP3   OH218857   3.443   1.547   5.099  0.3438 -0.6792  0.6080
 6298TIP3    H118858   3.467   1.527   5.008 -0.1979 -2.1336  0.7536
 6298TIP3    H218859   3.373   1.485   5.120  0.8997 -0.8155  2.2224
 6299TIP3   OH218860   4.171   5.841   1.657  0.2739 -0.4564  0.5067
 6299TIP3    H118861   4.087   5.883   1.675 -0.4684 -2.0281  0.9043
 6299TIP3    H218862   4.234   5.913   1.657 -0.9131  0.6373  1.2182
 6300TIP3   OH218863   5.152   0.526   3.188  0.1085 -0.6369 -0.3588
 6300TIP3    H118864   5.153   0.621   3.198  0.9955 -0.5826 -0.8940
 6300TIP3    H218865   5.145   0.512   3.093  1.1146 -1.0894 -0.3787
 6301TIP3   OH218866   0.415   4.893   3.391 -0.5967 -0.6694  0.1523
 6301TIP3    H118867   0.363   4.874   3.313 -1.0293  2.1838 -0.3509
 6301TIP3    H218868   0.493   4.937   3.358 -0.6791  0.3836  1.3141
 6302TIP3   OH218869   6.518   3.370   3.859  0.2845  0.0752  0.1687
 6302TIP3    H118870   6.573   3.324   3.796  0.9544  0.3535  0.5329
 6302TIP3    H218871   6.541   3.462   3.848  0.3042  0.1391  0.7070
 6303TIP3   OH218872   3.982   5.003   4.539 -0.5274  0.5533 -0.3955
 6303TIP3    H118873   3.967   4.987   4.632 -2.2675 -0.4752 -0.8140
 6303TIP3    H218874   3.996   5.098   4.533 -0.3009  0.6183  0.9122
 6304TIP3   OH218875   6.364   0.746   1.538  0.0399  0.2724 -0.3745
 6304TIP3    H118876   6.339   0.656   1.514  0.1299  0.4452 -1.1147
 6304TIP3    H218877   6.375   0.791   1.455  2.3832  0.3402 -0.0981
 6305TIP3   OH218878   6.262   6.665   3.033  0.0958  0.5282 -0.2134
 6305TIP3    H118879   6.326   6.621   3.090  2.2862  1.1006 -2.0538
 6305TIP3    H218880   6.273   6.758   3.052 -1.0551  0.5878  0.2423
 6306TIP3   OH218881   2.912   1.105   4.709  0.1612  0.0308 -0.1613
 6306TIP3    H118882   2.908   1.115   4.613 -0.6031  0.7258 -0.0700
 6306TIP3    H218883   2.958   1.183   4.739 -1.3043  0.8045  0.1717
 6307TIP3   OH218884   2.404   6.207   2.791  0.5003  0.1628 -0.4724
 6307TIP3    H118885   2.331   6.266   2.778  0.2849 -0.1118 -0.5211
 6307TIP3    H218886   2.480   6.264   2.801  0.2047  0.4725  0.0921
 6308TIP3   OH218887   5.374   1.681   1.802  0.4963  0.5270  0.1589
 6308TIP3    H118888   5.317   1.703   1.876 -2.5144 -2.8012 -0.8850
 6308TIP3    H218889   5.363   1.754   1.741  0.0859  1.5667  1.4369
 6309TIP3   OH218890   6.955   1.396   0.191 -0.2966  0.0111  0.4673
 6309TIP3    H118891   6.902   1.318   0.177 -1.4506  0.8610 -0.0881
 6309TIP3    H218892   6.952   1.412   0.285  0.5438 -0.9987  0.6818
 6310TIP3   OH218893   5.043   4.344   1.034  0.4770  0.3091  0.4686
 6310TIP3    H118894   5.082   4.257   1.036 -0.0892 -0.0364 -1.2902
 6310TIP3    H218895   5.098   4.397   1.092 -0.2475 -1.5988  3.0725
 6311TIP3   OH218896   5.823   2.208   1.706 -0.0304 -0.0728 -0.2664
 6311TIP3    H118897   5.734   2.186   1.734 -0.3028  0.7605 -0.4653
 6311TIP3    H218898   5.812   2.245   1.618  0.2658  1.9504  0.4917
 6312TIP3   OH218899   3.672   5.422   4.398 -0.5743  0.2150  0.1992
 6312TIP3    H118900   3.700   5.348   4.452 -0.4041  0.0244 -0.1484
 6312TIP3    H218901   3.576   5.420   4.402 -0.6040 -0.6165 -0.5882
 6313TIP3   OH218902   1.980   5.872   4.052  0.2816 -0.2649  0.1047
 6313TIP3    H118903   2.038   5.862   4.127 -0.4922  0.5359  0.8293
 6313TIP3    H218904   2.016   5.946   4.003 -1.8206  2.4081  2.2696
 6314TIP3   OH218905   3.776   6.505   0.469 -0.1110 -0.3201  0.3525
 6314TIP3    H118906   3.732   6.570   0.413  0.3641 -0.4129 -0.1334
 6314TIP3    H218907   3.831   6.556   0.527  0.4318 -0.2919 -0.1777
 6315TIP3   OH218908   3.784   4.206   1.005 -0.1866 -0.4262 -0.0522
 6315TIP3    H118909   3.842   4.282   1.012  0.1578 -0.5077 -1.7286
 6315TIP3    H218910   3.736   4.206   1.088 -1.1133  2.3551 -0.4844
 6316TIP3   OH218911   4.514   4.742   4.537 -0.0332  0.1259  0.3801
 6316TIP3    H118912   4.598   4.718   4.495 -0.7621 -0.2939 -0.9124
 6316TIP3    H218913   4.512   4.690   4.617  1.4068  0.9354  0.9710
 6317TIP3   OH218914   4.538   3.947   4.466 -0.3684 -0.6575  0.0554
 6317TIP3    H118915   4.624   3.981   4.490  0.5028 -1.1061 -2.1911
 6317TIP3    H218916   4.510   4.001   4.392 -1.3766 -1.4242 -0.1483
 6318TIP3   OH218917   7.105   3.427   1.710 -0.5132 -0.5123  0.0191
 6318TIP3    H118918   7.027   3.414   1.658 -0.0956 -0.4400 -0.6326
 6318TIP3    H218919   7.164   3.478   1.654 -0.7060  1.0617  1.1677
 6319TIP3   OH218920   5.594   3.156   5.200 -0.1249 -0.3795  0.0614
 6319TIP3    H118921   5.630   3.153   5.112  0.5941 -2.2521  0.3601
 6319TIP3    H218922   5.569   3.065   5.218 -2.0640  0.3047  1.0772
 6320TIP3   OH218923   5.003   2.828   3.364  0.2034 -0.0790 -0.1403
 6320TIP3    H118924   4.994   2.923   3.360 -0.9371 -0.2175 -2.2618
 6320TIP3    H218925   5.064   2.807   3.293 -1.0327 -1.0511 -0.9625
 6321TIP3   OH218926   1.424   6.314   1.804  0.2804  0.0544 -0.2159
 6321TIP3    H118927   1.440   6.223   1.779  0.3935  0.7333 -2.9450
 6321TIP3    H218928   1.384   6.353   1.726  0.5107  2.4267  0.7776
 6322TIP3   OH218929   1.431   4.072   5.803 -0.6159  0.1655  0.4603
 6322TIP3    H118930   1.525   4.056   5.813 -0.6559 -1.4759 -1.1587
 6322TIP3    H218931   1.425   4.151   5.750 -0.0689 -0.5426 -0.7020
 6323TIP3   OH218932   3.159   6.048   5.435  0.0004  0.0355  0.1682
 6323TIP3    H118933   3.200   6.121   5.482 -0.0556  0.3111 -0.2115
 6323TIP3    H218934   3.216   5.973   5.454  0.7946  0.4562 -0.5052
 6324TIP3   OH218935   6.046   2.892   0.548 -0.2499 -0.1255 -0.3327
 6324TIP3    H118936   6.071   2.838   0.473  1.4573 -0.9406  0.7545
 6324TIP3    H218937   6.020   2.976   0.509 -0.7693 -0.9532 -1.8997
 6325TIP3   OH218938   1.666   3.450   1.777 -0.1507  0.1411 -0.4494
 6325TIP3    H118939   1.598   3.512   1.803 -0.7951  0.6530 -3.1088
 6325TIP3    H218940   1.738   3.467   1.838 -1.0150  2.1922  0.0891
 6326TIP3   OH218941   4.245   1.491   1.359  0.3951 -0.2525  0.7963
 6326TIP3    H118942   4.231   1.585   1.359 -0.5531 -0.3626  1.9564
 6326TIP3    H218943   4.288   1.472   1.276  1.2883  1.2870  0.8850
 6327TIP3   OH218944   1.482   5.165   1.606 -0.4860  0.3280 -0.0020
 6327TIP3    H118945   1.420   5.099   1.637 -0.5780 -0.2230 -1.2920
 6327TIP3    H218946   1.562   5.116   1.588 -0.0147  0.8571  0.6140
 6328TIP3   OH218947   5.710   1.088   1.378  0.0777 -1.1143  0.1430
 6328TIP3    H118948   5.653   1.031   1.326  1.2193 -1.5599 -0.6650
 6328TIP3    H218949   5.685   1.071   1.469 -1.2576 -1.0861 -0.1911
 6329TIP3   OH218950   5.839   5.669   5.308  0.0905  0.0152  0.0662
 6329TIP3    H118951   5.910   5.647   5.367 -0.2659 -0.3547  0.3615
 6329TIP3    H218952   5.834   5.594   5.248 -1.4655 -1.0129  1.3942
 6330TIP3   OH218953   6.514   4.129   4.615  0.0305  0.0131  0.2883
 6330TIP3    H118954   6.582   4.067   4.639 -0.5328  0.0398  2.0879
 6330TIP3    H218955   6.448   4.077   4.569  0.9637 -0.1066 -0.9854
 6331TIP3   OH218956   1.089   2.215   4.246 -0.4678 -0.1580 -1.0450
 6331TIP3    H118957   1.141   2.293   4.228  1.3014 -1.0329  0.0886
 6331TIP3    H218958   1.008   2.249   4.284  0.7611  1.1128  0.5722
 6332TIP3   OH218959   2.325   1.707   1.067  0.0063 -0.2056 -0.3008
 6332TIP3    H118960   2.345   1.637   1.129 -1.1173 -0.3419 -0.0582
 6332TIP3    H218961   2.315   1.785   1.122 -0.1591 -0.1532 -0.4051
 6333TIP3   OH218962   6.998   3.019   2.247 -0.1172  0.1107 -0.1872
 6333TIP3    H118963   6.932   3.052   2.186 -2.4567  1.6467  2.8708
 6333TIP3    H218964   7.051   3.095   2.269 -0.3612 -0.0086  0.8706
 6334TIP3   OH218965   3.161   2.676   1.484  0.3823  0.2153  0.3886
 6334TIP3    H118966   3.095   2.745   1.492 -0.9865 -1.1405  1.5805
 6334TIP3    H218967   3.121   2.601   1.528  2.2243 -1.0414  0.0002
 6335TIP3   OH218968   7.049   3.581   1.471 -0.2705  0.6121  0.1598
 6335TIP3    H118969   7.113   3.621   1.411  1.2168  1.4717  2.1910
 6335TIP3    H218970   6.964   3.598   1.431  0.7015 -1.0412 -2.9430
 6336TIP3   OH218971   6.873   2.847   1.839 -0.3171 -0.3309 -0.3967
 6336TIP3    H118972   6.930   2.924   1.839  0.8836 -1.1868 -0.1026
 6336TIP3    H218973   6.811   2.863   1.767  1.6453 -0.3234 -2.1871
 6337TIP3   OH218974   2.504   4.014   2.328  0.3182  0.2043  0.6075
 6337TIP3    H118975   2.548   4.042   2.247 -2.6069  1.2656 -0.7411
 6337TIP3    H218976   2.455   3.936   2.303  0.7219 -0.4910  1.8762
 6338TIP3   OH218977   3.839   2.719   3.492 -0.5533  0.4536  0.2483
 6338TIP3    H118978   3.926   2.730   3.455 -0.8502  1.0687 -0.3035
 6338TIP3    H218979   3.832   2.626   3.510 -1.3032 -0.4327 -3.6999
 6339TIP3   OH218980   1.148   2.869   5.274  0.0513  0.1676  0.5292
 6339TIP3    H118981   1.088   2.919   5.330  0.6540 -0.2344  1.5579
 6339TIP3    H218982   1.202   2.819   5.335  0.0115 -1.1235 -0.4454
 6340TIP3   OH218983   0.451   4.566   0.019 -0.2553 -0.3248  0.2082
 6340TIP3    H118984   0.474   4.648   0.062  1.0749 -0.7785  0.4004
 6340TIP3    H218985   0.402   4.593  -0.059 -0.9134  0.5803  0.9109
 6341TIP3   OH218986   1.551   5.066   2.995 -0.3277  0.3104 -0.3680
 6341TIP3    H118987   1.570   5.092   2.905  0.0074  1.4399  0.0085
 6341TIP3    H218988   1.489   4.993   2.987  0.3529 -0.1600 -1.5186
 6342TIP3   OH218989   0.026   6.242   5.449  0.3447  0.0486  0.0012
 6342TIP3    H118990  -0.025   6.316   5.415 -1.2942 -1.2508 -0.5234
 6342TIP3    H218991   0.017   6.247   5.544 -1.2581 -0.4335 -0.0933
 6343TIP3   OH218992   1.941   1.349   1.905  0.3354  0.0958  0.1483
 6343TIP3    H118993   1.863   1.316   1.861 -0.4671  1.2767  0.6516
 6343TIP3    H218994   1.935   1.314   1.994 -0.6631  1.7211  0.7687
 6344TIP3   OH218995   4.571   1.021   2.153  0.1432 -0.1986  0.0622
 6344TIP3    H118996   4.577   1.050   2.062 -1.3289 -1.0128 -0.3328
 6344TIP3    H218997   4.661   1.004   2.179  0.6914  1.0372 -0.8942
 6345TIP3   OH218998   6.871   4.893   4.495 -0.6199  0.1113 -0.4608
 6345TIP3    H118999   6.902   4.943   4.419  2.5385 -1.8591 -0.6541
 6345TIP3    H219000   6.950   4.850   4.528 -2.4736 -1.5620  2.0742
 6346TIP3   OH219001   0.991   5.791   0.490 -0.4305  0.0958 -0.1421
 6346TIP3    H119002   1.055   5.749   0.432 -0.4582  0.6172 -0.5651
 6346TIP3    H219003   1.038   5.864   0.529 -0.5419  0.0079  0.1612
 6347TIP3   OH219004   0.359   4.928   3.889 -0.0188  0.5844  0.0342
 6347TIP3    H119005   0.405   4.846   3.873  0.9272  1.6350 -3.6295
 6347TIP3    H219006   0.267   4.903   3.899  0.5780 -1.0760  2.1524
 6348TIP3   OH219007   5.041   4.054   2.659 -0.3973  0.1679  0.0424
 6348TIP3    H119008   5.055   4.143   2.691 -2.8778  1.3418 -1.8105
 6348TIP3    H219009   5.044   3.999   2.737  0.6445  1.9121  1.2965
 6349TIP3   OH219010   1.667   0.872   0.359  0.5745  0.2544 -0.5537
 6349TIP3    H119011   1.727   0.915   0.420 -0.7827  2.8614 -0.9000
 6349TIP3    H219012   1.688   0.779   0.366  2.4512  0.7490  1.6694
 6350TIP3   OH219013   3.270   0.759   3.025  0.1045  0.2791  0.1889
 6350TIP3    H119014   3.334   0.819   3.063  0.5581 -0.0990  0.0370
 6350TIP3    H219015   3.222   0.812   2.962 -0.4112  0.8244  1.0180
 6351TIP3   OH219016   0.754   2.735   3.562 -0.2705  0.1989 -0.0862
 6351TIP3    H119017   0.727   2.819   3.523 -0.0185  0.8955  1.1790
 6351TIP3    H219018   0.672   2.696   3.592 -0.2856  0.4793  0.2445
 6352TIP3   OH219019   5.065   1.377   1.962 -0.4980 -0.5629  0.2156
 6352TIP3    H119020   5.004   1.421   1.902  0.6468 -0.3100 -0.8184
 6352TIP3    H219021   5.102   1.448   2.014 -0.2093 -0.5595  0.0088
 6353TIP3   OH219022   6.288   0.588   3.541 -0.3530  0.3202  0.1696
 6353TIP3    H119023   6.236   0.535   3.602 -1.4575  0.6090 -0.4964
 6353TIP3    H219024   6.325   0.524   3.480 -1.0789  0.2169 -0.1840
 6354TIP3   OH219025   3.330   5.027   1.677  0.0203  0.1856  0.0979
 6354TIP3    H119026   3.298   5.117   1.668  1.4490  0.6823 -0.3199
 6354TIP3    H219027   3.347   5.016   1.770 -2.3762 -0.4948  0.5300
 6355TIP3   OH219028   3.580   0.760   0.070  0.0471 -0.9777 -0.6091
 6355TIP3    H119029   3.548   0.845   0.101 -1.1043 -0.8070 -2.1098
 6355TIP3    H219030   3.647   0.734   0.133 -0.0462  0.7350  0.2441
 6356TIP3   OH219031   6.453   0.871   2.371  0.6283 -0.1194  0.8481
 6356TIP3    H119032   6.521   0.938   2.381  0.8839 -0.4682  1.5261
 6356TIP3    H219033   6.497   0.789   2.397 -0.0033 -0.3748  1.1214
 6357TIP3   OH219034   6.900   3.491   1.137 -0.0747  0.1992  0.4821
 6357TIP3    H119035   6.979   3.451   1.174 -0.2803  0.9617  1.7606
 6357TIP3    H219036   6.912   3.585   1.150 -0.6523  0.4083 -0.4236
 6358TIP3   OH219037   0.354   0.763   4.921 -0.2644 -0.0272 -0.0208
 6358TIP3    H119038   0.394   0.749   5.006 -1.4851 -0.0266  0.5818
 6358TIP3    H219039   0.411   0.718   4.859  1.0750  0.6612  0.6904
 6359TIP3   OH219040   2.454   0.036   4.959 -0.5717 -0.0577  0.0326
 6359TIP3    H119041   2.435  -0.052   4.993 -0.2273 -0.4168 -0.6814
 6359TIP3    H219042   2.522   0.070   5.016 -0.1493 -0.5725 -0.1559
 6360TIP3   OH219043   5.528   0.612   5.334  0.0448 -0.4623 -0.3255
 6360TIP3    H119044   5.445   0.606   5.285 -0.9019 -1.6002  1.3112
 6360TIP3    H219045   5.532   0.531   5.384  0.9266  0.6472  1.5217
 6361TIP3   OH219046   0.475   2.259   3.548 -0.3450 -0.3814  0.2550
 6361TIP3    H119047   0.384   2.288   3.535  0.4915  2.0916 -0.6615
 6361TIP3    H219048   0.489   2.267   3.642 -0.6192  0.8196  0.2145
 6362TIP3   OH219049   4.776   4.920   2.080 -0.1819 -0.0849  0.7174
 6362TIP3    H119050   4.813   4.997   2.124 -0.3979 -0.6942  2.0219
 6362TIP3    H219051   4.720   4.879   2.146 -0.1411 -1.3194  0.0283
 6363TIP3   OH219052   5.781   1.116   4.356  0.0594 -0.4530 -0.1540
 6363TIP3    H119053   5.708   1.120   4.294  0.9369 -2.2719 -1.3867
 6363TIP3    H219054   5.853   1.161   4.312  0.9506 -2.5084 -0.9407
 6364TIP3   OH219055   3.330   2.495   3.670 -0.6598 -0.1941  0.1064
 6364TIP3    H119056   3.331   2.443   3.750  2.1596  0.3158  0.4901
 6364TIP3    H219057   3.396   2.456   3.614 -0.7809  1.0109 -0.9327
 6365TIP3   OH219058   6.119   3.012   4.260  0.4351 -0.3513 -0.4472
 6365TIP3    H119059   6.174   2.992   4.184 -0.1921 -0.4451 -0.8870
 6365TIP3    H219060   6.106   3.107   4.256  2.2890 -0.0024  0.8640
 6366TIP3   OH219061   2.072   3.787   2.912  0.3191  0.6645 -0.2141
 6366TIP3    H119062   1.980   3.761   2.904 -0.0300  0.8903  2.4576
 6366TIP3    H219063   2.076   3.874   2.871  0.1927 -0.7531 -3.5665
 6367TIP3   OH219064   5.237   5.552   0.477 -0.3396  0.1955 -0.0303
 6367TIP3    H119065   5.177   5.486   0.443  0.5267 -0.2519 -0.7370
 6367TIP3    H219066   5.245   5.616   0.406  0.2890  0.0652 -0.0851
 6368TIP3   OH219067   5.414   1.451   0.107  0.1404 -0.0456  0.3846
 6368TIP3    H119068   5.413   1.521   0.173  0.8062  1.1080 -0.7678
 6368TIP3    H219069   5.507   1.432   0.094  0.3492  2.3351 -2.7528
 6369TIP3   OH219070   0.630   2.072   2.383  0.4769 -0.3483  0.2208
 6369TIP3    H119071   0.593   2.086   2.470  0.6600  1.0068  0.1001
 6369TIP3    H219072   0.574   2.004   2.344 -1.0586  0.6928  0.5279
 6370TIP3   OH219073   2.527   4.122   5.177  0.4988  0.8350 -0.8328
 6370TIP3    H119074   2.588   4.130   5.251 -0.3634 -1.6488  0.2749
 6370TIP3    H219075   2.443   4.152   5.212  0.3037  0.6236 -1.1144
 6371TIP3   OH219076   3.650   2.250   3.676 -0.2157 -0.4595  0.4599
 6371TIP3    H119077   3.567   2.236   3.631  0.3276 -0.3167 -0.6120
 6371TIP3    H219078   3.700   2.170   3.663  0.5053  0.1175 -0.4439
 6372TIP3   OH219079   0.948   6.730   1.629  0.4387 -0.6038  0.4680
 6372TIP3    H119080   1.020   6.744   1.690  1.2389  2.6575 -1.0108
 6372TIP3    H219081   0.876   6.782   1.664 -0.3466 -1.7151  0.5489
 6373TIP3   OH219082   3.365   3.841   3.438  0.4300  0.3588  0.1127
 6373TIP3    H119083   3.293   3.877   3.489  0.3056  0.8047 -0.3699
 6373TIP3    H219084   3.325   3.771   3.387  0.9803 -1.6454  2.2646
 6374TIP3   OH219085   2.459   2.376   1.062  0.3804  0.1730 -0.0881
 6374TIP3    H119086   2.552   2.357   1.074  0.0657 -0.4107  1.8419
 6374TIP3    H219087   2.440   2.443   1.128 -0.6513  0.0325 -0.2261
 6375TIP3   OH219088   2.843   4.360   1.826  0.0508 -0.0928  0.5589
 6375TIP3    H119089   2.904   4.346   1.898  0.5620 -0.3542  0.0856
 6375TIP3    H219090   2.760   4.323   1.856  0.5442 -1.1932  0.5996
 6376TIP3   OH219091   5.745   6.721   3.338 -0.0137 -0.1890 -0.1324
 6376TIP3    H119092   5.828   6.706   3.292 -1.3112 -2.2855 -2.0208
 6376TIP3    H219093   5.681   6.732   3.268 -1.7767 -1.5758  1.1688
 6377TIP3   OH219094   7.009   4.209   2.358  0.1563 -0.1147 -0.0372
 6377TIP3    H119095   6.968   4.243   2.438 -0.7730  0.5614 -0.7726
 6377TIP3    H219096   6.943   4.152   2.320  1.2666 -1.8605  0.5591
 6378TIP3   OH219097   0.431   1.677   2.873  0.1385 -0.0139  0.8149
 6378TIP3    H119098   0.475   1.610   2.820  1.3497  2.3410 -1.4080
 6378TIP3    H219099   0.339   1.652   2.871  0.4442 -1.2146 -0.5652
 6379TIP3   OH219100   1.743   2.622   3.747  0.1717 -0.2409  0.3465
 6379TIP3    H119101   1.761   2.618   3.841 -2.0354  0.4614  0.8525
 6379TIP3    H219102   1.740   2.531   3.719  1.0462 -0.4520  0.9107
 6380TIP3   OH219103   0.413   6.445   5.562  0.2601  0.3895  0.3181
 6380TIP3    H119104   0.331   6.490   5.579 -0.3061 -0.5452  0.1357
 6380TIP3    H219105   0.467   6.509   5.516 -1.2229  0.2939 -1.6811
 6381TIP3   OH219106   2.287   3.263   4.921 -0.2079 -0.2234 -0.3121
 6381TIP3    H119107   2.231   3.190   4.894 -0.3237 -0.2761  0.0590
 6381TIP3    H219108   2.301   3.249   5.015  1.8492 -1.1601 -0.7095
 6382TIP3   OH219109   0.397   3.334   1.964 -0.1591  0.1437  0.2202
 6382TIP3    H119110   0.319   3.355   1.912  1.6757  2.3277 -1.8335
 6382TIP3    H219111   0.392   3.394   2.039 -0.4502  0.2616  0.1097
 6383TIP3   OH219112   6.101   2.046   3.164 -0.3567 -0.6891  0.4243
 6383TIP3    H119113   6.177   2.022   3.217  0.3486 -1.0455 -0.7134
 6383TIP3    H219114   6.086   1.969   3.108 -0.0379  0.2852 -1.0615
 6384TIP3   OH219115   3.352   4.741   2.215  0.5740 -0.0950  0.0839
 6384TIP3    H119116   3.400   4.775   2.139 -1.0254  2.3425  0.0602
 6384TIP3    H219117   3.280   4.690   2.177  0.1128  0.6386 -0.0428
 6385TIP3   OH219118   0.857   4.892   5.033  0.7998 -0.6493 -0.4842
 6385TIP3    H119119   0.937   4.939   5.056 -0.5257  1.4385  0.1345
 6385TIP3    H219120   0.824   4.858   5.116  0.3692 -0.3850 -0.5484
 6386TIP3   OH219121   5.173   5.026   3.622  0.4275  0.4151 -0.2548
 6386TIP3    H119122   5.086   5.015   3.661  1.1684  0.1747  1.4373
 6386TIP3    H219123   5.197   5.116   3.642  0.7185  0.3726 -0.4108
 6387TIP3   OH219124   5.390   1.772   1.366  0.0956 -0.0705  0.1020
 6387TIP3    H119125   5.312   1.720   1.382  0.1298  0.3739  1.9715
 6387TIP3    H219126   5.366   1.831   1.294 -0.8451 -0.8083 -0.2032
 6388TIP3   OH219127   5.428   0.375   3.574 -0.3664  0.0673 -0.2935
 6388TIP3    H119128   5.408   0.364   3.481 -0.4465 -0.7354 -0.1872
 6388TIP3    H219129   5.345   0.400   3.614 -0.1286  1.4254 -0.5754
 6389TIP3   OH219130   2.775   5.013   3.228 -0.1198  0.3535 -0.5891
 6389TIP3    H119131   2.757   5.009   3.134 -1.6584 -1.1768 -0.2868
 6389TIP3    H219132   2.795   5.105   3.246  1.4252  0.4803 -2.5836
 6390TIP3   OH219133   6.902   0.024   5.121  0.0027 -0.2957 -0.0937
 6390TIP3    H119134   6.876   0.042   5.030  0.4270 -0.2227 -0.2037
 6390TIP3    H219135   6.991   0.059   5.127  0.0019 -0.3665  0.3319
 6391TIP3   OH219136   4.319   4.189   1.842 -0.1643 -0.0675 -0.4654
 6391TIP3    H119137   4.352   4.198   1.752 -0.7451  0.0457 -0.6719
 6391TIP3    H219138   4.370   4.252   1.893 -0.1496  0.1970 -0.8023
 6392TIP3   OH219139   6.395   1.066   2.774  0.6029 -0.2277 -0.3813
 6392TIP3    H119140   6.383   0.971   2.762 -0.1229 -0.2285  0.2897
 6392TIP3    H219141   6.325   1.092   2.833 -1.5574  1.4344 -3.4160
 6393TIP3   OH219142   6.359   3.257   2.193  0.8272 -0.1751  0.5756
 6393TIP3    H119143   6.357   3.299   2.279  0.5875 -0.3866  0.6735
 6393TIP3    H219144   6.270   3.225   2.180  0.8859 -0.2218  0.2856
 6394TIP3   OH219145   0.114   5.950   3.110  0.1268 -0.0434  0.2199
 6394TIP3    H119146   0.097   5.956   3.016 -1.6415 -1.5792  0.3901
 6394TIP3    H219147   0.039   5.991   3.151  1.5854  1.9802  1.0208
 6395TIP3   OH219148   7.201   1.271   3.208 -0.0270 -0.2380  0.3750
 6395TIP3    H119149   7.140   1.205   3.241 -0.0864 -0.7141 -0.6275
 6395TIP3    H219150   7.242   1.307   3.286 -1.2668 -0.2185  1.0528
 6396TIP3   OH219151   3.340   1.661   3.791 -0.5675 -0.1765  0.4014
 6396TIP3    H119152   3.273   1.700   3.736 -0.2039 -0.2929 -0.1347
 6396TIP3    H219153   3.385   1.598   3.733  1.7937  1.8370 -0.1139
 6397TIP3   OH219154   4.748   0.721   0.427  0.3281  0.0097  0.0920
 6397TIP3    H119155   4.773   0.694   0.515 -0.3504 -0.8617  0.0384
 6397TIP3    H219156   4.670   0.776   0.440  0.8474  0.7582  0.0983
 6398TIP3   OH219157   5.814   0.821   5.592 -0.3776 -0.5873 -0.1701
 6398TIP3    H119158   5.903   0.854   5.600  0.1382 -1.8045 -0.6222
 6398TIP3    H219159   5.792   0.792   5.681 -0.0392 -0.9415 -0.1952
 6399TIP3   OH219160   3.580   0.441   1.723 -0.2147  0.1619  0.5865
 6399TIP3    H119161   3.515   0.371   1.731 -0.3169  0.2012  0.1287
 6399TIP3    H219162   3.639   0.411   1.653  0.9946 -0.4523  1.8064
 6400TIP3   OH219163   6.964   3.282   5.402 -0.2933  0.1407  0.4683
 6400TIP3    H119164   6.906   3.306   5.329 -1.0991 -1.8561  0.3738
 6400TIP3    H219165   6.930   3.332   5.477  1.3183  3.1834 -0.6947
 6401TIP3   OH219166   1.474   6.634   3.881 -0.1922  0.0718  0.0075
 6401TIP3    H119167   1.383   6.639   3.850 -0.1117 -0.1596 -0.2695
 6401TIP3    H219168   1.498   6.542   3.871  0.3765  0.3017 -0.7968
 6402TIP3   OH219169   3.680   3.159   3.616  0.4381  0.0873 -0.0454
 6402TIP3    H119170   3.584   3.151   3.622  0.4088 -0.3877 -1.0982
 6402TIP3    H219171   3.694   3.222   3.545  0.9134  0.1299  0.0845
 6403TIP3   OH219172   5.415   1.522   1.603  0.2650  0.9428  0.0266
 6403TIP3    H119173   5.397   1.578   1.678 -0.8152  0.1732  0.3515
 6403TIP3    H219174   5.346   1.542   1.540  0.1112  0.2706 -0.0231
 6404TIP3   OH219175   2.072   5.682   3.275  0.6909  0.1745  0.1482
 6404TIP3    H119176   2.023   5.654   3.197 -0.6874 -1.6689  1.6001
 6404TIP3    H219177   2.163   5.684   3.245 -0.0006  2.2857 -2.2363
 6405TIP3   OH219178   6.549   4.365   1.876 -0.0340 -0.5364  0.1074
 6405TIP3    H119179   6.593   4.403   1.952 -0.7804  0.2278  0.1793
 6405TIP3    H219180   6.556   4.433   1.808  1.1022 -1.4221 -0.6971
 6406TIP3   OH219181   5.909   3.180   1.267  0.1443  0.1181  0.0701
 6406TIP3    H119182   5.831   3.222   1.231  1.1227  0.2591 -2.0140
 6406TIP3    H219183   5.890   3.086   1.264 -1.5897  0.1959  3.6705
 6407TIP3   OH219184   2.521   1.791   1.778 -0.6276 -0.1156  0.2282
 6407TIP3    H119185   2.475   1.799   1.695 -1.3313  1.8075  0.7596
 6407TIP3    H219186   2.454   1.763   1.841 -0.7956  1.3115  0.7165
 6408TIP3   OH219187   6.756   2.954   4.603 -0.3162 -0.0197  0.3285
 6408TIP3    H119188   6.832   2.896   4.609 -0.5668 -0.2229  2.4713
 6408TIP3    H219189   6.792   3.043   4.609 -0.1425 -0.0659 -0.0576
 6409TIP3   OH219190   0.790   1.919   0.940 -0.1778  0.2331  0.2748
 6409TIP3    H119191   0.746   1.875   0.868  0.6248 -1.4696  0.7751
 6409TIP3    H219192   0.720   1.943   1.001 -0.6089 -0.7720  0.1936
 6410TIP3   OH219193   6.995   4.832   1.986 -0.0300 -0.1364 -0.6256
 6410TIP3    H119194   6.993   4.923   1.957  0.3640 -0.6980 -2.5912
 6410TIP3    H219195   7.088   4.809   1.987 -0.0478 -0.2316  0.9171
 6411TIP3   OH219196   6.669   4.716   4.888  0.1127 -0.3755 -0.0351
 6411TIP3    H119197   6.639   4.734   4.977  0.5853 -1.5319  0.3792
 6411TIP3    H219198   6.605   4.759   4.832 -1.5509 -1.5679  0.8295
 6412TIP3   OH219199   1.662   4.012   4.405  0.4141  0.0774  0.2841
 6412TIP3    H119200   1.636   3.924   4.432  0.1745  0.5309  1.5818
 6412TIP3    H219201   1.581   4.052   4.374  0.2783  0.2406  0.8364
 6413TIP3   OH219202   6.768   1.891   1.565 -0.2592 -0.5007  0.0750
 6413TIP3    H119203   6.846   1.839   1.545  0.8591  0.8718  0.6943
 6413TIP3    H219204   6.733   1.851   1.645 -0.0305 -0.9483 -0.0440
 6414TIP3   OH219205   3.277   6.050   4.872  0.2916  0.4727  0.5390
 6414TIP3    H119206   3.333   6.095   4.810  0.6596 -0.1663  0.3961
 6414TIP3    H219207   3.256   6.116   4.938  1.6164  0.5857  0.8639
 6415TIP3   OH219208  -0.013   0.134   5.213  0.1528 -0.8753 -0.1921
 6415TIP3    H119209   0.079   0.129   5.187 -0.1497  0.2474 -1.6831
 6415TIP3    H219210  -0.014   0.201   5.282  0.2769  0.4702 -1.4278
 6416TIP3   OH219211   0.875   6.372   3.885  0.4020 -0.1114 -0.3195
 6416TIP3    H119212   0.889   6.326   3.802 -1.6480 -0.4284 -0.5648
 6416TIP3    H219213   0.795   6.333   3.921  0.3601  1.1047  1.0348
 6417TIP3   OH219214   4.985   5.987   2.283 -0.1758  0.6405  0.1070
 6417TIP3    H119215   4.891   5.977   2.266 -0.2443  0.9431  0.2911
 6417TIP3    H219216   5.023   5.901   2.263 -0.2724  0.9193 -1.4357
 6418TIP3   OH219217   1.016   0.481   2.809 -0.2366 -0.1236 -1.0380
 6418TIP3    H119218   1.032   0.506   2.718  5.6310 -2.0697 -0.9829
 6418TIP3    H219219   1.006   0.386   2.806 -2.8907  0.0452  0.2487
 6419TIP3   OH219220   3.214   3.621   1.716 -0.0231  0.1998  0.0066
 6419TIP3    H119221   3.282   3.588   1.775  0.3382 -0.8191 -0.9365
 6419TIP3    H219222   3.228   3.715   1.714  1.3190  0.0202 -0.0899
 6420TIP3   OH219223   3.624   4.463   2.977  0.5846  0.4089  0.2888
 6420TIP3    H119224   3.678   4.458   3.055  1.0229 -1.3991 -0.0714
 6420TIP3    H219225   3.600   4.372   2.959 -2.7538  1.1113  0.5303
 6421TIP3   OH219226   3.139   4.483   4.509 -0.3809 -0.2030 -0.4210
 6421TIP3    H119227   3.202   4.413   4.493  0.9689  0.2522  2.3127
 6421TIP3    H219228   3.188   4.564   4.493 -0.2857  0.1463  1.3975
 6422TIP3   OH219229   1.639   2.231   2.117  0.0530 -0.1416  0.2988
 6422TIP3    H119230   1.727   2.261   2.139 -0.1041  2.3676 -1.9984
 6422TIP3    H219231   1.581   2.279   2.176  0.1034  0.3818 -0.0648
 6423TIP3   OH219232   4.094   6.317   5.147 -0.2505 -0.0427  0.4223
 6423TIP3    H119233   4.006   6.284   5.159 -0.8018  0.6397 -1.3672
 6423TIP3    H219234   4.123   6.281   5.063  0.7110  0.6716  0.4168
 6424TIP3   OH219235   2.070   1.307   4.780  0.0526  0.1006  0.2602
 6424TIP3    H119236   2.039   1.344   4.863  0.7136 -0.0492  0.5839
 6424TIP3    H219237   2.059   1.212   4.791 -0.8313  0.1366 -0.2337
 6425TIP3   OH219238   2.926   4.675   3.846 -0.1458 -0.3378 -0.2144
 6425TIP3    H119239   2.885   4.670   3.932 -0.1797 -0.6084 -0.2429
 6425TIP3    H219240   2.955   4.585   3.829  0.7332 -0.0920 -0.0628
 6426TIP3   OH219241   1.801   4.336   3.934  0.1505 -0.7011 -0.5148
 6426TIP3    H119242   1.834   4.255   3.972  1.0029 -0.9302 -1.6561
 6426TIP3    H219243   1.829   4.333   3.842 -1.1799  0.1526 -0.9916
 6427TIP3   OH219244   0.707   4.167   3.187 -0.3796 -0.1891  0.0620
 6427TIP3    H119245   0.704   4.260   3.210 -0.1212 -0.1085 -0.2155
 6427TIP3    H219246   0.665   4.162   3.101 -2.9546 -0.7409  1.2533
 6428TIP3   OH219247   1.000   2.684   1.564 -0.0511 -0.0931  0.0838
 6428TIP3    H119248   0.913   2.693   1.605  0.6640 -0.3892  1.7620
 6428TIP3    H219249   1.031   2.598   1.592  1.3426  0.5688  0.6700
 6429TIP3   OH219250   0.849   4.164   2.064 -0.0615  0.1689 -0.2102
 6429TIP3    H119251   0.935   4.127   2.081  0.4983  1.4344 -0.1794
 6429TIP3    H219252   0.804   4.097   2.011 -0.9134 -2.7150  3.6856
 6430TIP3   OH219253   6.189   4.289   4.399  0.2115 -0.0791 -0.6914
 6430TIP3    H119254   6.139   4.365   4.427  0.3047 -0.3866  0.3309
 6430TIP3    H219255   6.125   4.218   4.397  0.5829 -0.4746  0.6218
 6431TIP3   OH219256   1.314   4.777   4.031  0.2215  0.5712 -0.5603
 6431TIP3    H119257   1.317   4.741   4.119 -0.2894  2.3559  0.2302
 6431TIP3    H219258   1.404   4.804   4.013  0.4010 -0.1234 -0.7613
 6432TIP3   OH219259   4.701   4.806   5.769  0.0944  0.2142 -0.2005
 6432TIP3    H119260   4.622   4.824   5.719  0.5317  0.2353 -0.8860
 6432TIP3    H219261   4.718   4.713   5.754  0.7886  0.4488 -0.9125
 6433TIP3   OH219262   0.229   3.170   2.844  0.3140 -0.0771 -0.0102
 6433TIP3    H119263   0.187   3.222   2.775  0.5541  1.0851  0.6943
 6433TIP3    H219264   0.322   3.175   2.824  0.3471 -0.1424  0.1318
 6434TIP3   OH219265   6.588   3.850   5.229  0.4781 -0.3770  0.0971
 6434TIP3    H119266   6.566   3.942   5.247  1.3729  0.4098 -2.4271
 6434TIP3    H219267   6.505   3.804   5.233 -0.1185  0.7032  0.5147
 6435TIP3   OH219268   2.533   6.080   3.035  0.5158 -0.2848  0.1544
 6435TIP3    H119269   2.464   6.063   3.099  0.2263 -0.2291 -0.1425
 6435TIP3    H219270   2.489   6.127   2.964  0.6097 -1.2741 -0.5787
 6436TIP3   OH219271   2.377   5.647   2.553  0.3464  0.3679 -0.9025
 6436TIP3    H119272   2.344   5.683   2.471  0.4049  0.4810 -0.8780
 6436TIP3    H219273   2.452   5.703   2.575 -0.3543  1.0696 -0.1859
 6437TIP3   OH219274   6.771   3.745   3.616 -0.3728 -0.5835  0.7912
 6437TIP3    H119275   6.703   3.773   3.555 -0.6920  0.1038  1.4422
 6437TIP3    H219276   6.827   3.823   3.626 -0.2438 -0.7373  1.2686
 6438TIP3   OH219277   3.271   2.834   1.184 -0.3962 -0.0118  0.2976
 6438TIP3    H119278   3.179   2.858   1.196 -0.2110  0.6509  0.4400
 6438TIP3    H219279   3.285   2.841   1.090 -0.3640  0.3819  0.3293
 6439TIP3   OH219280   5.582   6.556   0.235  0.3443  0.3005 -0.1241
 6439TIP3    H119281   5.512   6.621   0.231 -0.3949 -0.3567  1.3145
 6439TIP3    H219282   5.545   6.478   0.194  0.3369  0.0451  0.3600
 6440TIP3   OH219283   5.345   1.983   2.850 -0.4248  0.1018  0.2400
 6440TIP3    H119284   5.422   1.963   2.903 -0.3654 -0.6191 -0.1108
 6440TIP3    H219285   5.334   1.907   2.794 -0.5286  0.8146 -0.7409
 6441TIP3   OH219286   7.073   5.727   3.046 -0.2414 -0.0779  0.3080
 6441TIP3    H119287   7.156   5.745   3.000 -1.4524 -0.0594 -2.0222
 6441TIP3    H219288   7.093   5.652   3.101  1.7486  0.9486  1.1115
 6442TIP3   OH219289   0.100   5.066   5.578  0.4502 -0.1596 -0.0915
 6442TIP3    H119290   0.152   5.138   5.615  0.2729  0.9018 -1.7704
 6442TIP3    H219291   0.165   5.008   5.539  0.5312 -0.3306  0.2944
 6443TIP3   OH219292   2.952   4.239   5.698 -0.3628  0.2517  0.0872
 6443TIP3    H119293   2.923   4.152   5.724  1.0059 -0.2992 -0.1856
 6443TIP3    H219294   2.882   4.271   5.640 -0.5418 -0.9549 -0.3875
 6444TIP3   OH219295   6.751   0.373   2.128  0.0217  0.4494 -0.1360
 6444TIP3    H119296   6.750   0.453   2.076 -0.7030  0.6722  0.2026
 6444TIP3    H219297   6.662   0.338   2.120  0.1612 -0.0064  0.2029
 6445TIP3   OH219298   5.513   2.184   4.757 -0.1722 -0.2666  0.4090
 6445TIP3    H119299   5.486   2.172   4.666  1.1054  0.4494 -0.0901
 6445TIP3    H219300   5.573   2.258   4.755  1.4779 -1.4961  1.5114
 6446TIP3   OH219301   2.907   3.003   2.933 -0.9135 -0.6428  0.2948
 6446TIP3    H119302   2.963   2.925   2.941 -0.0052 -0.4663 -2.7942
 6446TIP3    H219303   2.963   3.076   2.959 -0.7086 -0.7537  0.1715
 6447TIP3   OH219304   5.949   5.805   2.165 -0.5026 -0.4600 -0.3234
 6447TIP3    H119305   5.897   5.883   2.145  0.1159 -0.4397 -2.0007
 6447TIP3    H219306   5.970   5.767   2.080  1.7226 -0.7978  0.2956
 6448TIP3   OH219307   6.925   0.412   3.684  0.1911  0.4381 -0.4029
 6448TIP3    H119308   6.885   0.400   3.598  1.2510  0.5974 -0.9345
 6448TIP3    H219309   6.893   0.339   3.736 -1.2901  0.9136 -0.6060
 6449TIP3   OH219310   5.012   3.489   2.656  0.3223  0.1097 -0.2154
 6449TIP3    H119311   5.025   3.544   2.579  2.2821 -1.5291 -1.1594
 6449TIP3    H219312   4.948   3.536   2.709  0.5911  2.3943 -1.7807
 6450TIP3   OH219313   5.161   5.553   5.496  0.3068 -0.2953 -0.5323
 6450TIP3    H119314   5.230   5.618   5.485  0.9346 -0.9028 -0.1964
 6450TIP3    H219315   5.080   5.604   5.491  0.8071  0.8815  2.0092
 6451TIP3   OH219316   2.569   4.793   5.373  0.0093  0.1080  0.1541
 6451TIP3    H119317   2.597   4.772   5.462  0.9270  1.0221  0.0987
 6451TIP3    H219318   2.474   4.801   5.379 -0.1613 -1.7942  0.6217
 6452TIP3   OH219319   4.699   4.882   0.056  0.1723 -0.6994 -0.6115
 6452TIP3    H119320   4.621   4.937   0.045 -0.4377 -1.6940 -1.4202
 6452TIP3    H219321   4.668   4.793   0.039  0.3562 -1.8331  3.7340
 6453TIP3   OH219322   5.268   5.353   1.077  0.3425 -0.5322 -0.0122
 6453TIP3    H119323   5.356   5.373   1.110  0.8279 -1.6387 -0.5851
 6453TIP3    H219324   5.271   5.382   0.986  0.7295 -2.2284 -0.5618
 6454TIP3   OH219325   3.952   0.854   0.901  0.1872 -0.3429 -0.0494
 6454TIP3    H119326   3.948   0.835   0.808  0.1079 -1.2119  0.1186
 6454TIP3    H219327   3.875   0.810   0.938  0.4452 -0.3585  0.4808
 6455TIP3   OH219328   5.153   3.348   2.104  0.7361  0.2782 -0.2494
 6455TIP3    H119329   5.128   3.264   2.142  1.0997  0.0727 -0.4578
 6455TIP3    H219330   5.225   3.327   2.045 -1.6785  0.0911 -3.3858
 6456TIP3   OH219331   0.499   6.204   0.531  0.7875 -0.1370 -0.0656
 6456TIP3    H119332   0.457   6.222   0.447  1.3892 -0.4473 -0.4355
 6456TIP3    H219333   0.496   6.108   0.539  0.3046 -0.0809  0.4914
 6457TIP3   OH219334   2.032   2.398   0.100  0.2662  0.3910  0.5181
 6457TIP3    H119335   2.074   2.481   0.078  1.9891 -0.5768 -0.0191
 6457TIP3    H219336   1.965   2.387   0.031  0.8105  0.7754 -0.0841
 6458TIP3   OH219337   7.202   3.797   0.800 -0.5370  0.2282 -0.2880
 6458TIP3    H119338   7.156   3.868   0.845  0.2562 -0.1719  1.1996
 6458TIP3    H219339   7.276   3.776   0.856 -2.4387 -3.9284  1.0972
 6459TIP3   OH219340   6.319   3.432   2.393  0.4118  0.0334 -0.3585
 6459TIP3    H119341   6.228   3.448   2.417  0.3344  0.3013 -0.8145
 6459TIP3    H219342   6.370   3.478   2.459  0.2005  0.7925 -0.7074
 6460TIP3   OH219343   4.428   5.749   3.263 -0.3866 -0.0610 -0.5839
 6460TIP3    H119344   4.377   5.689   3.317  1.1915 -1.1402 -0.2123
 6460TIP3    H219345   4.447   5.701   3.183 -0.2636  0.4437 -0.8632
 6461TIP3   OH219346   3.591   3.288   2.298  0.2590  0.2347 -0.5070
 6461TIP3    H119347   3.528   3.309   2.367  0.0462  1.2096 -0.9692
 6461TIP3    H219348   3.546   3.225   2.242  0.5496 -0.8024  0.4001
 6462TIP3   OH219349   1.238   3.778   0.569  0.1572 -0.3883  0.3304
 6462TIP3    H119350   1.267   3.690   0.593 -1.6040 -1.4105 -1.0245
 6462TIP3    H219351   1.179   3.804   0.639  1.6553  0.3090  1.3915
 6463TIP3   OH219352   1.868   0.219   2.342 -0.1246  0.6017 -0.2652
 6463TIP3    H119353   1.949   0.195   2.297  0.4839  0.0532  1.0671
 6463TIP3    H219354   1.893   0.288   2.403 -0.5776  0.2121  0.3831
 6464TIP3   OH219355   3.285   4.212   1.073 -0.0002 -0.0113 -0.1079
 6464TIP3    H119356   3.191   4.218   1.058 -0.2233  2.3192  1.7399
 6464TIP3    H219357   3.322   4.199   0.985 -1.9245  0.5093 -1.0580
 6465TIP3   OH219358   3.514   1.718   1.799 -0.5282  0.1869  0.1792
 6465TIP3    H119359   3.579   1.736   1.868  0.0967  1.1573 -0.6501
 6465TIP3    H219360   3.519   1.623   1.788  0.2003  0.1526  0.6636
 6466TIP3   OH219361   1.089   5.691   2.091 -0.9242 -0.1919  0.5110
 6466TIP3    H119362   1.065   5.775   2.051 -0.9759 -0.4968 -0.1134
 6466TIP3    H219363   1.112   5.636   2.017  0.1007 -0.4208  0.9833
 6467TIP3   OH219364   3.865   4.417   4.223  0.3643  0.2826 -0.3903
 6467TIP3    H119365   3.948   4.409   4.269  1.0670 -0.0716 -1.6765
 6467TIP3    H219366   3.888   4.411   4.130 -1.1333 -0.1888 -0.7623
 6468TIP3   OH219367   4.282   2.207   1.235  0.0585  0.0327  0.0436
 6468TIP3    H119368   4.352   2.186   1.297  0.0647  1.2232  0.4692
 6468TIP3    H219369   4.202   2.183   1.280  0.0564  0.9933  0.5851
 6469TIP3   OH219370   4.109   0.526   2.177  0.2091 -0.1577 -0.4630
 6469TIP3    H119371   4.177   0.510   2.111 -1.5961 -1.2697 -2.1386
 6469TIP3    H219372   4.027   0.521   2.129 -1.2699 -2.1626  2.0388
 6470TIP3   OH219373   2.735   5.046   4.515 -0.1304  0.2935  0.3814
 6470TIP3    H119374   2.820   5.008   4.537  0.0533  0.4732 -0.0118
 6470TIP3    H219375   2.677   5.016   4.585  0.5282  1.1489  1.3223
 6471TIP3   OH219376   0.518   0.053   3.699  0.1181  0.3290  0.0587
 6471TIP3    H119377   0.548   0.006   3.621 -0.1718  0.3557 -0.0686
 6471TIP3    H219378   0.449   0.111   3.668  0.8192  1.2199  0.1281
 6472TIP3   OH219379   5.110   1.588   5.142 -0.1703 -0.4512 -0.4023
 6472TIP3    H119380   5.060   1.507   5.141  1.9526 -1.8810 -2.3773
 6472TIP3    H219381   5.200   1.561   5.160  0.4736  1.5846 -0.2061
 6473TIP3   OH219382   0.993   5.764   5.440  0.4733  0.0787 -0.1942
 6473TIP3    H119383   0.907   5.722   5.444  0.3689 -0.0660 -2.6164
 6473TIP3    H219384   0.975   5.852   5.408  1.1743  0.2673 -0.0897
 6474TIP3   OH219385   3.400   0.509   0.763 -1.0643  0.1123  0.3401
 6474TIP3    H119386   3.335   0.513   0.832  0.8500  1.1103  2.2272
 6474TIP3    H219387   3.406   0.599   0.731  0.4149  0.4010  1.3042
 6475TIP3   OH219388   0.804   6.228   0.330 -0.5465  0.2410 -0.3017
 6475TIP3    H119389   0.811   6.305   0.274  0.5850  0.0346 -0.4662
 6475TIP3    H219390   0.824   6.262   0.418  0.1718  0.1036 -0.4069
 6476TIP3   OH219391   5.717   5.833   0.918 -0.5309  0.2298 -0.1103
 6476TIP3    H119392   5.707   5.852   0.824  2.7107 -0.1663 -0.6672
 6476TIP3    H219393   5.747   5.916   0.956  1.5057 -0.4344 -0.1557
 6477TIP3   OH219394   3.910   0.432   4.779 -0.3161 -0.0765 -0.0610
 6477TIP3    H119395   3.982   0.478   4.821 -0.6407 -0.9883  1.5687
 6477TIP3    H219396   3.912   0.344   4.817 -2.2505 -0.1428 -0.0137
 6478TIP3   OH219397   2.813   3.055   4.360  0.2598 -0.0010  0.2768
 6478TIP3    H119398   2.739   3.031   4.305 -0.3338  2.0773  0.0925
 6478TIP3    H219399   2.774   3.076   4.445  0.3475  2.6112 -0.2419
 6479TIP3   OH219400   0.421   5.052   4.558  0.2800  0.3595 -0.4781
 6479TIP3    H119401   0.514   5.027   4.558  0.1600 -0.0967 -0.0026
 6479TIP3    H219402   0.421   5.143   4.528  0.9132  0.4931 -0.0967
 6480TIP3   OH219403   1.057   4.355   2.272  0.4516 -0.5405 -0.0256
 6480TIP3    H119404   1.126   4.343   2.206  0.0190 -1.1336 -0.3781
 6480TIP3    H219405   1.085   4.300   2.345  0.0769 -1.2251 -0.3898
 6481TIP3   OH219406   5.126   4.335   2.674  0.0080 -0.1680 -0.1680
 6481TIP3    H119407   5.128   4.405   2.739  0.3810  0.3224 -0.7057
 6481TIP3    H219408   5.038   4.339   2.637  0.1751  0.3152 -0.5193
 6482TIP3   OH219409   3.324   2.062   0.004  0.2187  0.1129 -0.7499
 6482TIP3    H119410   3.276   2.014  -0.064 -0.4969 -0.4580  0.1355
 6482TIP3    H219411   3.346   1.995   0.069 -1.3445  1.0328  0.8324
 6483TIP3   OH219412   3.635   3.038   2.824  0.3617 -0.4692 -0.8467
 6483TIP3    H119413   3.605   2.947   2.815  0.7200 -0.6346 -0.3843
 6483TIP3    H219414   3.600   3.067   2.908  0.6644 -0.3450 -0.7610
 6484TIP3   OH219415   1.136   0.558   4.540 -0.3213 -0.0694  0.2739
 6484TIP3    H119416   1.066   0.504   4.504  0.5247 -0.6975 -0.4818
 6484TIP3    H219417   1.103   0.648   4.534 -0.4513 -0.2059 -1.5514
 6485TIP3   OH219418   3.161   0.835   0.613 -0.3334 -0.9170  0.2477
 6485TIP3    H119419   3.204   0.871   0.536 -0.3467 -0.3230  0.5101
 6485TIP3    H219420   3.138   0.745   0.589  1.7416 -1.5227  0.3519
 6486TIP3   OH219421   3.766   3.907   0.272 -0.2987  0.3428  0.1275
 6486TIP3    H119422   3.783   3.823   0.230  0.4008  0.1802  0.7096
 6486TIP3    H219423   3.829   3.911   0.345 -1.9329  0.2924  1.6014
 6487TIP3   OH219424   2.520   1.543   2.827  0.7066 -0.0873  0.0694
 6487TIP3    H119425   2.578   1.560   2.901  0.4230  1.7991 -0.0814
 6487TIP3    H219426   2.551   1.602   2.758 -1.8732  1.6783  0.2727
 6488TIP3   OH219427   3.558   3.979   4.170 -0.8950 -0.4468  0.0556
 6488TIP3    H119428   3.538   4.029   4.091 -1.1837  0.3068  0.5981
 6488TIP3    H219429   3.615   4.037   4.222 -0.8442 -0.8648  0.4770
 6489TIP3   OH219430   1.090   1.430   1.707  0.2686  0.5735  0.2786
 6489TIP3    H119431   1.046   1.363   1.655  0.5903  0.8083 -0.3046
 6489TIP3    H219432   1.066   1.409   1.797  0.3935 -0.3458  0.1129
 6490TIP3   OH219433   6.294   6.629   1.147  0.0451 -0.4278 -0.4343
 6490TIP3    H119434   6.263   6.567   1.081  2.3444 -1.4621 -0.6055
 6490TIP3    H219435   6.266   6.714   1.114  0.0140 -1.0395 -2.0896
 6491TIP3   OH219436   5.920   1.351   5.841  0.2826 -0.3312 -0.3970
 6491TIP3    H119437   5.889   1.273   5.796  0.0458  0.2966 -1.3643
 6491TIP3    H219438   6.010   1.362   5.810 -0.3102  0.8639 -1.8432
 6492TIP3   OH219439   3.035   4.568   0.920  0.5431  0.5605  0.3906
 6492TIP3    H119440   3.122   4.592   0.951  1.2004  0.8803 -1.5276
 6492TIP3    H219441   3.027   4.612   0.835 -0.6528 -1.1240 -0.4413
 6493TIP3   OH219442   0.767   4.549   1.037  0.0785 -0.2451 -0.0105
 6493TIP3    H119443   0.859   4.568   1.023  0.0735 -0.2498 -0.0482
 6493TIP3    H219444   0.759   4.539   1.132 -0.2352  1.5588  0.1906
 6494TIP3   OH219445   2.033   0.131   3.703  0.0220  0.7085  0.1217
 6494TIP3    H119446   1.985   0.052   3.726  0.5200  0.4867  0.4215
 6494TIP3    H219447   2.067   0.114   3.615  1.1229  0.0921  0.6401
 6495TIP3   OH219448   6.829   6.193   0.484 -0.0487 -0.6358  0.3190
 6495TIP3    H119449   6.803   6.218   0.573  0.7833 -0.0746  0.4143
 6495TIP3    H219450   6.777   6.115   0.465 -1.8960  0.5161  0.4443
 6496TIP3   OH219451   1.984   5.567   4.973 -0.1212 -0.3475 -1.0811
 6496TIP3    H119452   2.002   5.476   4.951 -0.7820 -1.5337  2.6153
 6496TIP3    H219453   1.905   5.589   4.923  0.4804 -1.5036 -2.5990
 6497TIP3   OH219454   2.693   2.454   5.464 -0.1887 -0.4047 -0.1122
 6497TIP3    H119455   2.651   2.399   5.530 -3.4831 -0.1238 -1.7686
 6497TIP3    H219456   2.733   2.393   5.402  0.2717 -0.7381  0.5001
 6498TIP3   OH219457   4.158   2.696   4.797 -0.8431 -0.3189 -0.2264
 6498TIP3    H119458   4.079   2.702   4.850 -1.0758  2.3397 -0.7298
 6498TIP3    H219459   4.126   2.680   4.708 -0.8128  0.3786 -0.3681
 6499TIP3   OH219460   6.463   1.566   4.521 -0.0884  0.2413  0.6102
 6499TIP3    H119461   6.500   1.574   4.433 -0.5358  0.3166  0.4295
 6499TIP3    H219462   6.431   1.653   4.542  0.5290  0.3643  1.0808
 6500TIP3   OH219463   1.353   2.321   1.908  0.1669  0.2098  0.0688
 6500TIP3    H119464   1.358   2.414   1.933 -1.2509  0.5682 -0.8392
 6500TIP3    H219465   1.376   2.320   1.815  3.6420 -0.8695  0.7932
 6501TIP3   OH219466   3.703   5.671   0.512 -0.0936 -0.6185  0.6411
 6501TIP3    H119467   3.738   5.756   0.538 -0.5641 -0.5158  0.9533
 6501TIP3    H219468   3.737   5.610   0.577 -0.0795 -0.6039  0.6473
 6502TIP3   OH219469   1.986   5.230   0.430 -0.0557  0.1501  0.0170
 6502TIP3    H119470   1.942   5.313   0.450 -0.6349  0.0166 -0.6703
 6502TIP3    H219471   1.963   5.172   0.503 -1.2945 -0.0137 -0.4819
 6503TIP3   OH219472   1.349   1.560   5.245 -0.1812 -0.2364 -0.0479
 6503TIP3    H119473   1.338   1.633   5.305  0.8740  0.3530 -0.5380
 6503TIP3    H219474   1.263   1.518   5.242 -0.6698  0.6767  0.6243
 6504TIP3   OH219475   2.796   1.240   2.693  0.7498  0.0849  0.3600
 6504TIP3    H119476   2.815   1.265   2.784  0.4250  0.5436  0.3066
 6504TIP3    H219477   2.879   1.247   2.648  0.7046  0.9034  0.3892
 6505TIP3   OH219478   4.957   1.688   3.611  0.1272 -0.5384  0.0172
 6505TIP3    H119479   4.955   1.616   3.675 -0.5420 -0.0235  0.5838
 6505TIP3    H219480   4.942   1.646   3.527  1.6841 -1.3237  0.0892
 6506TIP3   OH219481   2.308   2.610   1.540  0.1631  0.0665 -0.4497
 6506TIP3    H119482   2.303   2.691   1.591 -0.2921 -1.0291  1.3057
 6506TIP3    H219483   2.317   2.540   1.605  0.2596 -1.3355 -1.9053
 6507TIP3   OH219484   0.836   4.964   1.007 -0.0625  0.2497  0.4155
 6507TIP3    H119485   0.911   4.936   0.955 -0.9927  0.6188 -1.2216
 6507TIP3    H219486   0.859   5.051   1.038 -0.3457  1.0064 -1.3487
 6508TIP3   OH219487   1.192   0.667   0.642 -0.2018 -0.0935 -0.2841
 6508TIP3    H119488   1.163   0.733   0.705 -0.6342 -1.0956  0.6074
 6508TIP3    H219489   1.266   0.624   0.686 -1.1653 -1.5062  0.0305
 6509TIP3   OH219490   2.546   6.255   3.530  0.7489 -0.2159  0.3228
 6509TIP3    H119491   2.511   6.230   3.616 -0.0029  0.8575  0.3633
 6509TIP3    H219492   2.569   6.173   3.488 -2.8059 -1.1595 -0.1066
 6510TIP3   OH219493   4.005   5.931   1.429 -0.8070 -0.3270  0.2610
 6510TIP3    H119494   4.015   5.917   1.335  0.2124 -0.7761  0.4227
 6510TIP3    H219495   4.008   6.026   1.439 -1.0409 -0.2709 -0.1750
 6511TIP3   OH219496   6.091   0.679   4.339  0.1215 -0.1286  0.0259
 6511TIP3    H119497   6.026   0.697   4.271  1.9919  1.8764 -1.3499
 6511TIP3    H219498   6.086   0.754   4.399  1.9639  0.7457 -0.8257
 6512TIP3   OH219499   4.555   0.658   1.814  0.2965 -0.3556 -0.2408
 6512TIP3    H119500   4.598   0.574   1.800 -1.5892 -1.0446 -2.3382
 6512TIP3    H219501   4.476   0.637   1.865  2.1640  0.8879  3.5676
 6513TIP3   OH219502   0.252   1.102   3.418  0.3640 -0.5270  0.2985
 6513TIP3    H119503   0.316   1.102   3.489  0.1967 -0.5685  0.4484
 6513TIP3    H219504   0.168   1.089   3.461  0.2263 -0.2272  0.1246
 6514TIP3   OH219505   2.627   3.839   1.958 -0.2545 -0.4795  0.2094
 6514TIP3    H119506   2.599   3.810   1.871  1.0496 -2.0805  0.2692
 6514TIP3    H219507   2.595   3.770   2.017  0.5362 -0.4126  0.7349
 6515TIP3   OH219508   2.918   2.090   0.155 -0.2751 -0.3238  1.0541
 6515TIP3    H119509   2.878   2.177   0.160  1.1446  0.3813  0.5729
 6515TIP3    H219510   2.947   2.082   0.064  0.4847 -0.8870  1.3346
 6516TIP3   OH219511   0.848   0.886   3.980  0.5751 -0.8529  0.6335
 6516TIP3    H119512   0.831   0.815   3.918 -0.3668  0.2202 -0.4019
 6516TIP3    H219513   0.895   0.952   3.929 -0.1986  0.0460  1.0508
 6517TIP3   OH219514   4.278   4.824   0.995  0.5170 -0.0551 -0.1245
 6517TIP3    H119515   4.345   4.892   1.000  0.5794 -0.1115 -0.1846
 6517TIP3    H219516   4.215   4.847   1.063  0.2642  0.3532 -0.4917
 6518TIP3   OH219517   0.425   1.243   3.866  0.0763  0.2953 -0.2016
 6518TIP3    H119518   0.458   1.314   3.921 -3.7532  0.5125  2.1292
 6518TIP3    H219519   0.425   1.166   3.924 -1.8970 -0.0087 -0.5367
 6519TIP3   OH219520   4.858   0.680   5.167  0.0769 -0.1412 -0.4464
 6519TIP3    H119521   4.880   0.753   5.110 -0.5655 -0.1750 -0.7321
 6519TIP3    H219522   4.942   0.637   5.183 -0.0419 -1.6717 -3.4341
 6520TIP3   OH219523   4.748   1.995   5.678 -0.0094  0.4799  0.4474
 6520TIP3    H119524   4.692   2.009   5.755  0.4001  0.0733  0.8219
 6520TIP3    H219525   4.715   1.915   5.638  1.0464 -0.4408  1.3508
 6521TIP3   OH219526   2.188   2.165   5.313  0.3374  0.0110  0.3845
 6521TIP3    H119527   2.155   2.252   5.333  1.7102  0.4634  0.7094
 6521TIP3    H219528   2.166   2.113   5.390  0.3408  0.2844  0.5698
 6522TIP3   OH219529   4.552   0.101   5.548  0.1907  0.0293  0.0480
 6522TIP3    H119530   4.626   0.048   5.577  0.0425 -0.9061 -1.1959
 6522TIP3    H219531   4.565   0.185   5.592  0.3567 -1.0356  2.1780
 6523TIP3   OH219532   1.739   5.146   1.087  0.5469  0.4777  0.4750
 6523TIP3    H119533   1.820   5.194   1.074  1.2929 -1.2256 -1.6988
 6523TIP3    H219534   1.670   5.211   1.072  1.4838  1.6428  1.0653
 6524TIP3   OH219535   2.011   2.058   1.113 -0.0562 -0.8354  0.1560
 6524TIP3    H119536   2.098   2.091   1.136  0.0448  1.1936 -2.5581
 6524TIP3    H219537   2.016   1.964   1.129  2.3689 -0.6643  0.8419
 6525TIP3   OH219538   0.657   3.638   5.113 -0.5868  0.3265 -0.0826
 6525TIP3    H119539   0.683   3.553   5.077  0.1574 -0.1731  1.5424
 6525TIP3    H219540   0.591   3.671   5.052 -2.5927 -2.4595  0.3530
 6526TIP3   OH219541   3.060   0.484   4.688  0.2884 -0.1347  0.6791
 6526TIP3    H119542   3.001   0.409   4.687  0.3304 -0.2091 -1.6189
 6526TIP3    H219543   3.140   0.452   4.729 -0.3286 -0.8088  1.3640
 6527TIP3   OH219544   3.060   0.487   3.689  0.2293 -0.0197  0.8127
 6527TIP3    H119545   3.035   0.422   3.623 -0.5672  0.8639  0.2179
 6527TIP3    H219546   3.017   0.568   3.661  1.3789  0.8353  1.4129
 6528TIP3   OH219547   2.500   4.261   2.524  0.7158 -0.5010  0.2548
 6528TIP3    H119548   2.446   4.223   2.594 -1.7040 -0.7414 -1.5964
 6528TIP3    H219549   2.509   4.190   2.460 -0.2287  0.7067 -1.2947
 6529TIP3   OH219550   0.847   3.419   1.734  0.2893 -0.0518 -0.2591
 6529TIP3    H119551   0.842   3.498   1.680 -0.4642 -0.3103 -0.5841
 6529TIP3    H219552   0.805   3.442   1.816  0.4018 -0.0038 -0.2151
 6530TIP3   OH219553   0.742   4.395   2.053 -0.1930 -0.0719  0.1091
 6530TIP3    H119554   0.800   4.319   2.047 -0.3969 -0.4912  2.4620
 6530TIP3    H219555   0.655   4.361   2.034 -0.5505 -0.9009  2.8414
 6531TIP3   OH219556   2.169   1.009   3.725  0.0757 -0.2428  0.4755
 6531TIP3    H119557   2.256   1.047   3.714 -0.5769  1.2050  0.0337
 6531TIP3    H219558   2.122   1.074   3.778 -0.4847 -1.4229  1.4731
 6532TIP3   OH219559   5.303   3.451   5.278  0.5835  1.0264 -0.6625
 6532TIP3    H119560   5.302   3.452   5.182 -0.0638  1.1031 -0.6618
 6532TIP3    H219561   5.318   3.359   5.301 -1.6821  0.5559 -0.8575
 6533TIP3   OH219562   4.743   0.607   1.443 -0.7849 -0.4475 -0.3616
 6533TIP3    H119563   4.815   0.602   1.380 -0.6553  2.0880 -0.5183
 6533TIP3    H219564   4.777   0.565   1.522  0.0237 -1.2939 -1.1424
 6534TIP3   OH219565   0.812   5.826   5.042  0.4373  0.1766 -0.0342
 6534TIP3    H119566   0.859   5.749   5.074  1.3296  1.2719  1.4191
 6534TIP3    H219567   0.720   5.801   5.045  0.6303 -0.4415  1.5917
 6535TIP3   OH219568   0.993   6.558   1.179  0.1488  0.1124 -0.0213
 6535TIP3    H119569   0.903   6.584   1.200  0.1121 -0.1978  0.2130
 6535TIP3    H219570   1.041   6.641   1.171  0.3840  0.2579  2.2371
 6536TIP3   OH219571   0.046   2.511   1.788  0.3611 -0.1539 -0.0060
 6536TIP3    H119572  -0.042   2.537   1.758  0.4047 -1.0705 -1.0284
 6536TIP3    H219573   0.072   2.579   1.849 -0.7002  0.6138 -0.3738
 6537TIP3   OH219574   4.160   2.915   4.199 -0.0599 -0.9054  0.6243
 6537TIP3    H119575   4.240   2.864   4.215  1.1690  0.4941 -0.7230
 6537TIP3    H219576   4.106   2.858   4.145  0.1598 -1.7331  1.2380
 6538TIP3   OH219577   4.265   4.385   1.096 -0.4175 -0.2691 -0.5463
 6538TIP3    H119578   4.198   4.420   1.156 -1.0855 -0.4375 -1.1739
 6538TIP3    H219579   4.290   4.301   1.134 -0.0558  0.1064  0.0585
 6539TIP3   OH219580   2.080   2.202   4.759 -0.5551  0.4676  0.3229
 6539TIP3    H119581   2.170   2.232   4.746 -0.3350 -0.6193 -1.0198
 6539TIP3    H219582   2.079   2.167   4.848  0.2304  0.9086  0.5139
 6540TIP3   OH219583   2.926   3.547   2.951 -0.3504 -0.1801  0.1509
 6540TIP3    H119584   2.906   3.599   3.029  1.0947 -1.8432  1.7241
 6540TIP3    H219585   3.015   3.574   2.927  0.7120 -2.3333  1.4353
 6541TIP3   OH219586   5.645   2.055   2.111  0.2175  0.4874  0.6969
 6541TIP3    H119587   5.677   2.101   2.188  1.0641 -1.3270  1.4795
 6541TIP3    H219588   5.561   2.017   2.138 -0.3610  1.3088  0.1304
 6542TIP3   OH219589   5.283   1.281   1.386  0.1172  0.0282 -0.2657
 6542TIP3    H119590   5.293   1.210   1.450  1.0739 -0.9100 -1.3965
 6542TIP3    H219591   5.200   1.322   1.408 -1.3085 -2.4910 -0.5420
 6543TIP3   OH219592   1.919   4.216   5.521  0.1706  0.1495 -0.1395
 6543TIP3    H119593   1.963   4.291   5.483  0.1089 -0.4723 -1.5069
 6543TIP3    H219594   1.891   4.164   5.445  1.4769 -1.9867  0.7608
 6544TIP3   OH219595   4.193   4.502   3.969  0.1788 -0.4709 -0.4655
 6544TIP3    H119596   4.107   4.519   4.005 -0.0601 -0.1472 -1.1640
 6544TIP3    H219597   4.177   4.484   3.876  0.9822  0.9543 -0.9060
 6545TIP3   OH219598   2.293   0.407   3.052  0.4122 -0.2781 -0.0918
 6545TIP3    H119599   2.330   0.431   2.967  0.9507 -2.1403 -0.4164
 6545TIP3    H219600   2.198   0.415   3.040  0.5247  2.5464  0.1408
 6546TIP3   OH219601   0.906   1.142   3.314 -0.1488  0.2875  0.6431
 6546TIP3    H119602   0.822   1.098   3.321 -0.9161  1.6243  0.2998
 6546TIP3    H219603   0.896   1.223   3.365  0.1296  1.5428 -1.1715
 6547TIP3   OH219604   4.107   1.025   3.989  0.6745 -0.2016 -0.0496
 6547TIP3    H119605   4.084   1.048   3.899 -3.0868 -0.2102  0.7450
 6547TIP3    H219606   4.058   1.088   4.042 -2.7510 -4.1255  1.9944
 6548TIP3   OH219607   4.785   3.796   0.045  0.8733 -0.2793  0.3786
 6548TIP3    H119608   4.778   3.726  -0.020  0.8031 -1.7456  1.8894
 6548TIP3    H219609   4.742   3.871   0.005  2.8950 -0.3795 -2.2012
 6549TIP3   OH219610   4.757   3.767   5.882 -0.0824  0.2565 -0.2651
 6549TIP3    H119611   4.819   3.750   5.953  0.1257  1.6220 -0.0776
 6549TIP3    H219612   4.797   3.725   5.805  0.7980  0.6230 -0.0249
 6550TIP3   OH219613   2.638   4.233   4.617 -0.4801  0.4165 -0.8122
 6550TIP3    H119614   2.679   4.276   4.692  0.4399 -0.3016 -0.8823
 6550TIP3    H219615   2.700   4.165   4.593 -1.2105  0.0395 -1.6458
 6551TIP3   OH219616   0.194   2.520   5.442  0.0526 -0.5531 -0.3923
 6551TIP3    H119617   0.269   2.506   5.499 -0.4085 -0.3951  0.2657
 6551TIP3    H219618   0.118   2.506   5.498 -0.4543  2.4740 -0.1629
 6552TIP3   OH219619   6.236   3.248   3.800  0.0085 -0.1325  0.0636
 6552TIP3    H119620   6.284   3.219   3.722 -0.9703 -2.7051  0.3153
 6552TIP3    H219621   6.303   3.289   3.855  0.8761  0.9879 -1.7270
 6553TIP3   OH219622   6.595   5.797   3.889 -0.0711  0.0275 -0.1229
 6553TIP3    H119623   6.677   5.805   3.936  1.1983 -1.6122 -1.9013
 6553TIP3    H219624   6.530   5.840   3.946  1.8056  0.5484  1.7503
 6554TIP3   OH219625   3.271   1.234   3.419 -0.1553 -0.0017  0.1066
 6554TIP3    H119626   3.228   1.241   3.334 -0.4037  0.2329  0.2480
 6554TIP3    H219627   3.277   1.325   3.450  0.6802 -0.0001 -0.0278
 6555TIP3   OH219628   0.403   4.169   2.808  0.1762  0.8317 -0.6179
 6555TIP3    H119629   0.317   4.198   2.840 -0.5660 -1.4641 -0.3680
 6555TIP3    H219630   0.393   4.165   2.713 -0.3202 -0.3673 -0.5208
 6556TIP3   OH219631   2.027   4.947   1.779 -0.2085 -0.4218 -0.2188
 6556TIP3    H119632   2.028   4.874   1.840 -1.1435  0.2092  0.5903
 6556TIP3    H219633   2.107   4.996   1.799  0.5911 -1.3714 -0.9894
 6557TIP3   OH219634   1.223   0.720   3.485 -0.1602 -0.7538 -0.1649
 6557TIP3    H119635   1.229   0.648   3.548  0.4632 -2.4193 -2.0462
 6557TIP3    H219636   1.185   0.681   3.407 -0.0976  1.0542 -1.1587
 6558TIP3   OH219637   0.852   4.082   5.287 -0.4546  0.7230  0.2549
 6558TIP3    H119638   0.946   4.071   5.303 -0.3474  1.2802  0.0560
 6558TIP3    H219639   0.814   3.995   5.300 -0.0055  0.6313  0.9777
 6559TIP3   OH219640   0.972   6.338   1.009  0.2319  0.2575  0.1171
 6559TIP3    H119641   0.951   6.352   0.917  2.0262 -0.4172 -0.4317
 6559TIP3    H219642   0.972   6.425   1.048 -0.4811  0.5489 -0.5198
 6560TIP3   OH219643   1.449   5.626   0.508 -0.3592  0.1188  0.1581
 6560TIP3    H119644   1.512   5.630   0.580 -0.2559  0.6237  0.0484
 6560TIP3    H219645   1.501   5.597   0.433  0.2547  2.4726 -0.4302
 6561TIP3   OH219646   2.973   3.423   4.039 -0.0611  0.6108  0.5325
 6561TIP3    H119647   2.884   3.390   4.051 -0.5218  1.8261  0.6489
 6561TIP3    H219648   2.967   3.479   3.962  0.6969  0.3969  0.3175
 6562TIP3   OH219649   3.279   0.721   2.596 -0.4704 -0.0739 -0.0139
 6562TIP3    H119650   3.244   0.704   2.508  0.4526 -0.8241 -0.2577
 6562TIP3    H219651   3.228   0.663   2.653  0.1607 -0.9542 -0.3248
 6563TIP3   OH219652   0.169   3.373   2.647 -0.4619  0.6862 -0.4185
 6563TIP3    H119653   0.225   3.442   2.683 -0.2128  0.8156 -1.0439
 6563TIP3    H219654   0.080   3.405   2.661 -0.4531 -0.0510  1.6520
 6564TIP3   OH219655   1.882   1.142   0.569  0.2685  0.0799 -0.1302
 6564TIP3    H119656   1.936   1.118   0.495  1.8661 -0.7114  1.2316
 6564TIP3    H219657   1.902   1.077   0.636 -2.0078  0.0500  0.6284
 6565TIP3   OH219658   1.974   2.998   3.413  0.5880 -0.0942 -0.4763
 6565TIP3    H119659   1.947   2.924   3.468  0.8289  0.0129 -0.2070
 6565TIP3    H219660   1.957   2.970   3.324 -0.2163 -0.1057 -0.3201
 6566TIP3   OH219661   2.964   6.084   0.410 -0.0095  0.2218  0.2789
 6566TIP3    H119662   2.971   6.157   0.470 -1.1577  2.6322 -2.2924
 6566TIP3    H219663   3.024   6.105   0.338 -0.1999 -1.4921 -0.4543
 6567TIP3   OH219664   0.870   1.496   0.417 -0.2166 -0.1216  0.2469
 6567TIP3    H119665   0.793   1.515   0.469  0.8479  0.9877  1.4826
 6567TIP3    H219666   0.932   1.456   0.479  0.7968  0.5146 -0.3229
 6568TIP3   OH219667   2.493   0.667   1.383  0.2354 -0.1089  0.2678
 6568TIP3    H119668   2.449   0.691   1.465  1.7716  1.3453  0.7347
 6568TIP3    H219669   2.482   0.743   1.327 -0.1658 -0.8099 -0.6300
 6569TIP3   OH219670   6.868   4.920   5.312 -0.1576 -0.2580 -0.4391
 6569TIP3    H119671   6.838   4.851   5.370 -0.6949  2.2169  2.4420
 6569TIP3    H219672   6.963   4.911   5.312 -0.2730 -2.0270 -1.6008
 6570TIP3   OH219673   0.698   5.608   3.054  0.5089 -1.0736  0.4773
 6570TIP3    H119674   0.617   5.558   3.043  0.1905 -1.0443  2.2488
 6570TIP3    H219675   0.737   5.573   3.135  1.4984 -0.0831  0.4612
 6571TIP3   OH219676   2.856   6.579   3.786  0.0700  0.3723 -0.3057
 6571TIP3    H119677   2.870   6.622   3.871 -0.0521  0.9465 -0.5703
 6571TIP3    H219678   2.885   6.644   3.722  0.8459 -0.3345 -0.6845
 6572TIP3   OH219679   4.759   1.358   5.121  0.5318  0.3485  0.0962
 6572TIP3    H119680   4.742   1.425   5.188 -0.5141  1.6951 -1.4297
 6572TIP3    H219681   4.673   1.319   5.104  1.1368 -1.4851  0.9994
 6573TIP3   OH219682   0.987   6.467   2.472  0.1135  0.3514  0.3825
 6573TIP3    H119683   0.897   6.485   2.447 -0.5816 -1.4407  1.5046
 6573TIP3    H219684   1.033   6.458   2.388 -1.0388 -0.1277 -0.2236
 6574TIP3   OH219685   1.311   4.231   3.316 -0.0080 -0.1219  0.9663
 6574TIP3    H119686   1.392   4.182   3.332 -1.1495 -2.0293  1.1816
 6574TIP3    H219687   1.340   4.310   3.270  2.0790 -0.2327  1.9631
 6575TIP3   OH219688   4.503   5.932   0.994  0.2179  0.5378 -0.1932
 6575TIP3    H119689   4.540   5.935   0.905 -0.9238  1.4509 -0.6595
 6575TIP3    H219690   4.563   5.984   1.047 -0.2244  1.7898 -0.8896
 6576TIP3   OH219691   3.831   0.161   3.193  0.3202  0.7488  0.2786
 6576TIP3    H119692   3.875   0.167   3.107 -1.3285 -1.5980 -0.8397
 6576TIP3    H219693   3.738   0.165   3.172 -0.1086  0.4846  2.0213
 6577TIP3   OH219694   5.375   4.740   3.991  0.0443 -0.4148  0.4127
 6577TIP3    H119695   5.345   4.813   4.045  2.1384 -0.2635  1.4786
 6577TIP3    H219696   5.379   4.775   3.902 -2.0466 -0.2358  0.3351
 6578TIP3   OH219697   3.136   3.075   4.528 -0.1428  0.3002 -0.0282
 6578TIP3    H119698   3.124   3.131   4.604  1.3953  1.6552 -0.7300
 6578TIP3    H219699   3.230   3.064   4.520 -0.3462 -1.1028 -0.8523
 6579TIP3   OH219700   3.268   2.411   4.497 -0.3891 -0.1472  0.0592
 6579TIP3    H119701   3.347   2.426   4.549  0.8624  1.7462 -2.1548
 6579TIP3    H219702   3.278   2.322   4.463  0.2631 -0.3017  0.6450
 6580TIP3   OH219703   3.595   0.302   4.747 -0.3213  0.1222 -0.3740
 6580TIP3    H119704   3.629   0.330   4.662 -1.9456  0.5183 -0.9306
 6580TIP3    H219705   3.659   0.239   4.779  0.2171 -0.1970 -1.9927
 6581TIP3   OH219706   3.252   3.398   1.971  0.3861 -0.6607 -0.4288
 6581TIP3    H119707   3.246   3.374   2.063 -1.3632 -2.4266 -0.9265
 6581TIP3    H219708   3.163   3.424   1.946  0.7078 -0.6917 -1.7227
 6582TIP3   OH219709   0.273   3.038   0.151 -0.4356  0.5408  0.1663
 6582TIP3    H119710   0.333   3.112   0.163 -0.4149  0.6238 -0.4251
 6582TIP3    H219711   0.187   3.074   0.173 -0.3494  0.5820  0.4417
 6583TIP3   OH219712   1.818   2.844   5.843 -0.0646  0.3117 -0.0796
 6583TIP3    H119713   1.774   2.780   5.787 -0.3261  1.0240 -0.7227
 6583TIP3    H219714   1.774   2.838   5.927  0.6893 -1.1663  0.2492
 6584TIP3   OH219715   5.500   0.283   2.266  0.8105 -0.3398 -0.3689
 6584TIP3    H119716   5.516   0.367   2.225  0.2956 -0.2841 -0.4621
 6584TIP3    H219717   5.572   0.272   2.328  0.6208  0.3888 -0.0099
 6585TIP3   OH219718   4.219   6.475   2.361  0.0161  0.2799 -0.2879
 6585TIP3    H119719   4.128   6.446   2.367  0.5443 -1.2949  0.5013
 6585TIP3    H219720   4.225   6.547   2.424 -0.6218  0.2779 -0.2137
 6586TIP3   OH219721   1.044   1.572   0.950  0.2666  0.5085  0.5051
 6586TIP3    H119722   1.020   1.483   0.925 -1.3118  1.6944 -2.9040
 6586TIP3    H219723   0.979   1.597   1.016  0.0661 -0.5087  0.7090
 6587TIP3   OH219724   4.066   6.764   3.178  0.5061  0.2942  0.4733
 6587TIP3    H119725   4.122   6.707   3.232 -0.2855 -0.9700  0.0163
 6587TIP3    H219726   3.979   6.754   3.215 -0.3428 -1.7073 -1.7671
 6588TIP3   OH219727   7.001   6.209   5.159  0.6842  0.0588 -0.1941
 6588TIP3    H119728   7.089   6.231   5.129  0.0160  1.5295 -1.1956
 6588TIP3    H219729   6.966   6.292   5.193  0.6986 -1.0979  2.9746
 6589TIP3   OH219730   6.043   4.935   1.708 -0.8059  0.0996  0.1884
 6589TIP3    H119731   6.033   5.029   1.724 -1.5955  0.1195 -0.3472
 6589TIP3    H219732   6.132   4.915   1.737 -0.1516  1.2810 -0.9209
 6590TIP3   OH219733   1.336   1.325   2.822  0.1923 -0.1060  0.3811
 6590TIP3    H119734   1.407   1.388   2.834 -0.8692  0.8609  1.8688
 6590TIP3    H219735   1.345   1.296   2.731  2.6203 -0.2062  0.6102
 6591TIP3   OH219736   3.807   6.447   5.136  0.6378 -0.2874  0.0429
 6591TIP3    H119737   3.841   6.418   5.220 -1.2154  0.2318  1.0322
 6591TIP3    H219738   3.712   6.446   5.147  0.3119 -0.8290 -2.2736
 6592TIP3   OH219739   5.219   3.146   0.889 -0.0227  0.0554  0.2696
 6592TIP3    H119740   5.127   3.154   0.914  0.7136 -0.4167  3.6055
 6592TIP3    H219741   5.260   3.227   0.920  0.8570 -0.1306 -0.3465
 6593TIP3   OH219742   2.398   2.091   5.702 -0.4828  0.0811 -0.1275
 6593TIP3    H119743   2.375   2.088   5.795 -3.8706  0.8905 -0.8102
 6593TIP3    H219744   2.429   2.002   5.683 -0.7264 -0.4078  1.5418
 6594TIP3   OH219745   4.553   0.229   4.270  0.1494  0.0902 -0.1432
 6594TIP3    H119746   4.625   0.187   4.223 -0.2080 -0.3713 -0.2947
 6594TIP3    H219747   4.568   0.323   4.259  0.5130 -0.0062 -0.4988
 6595TIP3   OH219748   5.524   0.613   4.852 -0.1970  0.1719 -0.0643
 6595TIP3    H119749   5.476   0.666   4.916  0.3493  0.9814 -0.3058
 6595TIP3    H219750   5.601   0.665   4.831 -0.1417 -0.2851 -1.0531
 6596TIP3   OH219751   4.173   3.986   5.151 -0.0881 -0.0929 -1.0284
 6596TIP3    H119752   4.251   3.941   5.183 -0.5426 -0.3528 -0.2589
 6596TIP3    H219753   4.121   3.917   5.109  0.5605  0.2690 -2.4601
 6597TIP3   OH219754   4.620   0.934   1.043  0.4478  0.2143 -0.0699
 6597TIP3    H119755   4.627   0.874   0.969  0.6454 -0.4424  0.4679
 6597TIP3    H219756   4.658   0.885   1.116 -1.6420  0.0232  0.9536
 6598TIP3   OH219757   5.896   6.485   0.863 -0.0319  0.0323  0.1746
 6598TIP3    H119758   5.863   6.441   0.784  1.9967  1.2499 -1.4422
 6598TIP3    H219759   5.847   6.567   0.866 -0.9917 -0.5297  0.9656
 6599TIP3   OH219760   0.531   6.315   3.583 -1.4378 -0.4836 -0.0434
 6599TIP3    H119761   0.568   6.281   3.665 -1.0882 -0.8200 -0.3378
 6599TIP3    H219762   0.580   6.270   3.514 -0.0679  1.5531 -0.4706
 6600TIP3   OH219763   3.938   4.748   4.030  0.3410 -0.3772 -0.0796
 6600TIP3    H119764   3.973   4.755   3.941 -0.9472 -0.2218 -0.5984
 6600TIP3    H219765   3.868   4.813   4.032  1.2674  0.6293  1.5213
 6601TIP3   OH219766   6.606   3.751   1.174  0.3981  0.6084  0.3810
 6601TIP3    H119767   6.640   3.751   1.264 -0.7514 -0.2700  0.8489
 6601TIP3    H219768   6.684   3.759   1.119  1.3487 -0.9041  1.4142
 6602TIP3   OH219769   2.774   5.967   2.852 -0.0879 -0.2596  0.4977
 6602TIP3    H119770   2.792   6.057   2.823 -1.4729  0.1469  0.8386
 6602TIP3    H219771   2.839   5.914   2.806  0.5551  0.8789  0.0476
 6603TIP3   OH219772   2.113   0.279   0.819  0.6391 -0.0315 -0.0820
 6603TIP3    H119773   2.097   0.285   0.725  0.6047 -1.5606 -0.1935
 6603TIP3    H219774   2.034   0.316   0.859  0.3581 -0.0053 -0.6452
 6604TIP3   OH219775   6.944   4.298   1.874  0.0085 -0.3293 -0.7813
 6604TIP3    H119776   6.952   4.351   1.795  1.0146  0.7132 -0.0178
 6604TIP3    H219777   6.996   4.345   1.940 -0.0272 -1.6583  0.2455
 6605TIP3   OH219778   2.683   4.063   2.112 -0.2739  0.4269 -0.4090
 6605TIP3    H119779   2.689   4.140   2.056 -0.2768  0.5117 -0.2939
 6605TIP3    H219780   2.650   3.994   2.055  1.9059 -0.1073 -1.1085
 6606TIP3   OH219781   1.862   6.110   2.367 -0.2357  0.1255 -0.3531
 6606TIP3    H119782   1.780   6.145   2.403 -1.7364 -1.9803 -1.5024
 6606TIP3    H219783   1.869   6.148   2.280  0.1114  0.4297 -0.1949
 6607TIP3   OH219784   5.595   6.603   2.587  0.1590 -0.3160 -0.0830
 6607TIP3    H119785   5.680   6.596   2.544  0.7329 -0.0105  0.9680
 6607TIP3    H219786   5.614   6.593   2.680 -1.1453 -1.7566  0.0749
 6608TIP3   OH219787   2.081   6.322   5.219  0.0450  0.6382 -0.3527
 6608TIP3    H119788   1.998   6.370   5.221  0.4065  1.4298 -2.4419
 6608TIP3    H219789   2.090   6.293   5.128  0.6325 -2.0752  0.4814
 6609TIP3   OH219790   4.401   2.991   3.141 -0.1421  0.2059  0.2469
 6609TIP3    H119791   4.433   2.906   3.170  0.5497  1.4447  3.5115
 6609TIP3    H219792   4.343   3.021   3.211  0.7115  2.9752 -0.0809
 6610TIP3   OH219793   4.239   1.317   4.240  0.1451 -0.3608 -0.0958
 6610TIP3    H119794   4.208   1.376   4.308 -0.1483  0.1915 -0.7055
 6610TIP3    H219795   4.278   1.374   4.174 -0.9289 -0.7750 -1.1074
 6611TIP3   OH219796   2.450   6.518   0.231 -0.5975  0.0735 -0.0281
 6611TIP3    H119797   2.481   6.603   0.201 -0.3936  0.2983  0.8055
 6611TIP3    H219798   2.513   6.491   0.297 -0.4083 -0.9359 -0.5968
 6612TIP3   OH219799   6.550   0.097   2.305  0.0271  0.6509 -0.0506
 6612TIP3    H119800   6.585   0.159   2.369  1.1331 -0.9365  0.9688
 6612TIP3    H219801   6.582   0.012   2.335  0.7005 -0.1476 -2.8104
 6613TIP3   OH219802   5.992   3.021   5.451 -0.3808  0.1031  0.0899
 6613TIP3    H119803   6.043   3.060   5.521  0.4818  1.2207 -1.1143
 6613TIP3    H219804   6.038   2.940   5.430 -0.0294  0.2961  0.1101
 6614TIP3   OH219805   2.075   1.087   4.913 -0.1816  0.4398  0.0155
 6614TIP3    H119806   2.025   1.112   4.990 -2.5239  1.5916 -1.7273
 6614TIP3    H219807   2.051   0.996   4.896 -1.9819  1.0298 -0.9014
 6615TIP3   OH219808   0.804   2.758   4.317 -0.0353 -0.8356  0.3790
 6615TIP3    H119809   0.868   2.692   4.292  1.2226  0.7250 -0.7278
 6615TIP3    H219810   0.826   2.779   4.408 -0.0023 -1.4158  0.5113
 6616TIP3   OH219811   2.431   2.837   0.558 -0.3344  0.1917  0.5298
 6616TIP3    H119812   2.489   2.909   0.581 -0.5451  0.2181  0.9866
 6616TIP3    H219813   2.485   2.758   0.571 -0.3479  0.2252  0.7858
 6617TIP3   OH219814   3.909   1.232   5.097  0.0428 -0.5911 -0.4275
 6617TIP3    H119815   3.867   1.147   5.109  0.9712 -0.8587  1.1927
 6617TIP3    H219816   3.841   1.295   5.119 -0.4870 -0.9220 -1.0867
 6618TIP3   OH219817   6.826   1.731   0.439  0.3422  0.3575 -0.1532
 6618TIP3    H119818   6.764   1.726   0.512  1.5033  0.1046  0.8466
 6618TIP3    H219819   6.844   1.639   0.418  2.2843  0.3622  1.2657
 6619TIP3   OH219820   2.132   0.800   1.943  0.5863  0.2965 -0.6504
 6619TIP3    H119821   2.112   0.836   2.030  1.9283 -2.4992  0.9746
 6619TIP3    H219822   2.220   0.832   1.924  0.0175  1.4988 -1.3874
 6620TIP3   OH219823   6.472   0.731   0.547  0.1082 -0.0897 -0.1110
 6620TIP3    H119824   6.458   0.689   0.462  0.0343  1.0952 -0.7163
 6620TIP3    H219825   6.505   0.819   0.524  1.3196 -0.1908  1.1073
 6621TIP3   OH219826   0.980   1.347   4.371 -0.0132 -0.1548  0.0460
 6621TIP3    H119827   1.059   1.337   4.317 -0.5157  1.2962 -1.0416
 6621TIP3    H219828   0.913   1.295   4.326 -0.6151  1.6093 -1.2016
 6622TIP3   OH219829   1.133   2.647   3.398 -0.1105 -0.5168 -0.4260
 6622TIP3    H119830   1.075   2.640   3.322 -0.6910  0.9234 -0.1391
 6622TIP3    H219831   1.184   2.726   3.382 -1.0153  0.4328  1.1831
 6623TIP3   OH219832   7.096   0.112   3.664 -0.2682 -1.2112 -0.1584
 6623TIP3    H119833   7.041   0.139   3.590 -0.8129 -0.6563  0.4314
 6623TIP3    H219834   7.178   0.159   3.652 -1.3413  1.1145  1.0677
 6624TIP3   OH219835   5.235   2.672   0.410 -0.0230  0.3490 -0.7319
 6624TIP3    H119836   5.160   2.619   0.384 -0.7655 -0.1966  2.1984
 6624TIP3    H219837   5.269   2.630   0.488  0.6160  3.0346  0.5526
 6625TIP3   OH219838   5.841   5.389   1.481 -0.4032  0.5957  0.2538
 6625TIP3    H119839   5.933   5.410   1.468 -0.1738 -0.7183 -0.3121
 6625TIP3    H219840   5.828   5.306   1.436 -1.3179 -0.4213  2.2748
 6626TIP3   OH219841   1.371   6.281   5.488  0.1905  0.2382  0.3212
 6626TIP3    H119842   1.441   6.223   5.458 -0.3739  0.7636 -2.2432
 6626TIP3    H219843   1.401   6.369   5.465 -0.4213  0.6580  1.0741
 6627TIP3   OH219844   7.009   1.479   4.392 -0.0661  0.2665 -0.5468
 6627TIP3    H119845   7.093   1.445   4.423 -0.0698 -0.1270 -0.9430
 6627TIP3    H219846   6.957   1.492   4.471  0.6071  1.1837 -0.2408
 6628TIP3   OH219847   2.286   4.757   2.048 -0.2287 -0.0161  0.1760
 6628TIP3    H119848   2.272   4.758   2.143  4.2397 -0.7443  1.0633
 6628TIP3    H219849   2.348   4.828   2.031  0.4426 -0.9807 -1.8549
 6629TIP3   OH219850   4.513   6.666   1.882  0.2984 -0.2097 -0.1352
 6629TIP3    H119851   4.527   6.598   1.948  0.5717 -0.4507 -0.4420
 6629TIP3    H219852   4.519   6.621   1.798 -0.4841  0.0113 -0.3236
 6630TIP3   OH219853   5.492   0.034   3.374 -0.0953 -0.6203 -0.4091
 6630TIP3    H119854   5.582   0.065   3.386 -0.5385  0.3951  0.4285
 6630TIP3    H219855   5.437   0.103   3.411 -1.3072 -0.5134 -2.2476
 6631TIP3   OH219856   1.005   2.078   0.172  0.1378 -0.0102 -0.5717
 6631TIP3    H119857   0.977   2.101   0.083  0.1503 -1.3160 -0.9342
 6631TIP3    H219858   1.046   2.158   0.206 -1.7545  1.1726 -0.9468
 6632TIP3   OH219859   4.210   5.979   3.372 -0.1350 -0.4722  0.7681
 6632TIP3    H119860   4.302   6.000   3.389 -0.9652  2.5603  2.1533
 6632TIP3    H219861   4.196   6.007   3.281  0.0540  0.0635  0.9024
 6633TIP3   OH219862   4.561   6.335   1.758  0.9532  0.8927 -0.3345
 6633TIP3    H119863   4.507   6.380   1.693 -0.3799  1.9929  1.4262
 6633TIP3    H219864   4.605   6.266   1.709 -0.0842  1.5747 -2.3586
 6634TIP3   OH219865   0.121   5.295   2.160 -0.3614 -0.3008  0.3231
 6634TIP3    H119866   0.091   5.382   2.186  0.5067  0.3485 -0.7654
 6634TIP3    H219867   0.213   5.307   2.137 -0.6078 -1.1695 -1.3074
 6635TIP3   OH219868   4.163   1.776   4.356 -0.0975  0.4011 -0.5658
 6635TIP3    H119869   4.148   1.717   4.282 -1.9500  1.1512 -0.8370
 6635TIP3    H219870   4.078   1.783   4.399  0.5072  1.4546  0.5267
 6636TIP3   OH219871   4.053   6.044   4.713  0.0930  0.1671 -0.3151
 6636TIP3    H119872   3.997   6.118   4.735  1.4651  0.9491  0.7022
 6636TIP3    H219873   3.993   5.979   4.677 -1.3432  1.2512  0.0073
 6637TIP3   OH219874   3.157   0.174   0.883  0.3794 -0.3451 -0.0702
 6637TIP3    H119875   3.124   0.086   0.866  2.4968 -1.3686  0.6529
 6637TIP3    H219876   3.179   0.173   0.977  0.3518  0.9970 -0.0277
 6638TIP3   OH219877   6.129   5.591   2.071  0.3530  0.3225  0.3108
 6638TIP3    H119878   6.042   5.559   2.048  0.6293  0.4566 -1.0046
 6638TIP3    H219879   6.164   5.626   1.989  2.2933 -1.2106  0.4057
 6639TIP3   OH219880   1.914   1.273   2.495  0.9883  0.0761 -0.1440
 6639TIP3    H119881   1.928   1.326   2.574  1.3119 -0.2593  0.0267
 6639TIP3    H219882   1.819   1.277   2.481  0.7761 -0.7076  0.8782
 6640TIP3   OH219883   2.118   3.062   0.836 -0.5304 -0.4510  0.0986
 6640TIP3    H119884   2.093   3.104   0.754 -0.9683  0.2230  0.5662
 6640TIP3    H219885   2.107   3.130   0.902  2.4799 -0.0751  0.3840
 6641TIP3   OH219886   0.829   1.332   2.250 -0.0171  0.5608 -0.4211
 6641TIP3    H119887   0.813   1.242   2.221 -0.6287  0.4983  0.0865
 6641TIP3    H219888   0.856   1.378   2.171 -0.6385  0.1490 -0.8835
 6642TIP3   OH219889   6.374   1.817   4.652  0.3708 -0.2574 -0.0658
 6642TIP3    H119890   6.282   1.800   4.634  0.5944 -1.4630 -0.1702
 6642TIP3    H219891   6.374   1.888   4.716 -0.5687  0.9433 -1.3346
 6643TIP3   OH219892   0.238   0.026   5.149 -0.5946  0.0774  0.5300
 6643TIP3    H119893   0.294   0.085   5.200  2.0912 -1.8461  0.0166
 6643TIP3    H219894   0.290  -0.054   5.139 -3.4806 -1.8790 -0.0401
 6644TIP3   OH219895   2.687   5.640   2.286 -0.4172  0.5048  0.6071
 6644TIP3    H119896   2.652   5.729   2.296 -0.1648  0.5424  1.2151
 6644TIP3    H219897   2.777   5.654   2.258 -0.8416  0.4102 -0.8593
 6645TIP3   OH219898   2.096   2.575   2.962 -0.3933  0.3376 -0.2694
 6645TIP3    H119899   2.087   2.531   2.877 -1.9398 -0.5840  0.3296
 6645TIP3    H219900   2.104   2.505   3.026  0.9930  1.0310  0.3646
 6646TIP3   OH219901   4.399   6.466   0.094 -0.1901 -0.1828 -0.2819
 6646TIP3    H119902   4.387   6.474   0.189 -0.4928  1.6122 -0.4312
 6646TIP3    H219903   4.355   6.384   0.071  1.8847 -1.9013  1.4144
 6647TIP3   OH219904   6.427   3.053   3.659 -0.0104 -0.2241  0.0209
 6647TIP3    H119905   6.427   3.121   3.592 -0.3522  0.1823  0.4327
 6647TIP3    H219906   6.519   3.047   3.687 -0.2851  1.5292  1.4486
 6648TIP3   OH219907   6.704   3.369   5.313 -0.7917 -0.4588  0.3749
 6648TIP3    H119908   6.649   3.373   5.235 -1.1612  0.0583  0.6522
 6648TIP3    H219909   6.652   3.413   5.381  0.6957  1.7411  0.2029
 6649TIP3   OH219910   1.065   1.555   0.188 -0.3230 -0.2901 -0.2438
 6649TIP3    H119911   1.155   1.552   0.221 -0.3445  3.4625  0.6433
 6649TIP3    H219912   1.011   1.541   0.266 -0.4285  0.4040 -0.1796
 6650TIP3   OH219913   2.413   6.243   4.490  0.1754  0.5975  0.4440
 6650TIP3    H119914   2.393   6.333   4.466 -1.6817 -0.0431 -0.6825
 6650TIP3    H219915   2.463   6.208   4.417  0.1140  0.4816  0.4556
 6651TIP3   OH219916   0.416   1.107   4.365  0.3495 -0.1709  0.3843
 6651TIP3    H119917   0.434   1.155   4.446 -0.9879  0.7846  0.1570
 6651TIP3    H219918   0.502   1.096   4.324  0.9758 -0.1387  1.6291
 6652TIP3   OH219919   2.370   6.020   3.260  0.3286 -0.1688 -0.6024
 6652TIP3    H119920   2.454   6.026   3.305  0.4613  0.0270 -0.8694
 6652TIP3    H219921   2.349   5.926   3.260  0.9775 -0.3265 -1.3028
 6653TIP3   OH219922   4.791   3.638   5.544  0.5256  0.0145  0.2483
 6653TIP3    H119923   4.801   3.551   5.582  1.0286 -0.4186 -0.8166
 6653TIP3    H219924   4.880   3.675   5.545  0.3438  0.4510  0.5438
 6654TIP3   OH219925   3.878   1.728   0.858 -0.1763 -0.2011 -0.2714
 6654TIP3    H119926   3.833   1.646   0.878 -0.8404 -0.6247 -3.1257
 6654TIP3    H219927   3.953   1.701   0.804 -0.8308  1.1043 -1.8818
 6655TIP3   OH219928   5.954   5.150   4.834  0.4803 -0.1811 -0.1459
 6655TIP3    H119929   5.861   5.161   4.855 -0.2723 -1.3751 -2.4958
 6655TIP3    H219930   5.968   5.056   4.838  1.2622 -0.1140 -1.1122
 6656TIP3   OH219931   1.757   0.178   5.438 -0.0141 -0.0384  0.7366
 6656TIP3    H119932   1.789   0.215   5.521  0.6889  0.0821  0.4106
 6656TIP3    H219933   1.704   0.248   5.400 -2.0064 -0.7486  1.9917
 6657TIP3   OH219934   5.512   1.099   5.777 -0.8261 -0.3893 -0.2848
 6657TIP3    H119935   5.499   1.125   5.686 -2.4934  1.8480  0.5073
 6657TIP3    H219936   5.439   1.140   5.825  1.6090  1.1167  2.4921
 6658TIP3   OH219937   0.844   1.198   0.570  0.6575 -0.4748  0.6121
 6658TIP3    H119938   0.906   1.173   0.638  1.9273 -2.7105 -1.1828
 6658TIP3    H219939   0.761   1.158   0.596  0.4050  0.9201  2.0781
 6659TIP3   OH219940   6.322   3.967   3.774  0.1633 -0.2555  0.5112
 6659TIP3    H119941   6.326   3.933   3.864  1.0509 -0.2551  0.4845
 6659TIP3    H219942   6.355   3.895   3.720 -0.4620 -0.2904  0.1685
 6660TIP3   OH219943   1.274   4.217   4.501 -0.0948  0.4733  0.0228
 6660TIP3    H119944   1.358   4.261   4.488  1.2328 -1.9785 -0.2817
 6660TIP3    H219945   1.226   4.275   4.561  1.8787  1.8520  0.3818
 6661TIP3   OH219946   2.630   4.740   2.410  0.3582 -0.3306 -0.0429
 6661TIP3    H119947   2.572   4.788   2.468 -0.4794  1.4753 -2.2112
 6661TIP3    H219948   2.717   4.777   2.427 -0.3176  2.5282 -1.9632
 6662TIP3   OH219949   6.091   4.044   3.648 -0.3158 -0.0771 -0.4613
 6662TIP3    H119950   6.017   4.043   3.709 -0.1375  0.5442 -0.2326
 6662TIP3    H219951   6.159   3.993   3.691 -0.2851  0.1341 -0.2595
 6663TIP3   OH219952   1.668   3.537   2.930 -0.4677  0.4156  0.3568
 6663TIP3    H119953   1.682   3.577   3.016 -0.7428  0.2713  0.4685
 6663TIP3    H219954   1.676   3.610   2.868 -1.0829  0.6716  0.5686
 6664TIP3   OH219955   1.282   0.291   3.950 -0.0617 -0.1411  0.3157
 6664TIP3    H119956   1.319   0.379   3.953  2.1944 -1.0026 -0.1722
 6664TIP3    H219957   1.191   0.304   3.923  0.4454  1.9867 -0.5740
 6665TIP3   OH219958   3.426   6.539   4.004 -0.2548  0.1594  0.1048
 6665TIP3    H119959   3.424   6.537   4.100 -0.3366 -0.8577  0.0863
 6665TIP3    H219960   3.342   6.580   3.980 -0.8060 -0.7359  0.4460
 6666TIP3   OH219961   3.798   2.172   0.586  0.3370 -0.4541  0.0371
 6666TIP3    H119962   3.859   2.122   0.640  0.1222 -1.9189 -1.0020
 6666TIP3    H219963   3.730   2.109   0.562 -0.9661  0.8379  0.1892
 6667TIP3   OH219964   5.848   1.211   5.015 -0.5235 -0.1402  0.0672
 6667TIP3    H119965   5.826   1.165   5.096 -1.9690 -0.1978 -0.3255
 6667TIP3    H219966   5.813   1.155   4.946 -1.9294  1.3011 -0.4501
 6668TIP3   OH219967   3.422   2.179   3.515 -0.4378 -0.2392  0.3440
 6668TIP3    H119968   3.339   2.189   3.561 -0.5834 -1.1860  0.3246
 6668TIP3    H219969   3.419   2.090   3.480  0.5466 -0.2594  0.2693
 6669TIP3   OH219970   5.306   3.834   5.219 -0.4899  0.2236  0.0780
 6669TIP3    H119971   5.295   3.857   5.127 -0.5642  1.1334  0.3055
 6669TIP3    H219972   5.219   3.843   5.258 -0.6848 -1.1816  0.0397
 6670TIP3   OH219973   2.747   2.002   5.767 -0.1053  0.1767  0.2400
 6670TIP3    H119974   2.830   1.972   5.731  0.1106  2.2112 -1.1488
 6670TIP3    H219975   2.688   2.005   5.693 -1.1587 -0.3108  1.0367
 6671TIP3   OH219976   0.467   4.787   4.784 -0.0978 -0.3702  0.0140
 6671TIP3    H119977   0.454   4.875   4.820 -0.1239 -0.4478  0.1943
 6671TIP3    H219978   0.398   4.778   4.718  2.3511  1.3304 -3.0499
 6672TIP3   OH219979   2.013   2.684   2.522  0.2620  0.1285 -0.0973
 6672TIP3    H119980   2.061   2.766   2.514  0.4461  0.0798  0.4864
 6672TIP3    H219981   2.079   2.616   2.507  0.4910  0.0496  1.1518
 6673TIP3   OH219982   0.339   0.515   0.805  0.2516  0.2860 -0.1187
 6673TIP3    H119983   0.247   0.528   0.783  0.6493  0.9505 -1.5077
 6673TIP3    H219984   0.369   0.446   0.746  0.5574 -0.2393  0.6211
 6674TIP3   OH219985   1.876   1.333   5.587  0.1465 -0.1886  0.7838
 6674TIP3    H119986   1.966   1.363   5.597  0.2394 -0.3759  0.5137
 6674TIP3    H219987   1.877   1.279   5.508 -0.1166 -0.5191  1.0015
 6675TIP3   OH219988   0.172   5.914   4.000  0.3051 -0.1464 -0.3597
 6675TIP3    H119989   0.231   5.932   3.927  0.0845 -0.6328 -0.6663
 6675TIP3    H219990   0.220   5.942   4.078  1.0020 -0.6720 -0.5895
 6676TIP3   OH219991   3.796   3.994   4.611 -0.1069  0.8001 -0.0349
 6676TIP3    H119992   3.817   4.049   4.536 -0.8102  0.6290 -0.3663
 6676TIP3    H219993   3.733   3.930   4.577 -0.4863  0.7608  0.7134
 6677TIP3   OH219994   1.447   6.036   1.744 -0.5570  0.1025 -0.6111
 6677TIP3    H119995   1.420   6.048   1.653  0.9411 -0.6388 -1.1958
 6677TIP3    H219996   1.410   5.951   1.770 -1.3778  0.5310 -0.3627
 6678TIP3   OH219997   1.269   2.329   4.622  0.5291  0.2036 -0.5353
 6678TIP3    H119998   1.214   2.407   4.614  0.2706 -0.0203 -1.0046
 6678TIP3    H219999   1.209   2.256   4.602  0.8595 -0.0801 -0.4882
 6679TIP3   OH220000   7.012   0.279   2.129  0.0473  0.3773 -0.3445
 6679TIP3    H120001   7.055   0.300   2.212  0.8686 -0.9066 -0.4225
 6679TIP3    H220002   6.943   0.345   2.121 -0.4957  0.1339  1.6952
 6680TIP3   OH220003   3.194   1.672   0.320 -0.0855  0.3275  0.1919
 6680TIP3    H120004   3.189   1.634   0.232  2.4762 -1.0667  0.5676
 6680TIP3    H220005   3.216   1.598   0.376 -0.0434  1.5075  1.7785
 6681TIP3   OH220006   2.288   5.826   2.980  0.2695 -0.4282 -0.4335
 6681TIP3    H120007   2.314   5.771   3.053 -0.5746 -0.9668 -0.5158
 6681TIP3    H220008   2.214   5.877   3.013  0.8852  0.4735 -0.4363
 6682TIP3   OH220009   6.919   2.104   4.138  0.0786 -0.1754 -1.3035
 6682TIP3    H120010   6.830   2.129   4.115 -0.1338  0.0241 -0.3026
 6682TIP3    H220011   6.918   2.095   4.234  0.7117 -1.8437 -1.4202
 6683TIP3   OH220012   6.582   2.931   4.383 -0.1020  0.0645  0.3048
 6683TIP3    H120013   6.648   2.916   4.451  0.7649  0.2175 -0.4834
 6683TIP3    H220014   6.632   2.963   4.308 -0.9201 -1.0404 -0.7408
 6684TIP3   OH220015   0.795   2.003   4.124 -0.1763 -0.3606 -0.1539
 6684TIP3    H120016   0.755   1.934   4.071  1.4463  0.0299 -2.0085
 6684TIP3    H220017   0.881   2.016   4.085  0.4696  1.1151  1.6209
 6685TIP3   OH220018   0.351   5.651   0.608 -0.4098  0.5019 -0.0462
 6685TIP3    H120019   0.403   5.647   0.528 -1.3993 -0.0924 -0.6796
 6685TIP3    H220020   0.346   5.745   0.629  0.7530  0.5757 -0.0589
 6686TIP3   OH220021   4.211   6.600   4.288 -0.1104  0.2422 -0.7527
 6686TIP3    H120022   4.122   6.607   4.323 -0.7023  0.4628 -2.2228
 6686TIP3    H220023   4.217   6.511   4.254  0.4231  0.0582 -0.1923
 6687TIP3   OH220024   2.061   5.402   2.016  0.5187 -0.5779 -0.5120
 6687TIP3    H120025   2.025   5.313   2.015  0.3635 -0.5150 -0.5439
 6687TIP3    H220026   2.121   5.403   1.942  0.7545 -0.7509 -0.3256
 6688TIP3   OH220027   5.256   0.844   1.759 -0.0861  0.4753  0.4141
 6688TIP3    H120028   5.170   0.803   1.770  0.0394 -0.1036 -0.6338
 6688TIP3    H220029   5.265   0.901   1.836 -0.7159 -0.6548  1.3653
 6689TIP3   OH220030   2.186   6.232   3.259  0.0441 -0.0997 -0.5892
 6689TIP3    H120031   2.247   6.175   3.212  1.3781  0.6350  0.2073
 6689TIP3    H220032   2.181   6.196   3.347  0.7817  0.8897 -0.1196
 6690TIP3   OH220033   5.106   3.474   4.466 -0.0897  0.1593 -0.2131
 6690TIP3    H120034   5.072   3.389   4.494 -0.2068  0.0526 -0.6608
 6690TIP3    H220035   5.174   3.452   4.402  1.4312  0.3364  1.2700
 6691TIP3   OH220036   3.384   1.797   1.107  0.3256 -0.1988 -0.2420
 6691TIP3    H120037   3.424   1.738   1.043  2.1906  0.0698  0.6230
 6691TIP3    H220038   3.448   1.868   1.117 -0.9487  0.9192  0.2749
 6692TIP3   OH220039   1.099   5.350   0.240 -0.2920 -0.2053  0.0043
 6692TIP3    H120040   1.019   5.368   0.291 -1.3113 -2.2033 -0.7942
 6692TIP3    H220041   1.165   5.329   0.306 -1.6023 -2.7763  0.6295
 6693TIP3   OH220042   6.687   3.927   4.691 -0.1694 -0.8630 -0.2756
 6693TIP3    H120043   6.781   3.914   4.700 -0.1045 -1.2539 -1.4002
 6693TIP3    H220044   6.658   3.855   4.634 -1.2308 -1.0415  0.4637
 6694TIP3   OH220045   5.961   0.434   2.904  0.3779  0.3073 -0.1337
 6694TIP3    H120046   5.924   0.399   2.985  0.6693  0.2963 -0.0040
 6694TIP3    H220047   5.888   0.479   2.862 -0.2911 -1.3743 -0.8417
 6695TIP3   OH220048   1.869   4.892   0.573  0.0543  0.2140 -0.7133
 6695TIP3    H120049   1.940   4.945   0.611 -1.4775  2.4881 -0.7831
 6695TIP3    H220050   1.807   4.881   0.645  0.0658 -0.9974 -0.8812
 6696TIP3   OH220051   6.392   1.774   1.647 -0.3413  0.1337  0.5054
 6696TIP3    H120052   6.466   1.797   1.591 -1.2751 -1.6886 -1.6156
 6696TIP3    H220053   6.327   1.842   1.631  0.7343  1.6925  2.3117
 6697TIP3   OH220054   4.052   0.969   3.640 -0.2285 -0.4414  0.3007
 6697TIP3    H120055   4.066   1.035   3.708  2.9726 -1.4200  0.7794
 6697TIP3    H220056   4.091   0.889   3.676 -3.6254 -2.6309 -0.3983
 6698TIP3   OH220057   4.675   0.274   5.314  0.0957  0.0146 -0.0812
 6698TIP3    H120058   4.588   0.235   5.307  0.5553 -1.1464  0.4760
 6698TIP3    H220059   4.691   0.280   5.408  1.1992 -1.1597 -0.1643
 6699TIP3   OH220060   6.668   2.539   1.843  0.5032 -0.2930 -0.5571
 6699TIP3    H120061   6.622   2.604   1.895  0.7514 -0.6761  0.1626
 6699TIP3    H220062   6.618   2.532   1.762 -2.0226 -2.2537  1.0061
 6700TIP3   OH220063   2.599   0.041   3.431 -0.1019 -0.2442 -0.2577
 6700TIP3    H120064   2.596   0.102   3.504  0.1184  0.2800 -0.6813
 6700TIP3    H220065   2.691   0.015   3.426  0.0851  0.4961 -0.9676
 6701TIP3   OH220066   3.700   4.413   5.273 -0.5312 -0.3248 -0.2921
 6701TIP3    H120067   3.765   4.433   5.341 -0.9152 -1.3804  0.4230
 6701TIP3    H220068   3.630   4.476   5.289 -0.6898 -0.6623  0.4206
 6702TIP3   OH220069   2.868   0.710   0.488  0.0730 -0.2791 -0.0322
 6702TIP3    H120070   2.788   0.670   0.524 -0.2971 -0.3256 -0.8980
 6702TIP3    H220071   2.859   0.803   0.511  1.0157 -0.6407  2.1273
 6703TIP3   OH220072   4.962   4.451   4.366  0.1516  0.2125 -0.0366
 6703TIP3    H120073   4.918   4.367   4.379  1.4880 -0.7525 -1.3638
 6703TIP3    H220074   4.983   4.454   4.273 -0.0546  2.1454 -0.0720
 6704TIP3   OH220075   1.381   2.458   3.291 -0.1163 -0.5564 -0.2265
 6704TIP3    H120076   1.419   2.529   3.239  1.2569 -1.0233  0.0977
 6704TIP3    H220077   1.298   2.493   3.322 -0.6787 -0.0305 -2.1756
 6705TIP3   OH220078   0.330   3.388   5.073  0.2802 -0.8115  0.0852
 6705TIP3    H120079   0.407   3.371   5.128 -0.1188 -0.6796  0.6948
 6705TIP3    H220080   0.328   3.314   5.012  2.2451  0.3555 -1.5384
 6706TIP3   OH220081   3.856   5.304   2.980  0.4232 -0.7799  0.9108
 6706TIP3    H120082   3.783   5.250   3.007 -1.2015  0.1491 -1.3366
 6706TIP3    H220083   3.832   5.393   3.007 -0.5320 -0.0770 -1.9620
 6707TIP3   OH220084   0.508   1.309   4.579 -0.3455  0.2393 -0.0890
 6707TIP3    H120085   0.441   1.360   4.534 -1.9434 -1.9311 -0.3057
 6707TIP3    H220086   0.528   1.359   4.658 -1.3678  1.4918 -0.5977
 6708TIP3   OH220087   5.331   4.897   2.793  0.1092 -0.5520 -0.3004
 6708TIP3    H120088   5.363   4.921   2.880 -2.5384  1.8962  0.1457
 6708TIP3    H220089   5.346   4.803   2.786  3.9529 -0.1945  1.1609
 6709TIP3   OH220090   7.094   2.156   0.939  0.1385  0.2830 -0.6135
 6709TIP3    H120091   7.170   2.125   0.889 -0.0477 -2.2849  0.5236
 6709TIP3    H220092   7.056   2.076   0.976 -1.8792  1.7200  0.6156
 6710TIP3   OH220093   0.817   4.978   2.011 -0.2735  0.0485 -0.2316
 6710TIP3    H120094   0.903   4.979   1.970  0.0740  0.7624  0.4883
 6710TIP3    H220095   0.835   4.972   2.105 -1.0326 -0.8129 -0.1222
 6711TIP3   OH220096   5.141   4.429   0.794 -0.0447  0.1287 -0.4260
 6711TIP3    H120097   5.176   4.516   0.813  1.4161 -0.2193 -1.3563
 6711TIP3    H220098   5.098   4.402   0.875  0.7268  1.1467  0.3481
 6712TIP3   OH220099   6.341   6.675   4.787 -0.6770  0.1600 -0.6584
 6712TIP3    H120100   6.385   6.591   4.798 -1.5139 -0.5158 -2.1824
 6712TIP3    H220101   6.393   6.720   4.721 -0.9707  0.3147 -0.7829
 6713TIP3   OH220102   5.083   4.955   2.973  0.3379  0.0187  0.2568
 6713TIP3    H120103   5.099   5.019   2.904  0.6413 -0.2636  0.0654
 6713TIP3    H220104   5.170   4.927   3.001  0.2039 -0.8070 -0.1304
 6714TIP3   OH220105   4.613   5.313   0.231 -0.5918 -0.8101  0.0684
 6714TIP3    H120106   4.555   5.363   0.288  0.0643 -0.1973  0.2068
 6714TIP3    H220107   4.612   5.225   0.268 -0.3732 -0.4826  0.8817
 6715TIP3   OH220108   6.887   4.422   4.448 -0.6044  0.0044 -0.8400
 6715TIP3    H120109   6.958   4.483   4.431  1.2179 -1.8314 -0.3059
 6715TIP3    H220110   6.834   4.465   4.515  0.9059  0.8215 -0.1058
 6716TIP3   OH220111   3.998   3.482   3.209 -0.1012  0.3318 -0.2062
 6716TIP3    H120112   3.988   3.520   3.297  0.3092  0.7548 -0.3403
 6716TIP3    H220113   4.029   3.555   3.155  0.5709 -0.1587 -0.4939
 6717TIP3   OH220114   4.335   3.683   2.719 -0.4153 -0.1795 -0.3545
 6717TIP3    H120115   4.390   3.636   2.658  1.5165  1.5290 -0.0336
 6717TIP3    H220116   4.371   3.663   2.805 -1.1247 -0.0612 -0.0162
 6718TIP3   OH220117   5.411   3.815   2.393  0.0005  0.2931  0.0549
 6718TIP3    H120118   5.446   3.753   2.329  0.7568  0.0898  0.6485
 6718TIP3    H220119   5.489   3.857   2.431 -0.5053  2.1064 -0.8056
 6719TIP3   OH220120   4.363   1.659   3.337  0.1721 -0.1486 -0.2525
 6719TIP3    H120121   4.445   1.658   3.288 -0.2504  0.0900 -0.9805
 6719TIP3    H220122   4.379   1.720   3.409  0.6296 -0.0980 -0.3915
 6720TIP3   OH220123   0.241   3.626   4.999 -0.1296 -0.1718  0.0980
 6720TIP3    H120124   0.287   3.549   5.034  1.0167  0.2454 -0.4573
 6720TIP3    H220125   0.254   3.693   5.066 -1.4550 -0.5329  0.7637
 6721TIP3   OH220126   5.521   2.465   2.734  0.4825  0.2136 -0.3496
 6721TIP3    H120127   5.463   2.391   2.714  0.3819  0.0676  0.4612
 6721TIP3    H220128   5.567   2.438   2.814  1.0274  0.6984 -0.4918
 6722TIP3   OH220129   1.327   3.790   5.168 -0.2447 -0.1298 -0.8447
 6722TIP3    H120130   1.390   3.718   5.159  1.5185  1.4959 -2.1509
 6722TIP3    H220131   1.380   3.867   5.185 -2.0151  1.1072 -0.6108
 6723TIP3   OH220132   1.056   4.604   3.989  0.3502  1.1811  0.4340
 6723TIP3    H120133   1.106   4.640   4.062  0.6503 -1.8171  1.8978
 6723TIP3    H220134   0.967   4.596   4.022 -0.0810  2.0938 -0.4630
 6724TIP3   OH220135   4.533   4.175   2.771  0.3040 -0.6667  0.3908
 6724TIP3    H120136   4.452   4.125   2.781 -0.3891 -0.1406 -2.0485
 6724TIP3    H220137   4.573   4.140   2.692  1.1924  0.7821  0.1740
 6725TIP3   OH220138   3.309   4.440   2.864 -0.1592 -0.3288 -0.2215
 6725TIP3    H120139   3.337   4.390   2.940 -0.3031 -0.1162 -0.0266
 6725TIP3    H220140   3.376   4.422   2.798 -0.2901 -0.8925 -0.2047
 6726TIP3   OH220141   6.020   4.192   1.008  0.5266  0.1023 -0.4568
 6726TIP3    H120142   5.957   4.158   1.072 -2.0915  2.3743 -1.5877
 6726TIP3    H220143   6.105   4.180   1.049 -0.7174 -1.8215  1.8397
 6727TIP3   OH220144   7.053   5.466   0.073 -0.5847 -0.0110 -0.3293
 6727TIP3    H120145   7.116   5.538   0.066 -0.8046  0.5657  2.5908
 6727TIP3    H220146   7.054   5.442   0.165 -0.1602 -4.1538 -1.2242
 6728TIP3   OH220147   6.331   6.132   3.558  0.6733  0.1037 -0.2995
 6728TIP3    H120148   6.390   6.099   3.626  0.4594  0.4544  0.0582
 6728TIP3    H220149   6.244   6.120   3.595  0.6270  2.5046  0.5076
 6729TIP3   OH220150   7.157   2.594   2.271 -0.2232  0.3211  0.0967
 6729TIP3    H120151   7.089   2.540   2.232  0.4913 -0.3539 -0.2574
 6729TIP3    H220152   7.111   2.670   2.306 -0.9425  0.7836 -1.7501
 6730TIP3   OH220153   4.002   1.152   0.711 -0.1050 -0.1726  0.1792
 6730TIP3    H120154   3.959   1.228   0.672 -1.0719 -0.4379  0.6993
 6730TIP3    H220155   4.047   1.109   0.638 -1.9591 -0.7280 -0.6887
 6731TIP3   OH220156   6.197   0.357   4.662 -0.0170  0.1492 -0.1745
 6731TIP3    H120157   6.263   0.288   4.667  1.4517  1.2886 -2.4366
 6731TIP3    H220158   6.220   0.417   4.733 -0.1843 -0.7030  0.6267
 6732TIP3   OH220159   0.131   5.405   0.398  0.0303  0.6184  0.7409
 6732TIP3    H120160   0.145   5.396   0.492  1.5339 -0.6642  0.4343
 6732TIP3    H220161   0.206   5.457   0.367 -0.8330  1.6676  0.3295
 6733TIP3   OH220162   1.899   4.349   2.774 -0.8600 -0.2617 -0.4043
 6733TIP3    H120163   1.856   4.273   2.735 -1.0950  0.0290 -0.7081
 6733TIP3    H220164   1.977   4.312   2.817  0.3045 -0.3965 -2.5088
 6734TIP3   OH220165   3.510   0.717   2.762 -0.0440  0.0195  0.6610
 6734TIP3    H120166   3.494   0.793   2.817  0.3404  0.6939 -0.1440
 6734TIP3    H220167   3.436   0.715   2.701 -0.6107 -0.8804  1.3419
 6735TIP3   OH220168   3.151   5.627   4.531 -0.1581 -0.2824  0.0124
 6735TIP3    H120169   3.112   5.550   4.490  1.0708 -1.3201  0.7193
 6735TIP3    H220170   3.077   5.684   4.552 -1.1310 -1.4936 -0.0756
 6736TIP3   OH220171   2.485   5.166   4.002 -0.1942 -0.5341  0.4380
 6736TIP3    H120172   2.547   5.125   4.063  0.3775 -1.6523 -0.8368
 6736TIP3    H220173   2.540   5.200   3.931 -0.8287  0.9535  0.6222
 6737TIP3   OH220174   0.214   0.664   5.886  0.2104 -0.2500  0.2244
 6737TIP3    H120175   0.168   0.581   5.887 -0.1836 -0.0406  1.9364
 6737TIP3    H220176   0.185   0.706   5.804 -3.4842  0.2919  1.5920
 6738TIP3   OH220177   2.778   4.052   4.466 -0.4691  0.0131  0.1418
 6738TIP3    H120178   2.873   4.060   4.479 -0.6688  1.5694  0.8961
 6738TIP3    H220179   2.769   3.991   4.393  1.0964 -0.5081  0.3430
 6739TIP3   OH220180   6.918   3.583   1.898  0.2332  0.2207 -0.5480
 6739TIP3    H120181   6.831   3.542   1.892  0.8188 -1.1471 -0.0568
 6739TIP3    H220182   6.968   3.542   1.827  0.7313  0.3623 -0.2784
 6740TIP3   OH220183   6.523   0.022   2.908  0.0548 -0.1919 -0.2882
 6740TIP3    H120184   6.443   0.049   2.863  0.9957  3.5186  0.0166
 6740TIP3    H220185   6.492  -0.018   2.990 -1.4904  0.4201 -0.5512
 6741TIP3   OH220186   2.747   1.957   2.961  0.5920 -0.1180  0.2088
 6741TIP3    H120187   2.733   2.029   2.899  1.5227  0.5329  0.7453
 6741TIP3    H220188   2.659   1.923   2.978  0.1719  0.7023 -0.2669
 6742TIP3   OH220189   4.986   3.328   0.762  0.1989 -0.4703  0.5602
 6742TIP3    H120190   5.049   3.399   0.753 -0.7510  0.3245  0.0387
 6742TIP3    H220191   4.943   3.344   0.846  0.5726 -0.9288  0.8463
 6743TIP3   OH220192   7.016   1.432   2.349 -0.1387  0.1553 -0.6895
 6743TIP3    H120193   6.947   1.422   2.416  1.4845 -1.8765  0.8194
 6743TIP3    H220194   6.996   1.365   2.284 -0.3180  0.4664 -0.9592
 6744TIP3   OH220195   2.830   6.669   5.002 -0.3936  0.8771  0.1556
 6744TIP3    H120196   2.889   6.641   4.932  0.1745  0.7416  0.6736
 6744TIP3    H220197   2.744   6.635   4.977  0.0188 -0.1669  0.0935
 6745TIP3   OH220198   3.945   1.812   1.532 -0.4853  0.3317  0.1725
 6745TIP3    H120199   3.863   1.769   1.556 -0.4186  0.0751 -0.0622
 6745TIP3    H220200   3.918   1.891   1.485 -0.6038  0.4263  0.4008
 6746TIP3   OH220201   1.257   3.016   5.031 -0.1451  0.2706 -0.3936
 6746TIP3    H120202   1.202   2.960   5.085 -0.2129 -1.5084 -2.2004
 6746TIP3    H220203   1.195   3.066   4.977 -0.0391  1.0155  0.1492
 6747TIP3   OH220204   1.929   2.716   5.497 -0.5145 -0.2569  0.2886
 6747TIP3    H120205   1.950   2.777   5.568  0.0770 -1.0622  0.8236
 6747TIP3    H220206   1.854   2.666   5.530  0.8528 -1.8368  1.1134
 6748TIP3   OH220207   5.020   1.382   1.371 -0.1667 -0.1455 -0.1977
 6748TIP3    H120208   4.939   1.418   1.408 -0.6053 -0.2043 -1.0915
 6748TIP3    H220209   4.995   1.352   1.284  1.0636  0.8489 -0.9209
 6749TIP3   OH220210   0.616   1.203   3.365  0.0908  0.2745  0.2137
 6749TIP3    H120211   0.600   1.237   3.277  0.8576  0.2129  0.0450
 6749TIP3    H220212   0.596   1.276   3.424  0.3416  0.5629 -0.0604
 6750TIP3   OH220213   4.338   2.284   4.973  0.0848 -0.2997 -0.0152
 6750TIP3    H120214   4.324   2.373   5.005  0.8697  0.1115 -0.7818
 6750TIP3    H220215   4.428   2.283   4.942  0.1845 -1.4643  0.2815
 6751TIP3   OH220216   2.177   1.822   0.094  0.1275 -0.3781  0.0854
 6751TIP3    H120217   2.192   1.731   0.120  0.8197 -0.0338  0.9378
 6751TIP3    H220218   2.228   1.833   0.013  1.9155 -0.1313  1.2050
 6752TIP3   OH220219   5.166   2.398   5.534  0.3823  0.0741  0.0567
 6752TIP3    H120220   5.124   2.413   5.449 -1.5192  0.0108  0.9231
 6752TIP3    H220221   5.154   2.305   5.551  0.9204  0.0474  0.3130
 6753TIP3   OH220222   3.502   1.448   1.756 -0.1212 -0.4296 -0.0444
 6753TIP3    H120223   3.550   1.381   1.707 -0.0648  0.1295 -0.7854
 6753TIP3    H220224   3.425   1.403   1.789 -1.4348 -0.3397 -2.6687
 6754TIP3   OH220225   3.559   1.833   3.111 -0.3469  0.1437  0.0064
 6754TIP3    H120226   3.470   1.824   3.146 -0.1038  0.2418  0.6556
 6754TIP3    H220227   3.594   1.911   3.154  1.0337 -1.4307  1.9071
 6755TIP3   OH220228   3.311   6.743   0.789 -0.3788 -0.1269 -0.1393
 6755TIP3    H120229   3.341   6.834   0.784 -0.7823  0.0037 -0.2621
 6755TIP3    H220230   3.232   6.741   0.735  1.0155 -1.1469 -2.3087
 6756TIP3   OH220231   0.670   0.692   2.080 -0.6229 -0.1328  0.3454
 6756TIP3    H120232   0.757   0.702   2.041 -1.6130 -0.0813 -2.0134
 6756TIP3    H220233   0.685   0.698   2.175  1.6796  1.6612 -0.0583
 6757TIP3   OH220234   7.068   6.549   1.356  0.2417 -0.0929  0.5345
 6757TIP3    H120235   7.102   6.623   1.306 -0.6222 -0.0668 -0.0224
 6757TIP3    H220236   7.128   6.477   1.336 -0.3292 -0.1907 -0.8751
 6758TIP3   OH220237   6.847   6.147   3.795 -0.1386 -0.2178 -0.3711
 6758TIP3    H120238   6.893   6.066   3.818  2.7670  0.7422 -2.1664
 6758TIP3    H220239   6.792   6.124   3.720  1.3609 -0.4227 -1.4526
 6759TIP3   OH220240   0.429   5.620   3.474 -0.4788 -0.4260 -0.1694
 6759TIP3    H120241   0.426   5.716   3.476  0.1329 -0.4074 -0.1517
 6759TIP3    H220242   0.489   5.596   3.544 -0.1588 -0.7976 -0.5655
 6760TIP3   OH220243   2.950   3.253   2.314 -0.4393  0.8415 -0.2403
 6760TIP3    H120244   2.982   3.340   2.340  0.2859  1.1920 -2.1395
 6760TIP3    H220245   2.928   3.210   2.397 -0.3390  2.6392  0.7857
 6761TIP3   OH220246   6.555   5.514   1.587  0.5046  0.1127 -0.2450
 6761TIP3    H120247   6.534   5.460   1.510  0.6750  0.9057 -0.8585
 6761TIP3    H220248   6.606   5.587   1.552  1.6581 -0.1630  0.8027
 6762TIP3   OH220249   1.952   2.878   3.174 -0.0776  0.5222  0.1046
 6762TIP3    H120250   2.044   2.890   3.150 -0.0379  1.6271  0.7304
 6762TIP3    H220251   1.935   2.785   3.159  0.4363  0.7737 -2.4277
 6763TIP3   OH220252   2.597   2.243   3.699  0.6436  0.0958 -0.2400
 6763TIP3    H120253   2.555   2.162   3.670 -0.3419  1.0366 -1.6041
 6763TIP3    H220254   2.667   2.257   3.636  1.7035 -0.3715  0.7977
 6764TIP3   OH220255   0.668   0.923   5.313  0.7239 -0.5503 -0.0880
 6764TIP3    H120256   0.697   0.872   5.389 -0.2741 -1.6432 -0.4132
 6764TIP3    H220257   0.746   0.971   5.285  1.1012 -0.0965  1.6448
 6765TIP3   OH220258   5.936   1.100   3.099 -0.5691 -0.1726 -0.1916
 6765TIP3    H120259   5.852   1.103   3.145  0.1854  1.5358  1.1862
 6765TIP3    H220260   5.921   1.151   3.019 -0.7115  0.6814  0.3582
 6766TIP3   OH220261   1.292   5.953   5.528 -0.2919  0.7200 -0.1667
 6766TIP3    H120262   1.285   6.042   5.493 -0.4134  0.6528 -0.3137
 6766TIP3    H220263   1.262   5.961   5.619  0.8642  1.0639  0.2002
 6767TIP3   OH220264   0.438   3.359   0.720  0.0927  0.1977  1.2245
 6767TIP3    H120265   0.500   3.432   0.715 -0.1315  0.3251 -0.7553
 6767TIP3    H220266   0.352   3.401   0.718 -0.0453 -0.0813  1.2901
 6768TIP3   OH220267   6.755   3.671   1.370 -0.3965 -0.3868  0.5774
 6768TIP3    H120268   6.781   3.704   1.456 -1.1679  3.4330 -0.4476
 6768TIP3    H220269   6.717   3.585   1.387  0.6813 -0.3644  3.8181
 6769TIP3   OH220270   2.855   3.482   5.642  0.3038  0.1074 -0.1788
 6769TIP3    H120271   2.877   3.416   5.576  1.4245 -1.0492  1.2708
 6769TIP3    H220272   2.825   3.430   5.717  0.3393  1.3039  0.6807
 6770TIP3   OH220273   3.768   3.142   0.430 -0.8760 -0.0044 -0.0573
 6770TIP3    H120274   3.824   3.161   0.505 -1.3382 -2.6414  1.0837
 6770TIP3    H220275   3.826   3.147   0.354  0.2392  0.1128  0.7789
 6771TIP3   OH220276   6.197   5.241   1.592 -0.0588 -0.1888  0.1955
 6771TIP3    H120277   6.106   5.228   1.619 -0.0618 -0.6342 -0.0166
 6771TIP3    H220278   6.219   5.329   1.621 -0.0793 -0.6279  1.6079
 6772TIP3   OH220279   6.811   2.224   0.651  0.1604  0.2928 -0.0729
 6772TIP3    H120280   6.824   2.299   0.709  2.0999  0.2785 -0.4004
 6772TIP3    H220281   6.723   2.193   0.670 -1.4692  3.7218 -1.2270
 6773TIP3   OH220282   7.037   1.161   4.636  0.1174 -0.7775  0.5977
 6773TIP3    H120283   7.045   1.240   4.690 -1.5667  0.4723 -0.8491
 6773TIP3    H220284   6.989   1.099   4.692 -2.0262  0.6626  0.4954
 6774TIP3   OH220285   4.884   5.396   4.535  0.3693 -0.3718  0.3355
 6774TIP3    H120286   4.902   5.303   4.519 -0.1969 -0.4419  0.0717
 6774TIP3    H220287   4.921   5.440   4.458 -0.3403 -0.4931 -0.0888
 6775TIP3   OH220288   4.331   2.089   5.279  0.0582  0.2347  0.4167
 6775TIP3    H120289   4.417   2.110   5.242  0.0472  1.0893  0.8468
 6775TIP3    H220290   4.318   2.154   5.348 -0.6701 -0.2696  0.7700
 6776TIP3   OH220291   4.833   2.179   1.755 -0.6450 -0.1631 -0.3290
 6776TIP3    H120292   4.787   2.111   1.806 -1.5367 -0.6887 -1.7734
 6776TIP3    H220293   4.804   2.261   1.794  0.4920 -0.5724  1.4878
 6777TIP3   OH220294   1.027   4.387   2.845 -0.4098 -0.1421  0.4259
 6777TIP3    H120295   1.008   4.474   2.878 -2.1092 -0.3399  0.1002
 6777TIP3    H220296   0.980   4.382   2.762 -0.7701 -1.5259  0.6829
 6778TIP3   OH220297   3.950   5.257   5.641 -0.0844  0.4498  0.3045
 6778TIP3    H120298   3.875   5.225   5.691 -0.6768 -0.0100 -0.8282
 6778TIP3    H220299   4.024   5.205   5.671 -0.7545 -0.9932 -0.4562
 6779TIP3   OH220300   5.244   3.672   4.097  0.3057  0.3051  0.3031
 6779TIP3    H120301   5.246   3.735   4.025 -1.7108 -1.2011 -1.2137
 6779TIP3    H220302   5.152   3.669   4.124  0.5940 -0.9584  1.2666
 6780TIP3   OH220303   3.693   2.587   5.242  0.2956 -0.0972 -0.2627
 6780TIP3    H120304   3.783   2.609   5.216  0.3096 -0.8150 -0.8668
 6780TIP3    H220305   3.659   2.667   5.282  1.1851  0.2018 -0.0727
 6781TIP3   OH220306   5.815   1.135   5.720  0.2735  0.0049 -0.2557
 6781TIP3    H120307   5.863   1.120   5.638  0.2792  1.3942 -0.5198
 6781TIP3    H220308   5.726   1.156   5.692  0.2057  0.2126  0.1171
 6782TIP3   OH220309   5.288   2.244   2.099 -0.0083 -0.5753 -0.9941
 6782TIP3    H120310   5.320   2.154   2.094  0.2584 -0.5691  0.2905
 6782TIP3    H220311   5.263   2.265   2.009  0.1875 -1.8304 -1.3668
 6783TIP3   OH220312   5.048   5.269   0.092  0.2794 -0.7531 -0.1996
 6783TIP3    H120313   4.966   5.227   0.064  0.3182 -1.6811  1.0064
 6783TIP3    H220314   5.078   5.316   0.015 -2.5052  1.4419 -0.0901
 6784TIP3   OH220315   6.135   3.278   1.413  0.2301 -0.8225 -0.3460
 6784TIP3    H120316   6.076   3.268   1.339 -0.4217 -1.7350  0.2793
 6784TIP3    H220317   6.080   3.307   1.485  0.3707 -2.3781  0.4395
 6785TIP3   OH220318   4.345   1.463   2.558  0.0883  0.6212 -0.4346
 6785TIP3    H120319   4.431   1.486   2.592 -0.0418  1.7884 -0.8454
 6785TIP3    H220320   4.290   1.539   2.580 -1.5106 -1.1059  2.1320
 6786TIP3   OH220321   1.103   3.777   1.375  0.7161  0.1503 -0.4433
 6786TIP3    H120322   1.100   3.871   1.361 -1.0659 -0.0128 -1.5530
 6786TIP3    H220323   1.024   3.744   1.332  2.3758 -2.1030 -1.9746
 6787TIP3   OH220324   5.467   6.329   0.100 -0.7867 -0.1073 -0.4178
 6787TIP3    H120325   5.519   6.284   0.167  0.3148  0.3755 -0.9269
 6787TIP3    H220326   5.497   6.292   0.017 -1.1659  0.2747 -0.7322
 6788TIP3   OH220327   0.539   5.405   3.955 -0.1769  0.2331 -0.7217
 6788TIP3    H120328   0.632   5.387   3.939  0.3211  1.1311  0.9313
 6788TIP3    H220329   0.494   5.323   3.932  0.9077  0.0507 -2.3303
 6789TIP3   OH220330   6.317   4.968   2.722  0.1177  0.2904  0.1484
 6789TIP3    H120331   6.323   5.062   2.706  0.9112  0.1670 -0.3280
 6789TIP3    H220332   6.338   4.928   2.638 -0.5105 -0.3148  0.2738
 6790TIP3   OH220333   6.398   2.987   5.530  0.0387  0.7798 -0.0288
 6790TIP3    H120334   6.479   3.016   5.488  0.3178  1.4332  0.9249
 6790TIP3    H220335   6.404   2.892   5.532 -0.1772  0.6976 -1.8313
 6791TIP3   OH220336   1.153   4.399   5.323  0.2263  0.2864  0.0096
 6791TIP3    H120337   1.063   4.425   5.304  0.3527  0.7114 -0.0127
 6791TIP3    H220338   1.207   4.457   5.270  0.5417  0.6122  0.6669
 6792TIP3   OH220339   4.292   0.129   4.183 -0.2142 -0.1288  0.2944
 6792TIP3    H120340   4.248   0.203   4.225 -0.4126  0.1539 -0.4024
 6792TIP3    H220341   4.377   0.125   4.226 -1.1600 -1.1453  2.1893
 6793TIP3   OH220342   5.247   3.141   1.353  0.6075  0.1638  0.4872
 6793TIP3    H120343   5.155   3.125   1.331  0.6810  0.1965  0.1449
 6793TIP3    H220344   5.265   3.081   1.426 -0.7703  2.8721  3.2870
 6794TIP3   OH220345   0.692   5.639   5.809  0.1634 -0.1080  0.1241
 6794TIP3    H120346   0.753   5.709   5.788 -1.0085  1.0057  0.2715
 6794TIP3    H220347   0.608   5.683   5.821 -0.7624 -1.6212 -0.4370
 6795TIP3   OH220348   7.169   0.304   4.965 -0.0080  0.4006  0.7677
 6795TIP3    H120349   7.233   0.372   4.988 -0.2535  0.2054  2.1282
 6795TIP3    H220350   7.151   0.259   5.048 -0.1528 -1.0704 -0.0409
 6796TIP3   OH220351   7.051   2.559   1.072 -0.8119  0.3476  0.2901
 6796TIP3    H120352   7.057   2.653   1.056 -0.3490  0.6070  1.8634
 6796TIP3    H220353   7.079   2.548   1.163 -1.0987 -1.2857  0.2079
 6797TIP3   OH220354   4.344   2.007   0.426  0.4056 -0.0193  0.5628
 6797TIP3    H120355   4.259   2.041   0.398  0.7793 -0.1225 -0.7566
 6797TIP3    H220356   4.389   1.987   0.345  1.6661 -0.0521  1.2540
 6798TIP3   OH220357   4.186   5.780   3.019  0.8510 -0.1824 -0.0457
 6798TIP3    H120358   4.188   5.837   2.942  0.6773 -1.4578 -1.0326
 6798TIP3    H220359   4.239   5.826   3.084  2.2505  0.2494 -1.4211
 6799TIP3   OH220360   6.558   3.147   3.292  0.2854 -0.1434  0.2107
 6799TIP3    H120361   6.565   3.174   3.383  0.0452  0.2830  0.1074
 6799TIP3    H220362   6.464   3.144   3.275  0.3254 -0.4156  0.0349
 6800TIP3   OH220363   4.507   3.194   5.350  0.0457 -0.1286 -0.6118
 6800TIP3    H120364   4.581   3.133   5.356  0.1193 -0.1358 -1.4244
 6800TIP3    H220365   4.543   3.277   5.382 -0.2897 -0.6780  1.2730
 6801TIP3   OH220366   7.197   0.031   5.809  0.2189 -0.2656  0.1548
 6801TIP3    H120367   7.116  -0.008   5.840 -0.0893 -0.9795 -1.4448
 6801TIP3    H220368   7.172   0.082   5.732  1.4742 -1.9186 -1.4407
 6802TIP3   OH220369   4.580   3.464   5.438  0.8198  0.3054 -0.3456
 6802TIP3    H120370   4.625   3.481   5.521  0.0997 -2.3924  0.7060
 6802TIP3    H220371   4.497   3.511   5.447  0.5180 -0.3855  0.7418
 6803TIP3   OH220372   4.507   0.541   4.283  0.2529  0.0945  0.0460
 6803TIP3    H120373   4.448   0.551   4.208 -0.6402  0.1091  0.7274
 6803TIP3    H220374   4.450   0.548   4.360  1.1784  0.2927  0.7378
 6804TIP3   OH220375   6.800   2.624   5.458  0.0074  0.2450 -0.2468
 6804TIP3    H120376   6.738   2.648   5.390 -0.6744 -0.2827  0.1768
 6804TIP3    H220377   6.874   2.586   5.410  0.4626  1.7732 -0.8205
 6805TIP3   OH220378   1.237   1.877   3.540 -0.5894 -0.1281  0.1367
 6805TIP3    H120379   1.152   1.846   3.572 -0.6735 -0.0546 -0.0171
 6805TIP3    H220380   1.229   1.876   3.445 -0.4634  0.0058  0.1244
 6806TIP3   OH220381   2.657   2.639   0.979  0.6928  0.7971  0.1235
 6806TIP3    H120382   2.598   2.617   0.906  0.2066 -0.0779  0.7488
 6806TIP3    H220383   2.704   2.716   0.950  0.4171  0.5351 -1.0692
 6807TIP3   OH220384   4.080   6.704   1.801 -0.1450 -0.1211 -0.2783
 6807TIP3    H120385   4.135   6.781   1.788 -0.3490 -0.2295 -2.0144
 6807TIP3    H220386   4.140   6.636   1.832  0.1987  0.4533  0.3608
 6808TIP3   OH220387   3.678   2.504   3.806 -0.2308  0.0437 -0.0094
 6808TIP3    H120388   3.715   2.465   3.886  0.8288 -2.2144 -1.5005
 6808TIP3    H220389   3.656   2.429   3.751 -0.6407  1.5485 -1.9914
 6809TIP3   OH220390   3.644   2.815   0.244  0.3064 -0.4094  0.0613
 6809TIP3    H120391   3.582   2.767   0.189 -0.3691 -0.7285  1.0896
 6809TIP3    H220392   3.638   2.906   0.214 -1.0497 -0.3418  0.4972
 6810TIP3   OH220393   2.345   5.258   0.754 -0.0810 -0.4215  0.2134
 6810TIP3    H120394   2.411   5.265   0.686 -0.9055 -0.4493 -0.6140
 6810TIP3    H220395   2.393   5.229   0.832  1.2649  1.6636  0.2482
 6811TIP3   OH220396   5.623   4.357   2.744 -0.2709  0.0230 -0.1412
 6811TIP3    H120397   5.617   4.447   2.711  0.2014  0.9144  2.0520
 6811TIP3    H220398   5.535   4.321   2.729 -0.4358  0.7914 -1.1395
 6812TIP3   OH220399   6.787   3.395   1.658 -0.3608  0.7167 -0.1761
 6812TIP3    H120400   6.778   3.307   1.696  1.0803  0.1222 -1.1476
 6812TIP3    H220401   6.731   3.394   1.580  0.6945  0.1819 -0.9469
 6813TIP3   OH220402   5.861   3.092   5.050 -0.0805  0.0836  0.2695
 6813TIP3    H120403   5.853   3.184   5.025  0.3418 -0.1863 -0.9147
 6813TIP3    H220404   5.953   3.082   5.077 -0.1617  0.0364  0.5351
 6814TIP3   OH220405   0.129   2.449   1.018 -0.1225  0.5914  0.3035
 6814TIP3    H120406   0.041   2.469   1.049  0.1040 -1.0769  2.2506
 6814TIP3    H220407   0.124   2.359   0.987  0.1574  1.5566 -2.9338
 6815TIP3   OH220408   6.880   2.857   2.675  0.0076  0.2136  0.1073
 6815TIP3    H120409   6.900   2.768   2.645  0.3031  0.2627  0.1534
 6815TIP3    H220410   6.820   2.892   2.609 -0.5285 -0.2032  0.3616
 6816TIP3   OH220411   5.331   1.789   3.352 -0.4538  0.1457 -0.6020
 6816TIP3    H120412   5.281   1.827   3.279  0.1155 -0.4525 -1.3282
 6816TIP3    H220413   5.344   1.861   3.413 -1.3530  0.5439 -0.8722
 6817TIP3   OH220414   0.674   4.777   1.920 -0.4616 -0.3803 -0.0219
 6817TIP3    H120415   0.594   4.815   1.884 -1.4400 -1.1199  1.3003
 6817TIP3    H220416   0.722   4.852   1.956  0.1393  0.2536 -2.0452
 6818TIP3   OH220417   2.677   3.903   0.908  0.1849 -0.6655  0.3958
 6818TIP3    H120418   2.678   3.810   0.884 -2.0251 -0.2678 -1.5328
 6818TIP3    H220419   2.683   3.950   0.825 -1.0650  0.8835  1.1170
 6819TIP3   OH220420   3.376   5.701   0.981 -0.1388  0.1447  0.4088
 6819TIP3    H120421   3.298   5.753   0.998 -0.8383 -0.7364  0.0152
 6819TIP3    H220422   3.370   5.680   0.888  0.1436 -0.5812  0.5473
 6820TIP3   OH220423   3.344   0.451   3.783 -0.1628 -0.4739 -0.4945
 6820TIP3    H120424   3.395   0.475   3.705  0.9736 -0.4220  0.2349
 6820TIP3    H220425   3.253   0.459   3.755  0.1701  1.6856 -1.2177
 6821TIP3   OH220426   3.333   2.222   2.303 -0.0425  0.2296 -0.4376
 6821TIP3    H120427   3.318   2.221   2.397 -0.1210  0.7290 -0.4464
 6821TIP3    H220428   3.304   2.135   2.273  1.9307 -0.7454  0.2989
 6822TIP3   OH220429   5.424   5.540   5.719  0.7464  0.5446  0.6251
 6822TIP3    H120430   5.450   5.465   5.666  0.1276 -0.0557  1.1600
 6822TIP3    H220431   5.507   5.576   5.752  1.0233 -0.0931  0.6269
 6823TIP3   OH220432   5.476   2.974   5.519 -0.1508 -0.4044 -0.4484
 6823TIP3    H120433   5.448   2.924   5.596  0.8054 -2.1401 -1.1657
 6823TIP3    H220434   5.567   2.998   5.538 -0.2038 -0.0342 -0.6528
 6824TIP3   OH220435   5.706   3.383   2.813  0.4537 -0.5160 -0.6648
 6824TIP3    H120436   5.657   3.445   2.760  0.6939  1.0554  0.8810
 6824TIP3    H220437   5.774   3.436   2.856  1.6155 -2.1041 -0.4395
 6825TIP3   OH220438   3.903   0.898   2.791  0.3636 -0.1196  0.4909
 6825TIP3    H120439   3.923   0.891   2.884 -0.4246  1.7873  0.8419
 6825TIP3    H220440   3.988   0.904   2.748  0.7970 -2.3047  0.8964
 6826TIP3   OH220441   6.360   3.997   4.095 -0.1336 -0.9396  0.5265
 6826TIP3    H120442   6.362   4.006   4.190  0.1196 -0.9963  0.5262
 6826TIP3    H220443   6.422   4.062   4.063 -0.5021 -0.6605  0.3814
 6827TIP3   OH220444   4.880   1.128   4.097 -0.1808  0.1809 -0.1938
 6827TIP3    H120445   4.820   1.200   4.075 -0.2042  0.4079  0.5871
 6827TIP3    H220446   4.866   1.063   4.028 -0.0680  0.9768 -0.9841
 6828TIP3   OH220447   7.061   0.641   0.945 -0.2467  0.1228 -0.1334
 6828TIP3    H120448   7.047   0.571   1.008  0.9499  0.3051  0.3609
 6828TIP3    H220449   7.056   0.721   0.997  1.5277  0.2400 -0.0936
 6829TIP3   OH220450   2.594   0.560   0.312  0.5958  0.0547 -0.1971
 6829TIP3    H120451   2.611   0.651   0.337  0.2883 -0.2090  1.0165
 6829TIP3    H220452   2.610   0.558   0.217  1.4126  1.1752 -0.1002
 6830TIP3   OH220453   6.156   3.881   4.861  0.5471  0.8567 -0.3588
 6830TIP3    H120454   6.209   3.838   4.793 -2.7939 -0.4381 -2.4024
 6830TIP3    H220455   6.140   3.812   4.926  1.1539  1.2029  0.1755
 6831TIP3   OH220456   0.020   1.497   5.152  0.4113  0.1535  0.1882
 6831TIP3    H120457  -0.040   1.513   5.224 -0.0890 -0.1581 -0.1600
 6831TIP3    H220458   0.088   1.442   5.190  0.0722 -0.1327  0.3827
 6832TIP3   OH220459   6.843   6.142   1.862  0.3017  0.7051  0.4231
 6832TIP3    H120460   6.930   6.155   1.898  0.3656  1.2144  0.0895
 6832TIP3    H220461   6.829   6.217   1.804  0.0936  0.0494 -0.4038
 6833TIP3   OH220462   5.711   1.564   0.388 -0.3866  0.5989  0.5215
 6833TIP3    H120463   5.696   1.585   0.480 -0.5489  1.8606  0.2273
 6833TIP3    H220464   5.734   1.471   0.388 -0.6836  0.5051  1.7976
 6834TIP3   OH220465   4.598   5.918   0.338  0.2787 -0.0662 -0.0966
 6834TIP3    H120466   4.565   5.971   0.266  0.4566 -0.1641 -0.2517
 6834TIP3    H220467   4.693   5.913   0.323  0.4850  0.8711  0.7820
 6835TIP3   OH220468   0.781   3.260   2.450  0.3366 -0.0974 -0.0315
 6835TIP3    H120469   0.719   3.204   2.403  1.1583 -0.8372 -0.2570
 6835TIP3    H220470   0.763   3.348   2.418 -0.5315 -0.3124 -0.1643
 6836TIP3   OH220471   4.819   3.592   2.840 -0.3754 -0.3922  0.0229
 6836TIP3    H120472   4.882   3.589   2.911  1.7805  0.5759 -1.7298
 6836TIP3    H220473   4.802   3.686   2.826  0.4677 -0.4453 -1.6898
 6837TIP3   OH220474   4.397   2.804   5.742 -0.4743  0.3509 -0.3748
 6837TIP3    H120475   4.460   2.733   5.757  0.2434  0.7682 -1.3374
 6837TIP3    H220476   4.346   2.808   5.823  0.4295 -0.3017  0.2470
 6838TIP3   OH220477   3.764   3.777   0.694 -0.2580 -0.4053 -0.3224
 6838TIP3    H120478   3.752   3.715   0.622 -0.4615  0.3754 -0.9834
 6838TIP3    H220479   3.858   3.777   0.710 -0.3249 -1.3640  0.1314
 6839TIP3   OH220480   4.816   0.073   4.142  0.1156  0.6842  0.0003
 6839TIP3    H120481   4.825   0.039   4.231 -0.1392  0.6120  0.0013
 6839TIP3    H220482   4.869   0.015   4.088  3.5406  3.0125  0.5965
 6840TIP3   OH220483   6.002   3.323   5.559 -0.0517  0.0643  0.2009
 6840TIP3    H120484   5.981   3.320   5.465  0.6599  0.8616  0.0026
 6840TIP3    H220485   6.085   3.275   5.566 -0.8976 -1.3927  0.6845
 6841TIP3   OH220486   6.562   2.126   3.071 -0.2722  0.2188 -0.0660
 6841TIP3    H120487   6.562   2.130   3.167  0.0566  0.1625 -0.0610
 6841TIP3    H220488   6.639   2.073   3.050 -0.0767  0.6261 -0.3789
 6842TIP3   OH220489   5.403   4.330   3.107  0.1305 -0.7579  0.2018
 6842TIP3    H120490   5.374   4.416   3.139 -1.7529 -1.4395  0.4387
 6842TIP3    H220491   5.491   4.321   3.142 -0.1579  0.4874  1.3545
 6843TIP3   OH220492   6.475   5.393   0.607  0.3703  0.2292  0.0595
 6843TIP3    H120493   6.495   5.308   0.644  1.1581  0.1134 -0.6071
 6843TIP3    H220494   6.486   5.382   0.513 -1.9649  0.4066 -0.2976
 6844TIP3   OH220495   1.149   5.621   2.372  0.1854 -0.2437  0.1951
 6844TIP3    H120496   1.129   5.640   2.281 -1.9683 -0.1823  0.6395
 6844TIP3    H220497   1.219   5.556   2.368  0.2798 -0.0727 -1.4821
 6845TIP3   OH220498   2.102   0.745   5.572 -0.2627 -0.0656  0.6067
 6845TIP3    H120499   2.052   0.726   5.493 -0.6991  1.1741  0.5578
 6845TIP3    H220500   2.180   0.692   5.565  0.1101  0.6450 -1.0827
 6846TIP3   OH220501   6.841   5.861   2.673 -0.1875 -0.2367  0.2520
 6846TIP3    H120502   6.757   5.818   2.654 -0.4036 -0.6565  1.9862
 6846TIP3    H220503   6.905   5.790   2.673 -0.3659 -0.4624  1.9743
 6847TIP3   OH220504   1.028   3.244   3.921 -0.4674  0.2954  0.3741
 6847TIP3    H120505   1.069   3.168   3.962 -0.9223 -0.3952 -0.4131
 6847TIP3    H220506   1.069   3.249   3.834 -0.6526  0.7713  0.3136
 6848TIP3   OH220507   2.394   0.099   2.836 -0.2678  0.7622 -0.1285
 6848TIP3    H120508   2.473   0.065   2.793 -0.5203  1.3130 -1.0506
 6848TIP3    H220509   2.388   0.190   2.807 -2.3240  0.1957 -1.7289
 6849TIP3   OH220510   4.606   1.495   4.042  0.0585 -0.0949 -0.2977
 6849TIP3    H120511   4.652   1.471   4.123  2.0732 -0.3034 -1.4338
 6849TIP3    H220512   4.653   1.447   3.973 -0.7328  1.1451 -1.7472
 6850TIP3   OH220513   1.359   5.739   4.491 -0.2997  0.4628  0.3704
 6850TIP3    H120514   1.408   5.810   4.450 -1.3555 -1.2694 -4.6858
 6850TIP3    H220515   1.286   5.782   4.535  1.4960  2.6353  1.4210
 6851TIP3   OH220516   2.106   0.021   1.867 -0.4035 -0.4379 -0.2119
 6851TIP3    H120517   2.152   0.102   1.847 -0.2137 -0.8776 -1.6919
 6851TIP3    H220518   2.032   0.021   1.806 -0.5977 -1.2036  0.0211
 6852TIP3   OH220519   1.549   3.425   4.389  0.1332  0.0922  0.6624
 6852TIP3    H120520   1.607   3.492   4.352  0.5596 -0.7988 -0.3450
 6852TIP3    H220521   1.473   3.425   4.332 -1.7014  2.3511  2.8669
 6853TIP3   OH220522   4.387   5.868   2.181  0.5459 -0.1698 -0.3218
 6853TIP3    H120523   4.363   5.949   2.137  2.3775  0.3297 -0.4685
 6853TIP3    H220524   4.372   5.800   2.115 -0.5829  0.0653 -0.3384
 6854TIP3   OH220525   4.339   3.211   1.730 -0.1197  0.2116 -0.3509
 6854TIP3    H120526   4.317   3.234   1.640  3.0088  2.3460 -0.7161
 6854TIP3    H220527   4.345   3.295   1.776  0.1509 -0.7035  1.3791
 6855TIP3   OH220528   0.453   3.888   0.999 -1.0567  0.4316  0.9423
 6855TIP3    H120529   0.537   3.885   1.044  0.4469 -2.0188 -1.6742
 6855TIP3    H220530   0.411   3.805   1.020 -2.5932  1.3359  1.6617
 6856TIP3   OH220531   6.759   6.752   4.371  0.2514  0.1834 -0.0562
 6856TIP3    H120532   6.821   6.763   4.298  1.8939  0.3629  1.2991
 6856TIP3    H220533   6.800   6.798   4.444 -2.1182  1.3928  0.6053
 6857TIP3   OH220534   2.768   5.573   2.680 -0.0523  0.3659 -0.1890
 6857TIP3    H120535   2.749   5.550   2.771  2.4359 -0.6720  0.1220
 6857TIP3    H220536   2.707   5.645   2.661 -1.3820 -0.1181  1.9052
 6858TIP3   OH220537   1.856   0.581   5.759  0.3640 -0.4393  0.6979
 6858TIP3    H120538   1.766   0.605   5.739  1.0409  1.9120 -0.0106
 6858TIP3    H220539   1.889   0.654   5.811  1.7223 -1.4898  1.3752
 6859TIP3   OH220540   3.769   1.677   5.275 -0.1070 -0.1486 -0.8878
 6859TIP3    H120541   3.779   1.597   5.222 -0.6487  1.4540 -3.6295
 6859TIP3    H220542   3.857   1.695   5.307  0.0816 -1.6584 -0.4616
 6860TIP3   OH220543   1.832   0.660   0.781  0.1389 -0.1706 -0.6767
 6860TIP3    H120544   1.864   0.572   0.760 -1.7032 -0.6181 -1.9224
 6860TIP3    H220545   1.766   0.646   0.849  0.1565  0.3122 -0.5566
 6861TIP3   OH220546   4.086   6.027   1.148 -0.3748 -0.3072  0.0322
 6861TIP3    H120547   4.084   6.105   1.093 -2.1819 -0.0138  0.4550
 6861TIP3    H220548   4.042   5.960   1.096  1.9238 -1.3594 -0.6949
 6862TIP3   OH220549   2.432   2.943   3.545 -0.3437 -0.4338 -0.2314
 6862TIP3    H120550   2.511   2.938   3.491  1.8050  2.8097  2.2233
 6862TIP3    H220551   2.363   2.973   3.486  1.2581  0.4565 -1.7198
 6863TIP3   OH220552   1.305   3.058   4.650  0.2609 -0.2897  0.6401
 6863TIP3    H120553   1.235   3.054   4.716  0.0901 -0.9134  0.4220
 6863TIP3    H220554   1.282   3.134   4.596  0.5436  0.3938  1.4466
 6864TIP3   OH220555   2.020   2.745   1.437 -0.5870 -0.4537 -0.4608
 6864TIP3    H120556   2.039   2.651   1.431 -0.1786 -0.3470 -0.9370
 6864TIP3    H220557   1.958   2.752   1.509 -0.0062 -0.9980  0.1135
 6865TIP3   OH220558   3.514   5.363   1.233  0.8775  0.3904  0.3016
 6865TIP3    H120559   3.585   5.398   1.179  0.0013 -1.5729 -2.3460
 6865TIP3    H220560   3.554   5.290   1.281  0.9954  0.2517 -0.0074
 6866TIP3   OH220561   0.302   3.817   5.720 -0.0000  0.3269  0.8055
 6866TIP3    H120562   0.210   3.800   5.698 -0.6680  0.1560  3.3729
 6866TIP3    H220563   0.329   3.885   5.660 -1.6023 -0.0903 -0.4544
 6867TIP3   OH220564   1.711   4.275   2.405  0.6461  0.7037 -0.1749
 6867TIP3    H120565   1.678   4.189   2.431  1.8514  0.1437 -0.4013
 6867TIP3    H220566   1.649   4.337   2.442  0.0142 -0.2444  0.4024
 6868TIP3   OH220567   6.178   5.516   2.342 -0.3326  0.2260 -0.2105
 6868TIP3    H120568   6.147   5.598   2.382  1.2102  1.0441 -0.6203
 6868TIP3    H220569   6.174   5.533   2.248  0.4098  0.0023 -0.2859
 6869TIP3   OH220570   4.374   5.692   1.524  0.2644  0.4045 -0.0866
 6869TIP3    H120571   4.291   5.738   1.534 -0.2716 -0.4885 -0.3282
 6869TIP3    H220572   4.389   5.649   1.609  0.2876  0.2581 -0.1635
 6870TIP3   OH220573   5.796   4.983   3.203  0.3205  0.0674 -0.0723
 6870TIP3    H120574   5.793   4.907   3.262  1.2448  0.9766  1.1865
 6870TIP3    H220575   5.852   4.955   3.131  2.2290  0.1281  1.3078
 6871TIP3   OH220576   3.915   2.253   1.777  0.2140  0.3124 -0.0164
 6871TIP3    H120577   3.824   2.225   1.765  0.1703 -0.6155  2.0159
 6871TIP3    H220578   3.936   2.303   1.698 -1.3738 -1.1949 -1.4504
 6872TIP3   OH220579   3.215   3.290   5.730 -0.4586  0.3903  0.5542
 6872TIP3    H120580   3.124   3.258   5.725  0.1323 -1.2150 -1.2872
 6872TIP3    H220581   3.263   3.216   5.768  0.2909  0.6931  0.1975
 6873TIP3   OH220582   2.505   5.465   2.405  0.5542  0.5594  0.4832
 6873TIP3    H120583   2.494   5.497   2.494  2.1718  0.5725  0.7057
 6873TIP3    H220584   2.571   5.523   2.366  0.7567 -0.1860 -0.3220
 6874TIP3   OH220585   1.097   5.136   5.730 -0.2941  0.9020 -0.5827
 6874TIP3    H120586   1.017   5.183   5.755 -0.3503  0.7034 -0.3917
 6874TIP3    H220587   1.164   5.169   5.788  0.0306  1.9196 -1.4955
 6875TIP3   OH220588   5.807   5.565   3.653  0.0557  0.0093  0.2066
 6875TIP3    H120589   5.883   5.520   3.617 -1.1807 -2.1016  0.1182
 6875TIP3    H220590   5.829   5.580   3.745  1.8224  2.3375 -0.4976
 6876TIP3   OH220591   5.352   3.211   4.551  0.3296 -0.4704 -0.2974
 6876TIP3    H120592   5.287   3.263   4.597  0.1109 -3.1758  2.8643
 6876TIP3    H220593   5.330   3.220   4.459 -0.2704  3.9992  0.0593
 6877TIP3   OH220594   4.198   2.698   1.088 -0.9912 -0.6012 -0.2943
 6877TIP3    H120595   4.161   2.660   1.167  0.4061  0.5824  0.9974
 6877TIP3    H220596   4.123   2.728   1.038 -1.8858 -0.6715  0.9582
 6878TIP3   OH220597   3.935   4.357   1.663  0.2712  0.3132 -0.1849
 6878TIP3    H120598   3.934   4.322   1.574 -1.0531 -0.9505  0.2895
 6878TIP3    H220599   3.981   4.291   1.715  1.8549  1.4546 -0.0353
 6879TIP3   OH220600   0.830   4.482   3.362 -0.2012  0.6584  0.7235
 6879TIP3    H120601   0.796   4.520   3.444  0.1749  1.6606  0.4273
 6879TIP3    H220602   0.915   4.444   3.386 -0.4977  0.1497  0.9833
 6880TIP3   OH220603   0.662   1.469   1.109  0.4534 -1.2345 -0.3580
 6880TIP3    H120604   0.582   1.511   1.077 -1.5590 -1.7623  3.3919
 6880TIP3    H220605   0.660   1.382   1.071 -0.4254 -1.0118 -0.8544
 6881TIP3   OH220606   5.506   5.427   4.825  0.3365 -0.0720 -0.7147
 6881TIP3    H120607   5.542   5.462   4.906  0.2476 -0.7926 -0.3603
 6881TIP3    H220608   5.431   5.375   4.852  0.9053 -1.1489 -1.1634
 6882TIP3   OH220609   0.202   2.995   3.733 -0.3461  0.3451  0.1179
 6882TIP3    H120610   0.238   3.029   3.651 -0.6996  1.2806  0.3393
 6882TIP3    H220611   0.199   2.900   3.721 -0.3472  0.4711 -0.9317
 6883TIP3   OH220612   2.026   4.091   5.203  0.1254 -0.5722 -0.3239
 6883TIP3    H120613   2.026   4.047   5.118  0.8340 -1.4227  0.0972
 6883TIP3    H220614   1.978   4.032   5.261 -0.2348 -0.0637 -0.0988
 6884TIP3   OH220615   0.453   5.502   1.510 -0.1525  0.7819  0.1318
 6884TIP3    H120616   0.428   5.538   1.595  0.8449  2.3282 -0.1976
 6884TIP3    H220617   0.540   5.537   1.493  0.2033 -0.5302 -0.9671
 6885TIP3   OH220618   3.232   0.217   3.098  0.1734  0.1708  0.4385
 6885TIP3    H120619   3.216   0.181   3.011 -3.1124  0.1216  0.9035
 6885TIP3    H220620   3.247   0.310   3.085 -0.0582  0.1193 -0.1965
 6886TIP3   OH220621   2.079   6.665   3.808  0.0876 -0.4825 -0.0089
 6886TIP3    H120622   2.038   6.700   3.729 -0.9733 -0.8158  0.3690
 6886TIP3    H220623   2.055   6.726   3.877 -0.8590 -1.3435  0.4488
 6887TIP3   OH220624   1.628   5.374   3.054  0.1920  0.6177  0.5142
 6887TIP3    H120625   1.561   5.418   3.002  0.2521 -1.1268 -1.1568
 6887TIP3    H220626   1.578   5.317   3.113  0.1325 -0.8120 -0.8503
 6888TIP3   OH220627   0.122   3.693   1.716  0.1563  0.3520 -0.4111
 6888TIP3    H120628   0.062   3.742   1.661  0.0038  0.8851  0.2209
 6888TIP3    H220629   0.201   3.746   1.719  0.3654  0.0565 -0.5569
 6889TIP3   OH220630   4.739   2.346   0.330  0.1860 -0.2880 -0.1647
 6889TIP3    H120631   4.753   2.411   0.262  0.1536  1.7708  1.6778
 6889TIP3    H220632   4.674   2.385   0.389 -0.7610 -2.5233  0.4008
 6890TIP3   OH220633   5.813   2.728   1.131  0.0082  0.2576  0.5830
 6890TIP3    H120634   5.858   2.808   1.157 -3.0161  1.5832  2.2008
 6890TIP3    H220635   5.809   2.676   1.211  0.3050 -0.7057 -0.0085
 6891TIP3   OH220636   3.397   1.919   3.447 -0.2252 -0.0854  0.0019
 6891TIP3    H120637   3.323   1.893   3.391  1.2344 -2.7874 -0.8372
 6891TIP3    H220638   3.377   1.880   3.532  1.2804 -3.0443 -0.8787
 6892TIP3   OH220639   0.636   4.275   1.543  0.0773 -0.6058  0.1851
 6892TIP3    H120640   0.638   4.370   1.546 -1.1872 -0.5805  2.7479
 6892TIP3    H220641   0.726   4.248   1.566  0.3465 -0.0546 -0.1998
 6893TIP3   OH220642   3.056   2.406   2.885  0.4205 -0.2511 -0.4376
 6893TIP3    H120643   3.149   2.415   2.862  0.5663  0.4021  0.3878
 6893TIP3    H220644   3.057   2.360   2.969  0.0271  0.3130 -0.1209
 6894TIP3   OH220645   6.552   3.804   4.010  0.2465  0.6386  0.3697
 6894TIP3    H120646   6.613   3.834   4.078 -0.7286 -0.9859  2.0485
 6894TIP3    H220647   6.469   3.847   4.032  0.2053  1.0593 -0.5567
 6895TIP3   OH220648   1.112   0.993   3.346 -0.2987  0.4503 -0.1341
 6895TIP3    H120649   1.131   0.967   3.256  0.6372 -1.7607  0.6300
 6895TIP3    H220650   1.042   1.058   3.339 -0.7886 -0.2617 -2.4008
 6896TIP3   OH220651   3.142   5.284   5.497  0.2667 -0.0475  0.0517
 6896TIP3    H120652   3.094   5.364   5.479 -1.9642 -1.4758 -0.7031
 6896TIP3    H220653   3.231   5.303   5.467 -0.2920  1.9789 -0.4934
 6897TIP3   OH220654   1.840   2.969   0.895  0.4073 -0.7035  0.2274
 6897TIP3    H120655   1.843   3.054   0.851 -0.2078 -0.7972 -0.0053
 6897TIP3    H220656   1.878   2.985   0.981 -0.9247  0.1185  0.6885
 6898TIP3   OH220657   0.373   0.124   2.601  0.0631 -0.2823  0.3807
 6898TIP3    H120658   0.324   0.079   2.532  0.7265  0.8070 -0.8609
 6898TIP3    H220659   0.313   0.129   2.675 -0.7746 -1.2309 -0.2096
 6899TIP3   OH220660   3.683   3.512   1.513 -0.1730 -0.2870 -0.3092
 6899TIP3    H120661   3.711   3.598   1.543  0.4874 -0.3126 -0.8313
 6899TIP3    H220662   3.747   3.452   1.550  0.2768 -0.3866 -1.2200
 6900TIP3   OH220663   5.635   4.232   4.243 -0.3210 -0.0190  0.4313
 6900TIP3    H120664   5.646   4.138   4.234 -1.9636 -0.2032  0.0112
 6900TIP3    H220665   5.645   4.249   4.336  2.4207 -0.2039  0.2672
 6901TIP3   OH220666   6.463   0.276   3.450  0.8484 -0.3125 -0.5727
 6901TIP3    H120667   6.421   0.355   3.416 -2.5439 -0.9820  1.5697
 6901TIP3    H220668   6.525   0.307   3.515 -0.9581  0.6660  0.7598
 6902TIP3   OH220669   6.458   6.175   5.484 -0.2711  0.2528 -0.6380
 6902TIP3    H120670   6.439   6.269   5.487  0.9075  0.4837  0.8974
 6902TIP3    H220671   6.515   6.165   5.408 -0.5464  0.7551 -0.9141
 6903TIP3   OH220672   1.050   1.834   4.480 -0.0084 -0.0498  0.0358
 6903TIP3    H120673   1.042   1.741   4.458  0.9279  0.0159 -0.6495
 6903TIP3    H220674   0.995   1.845   4.558  0.8607 -1.4550  0.9094
 6904TIP3   OH220675   6.173   3.427   3.316 -0.5982  0.6527  0.3190
 6904TIP3    H120676   6.190   3.521   3.306 -1.1736  0.7443  0.1599
 6904TIP3    H220677   6.094   3.411   3.264 -1.0436  0.2697  1.0757
 6905TIP3   OH220678   2.721   6.301   4.303 -0.2530 -0.4107  0.5149
 6905TIP3    H120679   2.796   6.268   4.352  1.2989  1.6729 -0.3091
 6905TIP3    H220680   2.661   6.227   4.299  1.9625 -2.3515  0.7680
 6906TIP3   OH220681   3.038   5.838   3.390  0.3016  0.0771  0.5129
 6906TIP3    H120682   3.037   5.820   3.484  1.2880 -0.6204  0.4055
 6906TIP3    H220683   3.113   5.788   3.356  0.5629  1.0951 -0.4943
 6907TIP3   OH220684   2.519   6.205   0.986  0.3972  0.0244  0.2113
 6907TIP3    H120685   2.524   6.134   0.921  0.8166  0.5106 -0.2972
 6907TIP3    H220686   2.433   6.244   0.972  0.0419 -0.5645  0.6937
 6908TIP3   OH220687   5.428   6.729   3.465  0.0077  0.0932  0.2973
 6908TIP3    H120688   5.475   6.645   3.469 -0.6158 -0.2069  2.4726
 6908TIP3    H220689   5.350   6.710   3.413 -0.5019 -0.8945  1.3912
 6909TIP3   OH220690   3.447   5.752   4.615  0.3703  0.0624 -0.4327
 6909TIP3    H120691   3.386   5.681   4.632  0.3832  0.2721  0.5402
 6909TIP3    H220692   3.392   5.824   4.586  0.4787 -0.7368 -2.8275
 6910TIP3   OH220693   0.855   3.766   4.473  0.3555 -0.5371 -0.7202
 6910TIP3    H120694   0.808   3.683   4.468 -0.1433 -0.3161  0.1626
 6910TIP3    H220695   0.805   3.825   4.417 -1.6536  0.2546  1.7554
 6911TIP3   OH220696   3.116   1.956   0.307 -0.1248 -0.0917  0.2153
 6911TIP3    H120697   3.148   1.876   0.265 -2.1140 -1.0899  0.4597
 6911TIP3    H220698   3.063   1.999   0.239 -3.0363 -1.5181  1.3798
 6912TIP3   OH220699   4.403   6.446   4.594 -0.1049 -0.1656  0.2378
 6912TIP3    H120700   4.341   6.516   4.574  0.7196  0.0560 -1.8340
 6912TIP3    H220701   4.486   6.491   4.611  0.2106 -0.5910 -0.1488
 6913TIP3   OH220702   3.535   3.576   4.435 -0.1760  0.2249  0.2840
 6913TIP3    H120703   3.470   3.546   4.499 -0.3013 -1.7126 -0.6610
 6913TIP3    H220704   3.495   3.559   4.350  1.0537  0.2060 -0.3145
 6914TIP3   OH220705   4.928   1.677   4.620  0.3650  0.1211  0.3733
 6914TIP3    H120706   4.855   1.709   4.672 -0.7891  0.1573 -1.1805
 6914TIP3    H220707   4.998   1.740   4.635 -0.6644  1.3636  0.2002
 6915TIP3   OH220708   2.827   3.031   3.236 -0.4214  0.0869 -0.3716
 6915TIP3    H120709   2.882   3.000   3.163  0.7082  2.9232 -0.8539
 6915TIP3    H220710   2.761   3.086   3.194  0.0321  1.4894  0.6977
 6916TIP3   OH220711   4.510   4.786   1.977 -0.1281 -0.1144 -0.0823
 6916TIP3    H120712   4.498   4.795   1.883 -0.6516  0.5214  0.0401
 6916TIP3    H220713   4.587   4.729   1.986 -0.1115 -0.2284 -0.8869
 6917TIP3   OH220714   3.125   2.514   1.167  0.0338 -0.4334  0.6373
 6917TIP3    H120715   3.072   2.480   1.095  1.1638 -1.0163  0.0652
 6917TIP3    H220716   3.102   2.607   1.171  0.3424 -0.2680 -0.8376
 6918TIP3   OH220717   0.281   6.638   4.980 -0.1325 -0.5606  0.2413
 6918TIP3    H120718   0.234   6.560   4.952  0.7561 -1.2743  0.7031
 6918TIP3    H220719   0.324   6.613   5.061 -0.4323  0.6406  0.7975
 6919TIP3   OH220720   3.630   6.757   2.917 -0.0644  0.3377  1.0433
 6919TIP3    H120721   3.594   6.674   2.947 -1.3042  0.1041 -0.8624
 6919TIP3    H220722   3.605   6.821   2.984 -1.9152 -0.2910  1.0095
 6920TIP3   OH220723   4.776   6.652   5.235  0.1651  0.6124 -0.2307
 6920TIP3    H120724   4.747   6.734   5.196  0.0923  0.5841 -0.2374
 6920TIP3    H220725   4.866   6.642   5.207  0.2726  0.8475  0.0277
 6921TIP3   OH220726   3.343   5.764   1.404 -0.1529 -0.7537  0.0072
 6921TIP3    H120727   3.284   5.810   1.344 -0.3515  0.5870  1.1751
 6921TIP3    H220728   3.407   5.830   1.431  0.2879 -1.4777  0.8013
 6922TIP3   OH220729   5.110   1.457   3.901  0.0185 -0.0396  0.1157
 6922TIP3    H120730   5.201   1.488   3.902 -0.0510  0.1903 -0.4174
 6922TIP3    H220731   5.116   1.365   3.876  0.0910  0.0206 -0.0864
 6923TIP3   OH220732   6.410   5.168   3.041 -0.1664 -0.4507  0.1632
 6923TIP3    H120733   6.480   5.168   2.977 -0.0911  0.9703  0.2160
 6923TIP3    H220734   6.455   5.178   3.125 -0.3012 -1.7902  0.4272
 6924TIP3   OH220735   0.758   6.022   4.365  0.3201  0.1583  0.2317
 6924TIP3    H120736   0.806   5.966   4.426  0.3487  1.1676  1.1772
 6924TIP3    H220737   0.825   6.067   4.315  0.2914 -0.9423 -0.8190
 6925TIP3   OH220738   5.352   1.804   0.527  0.0104 -0.1907 -0.1539
 6925TIP3    H120739   5.319   1.723   0.565 -0.7218  1.0590  2.0523
 6925TIP3    H220740   5.289   1.871   0.555  1.8468  1.5127  0.1253
 6926TIP3   OH220741   5.430   6.049   0.015  0.0561  0.2904  0.0770
 6926TIP3    H120742   5.464   6.044  -0.074 -0.5470  0.8323 -0.1900
 6926TIP3    H220743   5.482   5.986   0.065 -0.0659 -0.5074 -0.7989
 6927TIP3   OH220744   2.563   6.260   0.078 -0.1841  0.4127 -0.5481
 6927TIP3    H120745   2.637   6.264   0.139  0.2223  0.4345 -1.0327
 6927TIP3    H220746   2.519   6.344   0.089  0.4873  0.8410 -1.0081
 6928TIP3   OH220747   2.763   1.378   3.238  0.5453  0.0920  0.4177
 6928TIP3    H120748   2.781   1.439   3.310  1.9817  0.5494 -0.2985
 6928TIP3    H220749   2.694   1.421   3.187  1.0238  0.7849  0.3385
 6929TIP3   OH220750   4.733   4.184   1.053  0.2538 -0.0663  0.0894
 6929TIP3    H120751   4.662   4.232   1.095 -0.4971 -0.9849 -0.0954
 6929TIP3    H220752   4.798   4.170   1.122 -0.4567 -0.5777  0.6662
 6930TIP3   OH220753   5.171   5.525   4.561 -0.0125 -0.9218  0.2049
 6930TIP3    H120754   5.148   5.478   4.641 -2.1114 -1.9797 -0.9447
 6930TIP3    H220755   5.231   5.466   4.515 -0.4133 -1.2317  0.0734
 6931TIP3   OH220756   6.540   0.628   0.290  0.5157  0.4426  0.0036
 6931TIP3    H120757   6.621   0.624   0.240  0.0060  0.7940 -0.8676
 6931TIP3    H220758   6.475   0.585   0.235  0.0698  0.2799  0.6348
 6932TIP3   OH220759   1.225   0.082   0.348  0.1506  0.5706  0.4781
 6932TIP3    H120760   1.183   0.125   0.423 -0.5292 -1.9687  1.6955
 6932TIP3    H220761   1.154   0.068   0.286 -0.7728 -2.6347  2.0226
 6933TIP3   OH220762   3.017   3.688   4.155 -0.1426 -0.6407 -0.1596
 6933TIP3    H120763   3.109   3.710   4.175 -0.3829 -0.2485  0.5876
 6933TIP3    H220764   3.020   3.649   4.068  0.6700 -0.1254 -0.3837
 6934TIP3   OH220765   0.524   2.012   1.775 -0.4254 -0.0636 -0.2124
 6934TIP3    H120766   0.447   2.053   1.735 -0.0975  0.5116 -0.2561
 6934TIP3    H220767   0.559   1.956   1.705 -1.7696 -1.6801  0.3305
 6935TIP3   OH220768   6.570   6.422   3.905  0.1693 -0.2535  0.1736
 6935TIP3    H120769   6.481   6.412   3.870  0.5989 -1.0806 -0.7092
 6935TIP3    H220770   6.565   6.501   3.959 -1.5574 -1.2742  1.6371
 6936TIP3   OH220771   5.298   4.229   2.504 -0.3287  0.1027  0.2383
 6936TIP3    H120772   5.232   4.273   2.558 -0.6218 -0.5552  0.4242
 6936TIP3    H220773   5.369   4.208   2.565  0.4241  1.5193 -0.1127
 6937TIP3   OH220774   0.377   0.647   1.461 -0.7234  0.3939  0.2027
 6937TIP3    H120775   0.329   0.665   1.380 -0.6240  0.5077  0.1692
 6937TIP3    H220776   0.411   0.733   1.488  0.3343  0.1602 -0.3207
 6938TIP3   OH220777   0.844   3.646   5.476 -0.1909  0.0964 -0.0796
 6938TIP3    H120778   0.905   3.712   5.441 -0.9889  1.1544  0.4629
 6938TIP3    H220779   0.757   3.682   5.459 -0.6677 -1.0709 -0.2269
 6939TIP3   OH220780   3.304   1.546   4.771 -0.6486 -0.1113 -0.3259
 6939TIP3    H120781   3.231   1.591   4.813  0.7465 -0.2988  2.5485
 6939TIP3    H220782   3.281   1.453   4.776 -0.2472 -0.1692  0.5629
 6940TIP3   OH220783   0.209   1.958   0.185  0.2615 -0.1160 -0.4295
 6940TIP3    H120784   0.294   2.001   0.199  0.5745 -0.8036 -0.1609
 6940TIP3    H220785   0.158   1.981   0.262  1.3704 -2.4266  1.1201
 6941TIP3   OH220786   2.062   3.003   4.529 -0.5685 -0.0304 -0.0010
 6941TIP3    H120787   2.082   3.053   4.608 -1.2283  2.2612 -1.1981
 6941TIP3    H220788   1.988   2.947   4.553 -0.4074  0.2295  1.1246
 6942TIP3   OH220789   6.076   6.136   3.639 -0.3121  0.5178  0.4602
 6942TIP3    H120790   6.049   6.049   3.668  0.3965  0.6697  1.6576
 6942TIP3    H220791   6.042   6.144   3.549 -1.5306 -0.4556  0.8146
 6943TIP3   OH220792   6.002   6.245   1.976 -0.5202  0.2483 -0.5559
 6943TIP3    H120793   6.057   6.266   2.052 -1.0206 -2.1102  0.5662
 6943TIP3    H220794   6.060   6.196   1.918 -0.4920  0.9203 -1.1057
 6944TIP3   OH220795   5.421   0.597   4.585  0.4623  0.4703 -0.2238
 6944TIP3    H120796   5.458   0.630   4.667 -0.2812  0.0175  0.3018
 6944TIP3    H220797   5.366   0.668   4.553 -1.6728 -0.4303  1.2500
 6945TIP3   OH220798   2.189   6.399   2.731  0.6045 -0.2028 -0.3298
 6945TIP3    H120799   2.098   6.392   2.704  0.0523  0.7505  1.1747
 6945TIP3    H220800   2.209   6.492   2.725  1.6832 -0.4548 -1.1767
 6946TIP3   OH220801   3.808   3.124   5.288 -0.5017 -0.0374 -0.3817
 6946TIP3    H120802   3.717   3.143   5.312 -0.2611 -0.0834  0.6439
 6946TIP3    H220803   3.808   3.119   5.193 -1.4950  0.3702 -0.4138
 6947TIP3   OH220804   2.613   3.480   0.089  0.1303 -0.0538  0.4273
 6947TIP3    H120805   2.532   3.486   0.040  0.9497 -2.1079 -1.3333
 6947TIP3    H220806   2.657   3.564   0.074 -0.6444  0.2015 -0.4806
 6948TIP3   OH220807   2.755   0.280   0.473 -0.2089  0.3146  0.5060
 6948TIP3    H120808   2.737   0.230   0.552 -0.8399  0.7723  0.6561
 6948TIP3    H220809   2.714   0.365   0.488  1.3371  1.0901  0.4966
 6949TIP3   OH220810   3.968   6.163   3.473 -0.6772 -0.2402 -0.1334
 6949TIP3    H120811   4.028   6.105   3.520  0.8871 -0.0814 -1.8209
 6949TIP3    H220812   4.021   6.199   3.402 -2.0401  2.0303 -0.0925
 6950TIP3   OH220813   6.061   4.186   0.695  0.4729 -1.1164  0.3994
 6950TIP3    H120814   6.038   4.203   0.786 -1.1854  1.0747 -0.3312
 6950TIP3    H220815   6.108   4.265   0.667  1.1393 -1.8482 -0.5943
 6951TIP3   OH220816   6.041   1.656   1.533 -0.0771  0.2736 -0.1406
 6951TIP3    H120817   5.985   1.723   1.494  1.8884  1.0264 -1.8593
 6951TIP3    H220818   5.997   1.573   1.512 -1.1165  0.8683 -0.4179
 6952TIP3   OH220819   6.997   2.263   2.707  0.1811 -0.6478  0.0039
 6952TIP3    H120820   6.908   2.300   2.704 -0.2736 -1.7896 -1.4447
 6952TIP3    H220821   7.050   2.325   2.657  0.4392  0.5334  1.6521
 6953TIP3   OH220822   2.229   5.806   2.347  0.0705 -0.1738 -0.1191
 6953TIP3    H120823   2.170   5.744   2.304 -0.2875  0.5495 -0.6702
 6953TIP3    H220824   2.208   5.891   2.309  0.8680  0.2282  0.3102
 6954TIP3   OH220825   0.942   1.678   5.221  0.5314 -0.3584 -0.0932
 6954TIP3    H120826   0.993   1.716   5.293  3.1809 -0.5400 -1.7224
 6954TIP3    H220827   0.904   1.754   5.176  0.1910 -0.1405  0.5486
 6955TIP3   OH220828   2.650   6.385   5.386 -0.0018 -0.1055 -0.3642
 6955TIP3    H120829   2.569   6.367   5.435  0.0713  1.5299  0.4429
 6955TIP3    H220830   2.664   6.306   5.333 -0.3683 -1.7421  1.8433
 6956TIP3   OH220831   3.565   4.115   1.898  0.1743 -0.1695  0.2584
 6956TIP3    H120832   3.598   4.097   1.986 -1.8587  0.2062  1.1550
 6956TIP3    H220833   3.610   4.196   1.872  1.4542 -0.7595  0.5458
 6957TIP3   OH220834   1.762   1.256   3.262 -0.3261 -0.8093 -0.0514
 6957TIP3    H120835   1.700   1.202   3.310  0.4596 -1.5101  0.2019
 6957TIP3    H220836   1.806   1.308   3.329 -0.3448 -0.6170 -0.1862
 6958TIP3   OH220837   6.396   0.332   3.807  0.0392 -0.0999  0.5484
 6958TIP3    H120838   6.464   0.326   3.740 -1.0700 -1.7073 -0.5015
 6958TIP3    H220839   6.388   0.243   3.841 -0.6332  0.3462  1.6071
 6959TIP3   OH220840   3.413   5.354   5.740  0.1680  0.1287 -0.0388
 6959TIP3    H120841   3.441   5.301   5.665 -2.5044 -1.5993  0.0815
 6959TIP3    H220842   3.443   5.306   5.817 -1.2394 -0.6304  0.0513
 6960TIP3   OH220843   7.091   3.321   3.632  0.0688  0.2166 -0.4152
 6960TIP3    H120844   7.028   3.386   3.663 -2.0467 -2.2134  0.7458
 6960TIP3    H220845   7.152   3.309   3.705 -0.2082  0.1178 -0.1990
 6961TIP3   OH220846   2.121   3.449   2.475  0.0522 -0.0811  0.3628
 6961TIP3    H120847   2.216   3.438   2.469  0.2545  1.2893  0.6651
 6961TIP3    H220848   2.087   3.360   2.481  1.4956 -0.5715  2.5908
 6962TIP3   OH220849   4.139   6.325   5.510 -0.0982 -0.5564  0.0850
 6962TIP3    H120850   4.190   6.405   5.496 -2.2172  0.5321 -2.3167
 6962TIP3    H220851   4.195   6.270   5.564  1.9290  2.0836  0.9147
 6963TIP3   OH220852   3.730   6.169   1.139  0.3788 -0.2989 -0.0580
 6963TIP3    H120853   3.799   6.156   1.204  0.3225 -0.7263 -0.0838
 6963TIP3    H220854   3.669   6.229   1.181  1.0205  0.5092 -0.2292
 6964TIP3   OH220855   4.104   4.610   2.884  0.9330 -0.0056 -0.4541
 6964TIP3    H120856   4.031   4.547   2.882 -0.1349  0.9643  2.3556
 6964TIP3    H220857   4.182   4.556   2.879  0.0285 -1.3901 -0.3427
 6965TIP3   OH220858   4.344   6.126   2.037  0.0735  0.6004 -0.3224
 6965TIP3    H120859   4.376   6.162   2.120 -0.2289 -0.9233  0.4893
 6965TIP3    H220860   4.253   6.155   2.030  0.5190  1.9451 -0.8693
 6966TIP3   OH220861   0.948   2.348   2.316 -0.0876 -0.1829 -0.3576
 6966TIP3    H120862   0.873   2.349   2.256  0.6186  2.3280 -1.2975
 6966TIP3    H220863   0.910   2.359   2.403 -0.9692 -1.8250 -0.4947
 6967TIP3   OH220864   4.462   5.389   1.142  0.2742  0.6324  0.8287
 6967TIP3    H120865   4.484   5.466   1.195  0.2728  1.1366  0.1209
 6967TIP3    H220866   4.506   5.405   1.058  0.4621 -0.2562  0.7463
 6968TIP3   OH220867   0.747   0.407   2.347 -0.3428  0.2244  0.5127
 6968TIP3    H120868   0.675   0.458   2.310 -0.9653 -1.7994 -1.2802
 6968TIP3    H220869   0.707   0.357   2.419 -1.2062 -1.8725 -1.2745
 6969TIP3   OH220870   2.139   6.526   0.385 -0.2628  0.5149 -0.0610
 6969TIP3    H120871   2.199   6.457   0.412  0.3792  0.9575 -0.3163
 6969TIP3    H220872   2.158   6.599   0.444  0.4093  1.1197 -0.9825
 6970TIP3   OH220873   2.816   3.773   1.595 -0.3150  0.9803 -0.0534
 6970TIP3    H120874   2.900   3.765   1.551  0.5591  3.0146  1.1027
 6970TIP3    H220875   2.830   3.734   1.682 -0.0491  2.6507  0.6949
 6971TIP3   OH220876   1.895   0.751   0.533 -0.2789 -0.0866 -0.1544
 6971TIP3    H120877   1.890   0.747   0.629  1.0509  0.4380 -0.0433
 6971TIP3    H220878   1.908   0.661   0.506 -1.9254 -0.4196  0.0450
 6972TIP3   OH220879   3.429   4.655   2.974  0.2416 -0.1574 -0.1993
 6972TIP3    H120880   3.514   4.618   3.000  0.1652 -0.1333  0.0840
 6972TIP3    H220881   3.382   4.581   2.935  0.1777 -0.3031  0.1561
 6973TIP3   OH220882   2.407   0.507   0.660 -0.4323 -0.5065  0.1954
 6973TIP3    H120883   2.379   0.595   0.636 -0.2570 -0.0711  1.5324
 6973TIP3    H220884   2.328   0.453   0.650 -1.0222  0.1603  1.1712
 6974TIP3   OH220885   5.110   3.232   5.530  0.2079 -0.2753 -0.3197
 6974TIP3    H120886   5.177   3.297   5.551 -2.3597  2.2095  0.9731
 6974TIP3    H220887   5.049   3.278   5.472 -1.5213 -1.5977  0.3398
 6975TIP3   OH220888   0.052   3.252   0.501 -0.2149 -0.7749 -0.2605
 6975TIP3    H120889   0.020   3.340   0.481  0.9996  0.4521  2.5705
 6975TIP3    H220890   0.137   3.247   0.457  0.0569 -0.1984  0.1828
 6976TIP3   OH220891   4.387   4.384   3.675  0.2912  0.2317 -0.0409
 6976TIP3    H120892   4.293   4.393   3.692  0.0263 -0.7375 -0.9236
 6976TIP3    H220893   4.417   4.473   3.658 -0.1679  0.7571  1.6429
 6977TIP3   OH220894   3.338   3.089   5.158 -0.2771  0.3382 -0.1682
 6977TIP3    H120895   3.384   3.070   5.240 -2.2548  0.0817  0.9443
 6977TIP3    H220896   3.317   3.182   5.164 -0.4597  0.3095 -0.3683
 6978TIP3   OH220897   5.966   5.376   0.772  0.7418 -0.0309  0.0740
 6978TIP3    H120898   5.888   5.329   0.741  0.0233  1.2260 -0.0937
 6978TIP3    H220899   6.039   5.337   0.724  0.2337 -1.2586  0.2602
 6979TIP3   OH220900   4.299   5.186   0.313  0.2409 -0.5536 -0.6051
 6979TIP3    H120901   4.245   5.145   0.381 -1.0251  0.6543 -0.8310
 6979TIP3    H220902   4.371   5.227   0.362 -0.2843 -0.2731 -0.0467
 6980TIP3   OH220903   1.055   1.883   0.397  0.2723  0.1078 -0.3630
 6980TIP3    H120904   1.031   1.849   0.483 -3.0383  3.1382  0.1689
 6980TIP3    H220905   1.118   1.953   0.417 -2.1006  2.2659 -0.0130
 6981TIP3   OH220906   0.924   2.961   3.006 -0.4813 -0.1882  0.4439
 6981TIP3    H120907   1.004   2.998   2.969 -0.7173 -0.1707 -0.0588
 6981TIP3    H220908   0.951   2.924   3.090  0.0652 -0.2410  0.2486
 6982TIP3   OH220909   2.272   5.418   1.816  0.3650 -0.3248  0.8732
 6982TIP3    H120910   2.279   5.425   1.720 -2.3515  1.2434  0.6595
 6982TIP3    H220911   2.341   5.475   1.849  1.3686 -0.9110 -0.1154
 6983TIP3   OH220912   5.302   3.957   0.673 -0.3830 -0.1554 -0.2190
 6983TIP3    H120913   5.363   4.029   0.654 -0.3037 -0.4761 -1.2301
 6983TIP3    H220914   5.346   3.879   0.639 -0.3787 -0.7288  1.0472
 6984TIP3   OH220915   3.734   2.546   3.199 -0.2779  0.6688 -0.0461
 6984TIP3    H120916   3.644   2.514   3.194 -0.0538 -0.3718  1.8078
 6984TIP3    H220917   3.781   2.481   3.251  1.5351  1.2610 -0.8287
 6985TIP3   OH220918   6.673   0.745   2.472 -0.2176  0.1420  0.3275
 6985TIP3    H120919   6.690   0.810   2.540 -0.3481  0.5494 -0.0220
 6985TIP3    H220920   6.758   0.732   2.429 -0.1669 -0.0045  0.4730
 6986TIP3   OH220921   1.292   5.445   5.200  0.3427 -0.3131  0.2654
 6986TIP3    H120922   1.291   5.423   5.107  0.9414 -0.0079  0.1774
 6986TIP3    H220923   1.280   5.540   5.202 -3.3101 -0.6502  0.6846
 6987TIP3   OH220924   1.160   0.657   2.360 -0.4923 -0.0985 -0.6467
 6987TIP3    H120925   1.247   0.634   2.327  0.1718  0.0789  0.8484
 6987TIP3    H220926   1.099   0.603   2.310  0.5420 -0.7435 -1.2415
 6988TIP3   OH220927   5.435   3.741   0.901 -0.1845  0.0964 -0.0876
 6988TIP3    H120928   5.466   3.652   0.918 -1.6066 -0.5182 -0.5374
 6988TIP3    H220929   5.474   3.764   0.817 -1.7210 -1.0906 -1.1844
 6989TIP3   OH220930   2.509   4.253   1.145  0.3283 -0.3429  0.1506
 6989TIP3    H120931   2.448   4.327   1.152  1.4221  0.6691 -0.4993
 6989TIP3    H220932   2.525   4.226   1.236  0.9407  1.1307  0.5121
 6990TIP3   OH220933   5.973   2.812   4.443  0.1397  0.5584 -0.1352
 6990TIP3    H120934   5.923   2.850   4.370  0.1552 -1.1473 -1.0992
 6990TIP3    H220935   6.062   2.844   4.430 -0.1909  1.6698  0.1849
 6991TIP3   OH220936   7.028   1.885   0.360 -0.0429  0.7565  0.0049
 6991TIP3    H120937   7.025   1.944   0.435  1.6222  0.0845  0.6630
 6991TIP3    H220938   6.980   1.807   0.389  0.6264  0.4839  0.4126
 6992TIP3   OH220939   3.614   6.298   3.622  0.7302 -0.1722  0.6026
 6992TIP3    H120940   3.549   6.367   3.633  0.8808 -0.2245  2.1438
 6992TIP3    H220941   3.638   6.301   3.530 -1.2303  0.0372  0.0628
 6993TIP3   OH220942   4.533   3.791   1.359 -0.3466  0.2848  0.1082
 6993TIP3    H120943   4.498   3.705   1.384 -0.4953  0.7073  1.4569
 6993TIP3    H220944   4.493   3.851   1.422 -0.9611  1.4869 -1.3845
 6994TIP3   OH220945   6.510   6.539   1.958 -0.6177 -0.1479  0.2351
 6994TIP3    H120946   6.574   6.560   2.025  0.0407 -2.0076  0.2433
 6994TIP3    H220947   6.442   6.605   1.968 -0.2102  0.0240  2.2858
 6995TIP3   OH220948   4.071   4.752   2.460  0.1088 -0.4539  0.2617
 6995TIP3    H120949   4.058   4.676   2.404  1.3598 -2.1381  2.1412
 6995TIP3    H220950   4.023   4.732   2.540  0.9293  0.4757  1.0137
 6996TIP3   OH220951   5.163   0.966   2.207 -0.3085  0.0133  0.7994
 6996TIP3    H120952   5.107   1.020   2.151 -2.5045 -2.1701  0.7087
 6996TIP3    H220953   5.249   0.968   2.165 -1.2511  0.5237 -1.2164
 6997TIP3   OH220954   4.044   1.652   4.104  0.3563 -0.1228  0.2199
 6997TIP3    H120955   4.064   1.684   4.017 -0.1592 -0.5784 -0.0708
 6997TIP3    H220956   3.994   1.722   4.145  2.3602  0.9864  0.9177
 6998TIP3   OH220957   0.852   4.190   1.350 -0.0029 -0.0730 -0.0921
 6998TIP3    H120958   0.911   4.124   1.315  0.8880  0.3428  0.6069
 6998TIP3    H220959   0.799   4.143   1.415  1.3444  0.0870  1.1814
 6999TIP3   OH220960   4.282   6.654   4.012 -0.1136  0.4841 -0.3650
 6999TIP3    H120961   4.250   6.602   4.086  1.3124  1.0272  0.6796
 6999TIP3    H220962   4.247   6.610   3.935 -0.4395 -0.9485  0.5652
 7000TIP3   OH220963   1.539   1.149   4.824  0.5029 -0.5144  0.3474
 7000TIP3    H120964   1.512   1.233   4.787 -0.9325  0.2963  2.9845
 7000TIP3    H220965   1.635   1.151   4.821  0.4975  1.1654  0.2373
 7001TIP3   OH220966   3.734   1.287   2.876  0.0237  0.1092  0.0458
 7001TIP3    H120967   3.642   1.267   2.863  0.5317 -1.2795 -1.7867
 7001TIP3    H220968   3.754   1.351   2.807  0.0993  1.6458  1.4317
 7002TIP3   OH220969   0.567   5.328   4.509 -0.0237  0.3886  0.3078
 7002TIP3    H120970   0.653   5.289   4.522  1.0932  2.3954 -0.6148
 7002TIP3    H220971   0.566   5.353   4.416 -1.2751  1.1301  0.5001
 7003TIP3   OH220972   3.900   1.281   2.300  0.1122  0.4711  0.5327
 7003TIP3    H120973   3.893   1.208   2.362  0.5115 -0.1673 -0.1449
 7003TIP3    H220974   3.973   1.257   2.244  0.0420  1.2524  0.0926
 7004TIP3   OH220975   2.059   3.144   0.589 -0.3220 -0.5846  0.7568
 7004TIP3    H120976   1.987   3.168   0.530  0.0222 -0.5816  0.3245
 7004TIP3    H220977   2.138   3.168   0.540 -0.0291 -0.5598  1.2378
 7005TIP3   OH220978   5.127   5.747   4.774 -0.2262  0.1582  0.1167
 7005TIP3    H120979   5.152   5.714   4.860 -0.7209 -0.4948  0.0175
 7005TIP3    H220980   5.098   5.670   4.726  0.4989  0.4363 -0.8059
 7006TIP3   OH220981   6.966   4.843   1.579  0.1866  0.4859  0.1446
 7006TIP3    H120982   6.909   4.861   1.504 -0.5629 -1.1461  0.2787
 7006TIP3    H220983   7.012   4.762   1.555 -0.0192 -0.0182  1.4111
 7007TIP3   OH220984   5.424   1.087   0.702  0.2353 -0.0039 -0.2799
 7007TIP3    H120985   5.382   1.032   0.635  0.8420 -0.5918 -0.1892
 7007TIP3    H220986   5.511   1.048   0.713 -0.0589 -0.2881  1.2759
 7008TIP3   OH220987   5.655   1.685   4.676  0.1361 -0.3066  0.5250
 7008TIP3    H120988   5.663   1.738   4.756 -0.1253 -0.1090  0.4217
 7008TIP3    H220989   5.572   1.639   4.686  0.2510 -0.5195  0.5069
 7009TIP3   OH220990   0.068   4.452   1.802  0.8549 -0.3747 -0.3955
 7009TIP3    H120991  -0.027   4.455   1.793  0.7401  0.9225  0.8633
 7009TIP3    H220992   0.093   4.542   1.824  2.5240 -0.4168 -1.8715
 7010TIP3   OH220993   2.162   6.350   4.962 -0.0694 -0.1964  0.2899
 7010TIP3    H120994   2.133   6.269   4.921  0.8731 -0.7275  0.6241
 7010TIP3    H220995   2.206   6.399   4.892  0.4246 -0.5304  0.3596
 7011TIP3   OH220996   0.871   0.579   3.443 -0.1003  0.1242  0.1732
 7011TIP3    H120997   0.918   0.496   3.450  1.9333  1.2178 -0.0769
 7011TIP3    H220998   0.872   0.599   3.349 -1.9331 -0.2658  0.0217
 7012TIP3   OH220999   4.720   5.919   0.621  0.1406 -0.3674  0.1115
 7012TIP3    H121000   4.693   6.009   0.606  0.7350  0.2283  2.2361
 7012TIP3    H221001   4.639   5.873   0.645  0.0618 -0.0235  0.5157
 7013TIP3   OH221002   5.315   0.225   1.692  0.1042 -0.3877  0.5427
 7013TIP3    H121003   5.257   0.245   1.766 -1.2982 -0.1168 -0.6037
 7013TIP3    H221004   5.257   0.188   1.625  1.3359 -0.5377 -0.4697
 7014TIP3   OH221005   0.860   2.779   5.459 -0.5670 -0.3204  0.2898
 7014TIP3    H121006   0.930   2.718   5.482 -1.1398 -1.6584 -1.2961
 7014TIP3    H221007   0.780   2.735   5.488 -0.9776 -0.2673 -0.7207
 7015TIP3   OH221008   6.673   2.834   2.051  0.1352  0.1717  0.1827
 7015TIP3    H121009   6.736   2.797   1.990  1.5609  1.0725  1.0553
 7015TIP3    H221010   6.627   2.759   2.088  2.7984 -0.7963  1.7560
 7016TIP3   OH221011   4.579   5.196   2.021  0.5193  0.3266 -0.7471
 7016TIP3    H121012   4.627   5.187   1.939 -1.4742  0.1058 -1.9633
 7016TIP3    H221013   4.552   5.107   2.043  3.0245  0.0133  1.5119
 7017TIP3   OH221014   1.608   5.226   4.210 -0.7304 -0.5566  0.0396
 7017TIP3    H121015   1.594   5.147   4.262  0.1831 -0.7779 -0.0241
 7017TIP3    H221016   1.647   5.289   4.271 -2.5474  0.2948  0.4031
 7018TIP3   OH221017   0.739   6.620   1.132  0.1906  0.0470 -0.4717
 7018TIP3    H121018   0.686   6.542   1.150  1.7714 -1.5503 -2.2670
 7018TIP3    H221019   0.707   6.653   1.049  0.5939  0.3516 -0.5124
 7019TIP3   OH221020   5.404   5.130   3.400 -0.0787  0.2925  0.7941
 7019TIP3    H121021   5.427   5.172   3.317  1.4050 -0.5178  0.7546
 7019TIP3    H221022   5.432   5.193   3.466  0.4704  0.1620  0.6970
 7020TIP3   OH221023   3.545   2.779   2.752  0.4402 -0.6321  0.7562
 7020TIP3    H121024   3.467   2.739   2.790 -0.1505 -1.1113 -0.8882
 7020TIP3    H221025   3.538   2.763   2.658  1.5631  0.9823  0.3425
 7021TIP3   OH221026   2.766   4.965   1.302  0.2188  0.3110 -0.0610
 7021TIP3    H121027   2.678   4.929   1.287 -0.1181 -0.1160  2.4550
 7021TIP3    H221028   2.825   4.892   1.284  0.1157  0.6063 -1.7923
 7022TIP3   OH221029   2.968   0.911   3.072 -0.0480  0.0423  0.2758
 7022TIP3    H121030   3.027   0.886   3.143 -1.2559  0.9255  1.6458
 7022TIP3    H221031   2.965   1.006   3.074  0.5549  0.1352 -1.5528
 7023TIP3   OH221032   5.150   6.703   2.350 -0.1394 -0.5079  0.0869
 7023TIP3    H121033   5.213   6.645   2.392 -0.3380 -1.2306 -0.5850
 7023TIP3    H221034   5.082   6.645   2.316 -1.2018  0.2559  0.8204
 7024TIP3   OH221035   2.422   5.709   0.910 -0.4333 -0.7596  0.2967
 7024TIP3    H121036   2.460   5.661   0.837 -0.6002 -1.7425  0.8371
 7024TIP3    H221037   2.496   5.751   0.953 -0.3734  0.1088 -0.6275
 7025TIP3   OH221038   2.583   6.373   5.014  0.0184 -0.2769 -0.1659
 7025TIP3    H121039   2.640   6.317   5.067  0.3595  0.2903  0.0780
 7025TIP3    H221040   2.616   6.362   4.925 -0.6117 -1.2984 -0.2862
 7026TIP3   OH221041   0.124   0.390   1.438 -0.3197 -0.7928 -0.2966
 7026TIP3    H121042   0.140   0.366   1.529 -0.4306 -2.2661 -0.6379
 7026TIP3    H221043   0.043   0.440   1.440 -0.3320 -0.8318  0.4167
 7027TIP3   OH221044   1.541   2.978   1.014 -0.6134 -0.2146  0.4745
 7027TIP3    H121045   1.567   2.887   1.024 -0.2807 -0.2302 -0.4064
 7027TIP3    H221046   1.446   2.975   1.004 -0.6327 -0.4336  0.7129
 7028TIP3   OH221047   0.906   5.884   3.768  0.5747 -0.2611 -0.0150
 7028TIP3    H121048   0.821   5.865   3.729 -0.8991  0.3225  2.6787
 7028TIP3    H221049   0.913   5.821   3.841  1.9988  0.3382  0.3914
 7029TIP3   OH221050   5.237   1.192   5.423 -0.6624 -0.0481  0.2985
 7029TIP3    H121051   5.248   1.201   5.328 -2.7845  0.1148  0.0179
 7029TIP3    H221052   5.225   1.098   5.436 -1.6373  0.0603  0.2279
 7030TIP3   OH221053   5.520   5.280   0.329 -0.2940 -0.3021 -0.1969
 7030TIP3    H121054   5.505   5.217   0.258  1.2499  0.3603 -1.1809
 7030TIP3    H221055   5.468   5.356   0.304 -1.2784 -0.7560  0.4141
 7031TIP3   OH221056   7.183   4.430   5.787  0.0693  0.0491 -0.2076
 7031TIP3    H121057   7.143   4.343   5.788  1.2265 -0.5194 -1.2525
 7031TIP3    H221058   7.273   4.415   5.814 -0.1400  1.1861  1.2354
 7032TIP3   OH221059   1.657   4.427   2.898 -0.1041  0.0960  0.4266
 7032TIP3    H121060   1.603   4.374   2.839 -1.3788  1.6182  0.1527
 7032TIP3    H221061   1.736   4.447   2.846  0.0850 -0.9398  0.2965
 7033TIP3   OH221062   4.736   1.253   1.667 -0.4247 -0.1665  0.1328
 7033TIP3    H121063   4.829   1.278   1.662 -0.5499  0.1995 -0.4695
 7033TIP3    H221064   4.691   1.318   1.614 -1.0257 -0.3841  0.3670
 7034TIP3   OH221065   3.597   2.862   4.462 -0.2322 -0.3546 -0.4822
 7034TIP3    H121066   3.679   2.848   4.415  0.5151 -0.5271  0.8321
 7034TIP3    H221067   3.606   2.810   4.543 -0.8661  1.0915  0.5613
 7035TIP3   OH221068   4.652   2.825   3.098 -1.0181  0.2225 -0.3481
 7035TIP3    H121069   4.675   2.764   3.168 -2.1494 -0.5368 -0.6198
 7035TIP3    H221070   4.700   2.905   3.120 -0.0162 -0.5443  0.3604
 7036TIP3   OH221071   0.138   0.588   0.503 -0.5639  0.3609  0.0407
 7036TIP3    H121072   0.087   0.655   0.457 -0.7336  0.0229 -0.2609
 7036TIP3    H221073   0.129   0.612   0.596 -0.3577  0.9441 -0.0858
 7037TIP3   OH221074   3.761   2.183   2.539  0.1753  0.2110  0.2585
 7037TIP3    H121075   3.696   2.223   2.481 -1.6721 -0.8949  1.4249
 7037TIP3    H221076   3.771   2.094   2.506 -0.9052 -0.4338  1.5527
 7038TIP3   OH221077   2.319   1.541   1.534  0.2315 -0.6093  0.1506
 7038TIP3    H121078   2.294   1.468   1.590  0.8809 -2.4014 -1.7858
 7038TIP3    H221079   2.415   1.543   1.538  0.2164  0.9841  1.1112
 7039TIP3   OH221080   3.189   4.967   3.675  0.0122  0.5806  0.2914
 7039TIP3    H121081   3.140   4.966   3.592 -0.7790 -1.2082  0.7380
 7039TIP3    H221082   3.269   4.918   3.655 -0.4773 -0.4217  0.7271
 7040TIP3   OH221083   6.302   2.454   2.276 -0.2035  0.0248 -0.1540
 7040TIP3    H121084   6.302   2.408   2.360 -0.2718  0.6166  0.1678
 7040TIP3    H221085   6.328   2.543   2.296  0.7691 -0.0644 -0.9025
 7041TIP3   OH221086   6.386   1.100   1.209 -0.2336  0.0437  0.4991
 7041TIP3    H121087   6.304   1.098   1.159 -1.7637  0.9495  2.7902
 7041TIP3    H221088   6.396   1.011   1.242  0.5248 -0.4337 -0.9283
 7042TIP3   OH221089   3.265   3.395   0.874 -0.7196  0.6576 -0.1751
 7042TIP3    H121090   3.307   3.457   0.935  0.3852 -0.5328  0.3080
 7042TIP3    H221091   3.312   3.406   0.792  1.5823 -1.6262  0.7209
 7043TIP3   OH221092   1.709   0.966   0.099 -0.7496  0.6394 -0.1645
 7043TIP3    H121093   1.753   0.900   0.046  0.2481  0.7517  0.5021
 7043TIP3    H221094   1.730   0.942   0.190  1.7777  3.2270  0.0794
 7044TIP3   OH221095   3.433   5.841   3.271  0.1737 -0.1752  0.2606
 7044TIP3    H121096   3.525   5.849   3.246 -0.3155  2.1215 -1.0611
 7044TIP3    H221097   3.406   5.930   3.294 -1.9597 -0.6014 -0.3524
 7045TIP3   OH221098   3.951   1.123   1.878  0.3590 -0.2678 -0.2358
 7045TIP3    H121099   4.017   1.142   1.944  0.1413  0.2028 -0.1451
 7045TIP3    H221100   3.878   1.086   1.928 -0.8694  2.5104  0.2219
 7046TIP3   OH221101   5.315   6.052   1.793  0.4509 -0.3927 -0.0678
 7046TIP3    H121102   5.266   6.129   1.822  0.1455  0.0749 -1.7260
 7046TIP3    H221103   5.337   6.070   1.701  1.0952 -1.9213 -0.2499
 7047TIP3   OH221104   6.099   4.906   5.221  0.4027  0.3494 -0.1778
 7047TIP3    H121105   6.087   4.891   5.315 -0.9300 -2.5858 -0.6963
 7047TIP3    H221106   6.156   4.834   5.193  1.6476  1.7858 -1.4921
 7048TIP3   OH221107   2.297   1.696   2.585 -0.3302 -0.4666 -0.3395
 7048TIP3    H121108   2.259   1.614   2.555 -1.7288 -0.5863  1.5973
 7048TIP3    H221109   2.374   1.708   2.529  0.2055 -3.3346 -0.3798
 7049TIP3   OH221110   5.190   2.340   1.875 -0.3212 -0.1576  0.1563
 7049TIP3    H121111   5.122   2.404   1.858 -0.8992 -0.7723  0.1147
 7049TIP3    H221112   5.249   2.347   1.800  0.1514  0.9851  0.6194
 7050TIP3   OH221113   1.008   5.378   1.606  0.2581  0.5738  0.0102
 7050TIP3    H121114   0.915   5.364   1.623  0.0034  0.5122 -1.2969
 7050TIP3    H221115   1.026   5.466   1.639 -0.0808  0.2919  0.9507
 7051TIP3   OH221116   6.230   5.682   4.945  0.2726  0.1601  0.2893
 7051TIP3    H121117   6.149   5.633   4.939  0.1355  0.1791  1.6912
 7051TIP3    H221118   6.299   5.616   4.943  0.2675  0.1633 -1.2088
 7052TIP3   OH221119   3.413   3.065   4.524  0.2981  0.3166  0.3124
 7052TIP3    H121120   3.453   3.149   4.545 -0.9126  1.0325 -0.1019
 7052TIP3    H221121   3.486   3.009   4.498  1.1140  1.2699  0.4901
 7053TIP3   OH221122   5.450   1.493   3.120  0.7865 -0.1618  0.0072
 7053TIP3    H121123   5.509   1.514   3.192  2.8112  1.2367 -1.9246
 7053TIP3    H221124   5.364   1.523   3.150  1.5036  0.1577  1.9001
 7054TIP3   OH221125   4.837   6.016   5.146  0.3211 -0.0270  0.2471
 7054TIP3    H121126   4.874   6.039   5.060  0.0912  2.7890  0.8114
 7054TIP3    H221127   4.743   6.026   5.134  0.1621 -1.1012  0.4780
 7055TIP3   OH221128   6.961   5.673   1.641 -0.0244 -0.3006  0.1480
 7055TIP3    H121129   6.944   5.596   1.587 -0.9152  0.3206 -0.4763
 7055TIP3    H221130   7.051   5.662   1.671 -0.4707 -2.1379  0.9767
 7056TIP3   OH221131   0.327   0.942   1.100  0.2384 -0.2477 -0.0572
 7056TIP3    H121132   0.366   0.972   1.182 -0.1251 -1.4971  0.5783
 7056TIP3    H221133   0.289   0.857   1.120 -0.7268 -0.1347 -1.2739
 7057TIP3   OH221134   3.230   1.181   1.251  0.1955  0.2306  0.3555
 7057TIP3    H121135   3.156   1.237   1.229 -0.2803 -0.9470 -1.2158
 7057TIP3    H221136   3.276   1.169   1.167 -0.5006 -2.7980  0.2999
 7058TIP3   OH221137   3.564   5.908   0.929  0.1201  0.0172 -0.5457
 7058TIP3    H121138   3.599   5.943   1.011  0.6423 -0.9468 -0.3485
 7058TIP3    H221139   3.497   5.845   0.955 -1.6486  1.6294 -0.9175
 7059TIP3   OH221140   1.121   3.130   2.923  0.1313  0.0191 -0.3534
 7059TIP3    H121141   1.175   3.077   2.981  1.1934 -0.7782 -1.9944
 7059TIP3    H221142   1.159   3.218   2.927  2.3937 -0.7626 -2.3460
 7060TIP3   OH221143   6.510   4.160   5.141 -0.1242 -0.0096 -0.5211
 7060TIP3    H121144   6.444   4.219   5.105 -0.8114 -0.9683 -0.8803
 7060TIP3    H221145   6.541   4.110   5.066 -0.9185 -1.3929  0.0267
 7061TIP3   OH221146   2.639   5.481   0.810  0.1764  0.3972 -0.1246
 7061TIP3    H121147   2.718   5.443   0.849  0.2255  1.5091  0.9290
 7061TIP3    H221148   2.604   5.412   0.754 -0.9133 -2.0432  3.2607
 7062TIP3   OH221149   2.900   6.708   2.676  0.5344  0.0936  0.3083
 7062TIP3    H121150   2.953   6.787   2.667 -2.3727  2.3613  1.3486
 7062TIP3    H221151   2.932   6.665   2.755  1.4135  0.8430  0.3672
 7063TIP3   OH221152   4.917   1.873   1.879 -0.3733 -0.3158 -0.3219
 7063TIP3    H121153   4.982   1.940   1.859 -0.4655 -0.0744  0.1820
 7063TIP3    H221154   4.833   1.918   1.869 -0.5276 -0.8972 -2.0333
 7064TIP3   OH221155   5.976   4.443   0.765  0.0689 -0.0900 -0.3796
 7064TIP3    H121156   5.885   4.413   0.766  0.1108 -0.2181 -0.3604
 7064TIP3    H221157   5.995   4.459   0.672 -0.1118  0.3711 -0.3413
 7065TIP3   OH221158   5.841   0.363   4.757  0.0959  0.2026 -0.0540
 7065TIP3    H121159   5.913   0.320   4.804 -0.7952  0.9251  2.0803
 7065TIP3    H221160   5.773   0.296   4.751 -0.0729  0.3347  0.3693
 7066TIP3   OH221161   6.621   2.964   1.402 -0.6951 -0.1065  0.4313
 7066TIP3    H121162   6.530   2.950   1.375 -0.8097  1.2208  0.0243
 7066TIP3    H221163   6.642   3.052   1.368  1.1234 -0.8639 -0.5323
 7067TIP3   OH221164   2.187   3.155   2.403  0.0701  0.0271 -0.0191
 7067TIP3    H121165   2.119   3.096   2.435 -0.2444  0.5269  0.2395
 7067TIP3    H221166   2.204   3.125   2.313 -0.2483 -0.3068  0.0299
 7068TIP3   OH221167   3.381   1.729   0.638 -0.1358 -0.0152 -0.5849
 7068TIP3    H121168   3.375   1.807   0.583  1.0762  0.3327 -0.2517
 7068TIP3    H221169   3.413   1.660   0.580  0.7979  0.2646 -0.4249
 7069TIP3   OH221170   2.356   5.772   3.520 -0.0343  0.4809 -0.2883
 7069TIP3    H121171   2.268   5.811   3.523  0.3070  1.2396  1.4184
 7069TIP3    H221172   2.375   5.750   3.611  0.9877 -1.0239 -0.8320
 7070TIP3   OH221173   0.725   4.768   5.258  0.0368  0.6861  0.0275
 7070TIP3    H121174   0.673   4.774   5.178  0.4182 -1.4189 -0.4541
 7070TIP3    H221175   0.754   4.676   5.261  1.2133  1.0539  1.8444
 7071TIP3   OH221176   1.866   3.913   3.276  0.5018 -0.3785  0.5476
 7071TIP3    H121177   1.814   3.842   3.239  0.3453  0.6261 -1.2897
 7071TIP3    H221178   1.953   3.876   3.287  0.8028 -0.4776 -1.8115
 7072TIP3   OH221179   4.974   5.467   0.733 -0.4549  0.0346 -0.4857
 7072TIP3    H121180   5.011   5.530   0.670  2.7279 -0.3085  0.8490
 7072TIP3    H221181   4.984   5.382   0.690  0.9286 -0.1097  0.0592
 7073TIP3   OH221182   0.663   2.407   2.412  0.0017  0.1975  0.0555
 7073TIP3    H121183   0.691   2.496   2.392 -1.0961  0.5000 -0.1782
 7073TIP3    H221184   0.661   2.363   2.327  0.2720  0.0251  0.1369
 7074TIP3   OH221185   4.757   4.840   3.858  0.1945  0.5508  0.0954
 7074TIP3    H121186   4.663   4.841   3.873  0.1552 -0.4998 -0.0417
 7074TIP3    H221187   4.776   4.926   3.821 -1.0392  0.0797 -1.7482
 7075TIP3   OH221188   7.016   6.384   1.102 -0.2390  0.4189 -0.2118
 7075TIP3    H121189   6.927   6.404   1.073 -0.8472 -0.7998  0.7299
 7075TIP3    H221190   7.072   6.438   1.046 -1.5337  0.8360 -1.1575
 7076TIP3   OH221191   3.185   4.799   1.582  1.0193  0.2250 -0.1295
 7076TIP3    H121192   3.096   4.800   1.617 -0.1038 -0.2778 -2.7019
 7076TIP3    H221193   3.208   4.892   1.573  0.5833  0.3644  0.1804
 7077TIP3   OH221194   5.220   5.012   5.529  0.6329 -0.4093 -0.7553
 7077TIP3    H121195   5.236   5.099   5.565 -0.0207 -0.0096 -1.3835
 7077TIP3    H221196   5.154   4.973   5.586  0.5869 -0.3062 -0.7386
 7078TIP3   OH221197   0.255   6.327   3.562  0.0986 -0.3746 -0.5835
 7078TIP3    H121198   0.227   6.294   3.647  0.4508  0.3037 -0.2029
 7078TIP3    H221199   0.345   6.297   3.553  0.5259  0.6965 -0.1022
 7079TIP3   OH221200   4.462   4.471   0.628  0.7196 -0.5192 -0.4646
 7079TIP3    H121201   4.447   4.377   0.625  0.3015 -0.4647 -0.1112
 7079TIP3    H221202   4.491   4.488   0.718 -2.8987  0.2194  0.7040
 7080TIP3   OH221203   3.074   1.032   3.819 -0.2399 -0.8782  0.3724
 7080TIP3    H121204   3.098   1.066   3.905  0.2251 -2.1064  0.7548
 7080TIP3    H221205   2.989   0.990   3.832 -0.3837 -0.6791  0.1110
 7081TIP3   OH221206   5.426   2.608   3.366 -0.0704 -0.0007 -0.1328
 7081TIP3    H121207   5.359   2.564   3.314  1.3563 -1.2587 -0.9784
 7081TIP3    H221208   5.503   2.553   3.357  0.9980  1.2380  1.0799
 7082TIP3   OH221209   3.085   0.819   4.929  0.1451 -0.2688  0.2199
 7082TIP3    H121210   2.996   0.848   4.909  1.0884  2.2257 -0.7918
 7082TIP3    H221211   3.120   0.787   4.846  0.5492 -0.2055  0.3602
 7083TIP3   OH221212   5.823   4.096   2.696  0.1792 -0.3806 -0.4189
 7083TIP3    H121213   5.778   4.033   2.640 -1.2421 -0.4071  0.6995
 7083TIP3    H221214   5.754   4.137   2.747  1.3771 -0.0806  1.0443
 7084TIP3   OH221215   0.306   6.387   1.026  0.1394 -0.5483 -0.2364
 7084TIP3    H121216   0.231   6.335   1.057  0.8829 -1.2266  0.4611
 7084TIP3    H221217   0.337   6.340   0.949  0.6215 -0.9991  0.2173
 7085TIP3   OH221218   0.469   4.611   3.494 -0.0417  0.1672 -0.3416
 7085TIP3    H121219   0.424   4.695   3.484 -0.9559 -0.2595  0.0210
 7085TIP3    H221220   0.404   4.546   3.466  0.6446 -0.4214 -0.5890
 7086TIP3   OH221221   1.941   6.558   1.738  0.7930  0.1786 -0.7042
 7086TIP3    H121222   1.856   6.577   1.698  0.8084 -0.8075 -1.2219
 7086TIP3    H221223   1.961   6.468   1.713  1.4543 -0.0003  0.3938
 7087TIP3   OH221224   1.778   3.048   5.099 -0.0233  0.6923 -0.4035
 7087TIP3    H121225   1.767   3.046   5.004 -2.3695 -0.8436 -0.1847
 7087TIP3    H221226   1.709   3.106   5.130 -1.7968 -1.7808  0.5405
 7088TIP3   OH221227   5.697   5.160   3.716 -0.0832  0.1669  0.1413
 7088TIP3    H121228   5.705   5.188   3.625 -1.2571 -2.0394 -0.7231
 7088TIP3    H221229   5.764   5.092   3.726 -0.1651  0.1833  0.8331
 7089TIP3   OH221230   1.883   3.416   5.487 -0.0024 -0.4900 -0.1904
 7089TIP3    H121231   1.883   3.393   5.394 -0.4384 -0.2377 -0.2563
 7089TIP3    H221232   1.912   3.336   5.531  0.1018 -0.6457 -0.5345
 7090TIP3   OH221233   4.714   6.650   4.045  0.0106  0.1009 -0.1368
 7090TIP3    H121234   4.779   6.714   4.017  1.5157 -1.4047 -0.2845
 7090TIP3    H221235   4.686   6.679   4.132  0.1473  1.3022 -0.4846
 7091TIP3   OH221236   2.011   0.828   2.915  0.1247  0.4260 -0.2995
 7091TIP3    H121237   2.002   0.862   2.826  0.3201  1.4357  0.0487
 7091TIP3    H221238   2.103   0.803   2.921  0.2354  0.8412 -0.2237
 7092TIP3   OH221239   6.972   2.645   1.970  0.6495  0.1178 -0.8130
 7092TIP3    H121240   6.955   2.732   1.934  1.3801  0.2762 -0.7963
 7092TIP3    H221241   6.957   2.585   1.897  0.7766  0.3184 -1.0075
 7093TIP3   OH221242   2.251   4.921   3.229 -0.1497 -0.1826  0.3858
 7093TIP3    H121243   2.181   4.859   3.248 -0.4503  0.4159  1.3443
 7093TIP3    H221244   2.329   4.867   3.220 -0.7950 -0.8990 -1.1370
 7094TIP3   OH221245   2.959   0.995   0.044 -0.5274  0.4340 -0.6314
 7094TIP3    H121246   2.864   0.981   0.043 -0.2715 -1.5107 -0.2288
 7094TIP3    H221247   2.969   1.090   0.038 -2.4725  0.6175 -1.7203
 7095TIP3   OH221248   0.923   2.868   0.684 -0.3707 -0.5288  0.0884
 7095TIP3    H121249   0.896   2.855   0.593  2.6164  0.3492 -1.0545
 7095TIP3    H221250   1.009   2.827   0.690 -1.0852 -1.8713  3.0062
 7096TIP3   OH221251   3.527   3.905   2.868  0.2000 -0.1190  0.4147
 7096TIP3    H121252   3.546   3.888   2.960  0.7592 -0.8856  0.1571
 7096TIP3    H221253   3.586   3.849   2.819  1.2952  1.6953 -0.4563
 7097TIP3   OH221254   2.363   4.505   5.594 -0.3158  0.1125  0.5715
 7097TIP3    H121255   2.383   4.505   5.688  0.1715  0.2491  0.4722
 7097TIP3    H221256   2.445   4.534   5.553 -1.0247  1.7140  0.2143
 7098TIP3   OH221257   1.365   1.494   0.959  0.5124  0.5234  0.5476
 7098TIP3    H121258   1.354   1.399   0.954 -0.5904  0.5890  1.5294
 7098TIP3    H221259   1.316   1.528   0.884 -0.3073  0.3991  1.0213
 7099TIP3   OH221260   1.862   6.723   5.702  0.1790 -0.2464 -0.6673
 7099TIP3    H121261   1.953   6.693   5.708  0.1001 -0.8739 -2.2111
 7099TIP3    H221262   1.863   6.790   5.634 -1.0231 -2.6189 -3.1957
 7100TIP3   OH221263   3.542   6.468   1.514  0.1769 -0.4303  0.0852
 7100TIP3    H121264   3.540   6.508   1.427 -0.4158  0.0134  0.2999
 7100TIP3    H221265   3.625   6.497   1.552 -1.1098  2.3745  1.0460
 7101TIP3   OH221266   3.799   0.804   4.806 -0.3030  0.4991 -0.8365
 7101TIP3    H121267   3.891   0.808   4.780 -0.1913 -0.9907 -0.7959
 7101TIP3    H221268   3.795   0.851   4.889  0.9832 -1.5174  0.4876
 7102TIP3   OH221269   6.216   6.570   2.006  0.2039  0.1987  0.1982
 7102TIP3    H121270   6.156   6.521   1.950 -1.0958  1.0787  0.7782
 7102TIP3    H221271   6.164   6.644   2.039  1.7292  1.2444  0.3726
 7103TIP3   OH221272   1.943   6.768   1.245 -0.0852 -0.4875  0.0559
 7103TIP3    H121273   1.999   6.797   1.173  0.7912  0.1773  0.9759
 7103TIP3    H221274   1.855   6.763   1.207  0.1430  1.0420 -0.7553
 7104TIP3   OH221275   1.201   2.230   5.769  0.0469 -0.1259 -0.5691
 7104TIP3    H121276   1.235   2.148   5.734 -0.6748 -0.7839  0.2210
 7104TIP3    H221277   1.106   2.221   5.761 -0.0269  0.7244 -0.6692
 7105TIP3   OH221278   0.240   2.963   2.330 -0.0816  0.1351  0.0765
 7105TIP3    H121279   0.322   2.982   2.375  1.3974  0.3371 -2.5228
 7105TIP3    H221280   0.208   2.883   2.371  1.6038 -0.1429  0.9224
 7106TIP3   OH221281   6.020   3.351   0.343 -0.2671  0.2449  0.0614
 7106TIP3    H121282   5.937   3.389   0.315  0.0496 -0.0451 -1.3669
 7106TIP3    H221283   6.011   3.258   0.325  0.7269  0.3502 -1.1052
 7107TIP3   OH221284   3.019   2.762   5.510 -0.4381 -0.0968 -0.0852
 7107TIP3    H121285   2.953   2.746   5.443  0.9429 -1.5519 -1.1609
 7107TIP3    H221286   3.039   2.676   5.546  1.8851  0.0598 -0.8194
 7108TIP3   OH221287   3.571   5.632   3.559  0.3729  0.4074  0.0121
 7108TIP3    H121288   3.554   5.539   3.574  1.7911  0.0860 -0.1963
 7108TIP3    H221289   3.607   5.663   3.642 -1.6555  1.2165  0.6521
 7109TIP3   OH221290   4.167   1.263   0.981 -0.1722 -0.3230  0.3653
 7109TIP3    H121291   4.262   1.276   0.978 -0.4906  2.8136 -0.0206
 7109TIP3    H221292   4.143   1.287   1.071 -0.5519 -1.7758  0.6648
 7110TIP3   OH221293   2.084   4.227   1.993  0.3479  0.6253  0.5097
 7110TIP3    H121294   2.169   4.182   1.990  0.3173  0.5935  0.0017
 7110TIP3    H221295   2.062   4.231   2.086  1.7641  2.2392  0.8079
 7111TIP3   OH221296   1.234   2.620   0.082 -0.3970  0.0896 -0.5215
 7111TIP3    H121297   1.240   2.551   0.148 -0.8834 -1.1832 -1.7601
 7111TIP3    H221298   1.180   2.687   0.123 -0.4516 -0.5417  0.4832
 7112TIP3   OH221299   2.699   2.428   0.383  0.5939  0.0187 -0.5021
 7112TIP3    H121300   2.746   2.410   0.301  0.0109 -1.5720 -0.5162
 7112TIP3    H221301   2.757   2.488   0.431  1.4664  0.0733 -1.5864
 7113TIP3   OH221302   6.279   5.931   0.135  0.3825  0.4309 -0.4665
 7113TIP3    H121303   6.355   5.901   0.085 -2.0752 -2.5574 -2.8068
 7113TIP3    H221304   6.230   5.986   0.075 -0.5319  0.2796  0.1104
 7114TIP3   OH221305   3.004   3.896   4.502  0.4266  0.3397  0.0576
 7114TIP3    H121306   3.067   3.935   4.442  1.1404 -0.9848 -0.0837
 7114TIP3    H221307   2.949   3.841   4.446  0.6330 -0.3333  0.5119
 7115TIP3   OH221308   2.397   5.065   2.685  0.1026  0.1535  0.5050
 7115TIP3    H121309   2.439   5.150   2.694  0.6685 -0.0558 -0.1103
 7115TIP3    H221310   2.309   5.085   2.651 -0.1602  0.5582  1.3931
 7116TIP3   OH221311   6.546   3.184   5.689 -0.5672 -0.4115  0.1325
 7116TIP3    H121312   6.636   3.175   5.721  0.1901  1.2098 -1.3357
 7116TIP3    H221313   6.549   3.148   5.600 -0.2349  3.2680 -1.5160
 7117TIP3   OH221314   3.302   6.261   5.548  0.2037 -0.0597  0.1160
 7117TIP3    H121315   3.384   6.307   5.530 -0.3055  0.8537  0.0807
 7117TIP3    H221316   3.241   6.292   5.481 -0.3672 -0.2023  0.5599
 7118TIP3   OH221317   2.909   4.379   0.086 -0.7980 -0.2783 -0.2245
 7118TIP3    H121318   2.912   4.283   0.088  2.7575 -0.4372 -2.9173
 7118TIP3    H221319   2.994   4.406   0.120 -1.8028  1.9818  0.6556
 7119TIP3   OH221320   6.455   2.221   0.766  0.5633  0.0860 -0.0306
 7119TIP3    H121321   6.463   2.126   0.764 -1.1436 -0.1090  1.1110
 7119TIP3    H221322   6.513   2.249   0.837  0.2783 -0.1960  0.3138
 7120TIP3   OH221323   6.274   4.689   4.281  0.1207 -0.7530  0.2467
 7120TIP3    H121324   6.275   4.606   4.233  1.4995 -0.8030  0.3415
 7120TIP3    H221325   6.326   4.672   4.359  1.3090  0.4822 -0.2292
 7121TIP3   OH221326   4.239   3.407   1.930 -0.5379 -0.3109 -0.0572
 7121TIP3    H121327   4.254   3.486   1.982  2.2503 -0.5619 -0.3614
 7121TIP3    H221328   4.172   3.433   1.866 -1.1304  1.1784  1.1036
 7122TIP3   OH221329   3.938   1.402   5.355 -0.0620  0.2757  0.1844
 7122TIP3    H121330   3.970   1.365   5.273  0.2862 -0.8416  0.8041
 7122TIP3    H221331   3.976   1.490   5.358  2.0001 -0.5640  0.3176
 7123TIP3   OH221332   2.208   6.701   2.871  0.8397  0.1792 -0.3209
 7123TIP3    H121333   2.165   6.654   2.942  3.2769 -2.0492 -0.1548
 7123TIP3    H221334   2.160   6.784   2.864 -0.2710 -0.0308  3.0567
 7124TIP3   OH221335   2.433   2.673   4.006 -0.2139 -0.6390 -0.3897
 7124TIP3    H121336   2.361   2.732   4.029 -1.6219 -1.6042 -2.1052
 7124TIP3    H221337   2.490   2.725   3.950  0.6753  0.2464  1.2789
 7125TIP3   OH221338   2.656   4.682   0.810 -0.0797  0.3707  0.3081
 7125TIP3    H121339   2.564   4.677   0.786  0.2621 -0.4149 -0.9741
 7125TIP3    H221340   2.660   4.642   0.896 -0.9344  0.3691  0.3555
 7126TIP3   OH221341   0.379   2.087   4.424  0.1563 -0.1144  0.3234
 7126TIP3    H121342   0.347   2.045   4.344  0.9106  0.6642 -0.4097
 7126TIP3    H221343   0.451   2.032   4.453  0.3695  0.0061  0.0345
 7127TIP3   OH221344   4.872   3.775   2.208 -0.5191 -0.5284 -0.1513
 7127TIP3    H121345   4.778   3.755   2.203 -1.0930  1.9897 -0.4675
 7127TIP3    H221346   4.883   3.816   2.294 -0.3572  2.0299 -1.3259
 7128TIP3   OH221347   5.975   4.618   2.778 -0.3269  0.2311 -0.3541
 7128TIP3    H121348   5.971   4.547   2.714 -0.9669 -0.1132  0.0689
 7128TIP3    H221349   6.005   4.693   2.727  0.7576 -0.4220 -0.7265
 7129TIP3   OH221350   3.541   3.018   5.633  0.1068  0.0209  0.1863
 7129TIP3    H121351   3.473   3.051   5.692 -0.6390  0.2768 -0.7902
 7129TIP3    H221352   3.614   2.996   5.691 -0.7475 -0.1229  1.2510
 7130TIP3   OH221353   4.243   2.696   5.322 -0.0405  0.4187 -0.4272
 7130TIP3    H121354   4.273   2.768   5.266  0.2692 -0.2945 -1.1919
 7130TIP3    H221355   4.249   2.732   5.411  0.0885  1.3445 -0.7923
 7131TIP3   OH221356   6.932   4.119   0.069  0.2573 -0.3514 -0.7465
 7131TIP3    H121357   6.932   4.041   0.125  2.8340 -0.9628 -1.4511
 7131TIP3    H221358   7.012   4.165   0.094 -1.4178  2.4015 -0.0334
 7132TIP3   OH221359   7.107   4.561   4.358  0.0402 -0.5216  0.2781
 7132TIP3    H121360   7.071   4.614   4.287 -0.2339 -0.3430  0.5461
 7132TIP3    H221361   7.166   4.500   4.315  1.3401  0.8270  0.0808
 7133TIP3   OH221362   3.903   1.181   0.413  0.4803 -0.0351  0.0158
 7133TIP3    H121363   3.870   1.091   0.423 -0.3154  0.1293 -0.9383
 7133TIP3    H221364   3.827   1.231   0.381  0.5839  1.2507  1.6568
 7134TIP3   OH221365   4.841   1.003   4.345  0.4369 -0.3798  0.2590
 7134TIP3    H121366   4.867   1.062   4.274  0.3504 -0.5238  0.1078
 7134TIP3    H221367   4.843   1.058   4.424  1.4753 -0.4484  0.2971
 7135TIP3   OH221368   3.446   3.062   2.199  0.3805  0.1549 -0.4202
 7135TIP3    H121369   3.377   2.999   2.217  0.8252  0.2239  1.7279
 7135TIP3    H221370   3.480   3.037   2.113 -0.0522 -1.9624 -0.0156
 7136TIP3   OH221371   3.272   1.512   0.133 -0.1296 -0.0263  0.1249
 7136TIP3    H121372   3.244   1.444   0.194 -0.7069  0.0800 -0.0077
 7136TIP3    H221373   3.365   1.523   0.149 -0.2922  0.0628  1.0546
 7137TIP3   OH221374   6.489   0.092   0.806  0.9000  0.5858 -0.1842
 7137TIP3    H121375   6.460   0.168   0.856 -0.7800  0.4139 -0.8326
 7137TIP3    H221376   6.436   0.093   0.727  1.7403 -0.5600 -0.8042
 7138TIP3   OH221377   3.825   4.139   0.114 -0.1258  0.0628  0.7567
 7138TIP3    H121378   3.864   4.198   0.179 -0.6568  0.7925  0.4317
 7138TIP3    H221379   3.737   4.121   0.147  0.1814 -0.8976  1.0636
 7139TIP3   OH221380   0.250   0.997   2.577 -0.4643  0.5621 -0.0072
 7139TIP3    H121381   0.316   1.035   2.520 -0.3178  3.6478  1.9238
 7139TIP3    H221382   0.172   0.988   2.522  0.1383  1.8270 -1.1097
 7140TIP3   OH221383   5.541   3.851   3.482  0.2030  0.0938  0.3667
 7140TIP3    H121384   5.541   3.940   3.518 -1.2189 -0.2930  1.4498
 7140TIP3    H221385   5.627   3.841   3.441  0.3839  1.9633  0.2030
 7141TIP3   OH221386   5.271   3.466   2.760  0.7373 -0.2509  0.0031
 7141TIP3    H121387   5.248   3.406   2.831  1.0071 -1.0758 -0.5873
 7141TIP3    H221388   5.189   3.481   2.713  0.7438 -0.4855 -0.0856
 7142TIP3   OH221389   6.946   1.852   0.740 -0.1683  0.6330 -0.0710
 7142TIP3    H121390   7.006   1.778   0.743 -0.3855  0.4317 -0.5881
 7142TIP3    H221391   6.940   1.882   0.831 -2.2555 -1.7106  0.6865
 7143TIP3   OH221392   2.175   5.837   0.917 -0.2570 -0.7405 -0.5180
 7143TIP3    H121393   2.115   5.763   0.926 -0.4546 -0.5272 -0.0261
 7143TIP3    H221394   2.261   5.797   0.904 -0.4525 -1.0493 -0.8744
 7144TIP3   OH221395   1.208   5.205   5.304  0.1967 -0.0456 -0.3265
 7144TIP3    H121396   1.254   5.180   5.384  2.0919  0.3747 -1.2368
 7144TIP3    H221397   1.238   5.293   5.285 -1.8965  0.7209 -0.3692
 7145TIP3   OH221398   0.913   5.222   1.091  0.2561  0.0127  0.0546
 7145TIP3    H121399   0.883   5.312   1.081  1.5673  0.3358 -1.1936
 7145TIP3    H221400   1.002   5.221   1.055  1.6153 -1.0332  3.0889
 7146TIP3   OH221401   3.270   4.685   4.035 -0.2983  0.5911  0.2469
 7146TIP3    H121402   3.357   4.657   4.063 -0.3887 -1.4839 -1.2661
 7146TIP3    H221403   3.215   4.607   4.046 -2.4159  2.2936  2.6734
 7147TIP3   OH221404   0.634   6.708   0.875 -0.2281 -0.1748  0.0192
 7147TIP3    H121405   0.583   6.706   0.795  1.6742  2.5935 -1.4282
 7147TIP3    H221406   0.696   6.635   0.866  0.0486  0.1861 -1.1423
 7148TIP3   OH221407   5.791   4.949   0.203 -0.7444 -0.4880  0.0424
 7148TIP3    H121408   5.844   4.900   0.141  0.4380  0.1474  0.5231
 7148TIP3    H221409   5.817   4.917   0.289 -0.6690  0.2781  0.3164
 7149TIP3   OH221410   2.999   5.719   5.862  0.6021 -0.1004  0.0402
 7149TIP3    H121411   3.001   5.763   5.777  0.7407  0.8817  0.5368
 7149TIP3    H221412   2.963   5.632   5.844  3.6338 -1.1426 -1.5696
 7150TIP3   OH221413   2.336   1.915   1.248  0.4428 -0.0824  0.1147
 7150TIP3    H121414   2.332   2.010   1.259  0.4579  0.0241 -0.6887
 7150TIP3    H221415   2.323   1.879   1.336  0.3343  0.6602  0.4069
 7151TIP3   OH221416   5.503   4.786   1.022  0.4288 -0.1033 -0.4415
 7151TIP3    H121417   5.439   4.730   0.978  0.9431 -1.2759  0.2431
 7151TIP3    H221418   5.528   4.737   1.101  0.9321  1.0824  0.1668
 7152TIP3   OH221419   4.931   0.752   4.715  0.3430 -0.1257  0.3140
 7152TIP3    H121420   5.009   0.774   4.767 -0.2254 -0.4280  1.3275
 7152TIP3    H221421   4.957   0.769   4.624  1.1967  0.9351  0.7331
 7153TIP3   OH221422   6.474   1.353   3.693  0.2458  0.4013 -0.6172
 7153TIP3    H121423   6.438   1.341   3.781  1.0502  3.0689  0.1892
 7153TIP3    H221424   6.403   1.394   3.644  0.1664 -0.0444 -0.8744
 7154TIP3   OH221425   0.402   6.606   2.014 -0.0311 -0.7459 -0.0231
 7154TIP3    H121426   0.353   6.663   2.074  0.7730 -1.1565  1.0550
 7154TIP3    H221427   0.400   6.652   1.930  1.4180  1.3747  1.0246
 7155TIP3   OH221428   0.412   4.665   3.887  0.1084 -0.4504 -0.7402
 7155TIP3    H121429   0.371   4.624   3.811 -0.2398  0.7417 -1.2215
 7155TIP3    H221430   0.502   4.683   3.859  0.1066 -0.4084 -0.7194
 7156TIP3   OH221431   6.677   2.716   2.874  0.0823 -0.1293 -0.6284
 7156TIP3    H121432   6.588   2.721   2.837  0.1045 -0.6939 -0.7722
 7156TIP3    H221433   6.677   2.780   2.945 -1.0066 -1.3344  0.5314
 7157TIP3   OH221434   4.180   2.814   3.090 -0.3095 -0.1688  0.4057
 7157TIP3    H121435   4.092   2.776   3.091 -0.2672 -0.2639  0.5799
 7157TIP3    H221436   4.165   2.907   3.078 -0.4809 -0.0576  1.4088
 7158TIP3   OH221437   7.116   3.930   1.296 -0.3966  0.3912  0.2974
 7158TIP3    H121438   7.042   3.984   1.269 -0.6077  0.4852  1.0620
 7158TIP3    H221439   7.181   3.943   1.226 -0.3809  1.7668  0.5420
 7159TIP3   OH221440   7.206   2.343   4.492  0.2697 -0.0332  0.6576
 7159TIP3    H121441   7.120   2.340   4.450  0.0005  1.9633  0.9462
 7159TIP3    H221442   7.189   2.317   4.582  0.4803 -2.2511  0.1145
 7160TIP3   OH221443   4.006   0.387   0.124 -0.4659  0.2239 -0.5672
 7160TIP3    H121444   3.923   0.431   0.144  0.5382  1.2943  1.5283
 7160TIP3    H221445   4.070   0.429   0.181  1.0297 -2.4462 -0.1376
 7161TIP3   OH221446   0.325   0.521   2.999  1.1297 -0.4734  0.0390
 7161TIP3    H121447   0.304   0.473   3.079 -0.4029 -0.6297 -0.4323
 7161TIP3    H221448   0.346   0.453   2.935 -0.5822 -0.5572 -0.4960
 7162TIP3   OH221449   6.778   3.438   2.185 -0.0467 -0.0262 -0.0404
 7162TIP3    H121450   6.757   3.441   2.092 -1.1580 -0.6014  0.1794
 7162TIP3    H221451   6.831   3.516   2.200  0.2885 -0.0123 -1.1813
 7163TIP3   OH221452   6.128   3.286   4.180 -0.2004 -0.1884  0.1115
 7163TIP3    H121453   6.072   3.295   4.103 -0.1702 -0.2274  0.0845
 7163TIP3    H221454   6.125   3.371   4.223  0.1711 -0.0124 -0.1989
 7164TIP3   OH221455   6.136   1.824   4.028  0.2442  0.3925 -0.1963
 7164TIP3    H121456   6.044   1.808   4.005  0.5427 -0.0990 -1.0606
 7164TIP3    H221457   6.145   1.919   4.020 -0.0715  0.3969 -0.5685
 7165TIP3   OH221458   6.244   1.263   2.220 -0.0585 -0.1496 -0.2120
 7165TIP3    H121459   6.188   1.223   2.288 -0.3355 -0.7222 -0.7655
 7165TIP3    H221460   6.275   1.344   2.260 -0.9399 -0.0336  0.2676
 7166TIP3   OH221461   2.044   4.278   3.276  0.0128 -0.1705 -0.3540
 7166TIP3    H121462   2.100   4.335   3.330  0.4457 -0.3409 -0.6184
 7166TIP3    H221463   1.966   4.263   3.330  0.0461  0.3908 -0.1398
 7167TIP3   OH221464   5.870   3.569   2.925  0.2423 -0.4436  0.1841
 7167TIP3    H121465   5.828   3.637   2.873  1.4924 -0.1082 -0.4124
 7167TIP3    H221466   5.858   3.597   3.015 -0.9094 -0.4253  0.0483
 7168TIP3   OH221467   2.282   0.080   1.270 -0.0491 -0.3101  0.1554
 7168TIP3    H121468   2.194   0.093   1.305 -0.1847 -1.4713  0.2851
 7168TIP3    H221469   2.279   0.117   1.182 -0.3310  0.6738  0.5607
 7169TIP3   OH221470   4.802   5.466   3.101 -0.1727 -0.0966  0.0015
 7169TIP3    H121471   4.823   5.423   3.018  0.7428  0.4987 -0.0943
 7169TIP3    H221472   4.815   5.398   3.167  1.9902  0.1567 -0.0725
 7170TIP3   OH221473   1.622   2.242   4.811  0.3130  0.7596 -0.2552
 7170TIP3    H121474   1.606   2.205   4.898  0.3583 -1.0439 -0.9791
 7170TIP3    H221475   1.704   2.291   4.820 -0.0140  1.1377  0.8558
 7171TIP3   OH221476   4.065   4.719   3.778 -0.2696  0.4348  0.1045
 7171TIP3    H121477   4.119   4.790   3.745 -1.2131  0.4713 -1.4668
 7171TIP3    H221478   4.070   4.651   3.711 -1.3597  0.0465  0.3868
 7172TIP3   OH221479   4.886   6.414   2.022 -0.0869 -0.1971  0.0194
 7172TIP3    H121480   4.981   6.409   2.031 -0.0587  0.0135 -0.1475
 7172TIP3    H221481   4.872   6.462   1.940 -0.3344 -0.6050 -0.1839
 7173TIP3   OH221482   3.294   0.818   0.357  0.1466 -0.2055 -0.3528
 7173TIP3    H121483   3.281   0.724   0.368 -2.6772  0.1018 -0.5299
 7173TIP3    H221484   3.282   0.833   0.264  0.3808  0.3749 -0.2923
 7174TIP3   OH221485   0.474   1.963   3.834 -0.5079  0.4010 -0.0611
 7174TIP3    H121486   0.482   2.059   3.836 -2.6204  0.6313 -0.6526
 7174TIP3    H221487   0.382   1.946   3.853 -0.1449 -1.5397  0.1159
 7175TIP3   OH221488   5.686   3.363   2.083  0.4672 -0.5499  0.0088
 7175TIP3    H121489   5.625   3.380   2.154 -2.6194 -0.2224 -2.5059
 7175TIP3    H221490   5.720   3.275   2.101  0.2641 -0.2548  2.1117
 7176TIP3   OH221491   5.697   6.175   3.461 -0.3237 -0.0871 -0.0497
 7176TIP3    H121492   5.650   6.167   3.544  0.8800 -0.0152  0.6649
 7176TIP3    H221493   5.666   6.101   3.408 -1.3566  0.0701  0.3249
 7177TIP3   OH221494   1.677   3.587   5.575  0.5560  0.1850  0.3549
 7177TIP3    H121495   1.596   3.540   5.555  0.9952 -1.8432  2.7873
 7177TIP3    H221496   1.745   3.537   5.530  0.5465  1.8990 -1.7043
 7178TIP3   OH221497   3.262   2.364   0.563 -0.1779 -0.5777  0.1525
 7178TIP3    H121498   3.297   2.316   0.637 -0.1195  0.5113  0.8501
 7178TIP3    H221499   3.208   2.300   0.516 -0.2439 -1.2694  1.1484
 7179TIP3   OH221500   5.256   4.869   3.391 -0.3608  0.0257  0.4383
 7179TIP3    H121501   5.240   4.933   3.461 -1.6345 -0.0289  0.2137
 7179TIP3    H221502   5.224   4.786   3.427  0.8550 -0.4183  0.5470
 7180TIP3   OH221503   3.708   2.160   3.193  0.1867 -0.2201  0.3568
 7180TIP3    H121504   3.771   2.133   3.261 -1.5238  0.5237  2.3525
 7180TIP3    H221505   3.674   2.244   3.225 -0.5407  0.2565 -1.5700
 7181TIP3   OH221506   3.694   6.529   4.254 -0.6328  0.2841 -0.8650
 7181TIP3    H121507   3.634   6.455   4.251 -1.5029  1.0086 -1.6970
 7181TIP3    H221508   3.726   6.530   4.345  0.3894 -1.8518 -1.1338
 7182TIP3   OH221509   0.088   4.376   3.119 -0.4584  0.1321  0.2235
 7182TIP3    H121510   0.117   4.458   3.159 -2.4193  0.5873  0.8397
 7182TIP3    H221511  -0.007   4.373   3.136 -0.9831 -0.8068 -2.3810
 7183TIP3   OH221512   6.583   6.453   5.458 -0.1729 -0.0269  0.1698
 7183TIP3    H121513   6.670   6.488   5.473 -0.3423  0.5829 -0.2402
 7183TIP3    H221514   6.598   6.371   5.411  0.2875 -1.2258  2.2909
 7184TIP3   OH221515   6.487   2.132   1.573  0.3260 -0.4022 -0.2795
 7184TIP3    H121516   6.450   2.053   1.532 -2.0242  1.2804 -1.6748
 7184TIP3    H221517   6.512   2.104   1.661 -1.5980 -2.4468 -0.2930
 7185TIP3   OH221518   3.038   4.269   1.010 -0.0208  0.5018 -0.5058
 7185TIP3    H121519   3.051   4.345   0.953  2.6819 -0.6946 -1.6753
 7185TIP3    H221520   2.971   4.217   0.965 -0.4232  1.2238 -0.7527
 7186TIP3   OH221521   4.879   5.292   0.518 -0.2770  0.3568  0.1304
 7186TIP3    H121522   4.924   5.208   0.508 -1.7629 -0.7107  1.6642
 7186TIP3    H221523   4.905   5.343   0.441  1.5507 -1.0733 -0.2754
 7187TIP3   OH221524   3.799   4.560   4.579  0.3062 -0.1612 -0.1831
 7187TIP3    H121525   3.858   4.598   4.643  1.4057  0.3701 -1.4618
 7187TIP3    H221526   3.776   4.474   4.615 -0.5501  0.8221  1.7472
 7188TIP3   OH221527   2.961   0.403   1.032  0.6365 -0.4826 -0.3371
 7188TIP3    H121528   2.915   0.353   0.965 -1.7984  0.2276  0.6620
 7188TIP3    H221529   2.938   0.360   1.114  1.6688  0.0129  0.2330
 7189TIP3   OH221530   1.580   3.884   3.603  0.2357  0.1667  0.0758
 7189TIP3    H121531   1.646   3.934   3.650  1.1753 -1.4183  0.5307
 7189TIP3    H221532   1.500   3.894   3.655  0.0653  2.1295 -0.5001
 7190TIP3   OH221533   5.921   3.040   0.895  0.0333  0.5045 -0.1857
 7190TIP3    H121534   6.008   3.018   0.928 -0.6874 -1.2099  0.7082
 7190TIP3    H221535   5.935   3.114   0.836  2.3697 -0.9997 -1.6752
 7191TIP3   OH221536   1.013   0.524   5.258  0.0061  0.1152 -0.2191
 7191TIP3    H121537   1.101   0.512   5.222 -0.0867  0.7670 -0.6725
 7191TIP3    H221538   1.007   0.460   5.329  0.2747 -1.0550 -1.2100
 7192TIP3   OH221539   0.562   6.609   3.645  0.1649  0.2884  0.0949
 7192TIP3    H121540   0.517   6.528   3.668 -0.3441  1.0485  1.9403
 7192TIP3    H221541   0.583   6.599   3.552 -1.9808 -0.9544 -0.3157
 7193TIP3   OH221542   0.243   6.239   3.291  0.1793  0.1043  0.0190
 7193TIP3    H121543   0.208   6.297   3.359  0.7601  0.1978  0.2418
 7193TIP3    H221544   0.285   6.298   3.229  0.6864 -0.0727  0.1961
 7194TIP3   OH221545   4.770   1.456   1.492 -0.2213 -0.5159 -0.2995
 7194TIP3    H121546   4.725   1.445   1.408 -0.1949 -0.3434 -0.3372
 7194TIP3    H221547   4.738   1.540   1.525 -0.3288 -0.6443 -0.0763
 7195TIP3   OH221548   2.615   1.192   0.018 -0.0651 -0.4259  0.3009
 7195TIP3    H121549   2.645   1.233   0.099 -0.0654  0.7886 -0.3016
 7195TIP3    H221550   2.634   1.099   0.030  1.3950 -0.0549  1.0488
 7196TIP3   OH221551   6.403   0.830   2.089  0.2534 -0.1416 -0.0347
 7196TIP3    H121552   6.402   0.787   2.175  0.5250 -2.0944 -0.9562
 7196TIP3    H221553   6.380   0.761   2.027 -0.3130  1.3119 -1.5241
 7197TIP3   OH221554   2.944   2.611   0.941  0.4214 -0.5198  0.1111
 7197TIP3    H121555   2.945   2.702   0.971  0.6883 -0.6733  0.5778
 7197TIP3    H221556   2.851   2.591   0.929  0.3953  0.0110 -0.6103
 7198TIP3   OH221557   1.341   4.968   0.415 -0.6279  0.1588 -0.2457
 7198TIP3    H121558   1.432   4.943   0.400 -0.5305  0.5066 -0.2302
 7198TIP3    H221559   1.290   4.908   0.360 -0.4548 -0.7715  0.5880
 7199TIP3   OH221560   4.385   4.470   2.858  0.2334 -0.4602 -0.4913
 7199TIP3    H121561   4.347   4.448   2.773  0.8306 -1.1467 -0.5871
 7199TIP3    H221562   4.432   4.391   2.885  1.0022  0.1318 -0.0501
 7200TIP3   OH221563   4.835   4.612   3.030 -0.5091 -0.7003  0.3739
 7200TIP3    H121564   4.874   4.551   3.092 -0.2107 -1.7365 -0.7926
 7200TIP3    H221565   4.852   4.574   2.944 -0.7064  0.8046 -0.3780
 7201TIP3   OH221566   1.006   0.907   0.223  0.2226  0.1949  0.1464
 7201TIP3    H121567   0.970   0.889   0.137 -0.2744 -2.0622  0.7675
 7201TIP3    H221568   1.088   0.857   0.226 -0.2601 -0.5630  1.3168
 7202TIP3   OH221569   2.959   2.635   4.536 -0.6213  0.1265  0.3220
 7202TIP3    H121570   2.971   2.564   4.599  2.1748 -0.2013 -0.4452
 7202TIP3    H221571   2.949   2.713   4.590  0.3318 -0.3275  1.1949
 7203TIP3   OH221572   7.015   2.407   2.462  0.0969  0.0452 -0.3337
 7203TIP3    H121573   6.952   2.433   2.528  0.3172  1.4680 -0.6490
 7203TIP3    H221574   6.980   2.441   2.379  1.2694  0.9439 -0.5049
 7204TIP3   OH221575   3.005   6.158   4.756  0.4766  0.2998  0.0807
 7204TIP3    H121576   2.985   6.065   4.761  0.6497  0.1455 -1.4841
 7204TIP3    H221577   3.101   6.163   4.761  0.6541  0.1437 -2.0606
 7205TIP3   OH221578   2.004   0.829   3.533  0.2801 -0.2356  0.3884
 7205TIP3    H121579   2.069   0.762   3.554 -0.3268 -0.6095  1.1323
 7205TIP3    H221580   2.046   0.912   3.556 -0.2711 -0.6048  3.0330
 7206TIP3   OH221581   2.691   6.212   3.844 -0.3390 -0.3552  0.2598
 7206TIP3    H121582   2.620   6.274   3.825 -0.1806 -0.5842 -1.2759
 7206TIP3    H221583   2.740   6.208   3.762  1.8763  0.3045  1.4819
 7207TIP3   OH221584   2.692   0.230  -0.007 -0.1995  0.2193 -0.3888
 7207TIP3    H121585   2.766   0.196   0.044  1.0268  0.8889 -1.6666
 7207TIP3    H221586   2.615   0.185   0.029  0.9140 -1.0443  0.4784
 7208TIP3   OH221587   0.484   2.257   3.828  0.0936  0.6492 -0.0073
 7208TIP3    H121588   0.562   2.267   3.881 -0.7580  0.3391  1.3569
 7208TIP3    H221589   0.428   2.331   3.852 -0.5945  0.1216  0.0644
 7209TIP3   OH221590   1.058   4.997   5.192  0.0660 -0.1743  0.1346
 7209TIP3    H121591   1.128   4.932   5.203  1.6329  1.5790  0.9236
 7209TIP3    H221592   1.076   5.063   5.258 -1.5087  1.0642 -0.6296
 7210TIP3   OH221593   5.409   6.331   4.744 -0.8622  0.2170 -0.4299
 7210TIP3    H121594   5.476   6.351   4.679 -1.6672  1.1750 -1.0014
 7210TIP3    H221595   5.455   6.282   4.812  0.2624  0.2738 -1.1219
 7211TIP3   OH221596   1.989   4.876   5.140 -0.0122  0.0579 -0.0316
 7211TIP3    H121597   2.041   4.796   5.129  0.5376  0.5264 -0.9336
 7211TIP3    H221598   2.007   4.903   5.230 -0.9276 -1.3176  0.6034
 7212TIP3   OH221599   4.819   0.528   2.791 -0.1765 -0.5734  0.0001
 7212TIP3    H121600   4.771   0.483   2.861  0.1932 -1.0391 -0.0433
 7212TIP3    H221601   4.841   0.614   2.828 -2.0600  0.1365 -0.3797
 7213TIP3   OH221602   6.218   2.543   4.631  0.5206  0.2708  0.4551
 7213TIP3    H121603   6.155   2.472   4.643  0.6340  0.1233  0.1898
 7213TIP3    H221604   6.303   2.505   4.656  0.9565 -0.4020 -1.7765
 7214TIP3   OH221605   4.618   1.942   4.721  0.8973  0.2017  0.3412
 7214TIP3    H121606   4.632   1.872   4.784  0.8472 -0.1551 -0.0375
 7214TIP3    H221607   4.633   1.901   4.635 -0.3530  0.3275  0.0373
 7215TIP3   OH221608   2.583   3.584   4.133 -0.2927  0.1871 -0.6765
 7215TIP3    H121609   2.561   3.621   4.219  0.6054  0.5960 -0.6152
 7215TIP3    H221610   2.499   3.552   4.099 -0.7008  0.2383  0.2447
 7216TIP3   OH221611   5.489   4.904   5.464  0.2568 -0.2871  0.0165
 7216TIP3    H121612   5.399   4.929   5.486  0.1796 -1.0418  0.6004
 7216TIP3    H221613   5.484   4.874   5.373 -0.1993 -0.8650  0.2255
 7217TIP3   OH221614   7.010   4.233   0.819  0.3767  0.2393 -0.0203
 7217TIP3    H121615   7.098   4.253   0.850  0.0105  1.5516  0.2314
 7217TIP3    H221616   7.020   4.218   0.725  0.8876  0.2518  0.0338
 7218TIP3   OH221617   6.794   1.312   0.914 -0.7365 -0.2467 -0.1095
 7218TIP3    H121618   6.794   1.266   0.997 -1.5732  0.3285  0.2159
 7218TIP3    H221619   6.705   1.305   0.881 -1.3645  2.4614  0.7274
 7219TIP3   OH221620   5.264   2.733   1.739 -0.0820  0.2866 -0.1272
 7219TIP3    H121621   5.179   2.689   1.745  0.4072 -1.0142 -1.8552
 7219TIP3    H221622   5.315   2.696   1.812 -0.3924 -0.3768 -0.2377
 7220TIP3   OH221623   0.631   6.661   3.909 -0.6710  0.3317 -0.0344
 7220TIP3    H121624   0.625   6.633   3.818 -0.1357 -0.1307  0.0650
 7220TIP3    H221625   0.674   6.587   3.954  1.5038  1.5834  0.0957
 7221TIP3   OH221626   0.704   1.319   2.757  0.0681  0.0528  0.1390
 7221TIP3    H121627   0.795   1.306   2.729  0.1410 -1.4099  0.9590
 7221TIP3    H221628   0.653   1.274   2.690 -0.1631  1.8403 -0.9472
 7222TIP3   OH221629   6.888   1.697   2.746 -0.1850  0.2128  0.0682
 7222TIP3    H121630   6.931   1.780   2.766 -1.9444  1.8658 -2.4388
 7222TIP3    H221631   6.863   1.662   2.832  1.0923  1.9643  1.2340
 7223TIP3   OH221632   5.308   0.741   0.390  0.5431 -0.4059  1.1818
 7223TIP3    H121633   5.274   0.829   0.371  1.8883 -0.1260 -0.1262
 7223TIP3    H221634   5.241   0.701   0.445 -1.4113  0.4582 -0.4325
 7224TIP3   OH221635   5.034   0.796   4.460 -0.4866  0.5340 -0.3959
 7224TIP3    H121636   5.036   0.717   4.406 -0.9575  0.0235  0.3043
 7224TIP3    H221637   4.986   0.860   4.407 -2.6804 -0.5583  0.1463
 7225TIP3   OH221638   3.120   0.417   5.019  0.5007 -0.4309  0.9008
 7225TIP3    H121639   3.181   0.444   4.950 -0.7844 -0.1040 -0.1441
 7225TIP3    H221640   3.138   0.476   5.092 -1.1819  2.3969 -0.7718
 7226TIP3   OH221641   4.168   4.606   5.349  0.3594 -0.5148 -0.5507
 7226TIP3    H121642   4.105   4.535   5.335 -0.9076  0.7509 -1.5278
 7226TIP3    H221643   4.145   4.642   5.434 -0.1140 -0.1669 -0.8282
 7227TIP3   OH221644   0.089   6.122   0.110 -0.6471 -0.0007  0.5888
 7227TIP3    H121645   0.166   6.141   0.165 -0.0075  2.8099 -1.1086
 7227TIP3    H221646   0.123   6.121   0.021 -2.2875 -0.6157 -0.0541
 7228TIP3   OH221647   1.630   1.384   0.658 -0.6560  0.7200  0.0453
 7228TIP3    H121648   1.659   1.431   0.736  1.5382  2.0458 -1.4495
 7228TIP3    H221649   1.617   1.452   0.592 -0.9126 -0.4856 -1.1888
 7229TIP3   OH221650   3.059   5.995   5.184  0.1411  0.3650  0.0901
 7229TIP3    H121651   3.096   6.039   5.261  1.5524  1.2203 -1.0215
 7229TIP3    H221652   3.101   6.037   5.109 -1.0757 -0.5401 -1.1708
 7230TIP3   OH221653   0.515   3.103   3.454 -0.0238  0.6407  0.2367
 7230TIP3    H121654   0.450   3.108   3.385 -0.5961 -0.6344  0.6573
 7230TIP3    H221655   0.542   3.194   3.468 -1.5581  1.1698 -0.0726
 7231TIP3   OH221656   0.466   1.791   3.284 -0.0078 -0.1769 -0.3709
 7231TIP3    H121657   0.433   1.848   3.353  0.3106 -1.5119  0.9554
 7231TIP3    H221658   0.388   1.749   3.248 -0.0818 -0.3741  0.0164
 7232TIP3   OH221659   5.122   0.344   0.971 -0.0396 -0.3218 -0.4341
 7232TIP3    H121660   5.030   0.319   0.961  0.0340 -0.9079  0.2809
 7232TIP3    H221661   5.166   0.302   0.898 -0.3548  0.0581 -0.8473
 7233TIP3   OH221662   5.514   6.196   0.654 -0.4828 -0.0713  0.2293
 7233TIP3    H121663   5.527   6.261   0.584  0.4530 -0.6603 -0.1653
 7233TIP3    H221664   5.566   6.230   0.727 -0.9949  0.2482  0.4505
 7234TIP3   OH221665   1.041   1.844   0.903  0.1948  0.0917 -0.0752
 7234TIP3    H121666   0.948   1.857   0.920  0.3482  0.8929  0.1978
 7234TIP3    H221667   1.056   1.752   0.921 -0.9678 -0.5635 -2.1000
 7235TIP3   OH221668   2.020   0.318   4.579  0.2341  0.3001  0.2262
 7235TIP3    H121669   2.105   0.321   4.623 -0.0542  2.0305  0.7632
 7235TIP3    H221670   2.037   0.357   4.493 -0.2881  2.2722  0.9514
 7236TIP3   OH221671   6.212   1.043   4.739 -0.1450 -0.2340  0.0482
 7236TIP3    H121672   6.172   0.983   4.801  0.0996 -0.4311  0.0154
 7236TIP3    H221673   6.305   1.024   4.743 -0.1199 -0.2045 -0.3332
 7237TIP3   OH221674   1.885   2.931   0.499  0.1059 -0.0201 -0.4236
 7237TIP3    H121675   1.892   2.990   0.424  0.6276  1.3379  0.6517
 7237TIP3    H221676   1.975   2.910   0.522  0.0183  0.5864  0.5616
 7238TIP3   OH221677   0.792   4.230   0.782 -0.0501  0.6505  0.2523
 7238TIP3    H121678   0.822   4.276   0.703  0.3951 -0.2786 -0.1368
 7238TIP3    H221679   0.872   4.192   0.819  0.2443  3.3419  2.7370
 7239TIP3   OH221680   1.452   5.088   2.613 -0.9820 -0.0151 -0.0303
 7239TIP3    H121681   1.370   5.089   2.664 -0.8538 -1.7969  0.2545
 7239TIP3    H221682   1.440   5.018   2.550  0.3461 -0.3163  0.0338
 7240TIP3   OH221683   0.903   3.694   0.513 -0.2929  0.1068 -0.3418
 7240TIP3    H121684   0.946   3.629   0.458 -0.2200 -0.0006 -0.1616
 7240TIP3    H221685   0.810   3.685   0.493 -0.2122  0.5255 -0.9328
 7241TIP3   OH221686   4.377   1.176   1.507 -0.1028  0.4861  0.1694
 7241TIP3    H121687   4.445   1.178   1.440 -0.1252 -1.4477  0.0357
 7241TIP3    H221688   4.385   1.261   1.552  0.6827  1.3352 -1.4774
 7242TIP3   OH221689   4.095   0.538   4.567  0.1975 -0.0558  0.2683
 7242TIP3    H121690   4.064   0.469   4.625  0.2760  0.1168  0.5186
 7242TIP3    H221691   4.092   0.618   4.620  0.1254  0.1304 -0.0107
 7243TIP3   OH221692   0.717   3.507   3.196  0.2083  0.6160 -0.3069
 7243TIP3    H121693   0.784   3.438   3.193 -0.7810 -0.5632  1.9751
 7243TIP3    H221694   0.643   3.472   3.147  0.1630  0.6041 -0.2301
 7244TIP3   OH221695   6.999   1.369   1.758 -0.2883  0.1266  0.0133
 7244TIP3    H121696   7.022   1.322   1.838  1.7161  0.2830 -0.4180
 7244TIP3    H221697   6.908   1.395   1.771 -0.1471 -0.2207  2.0545
 7245TIP3   OH221698   5.573   6.122   0.261 -0.2063 -0.4119 -0.0799
 7245TIP3    H121699   5.487   6.099   0.297 -1.7222  2.6430 -1.3306
 7245TIP3    H221700   5.587   6.058   0.191 -1.3597 -1.0780  0.2690
 7246TIP3   OH221701   2.032   4.165   4.529 -0.5668  0.2061 -0.5875
 7246TIP3    H121702   2.002   4.159   4.620 -0.8363  0.6891 -0.6423
 7246TIP3    H221703   2.076   4.081   4.513 -1.3919 -0.2927 -0.3287
 7247TIP3   OH221704   3.746   3.947   0.933 -0.2687 -0.3027  0.1291
 7247TIP3    H121705   3.744   3.930   0.839  0.8376 -0.2694  0.0779
 7247TIP3    H221706   3.739   4.042   0.939 -0.9990 -0.3508  0.1235
 7248TIP3   OH221707   5.195   5.323   3.842 -0.2183  0.1423  0.0244
 7248TIP3    H121708   5.185   5.353   3.752 -0.1986  0.0244 -0.0183
 7248TIP3    H221709   5.106   5.315   3.876 -0.1905  1.3480  0.4093
 7249TIP3   OH221710   6.048   5.498   5.451 -0.0152 -0.5424  0.4336
 7249TIP3    H121711   6.123   5.538   5.406  0.2239 -1.0397  0.3875
 7249TIP3    H221712   6.039   5.412   5.411 -0.7662 -0.3922  0.2709
 7250TIP3   OH221713   0.154   4.232   2.903  0.0930 -0.3134 -0.1948
 7250TIP3    H121714   0.104   4.267   2.977  0.4713  0.3246 -0.2371
 7250TIP3    H221715   0.096   4.245   2.827 -0.2018 -0.7625 -0.0553
 7251TIP3   OH221716   3.173   5.217   0.668  0.3617 -0.5455  0.6330
 7251TIP3    H121717   3.160   5.293   0.724  0.8164  1.3927 -1.7696
 7251TIP3    H221718   3.253   5.236   0.619 -0.5081 -1.7159 -1.3597
 7252TIP3   OH221719   6.433   5.933   1.786  0.1812 -0.2078  0.2140
 7252TIP3    H121720   6.482   5.907   1.709  0.1228  0.8275 -0.1866
 7252TIP3    H221721   6.498   5.971   1.845  0.0197  0.3205  0.0634
 7253TIP3   OH221722   3.266   0.078   1.172 -0.1878  0.4228 -0.7013
 7253TIP3    H121723   3.322   0.058   1.247  0.3625  0.8111 -0.9998
 7253TIP3    H221724   3.190   0.021   1.183 -0.4281  0.9387  0.4970
 7254TIP3   OH221725   6.381   2.056   2.642 -0.1549 -0.0042  0.1665
 7254TIP3    H121726   6.359   1.969   2.608 -0.0158  0.8997 -2.4821
 7254TIP3    H221727   6.466   2.045   2.683 -0.0722 -1.0933 -0.2690
 7255TIP3   OH221728   1.759   1.692   4.880  0.2192  0.0326  0.5551
 7255TIP3    H121729   1.777   1.620   4.820  0.0828  0.4697 -0.0320
 7255TIP3    H221730   1.666   1.683   4.900 -0.4066  1.3248 -1.3478
 7256TIP3   OH221731   5.566   4.313   5.013 -0.1924  0.3070 -0.6284
 7256TIP3    H121732   5.652   4.273   5.023 -0.4525 -0.0857  0.0954
 7256TIP3    H221733   5.576   4.402   5.049 -0.1469  0.1826 -0.3318
 7257TIP3   OH221734   1.578  -0.009   5.496  0.2637  0.5996  0.0644
 7257TIP3    H121735   1.505   0.011   5.439 -0.4809  0.5745  0.9911
 7257TIP3    H221736   1.645   0.057   5.474  0.0687  0.4760 -0.9417
 7258TIP3   OH221737   1.055   2.137   4.593 -0.5579  0.2102 -0.7741
 7258TIP3    H121738   1.099   2.055   4.617 -1.1983  0.4208  1.2491
 7258TIP3    H221739   0.975   2.109   4.548 -1.1032 -0.3196  0.4933
 7259TIP3   OH221740   0.674   0.227   0.539  0.4478 -0.0815  0.1031
 7259TIP3    H121741   0.704   0.295   0.479  2.0207 -0.5833  0.2826
 7259TIP3    H221742   0.669   0.148   0.486 -0.8601  0.0369  0.0190
 7260TIP3   OH221743   2.017   4.098   2.469  0.0737 -0.3565  0.2667
 7260TIP3    H121744   1.993   4.101   2.561  1.1325 -1.4704  0.5937
 7260TIP3    H221745   1.998   4.187   2.436 -0.5581 -0.0289  1.4636
 7261TIP3   OH221746   2.866   0.689   5.197 -0.5138 -0.3615  0.5208
 7261TIP3    H121747   2.947   0.719   5.237 -1.1186  0.9881  0.8348
 7261TIP3    H221748   2.892   0.623   5.133  0.6428 -1.2226  1.8358
 7262TIP3   OH221749   1.574   3.556   2.085  0.1885 -0.2432  0.2223
 7262TIP3    H121750   1.499   3.497   2.077  1.1949 -1.3473 -2.0059
 7262TIP3    H221751   1.552   3.630   2.029  0.3338 -0.0966  0.3598
 7263TIP3   OH221752   6.836   3.214   4.567  0.5038  0.1196  0.0228
 7263TIP3    H121753   6.911   3.267   4.593  0.7769  0.0852 -0.6787
 7263TIP3    H221754   6.806   3.254   4.486  1.6835 -1.7318 -1.3866
 7264TIP3   OH221755   3.818   0.910   2.261  0.0461  0.0038  0.4570
 7264TIP3    H121756   3.830   0.962   2.340  1.3554 -0.5895  0.6791
 7264TIP3    H221757   3.906   0.901   2.224 -0.0237 -2.4677  0.7129
 7265TIP3   OH221758   4.159   5.262   2.440  0.2996 -0.3505  0.0411
 7265TIP3    H121759   4.079   5.278   2.490  0.3486 -0.1614  0.0567
 7265TIP3    H221760   4.222   5.326   2.472 -0.1118  0.7688 -1.2916
 7266TIP3   OH221761   1.043   4.259   4.841  0.2341 -0.4216 -0.0217
 7266TIP3    H121762   0.988   4.187   4.872  0.5636 -0.3731  0.6865
 7266TIP3    H221763   1.048   4.320   4.915  1.7838 -0.7551  0.1766
 7267TIP3   OH221764   2.695   4.613   3.523 -0.4807  0.3535 -0.4319
 7267TIP3    H121765   2.637   4.546   3.487  0.9976 -0.7126 -0.9195
 7267TIP3    H221766   2.686   4.604   3.618  1.2315 -2.0113 -0.4203
 7268TIP3   OH221767   3.428   0.671   4.194 -0.1257  0.2106  0.1123
 7268TIP3    H121768   3.459   0.621   4.119 -2.2630 -1.5044  0.2910
 7268TIP3    H221769   3.481   0.638   4.267 -0.4716 -0.7165 -0.0389
 7269TIP3   OH221770   1.111   0.489   3.609 -0.4339 -0.3160 -0.4438
 7269TIP3    H121771   1.152   0.429   3.546 -0.4535 -0.3992 -0.3779
 7269TIP3    H221772   1.108   0.440   3.691 -1.5543 -0.6857 -0.6766
 7270TIP3   OH221773   0.060   0.546   5.600 -0.2806 -0.2088  0.3504
 7270TIP3    H121774  -0.007   0.587   5.545  1.2750  0.0047 -1.4952
 7270TIP3    H221775   0.123   0.615   5.616 -0.3434 -0.4699  1.8775
 7271TIP3   OH221776   6.760   5.566   3.877 -0.7019 -0.1717  0.5924
 7271TIP3    H121777   6.691   5.625   3.847  1.0950  2.2273  0.8740
 7271TIP3    H221778   6.806   5.541   3.796 -0.2051  0.5146  0.6570
 7272TIP3   OH221779   2.678   3.177   4.929  0.0082 -0.5312  0.0610
 7272TIP3    H121780   2.762   3.170   4.884  0.1356  0.4991  0.1115
 7272TIP3    H221781   2.630   3.244   4.880 -0.1988 -0.0414  0.9131
 7273TIP3   OH221782   2.845   5.809   4.341  0.6692  0.4232  0.0252
 7273TIP3    H121783   2.750   5.821   4.344  0.4312 -1.3145  0.3858
 7273TIP3    H221784   2.872   5.815   4.433  0.8704  0.6798 -0.0520
 7274TIP3   OH221785   0.816   2.076   2.878 -0.2736 -0.0789  0.5248
 7274TIP3    H121786   0.778   2.027   2.950  0.7988 -0.2298  1.0066
 7274TIP3    H221787   0.891   2.122   2.917 -0.2380  0.5749 -0.2860
 7275TIP3   OH221788   7.113   0.177   2.994 -0.6363  0.0027  0.4561
 7275TIP3    H121789   7.158   0.260   3.008 -1.1101  0.1888  0.8945
 7275TIP3    H221790   7.173   0.127   2.939  0.0121  0.3311  0.8459
 7276TIP3   OH221791   4.462   5.802   4.921 -0.0566  0.2264 -0.5206
 7276TIP3    H121792   4.368   5.817   4.910 -0.3208 -2.2681 -2.5631
 7276TIP3    H221793   4.502   5.851   4.848  0.1621  0.4767 -0.2371
 7277TIP3   OH221794   3.186   4.298   0.206  0.2601  0.6340  0.2372
 7277TIP3    H121795   3.234   4.251   0.274 -1.0420  1.5198  1.8335
 7277TIP3    H221796   3.180   4.235   0.133  1.9429 -0.2264  0.7815
 7278TIP3   OH221797   0.397   2.726   3.215 -0.2339 -0.2935 -0.2705
 7278TIP3    H121798   0.442   2.804   3.183 -2.2870  1.0250 -0.1627
 7278TIP3    H221799   0.333   2.760   3.278 -1.1432 -2.0803 -0.1688
 7279TIP3   OH221800   6.614   2.810   3.659  0.0798 -0.1614 -0.4618
 7279TIP3    H121801   6.703   2.780   3.641 -0.3257 -1.4057 -0.4586
 7279TIP3    H221802   6.577   2.827   3.573  0.3283  0.4512 -0.4604
 7280TIP3   OH221803   4.925   6.267   3.017  0.4280  0.1783  0.0936
 7280TIP3    H121804   4.924   6.360   3.041  0.5672  0.0885  0.4609
 7280TIP3    H221805   4.834   6.246   2.996  0.7217  0.9625 -2.2423
 7281TIP3   OH221806   0.129   6.337   0.569 -0.8197  0.1899  0.1746
 7281TIP3    H121807   0.209   6.321   0.519  0.0348  0.4471  1.4250
 7281TIP3    H221808   0.059   6.333   0.504  0.2715  0.6988 -1.0701
 7282TIP3   OH221809   6.639   3.720   2.031  0.0355  0.4016  0.4165
 7282TIP3    H121810   6.694   3.783   1.984 -0.4265 -0.2265 -1.0121
 7282TIP3    H221811   6.603   3.663   1.963 -0.1847 -0.9337  1.5965
 7283TIP3   OH221812   0.570   4.158   0.443  0.0852  1.2002 -0.1359
 7283TIP3    H121813   0.640   4.135   0.503  1.1878 -0.8586 -2.0710
 7283TIP3    H221814   0.489   4.135   0.489  0.5574  3.4366  2.0522
 7284TIP3   OH221815   3.168   4.323   0.668  0.8889 -0.4024 -0.2770
 7284TIP3    H121816   3.109   4.255   0.702 -0.9321  0.6161 -1.2460
 7284TIP3    H221817   3.119   4.364   0.597  2.4220  1.1467 -0.5125
 7285TIP3   OH221818   5.740   2.915   5.552  0.2576 -0.1261  0.0336
 7285TIP3    H121819   5.783   2.873   5.627 -1.4484 -4.0722 -0.9008
 7285TIP3    H221820   5.812   2.945   5.497  1.6523 -1.0443  1.2526
 7286TIP3   OH221821   3.816   5.479   0.654  0.4163  0.3469  0.3756
 7286TIP3    H121822   3.904   5.474   0.691 -1.0261 -0.7239  4.2152
 7286TIP3    H221823   3.815   5.414   0.584  2.1669 -1.1394  1.6493
 7287TIP3   OH221824   5.359   1.948   1.734  0.7019  0.9547 -0.3941
 7287TIP3    H121825   5.273   1.985   1.754 -0.2393 -1.5195  0.6168
 7287TIP3    H221826   5.421   1.999   1.787 -0.5234  0.9965  1.0588
 7288TIP3   OH221827   1.588   4.917   1.117 -0.6763  0.4005 -0.0215
 7288TIP3    H121828   1.635   5.000   1.124  1.6482 -0.7375 -1.0584
 7288TIP3    H221829   1.638   4.856   1.172 -1.3607 -0.6935 -0.5751
 7289TIP3   OH221830   4.355   0.678   4.029 -0.2888  0.1042  0.3372
 7289TIP3    H121831   4.412   0.754   4.021 -0.1811 -0.0089 -0.0102
 7289TIP3    H221832   4.275   0.712   4.068  0.1591  0.1891  1.2043
 7290TIP3   OH221833   2.081   6.799   1.657  0.2152  0.2454 -0.5216
 7290TIP3    H121834   2.010   6.825   1.598 -0.7162 -0.2940  0.3106
 7290TIP3    H221835   2.046   6.722   1.703  1.5047 -0.2747 -0.3724
 7291TIP3   OH221836   2.109   2.354   2.746  0.1894  0.3188 -0.8417
 7291TIP3    H121837   2.095   2.300   2.668  0.5287  0.6346 -1.1234
 7291TIP3    H221838   2.197   2.390   2.735  0.3526  0.1367 -0.1746
 7292TIP3   OH221839   2.597   2.817   1.677 -0.3016  0.9497 -0.2458
 7292TIP3    H121840   2.559   2.730   1.686 -0.9177  1.0863 -1.3265
 7292TIP3    H221841   2.678   2.813   1.728  1.0234 -1.0591 -2.3295
 7293TIP3   OH221842   6.608   5.840   1.470 -0.0844 -0.2468 -0.2576
 7293TIP3    H121843   6.651   5.820   1.386  0.6822 -0.0931  0.0900
 7293TIP3    H221844   6.679   5.871   1.526 -0.5382 -0.6569  0.5528
 7294TIP3   OH221845   2.375   0.645   5.740  0.4337  0.3450  0.2170
 7294TIP3    H121846   2.303   0.606   5.790  1.9928 -0.2673  2.1115
 7294TIP3    H221847   2.349   0.634   5.648 -1.9334  0.3165  0.8165
 7295TIP3   OH221848   1.509   6.311   5.078  0.1821  0.2183 -0.1564
 7295TIP3    H121849   1.491   6.223   5.045  1.2175 -0.3585  0.7643
 7295TIP3    H221850   1.565   6.298   5.154  1.7913  1.7480 -0.9890
 7296TIP3   OH221851   4.990   5.458   4.768 -0.4323 -0.2165 -0.3768
 7296TIP3    H121852   4.993   5.383   4.828  1.9855 -0.4782 -0.7354
 7296TIP3    H221853   4.943   5.426   4.691 -2.3742 -0.2849  0.7748
 7297TIP3   OH221854   0.885   6.177   1.909  0.0983  0.0946 -0.6157
 7297TIP3    H121855   0.918   6.261   1.878 -0.3786  2.1580  3.6180
 7297TIP3    H221856   0.796   6.172   1.876 -1.1141  3.1462  1.6473
 7298TIP3   OH221857   1.666   6.374   3.259  0.5524  0.0308  0.1933
 7298TIP3    H121858   1.749   6.417   3.279  0.5449  0.6740 -1.0466
 7298TIP3    H221859   1.670   6.357   3.165 -1.1525  1.0944 -0.1180
 7299TIP3   OH221860   6.785   0.758   2.809  0.7932  0.2628  0.2985
 7299TIP3    H121861   6.721   0.766   2.879  1.3503 -0.1966  0.8653
 7299TIP3    H221862   6.799   0.664   2.800  1.6711  0.3756  0.4419
 7300TIP3   OH221863   3.635   1.226   5.767  0.2680 -0.1695 -0.0086
 7300TIP3    H121864   3.644   1.131   5.759  0.2081 -0.3083  1.3223
 7300TIP3    H221865   3.701   1.261   5.707  2.0123 -1.0965  1.2613
 7301TIP3   OH221866   2.723   0.423   2.214 -0.1211 -0.6317 -0.5857
 7301TIP3    H121867   2.630   0.402   2.203  0.1044 -2.4995  0.5548
 7301TIP3    H221868   2.768   0.368   2.150  0.2359 -0.3920 -0.5398
 7302TIP3   OH221869   3.778   5.159   5.821 -0.1098 -0.2911 -0.3186
 7302TIP3    H121870   3.684   5.161   5.838  0.1890 -1.8838  1.8628
 7302TIP3    H221871   3.818   5.196   5.899  1.1271 -0.8460 -0.6631
 7303TIP3   OH221872   2.296   6.724   2.130 -0.0589  0.6266 -0.7673
 7303TIP3    H121873   2.273   6.816   2.143 -3.0631 -0.0877 -0.4756
 7303TIP3    H221874   2.251   6.699   2.049  0.6606 -0.6230 -0.8132
 7304TIP3   OH221875   0.623   5.790   3.273  0.2789 -0.0537 -0.4920
 7304TIP3    H121876   0.624   5.735   3.195 -0.9901  0.5643 -0.9667
 7304TIP3    H221877   0.547   5.847   3.261  1.5362  1.7952 -0.0187
 7305TIP3   OH221878   2.975   1.254   5.054 -0.0732  0.6632 -0.5188
 7305TIP3    H121879   2.901   1.282   5.000  0.1549  0.1902 -1.0870
 7305TIP3    H221880   2.956   1.288   5.141 -0.5989  1.1728 -0.8291
 7306TIP3   OH221881   3.361   0.607   4.634 -0.5659 -0.3635  0.5255
 7306TIP3    H121882   3.315   0.628   4.553  0.3426 -2.2231 -0.5428
 7306TIP3    H221883   3.436   0.666   4.635 -0.8491  0.0087  0.2845
 7307TIP3   OH221884   0.092   1.549   1.964 -0.1613 -0.0132 -0.1335
 7307TIP3    H121885   0.003   1.584   1.968  0.5026  1.6746  0.8532
 7307TIP3    H221886   0.085   1.462   2.003 -1.1776  0.5658  1.0478
 7308TIP3   OH221887   5.222   5.050   1.741  0.1962 -0.2691 -0.0721
 7308TIP3    H121888   5.310   5.082   1.758  0.6518 -1.4621 -0.0378
 7308TIP3    H221889   5.171   5.075   1.818  0.8894 -0.8569  0.5976
 7309TIP3   OH221890   0.200   6.427   2.886  0.0155  0.3726 -0.3810
 7309TIP3    H121891   0.188   6.464   2.799  0.8609 -0.3128 -0.8051
 7309TIP3    H221892   0.147   6.347   2.886  3.4501 -2.1781 -1.9507
 7310TIP3   OH221893   3.547   3.625   4.985 -0.3920 -0.3047  0.1008
 7310TIP3    H121894   3.469   3.678   4.972 -0.5203 -0.0817  1.6755
 7310TIP3    H221895   3.563   3.586   4.899 -3.4141 -2.0085  0.1855
 7311TIP3   OH221896   1.834   3.840   0.108  0.2311  0.0267  0.3032
 7311TIP3    H121897   1.741   3.856   0.124  0.4706  2.2389 -0.2049
 7311TIP3    H221898   1.877   3.866   0.189  0.5835  1.2883 -0.2747
 7312TIP3   OH221899   4.029   5.095   3.030  0.3156 -0.2112  0.0874
 7312TIP3    H121900   3.960   5.161   3.031  0.4789 -0.0380 -0.0061
 7312TIP3    H221901   4.107   5.142   3.059  0.1871 -0.6446  1.1984
 7313TIP3   OH221902   0.881   3.392   3.601 -0.4115 -0.0936  0.0084
 7313TIP3    H121903   0.891   3.485   3.619 -0.4021  0.1321 -1.0807
 7313TIP3    H221904   0.791   3.371   3.625 -0.4347  0.2162  0.1850
 7314TIP3   OH221905   4.312   4.874   0.632 -0.3136  0.3157 -0.0448
 7314TIP3    H121906   4.346   4.941   0.693 -1.7071 -0.1482  1.3116
 7314TIP3    H221907   4.346   4.792   0.667 -2.0975 -0.0756  0.8723
 7315TIP3   OH221908   6.363   1.466   3.280  0.3530  0.0252  0.0567
 7315TIP3    H121909   6.287   1.453   3.223  0.7618  1.5007 -0.8960
 7315TIP3    H221910   6.335   1.533   3.343  0.3189 -0.6808  0.8065
 7316TIP3   OH221911   1.608   6.174   2.380 -0.0621 -0.1773 -0.1763
 7316TIP3    H121912   1.607   6.156   2.474 -0.9304 -1.1199 -0.3454
 7316TIP3    H221913   1.523   6.214   2.363 -1.1431 -2.6493 -1.0086
 7317TIP3   OH221914   2.161   4.404   4.461  0.1428  0.1018 -0.0459
 7317TIP3    H121915   2.117   4.330   4.502  0.4155  0.0714  0.1939
 7317TIP3    H221916   2.251   4.374   4.447  0.9155  1.1818  2.2191
 7318TIP3   OH221917   4.975   0.355   5.385 -0.2890 -0.7768 -0.4923
 7318TIP3    H121918   4.920   0.375   5.309 -0.2014  0.3184 -0.2830
 7318TIP3    H221919   5.063   0.344   5.350 -0.5098 -1.8860 -0.7430
 7319TIP3   OH221920   6.928   0.018   0.338 -0.2360 -0.1978  0.0429
 7319TIP3    H121921   6.898   0.103   0.368 -0.3403  0.1188 -0.9331
 7319TIP3    H221922   6.848  -0.032   0.322 -0.1968 -0.1939 -0.1740
 7320TIP3   OH221923   3.181   4.606   3.557 -0.0079  0.3427  0.4091
 7320TIP3    H121924   3.277   4.595   3.558 -0.1023 -0.6808  0.0585
 7320TIP3    H221925   3.160   4.647   3.640  0.7131  0.2613  0.6394
 7321TIP3   OH221926   4.031   4.108   0.752 -0.1172  0.7369  0.3906
 7321TIP3    H121927   4.051   4.197   0.781  1.3552  1.1266 -1.6262
 7321TIP3    H221928   4.061   4.053   0.825 -0.7250  1.8454  1.5222
 7322TIP3   OH221929   2.162   4.711   1.554 -0.1387  0.3213 -0.1017
 7322TIP3    H121930   2.239   4.699   1.610  0.1925  0.6562 -0.4750
 7322TIP3    H221931   2.181   4.790   1.504 -0.1642 -0.2987 -1.1145
 7323TIP3   OH221932   0.128   5.527   5.630 -0.5640  0.2427  0.1348
 7323TIP3    H121933   0.111   5.537   5.536 -2.0899 -1.8781  0.1102
 7323TIP3    H221934   0.061   5.581   5.672 -1.0628 -0.2465 -0.0135
 7324TIP3   OH221935   6.724   0.590   1.970 -0.6829  0.3328 -0.0163
 7324TIP3    H121936   6.781   0.629   2.036 -0.1920 -0.8571  0.2888
 7324TIP3    H221937   6.696   0.664   1.916  1.1546  0.9714 -0.1818
 7325TIP3   OH221938   2.884   3.725   1.859  0.7410  0.6489 -0.1045
 7325TIP3    H121939   2.790   3.732   1.874  0.5261  0.2063 -1.1552
 7325TIP3    H221940   2.912   3.815   1.840  0.7639  0.9744  1.3797
 7326TIP3   OH221941   6.026   0.957   2.719 -0.3686 -0.0413 -0.0373
 7326TIP3    H121942   6.046   0.928   2.630 -3.0495 -1.1917 -0.3782
 7326TIP3    H221943   6.066   0.890   2.775 -1.2781 -1.0925 -0.5790
 7327TIP3   OH221944   2.753   3.569   5.280  0.2283  0.1896  0.4573
 7327TIP3    H121945   2.775   3.564   5.187  1.1878 -0.1891  0.6929
 7327TIP3    H221946   2.668   3.613   5.282 -0.5061 -1.0805 -0.6827
 7328TIP3   OH221947   6.879   1.566   0.902  0.6467 -0.5605  0.3333
 7328TIP3    H121948   6.860   1.474   0.884 -0.9982  0.1559 -2.0815
 7328TIP3    H221949   6.807   1.595   0.959  0.6985 -0.5529  0.3952
 7329TIP3   OH221950   3.079   5.834   5.630  0.0746 -0.1541  0.1358
 7329TIP3    H121951   3.166   5.815   5.593 -0.6658 -1.1704 -1.1629
 7329TIP3    H221952   3.086   5.924   5.662  1.2080  0.2798 -1.2135
 7330TIP3   OH221953   4.006   3.803   3.413 -0.6053 -0.7140  0.4162
 7330TIP3    H121954   4.093   3.809   3.374 -0.9066 -0.1082 -0.1841
 7330TIP3    H221955   4.019   3.824   3.505 -0.1787 -0.1591  0.2342
 7331TIP3   OH221956   6.726   4.427   2.078 -0.4711 -0.1325  0.4729
 7331TIP3    H121957   6.821   4.422   2.087 -0.2828 -1.0140 -1.5379
 7331TIP3    H221958   6.693   4.361   2.140  0.3061 -0.9029  0.0904
 7332TIP3   OH221959   0.106   4.333   2.331  0.1081  0.3705 -0.2261
 7332TIP3    H121960   0.137   4.267   2.268 -1.0125  0.0566 -0.4633
 7332TIP3    H221961   0.021   4.301   2.359  0.2509  0.9128  0.8795
 7333TIP3   OH221962   3.955   0.039   5.110  0.2548  1.0146  0.5396
 7333TIP3    H121963   3.898  -0.037   5.117 -0.2280  1.4878  2.6683
 7333TIP3    H221964   4.026   0.021   5.172  1.4296  1.2637 -0.6957
 7334TIP3   OH221965   4.905   4.369   3.170 -0.6076  0.0724  0.6740
 7334TIP3    H121966   4.837   4.340   3.110  0.2854  1.0130 -0.8460
 7334TIP3    H221967   4.984   4.324   3.141  0.5739  3.0260 -1.0727
 7335TIP3   OH221968   5.724   0.778   3.674  0.4861 -0.3440  0.2855
 7335TIP3    H121969   5.716   0.806   3.583 -0.3368  1.2804  0.8256
 7335TIP3    H221970   5.731   0.682   3.669 -2.6661 -0.6172 -1.3591
 7336TIP3   OH221971   6.778   1.248   4.425 -0.0458 -0.3023 -0.4759
 7336TIP3    H121972   6.775   1.173   4.484 -0.9225  1.7685  2.3290
 7336TIP3    H221973   6.868   1.251   4.394  0.7501 -0.8791  1.6434
 7337TIP3   OH221974   2.620   6.606   4.538 -0.4007 -0.0906 -0.7601
 7337TIP3    H121975   2.690   6.569   4.591  1.1169  1.4748 -1.5713
 7337TIP3    H221976   2.568   6.658   4.599 -0.0372 -0.1462 -0.3973
 7338TIP3   OH221977   2.476   5.083   2.320  0.6306  0.3294 -0.1111
 7338TIP3    H121978   2.509   5.132   2.395  0.4526  0.1936  0.0561
 7338TIP3    H221979   2.555   5.052   2.275  0.7999  1.8669 -0.9644
 7339TIP3   OH221980   0.038   5.616   2.176  0.0682  0.0358 -0.0093
 7339TIP3    H121981  -0.036   5.674   2.194  1.7455  2.9340 -1.6551
 7339TIP3    H221982   0.114   5.663   2.212  1.6272 -0.7158 -2.0915
 7340TIP3   OH221983   2.491   6.732   1.094 -0.2034 -0.3230  0.6063
 7340TIP3    H121984   2.502   6.663   1.159  0.0440  0.2113  1.1380
 7340TIP3    H221985   2.500   6.814   1.143  0.5340  0.0878 -0.1791
 7341TIP3   OH221986   5.990   4.788   5.816  0.3068  0.6025  0.4339
 7341TIP3    H121987   6.069   4.747   5.851  0.5157 -0.3312 -1.0370
 7341TIP3    H221988   5.929   4.715   5.801  0.0831  0.9991 -0.7164
 7342TIP3   OH221989   1.436   2.468   4.068 -0.3743  0.4037  0.5036
 7342TIP3    H121990   1.496   2.394   4.060  1.0882  1.5910 -0.1415
 7342TIP3    H221991   1.351   2.433   4.043  0.3757 -0.9362 -0.3063
 7343TIP3   OH221992   3.859   4.971   5.468  0.7159  0.2810  0.3273
 7343TIP3    H121993   3.940   4.985   5.517 -0.0650 -0.5403  1.9483
 7343TIP3    H221994   3.844   4.876   5.473  0.1728  0.2892 -0.8200
 7344TIP3   OH221995   5.060   5.990   0.538 -0.3000  0.3154 -0.0110
 7344TIP3    H121996   5.004   6.010   0.613  0.4403  0.4912  0.5080
 7344TIP3    H221997   5.149   5.985   0.575  0.0486  0.1951 -0.8390
 7345TIP3   OH221998   6.180   5.623   4.446  0.3395  0.0187  0.1720
 7345TIP3    H121999   6.140   5.682   4.510 -1.1462 -0.4589 -0.2626
 7345TIP3    H222000   6.253   5.672   4.409  1.9730 -0.1100  3.0147
 7346TIP3   OH222001   2.060   5.064   0.659 -0.2678  0.2362  0.0102
 7346TIP3    H122002   2.119   5.064   0.583 -0.2801  0.5169 -0.0003
 7346TIP3    H222003   2.117   5.049   0.734  0.0021  1.7435  0.1348
 7347TIP3   OH222004   3.227   1.516   3.153  0.1266 -0.2179  0.1376
 7347TIP3    H122005   3.249   1.549   3.066  0.2675  0.4140  0.4055
 7347TIP3    H222006   3.193   1.428   3.137  1.3642 -0.6271 -0.4445
 7348TIP3   OH222007   0.736   0.708   1.112  0.0093 -0.0987 -0.6097
 7348TIP3    H122008   0.657   0.678   1.068 -1.0380  0.0849  1.0703
 7348TIP3    H222009   0.706   0.774   1.174  1.2651 -0.9612  1.0070
 7349TIP3   OH222010   3.186   2.451   3.390 -0.0921 -0.2490  0.0432
 7349TIP3    H122011   3.211   2.418   3.477  1.0272  2.8251  1.0330
 7349TIP3    H222012   3.120   2.518   3.408 -0.3158 -0.0174 -1.5470
 7350TIP3   OH222013   5.438   1.503   2.341  0.9492  1.3383  0.1324
 7350TIP3    H122014   5.448   1.508   2.246  1.7073 -2.5637 -0.1625
 7350TIP3    H222015   5.527   1.500   2.374  0.7165  0.1239  0.6947
 7351TIP3   OH222016   7.088   2.840   4.032  0.8502  0.3763 -0.8779
 7351TIP3    H122017   7.040   2.878   4.105  0.8665 -0.4853 -0.4076
 7351TIP3    H222018   7.108   2.915   3.974  0.3035  0.9638 -0.3143
 7352TIP3   OH222019   6.040   2.338   4.588 -0.4136  0.1354 -0.3852
 7352TIP3    H122020   6.010   2.306   4.673  0.2339  1.2443  0.2770
 7352TIP3    H222021   5.985   2.414   4.569  1.1798  1.5349  0.3449
 7353TIP3   OH222022   6.573   2.775   0.824 -0.4235  0.0326  0.0279
 7353TIP3    H122023   6.589   2.701   0.882  2.2477 -0.5767 -1.3111
 7353TIP3    H222024   6.535   2.736   0.746 -0.0973  0.2191 -0.2279
 7354TIP3   OH222025   2.971   2.069   2.610  0.5275  0.2555  0.4786
 7354TIP3    H122026   3.027   2.123   2.666 -0.7953  2.1937  0.0168
 7354TIP3    H222027   2.886   2.069   2.652 -0.6370  2.1529 -1.6343
 7355TIP3   OH222028   1.355   6.564   1.308 -0.3150 -0.1384 -0.1586
 7355TIP3    H122029   1.408   6.582   1.231 -0.9179  1.0576 -0.3064
 7355TIP3    H222030   1.308   6.483   1.287  0.1354 -0.2617 -0.7048
 7356TIP3   OH222031   6.049   6.336   4.618 -0.0533 -0.3002  0.4647
 7356TIP3    H122032   6.120   6.321   4.555 -0.9149 -0.1403 -0.5756
 7356TIP3    H222033   6.075   6.416   4.663  1.5493 -1.4682  1.7429
 7357TIP3   OH222034   2.270   6.200   1.294  0.6315  0.8827 -0.0738
 7357TIP3    H122035   2.197   6.166   1.346 -0.1960  1.4558 -0.8275
 7357TIP3    H222036   2.346   6.193   1.352  0.6411 -2.6155 -0.2787
 7358TIP3   OH222037   1.509   6.525   2.684 -0.5755  0.0598 -0.3485
 7358TIP3    H122038   1.541   6.575   2.609 -0.0614 -0.3829 -0.4301
 7358TIP3    H222039   1.574   6.539   2.753 -0.2087 -0.8185 -0.5044
 7359TIP3   OH222040   4.801   0.813   0.176 -0.2230 -0.3901  0.3206
 7359TIP3    H122041   4.801   0.908   0.189 -2.0106 -0.4143  0.8815
 7359TIP3    H222042   4.792   0.777   0.264  0.9864 -1.1114  0.1627
 7360TIP3   OH222043   0.926   2.365   4.411  0.9621  0.2735 -0.3880
 7360TIP3    H122044   0.997   2.325   4.463  2.0051  3.5423  0.9776
 7360TIP3    H222045   0.969   2.436   4.364 -1.0480  0.8965 -1.3624
 7361TIP3   OH222046   6.990   2.467   3.579 -0.8913  0.4775 -0.2048
 7361TIP3    H122047   7.060   2.522   3.613 -1.9976  1.8157  0.0293
 7361TIP3    H222048   6.964   2.508   3.496 -0.7551 -0.5682 -0.7910
 7362TIP3   OH222049   6.410   0.886   5.538  0.4669  0.0551 -0.2523
 7362TIP3    H122050   6.327   0.841   5.522 -0.0418  0.5122  1.0187
 7362TIP3    H222051   6.415   0.952   5.469 -1.2071  1.3485  0.7853
 7363TIP3   OH222052   3.116   2.919   3.167 -0.0343  0.3707 -0.2190
 7363TIP3    H122053   3.111   2.893   3.075  1.9713  1.2998 -0.6600
 7363TIP3    H222054   3.206   2.953   3.177 -0.8114  2.0950  1.5943
 7364TIP3   OH222055   5.479   1.556   2.053 -0.0324  0.3272 -0.1376
 7364TIP3    H122056   5.458   1.619   1.984  1.0647  0.5804 -0.2542
 7364TIP3    H222057   5.564   1.520   2.028 -1.7181 -3.1916 -1.5249
 7365TIP3   OH222058   3.569   0.105   3.264  0.2299  0.6205  0.4221
 7365TIP3    H122059   3.486   0.057   3.270 -0.6108  1.5377 -2.1540
 7365TIP3    H222060   3.592   0.126   3.354 -3.4720  2.1327  1.1790
 7366TIP3   OH222061   2.145   1.695   0.847 -0.0372 -0.0887 -0.0071
 7366TIP3    H122062   2.214   1.710   0.912 -0.1401  0.3975 -0.0086
 7366TIP3    H222063   2.161   1.606   0.816  0.1642 -0.2372  0.5038
 7367TIP3   OH222064   3.024   2.342   5.837 -0.2736  0.4107 -0.3768
 7367TIP3    H122065   3.074   2.372   5.913 -1.3775  1.8480 -0.1798
 7367TIP3    H222066   2.935   2.327   5.871  0.0384 -2.6252 -0.5965
 7368TIP3   OH222067   6.240   5.703   1.833 -0.0109  0.4057  0.1806
 7368TIP3    H122068   6.203   5.699   1.744 -0.1097 -0.1833  0.2470
 7368TIP3    H222069   6.273   5.793   1.840  0.9323  0.1710 -0.8275
 7369TIP3   OH222070   4.960   6.247   3.879 -0.0489 -0.2936  0.5577
 7369TIP3    H122071   5.027   6.301   3.920  0.2620 -0.8035  0.7227
 7369TIP3    H222072   4.918   6.306   3.816  0.7447 -0.0593  0.2415
 7370TIP3   OH222073   2.386   6.160   5.235  0.1518 -0.3956  0.0019
 7370TIP3    H122074   2.337   6.133   5.156 -1.3702 -0.4228  0.9099
 7370TIP3    H222075   2.406   6.252   5.220 -0.7377 -0.2141 -0.1290
 7371TIP3   OH222076   5.869   0.600   3.282  0.2934  0.7096  0.4759
 7371TIP3    H122077   5.949   0.648   3.262  0.2409  0.5512 -0.1023
 7371TIP3    H222078   5.855   0.542   3.207 -0.4064  0.7991  0.5309
 7372TIP3   OH222079   5.768   6.455   0.588  0.0857 -0.2834  0.2659
 7372TIP3    H122080   5.676   6.437   0.567 -0.5539  1.3051  1.4564
 7372TIP3    H222081   5.794   6.522   0.524  0.1872 -0.2385  0.3536
 7373TIP3   OH222082   3.793   0.630   2.750 -0.3635 -0.5484 -0.3426
 7373TIP3    H122083   3.700   0.623   2.773 -0.3283 -1.5614 -0.4587
 7373TIP3    H222084   3.812   0.724   2.756 -1.5493 -0.2469 -0.9296
 7374TIP3   OH222085   4.480   4.680   0.890 -0.1420  0.3320 -0.3419
 7374TIP3    H122086   4.540   4.651   0.958 -0.3969 -1.2901 -0.7686
 7374TIP3    H222087   4.409   4.725   0.937  0.2561  0.2474  0.3447
 7375TIP3   OH222088   2.866   3.185   3.463 -0.3338 -0.1451  0.0723
 7375TIP3    H122089   2.898   3.147   3.545 -1.8705  0.2040  0.8794
 7375TIP3    H222090   2.852   3.111   3.405  0.5212 -0.4205  0.2041
 7376TIP3   OH222091   1.767   0.288   1.140 -0.3143 -0.1542 -0.5292
 7376TIP3    H122092   1.689   0.344   1.137 -0.8010 -0.6121  1.5438
 7376TIP3    H222093   1.747   0.223   1.207  2.8432  1.3646  2.2283
 7377TIP3   OH222094   1.976   0.066   1.080 -0.4239  0.0289 -0.3145
 7377TIP3    H122095   1.959   0.159   1.071 -1.0486 -0.1373 -0.8979
 7377TIP3    H222096   2.004   0.055   1.171  0.1902  0.8560 -0.3943
 7378TIP3   OH222097   4.072   5.413   2.845  0.3160  0.5043 -0.9456
 7378TIP3    H122098   4.148   5.415   2.904  1.5710  0.0321 -2.4815
 7378TIP3    H222099   4.002   5.376   2.898  1.4493 -0.0750  0.2062
 7379TIP3   OH222100   1.322   4.421   1.885  0.0335 -0.3049  0.2623
 7379TIP3    H122101   1.320   4.350   1.950 -1.7321 -0.5708 -0.0289
 7379TIP3    H222102   1.241   4.410   1.836 -0.6629  2.3461  0.6683
 7380TIP3   OH222103   1.895   0.321   4.086 -0.1037 -0.5959  0.6327
 7380TIP3    H122104   1.885   0.287   4.176  0.1384  1.4738  1.4955
 7380TIP3    H222105   1.929   0.410   4.098 -0.9298  0.0546 -1.4963
 7381TIP3   OH222106   5.367   3.718   1.614 -0.0941  1.0623  0.8641
 7381TIP3    H122107   5.341   3.711   1.522  0.7374  2.1419  0.5247
 7381TIP3    H222108   5.324   3.644   1.657  0.2975 -0.0469 -0.5727
 7382TIP3   OH222109   0.749   6.616   1.948  0.1119 -0.4999  0.7380
 7382TIP3    H122110   0.788   6.678   2.010  1.9264 -1.8429  1.0278
 7382TIP3    H222111   0.824   6.567   1.913 -0.7051  0.7542 -3.2509
 7383TIP3   OH222112   6.635   3.432   0.072  0.1041 -0.2583 -0.1823
 7383TIP3    H122113   6.647   3.358   0.013  0.4067  0.4838 -1.0757
 7383TIP3    H222114   6.581   3.493   0.022 -0.2011  0.0950  0.5727
 7384TIP3   OH222115   0.120   6.561   4.098 -0.3589  0.1502  0.2433
 7384TIP3    H122116   0.073   6.579   4.017  1.0203 -0.6264 -0.7495
 7384TIP3    H222117   0.051   6.531   4.159 -1.0737 -1.8139 -1.4237
 7385TIP3   OH222118   1.076   4.642   4.473  0.1504  0.5416 -0.0648
 7385TIP3    H122119   1.047   4.589   4.399 -0.6442 -0.3359  0.8404
 7385TIP3    H222120   1.122   4.580   4.530 -1.6315  0.5433  1.4796
 7386TIP3   OH222121   7.189   2.981   2.043  0.1694 -0.7721  0.2585
 7386TIP3    H122122   7.168   3.061   1.995  0.2273 -0.3580  0.9132
 7386TIP3    H222123   7.129   2.982   2.118  0.0246 -1.4539  0.1593
 7387TIP3   OH222124   6.021   4.086   4.360 -0.4071 -0.3970 -0.1407
 7387TIP3    H122125   5.999   4.090   4.267  0.5184  0.3598 -0.3457
 7387TIP3    H222126   5.940   4.058   4.403 -0.8195 -0.8422 -1.1772
 7388TIP3   OH222127   1.504   3.460   2.551 -0.5786  0.1675 -0.1155
 7388TIP3    H122128   1.558   3.515   2.494 -2.4215  2.7516  0.4409
 7388TIP3    H222129   1.567   3.405   2.597  1.3539  1.2664 -1.2979
 7389TIP3   OH222130   0.216   1.275   0.606 -0.2839  0.0630  0.4072
 7389TIP3    H122131   0.128   1.245   0.583 -0.4552 -0.2943  1.5042
 7389TIP3    H222132   0.264   1.195   0.625  0.0646  0.3132  0.5816
 7390TIP3   OH222133   6.858   0.027   1.456  0.4047  0.6898 -0.3360
 7390TIP3    H122134   6.771   0.066   1.453  0.5839  1.3336  1.5752
 7390TIP3    H222135   6.909   0.086   1.511  0.6961 -2.0656  2.6736
 7391TIP3   OH222136   2.190   6.089   4.575 -0.2289  0.3187  0.0744
 7391TIP3    H122137   2.229   6.002   4.586  0.8457  0.7465 -0.2105
 7391TIP3    H222138   2.263   6.144   4.546 -0.9333  1.2807  0.0934
 7392TIP3   OH222139   1.724   0.702   4.897 -0.1289 -0.0094 -0.1203
 7392TIP3    H122140   1.798   0.742   4.943  0.3510  0.5204 -1.3165
 7392TIP3    H222141   1.677   0.776   4.859 -1.3228 -0.3376  0.6596
 7393TIP3   OH222142   6.741   4.668   2.988  0.6569 -0.2778 -0.4371
 7393TIP3    H122143   6.685   4.724   2.935  0.4456 -0.4258 -0.3690
 7393TIP3    H222144   6.681   4.616   3.041  0.8279 -1.0681 -1.0002
 7394TIP3   OH222145   3.444   4.271   2.684 -0.5087 -0.5811  0.3118
 7394TIP3    H122146   3.499   4.327   2.630 -1.8388  0.5166  0.0444
 7394TIP3    H222147   3.396   4.217   2.621  0.7394 -2.0396  0.5654
 7395TIP3   OH222148   4.994   0.890   1.827  0.1075  0.6431  0.3519
 7395TIP3    H122149   4.946   0.877   1.745 -1.3773 -0.4752  1.3311
 7395TIP3    H222150   4.941   0.844   1.892  2.4302 -0.4964  1.5621
 7396TIP3   OH222151   1.932   0.981   0.784 -0.0942  0.0416  0.6871
 7396TIP3    H122152   1.899   0.892   0.796  1.5443 -0.9913 -1.7251
 7396TIP3    H222153   1.942   1.015   0.873  0.0480 -2.4984  1.7233
 7397TIP3   OH222154   4.626   4.807   1.739 -0.5564  0.3363 -0.1593
 7397TIP3    H122155   4.722   4.800   1.745 -0.1829  1.1630 -3.4792
 7397TIP3    H222156   4.611   4.894   1.703 -2.6818  0.6570  1.3559
 7398TIP3   OH222157   0.544   4.165   1.303  0.7059  0.0897 -0.4027
 7398TIP3    H122158   0.618   4.162   1.363 -1.0109  1.7742  1.9638
 7398TIP3    H222159   0.524   4.258   1.293 -0.0124 -0.2222 -2.4314
 7399TIP3   OH222160   2.280   1.943   0.501 -0.5332  0.4419  0.4568
 7399TIP3    H122161   2.351   1.985   0.550  1.0625 -0.3345 -1.0546
 7399TIP3    H222162   2.284   1.851   0.525 -0.1911  0.1775 -0.5705
 7400TIP3   OH222163   3.891   2.242   3.842  0.5922 -0.1028 -0.4512
 7400TIP3    H122164   3.808   2.236   3.797 -0.3953  0.3558  1.1995
 7400TIP3    H222165   3.873   2.210   3.931  1.6136  1.9404  0.5704
 7401TIP3   OH222166   1.461   0.624   3.081 -0.2517 -0.4074 -0.4226
 7401TIP3    H122167   1.459   0.535   3.048  1.1659 -1.1917  1.3897
 7401TIP3    H222168   1.369   0.649   3.088 -0.6949 -1.8632 -0.6437
 7402TIP3   OH222169   5.480   5.608   3.460 -0.5789  0.3757  0.3739
 7402TIP3    H122170   5.454   5.598   3.552 -1.7670  3.3963  0.4637
 7402TIP3    H222171   5.399   5.629   3.414  0.3145  0.9959 -0.9854
 7403TIP3   OH222172   3.561   2.669   2.288  0.2009  0.6208  0.0804
 7403TIP3    H122173   3.612   2.748   2.269 -1.4919  2.0518  1.1267
 7403TIP3    H222174   3.581   2.649   2.379  0.5291 -0.0934 -0.1470
 7404TIP3   OH222175   2.070   3.931   3.861 -0.0930  0.2213 -0.1926
 7404TIP3    H122176   2.157   3.950   3.897  0.6553 -0.6182 -1.4440
 7404TIP3    H222177   2.059   3.837   3.873 -1.0680  0.4007  0.4106
 7405TIP3   OH222178   3.743   0.766   5.547 -0.1632  0.0291 -0.1924
 7405TIP3    H122179   3.833   0.796   5.536  0.0256 -1.0583 -2.0050
 7405TIP3    H222180   3.712   0.748   5.458 -2.4794  1.1619  0.2852
 7406TIP3   OH222181   7.175   5.205   1.412  0.4310 -0.2364  0.3569
 7406TIP3    H122182   7.122   5.178   1.487 -1.5291 -0.3871 -1.0175
 7406TIP3    H222183   7.175   5.130   1.353  1.4478  0.0819 -0.0873
 7407TIP3   OH222184   5.653   1.044   1.652 -0.3382  0.1617 -0.0234
 7407TIP3    H122185   5.668   1.010   1.740  0.5074  0.4065 -0.0630
 7407TIP3    H222186   5.600   1.122   1.666  1.1468  1.1286  0.4324
 7408TIP3   OH222187   1.324   0.462   1.856 -0.3463 -0.0384  0.2693
 7408TIP3    H122188   1.254   0.526   1.844 -0.3852 -0.1209  0.0296
 7408TIP3    H222189   1.401   0.514   1.878 -0.4833  0.0531  0.5385
 7409TIP3   OH222190   7.096   6.563   2.956 -0.4350 -0.2122 -0.5731
 7409TIP3    H122191   7.040   6.534   3.028  1.7225  0.6134  1.5835
 7409TIP3    H222192   7.036   6.602   2.893 -2.5347 -1.9587  0.2129
 7410TIP3   OH222193   0.114   0.899   4.492 -0.5891  0.4587 -0.1905
 7410TIP3    H122194   0.169   0.834   4.448 -3.1873 -0.8131 -1.8621
 7410TIP3    H222195   0.066   0.848   4.558 -1.5545  0.9583 -0.4863
 7411TIP3   OH222196   5.355   1.966   2.111  0.2864  0.1870  0.0238
 7411TIP3    H122197   5.286   1.913   2.073 -0.4008  0.6576  0.5993
 7411TIP3    H222198   5.347   1.952   2.205  0.6866  0.5966  0.1212
 7412TIP3   OH222199   1.620   3.305   3.102 -0.1271 -1.0343 -0.5583
 7412TIP3    H122200   1.591   3.250   3.029  2.1875 -2.8991 -0.1793
 7412TIP3    H222201   1.658   3.382   3.059 -0.9067 -0.9810 -1.1965
 7413TIP3   OH222202   5.893   1.877   3.771  0.0065 -0.1777  0.0996
 7413TIP3    H122203   5.808   1.845   3.799  1.6583 -1.5818  4.3780
 7413TIP3    H222204   5.900   1.965   3.808  0.7859 -0.5495  0.9025
 7414TIP3   OH222205   4.874   0.672   3.696 -0.4971 -0.7324  0.4069
 7414TIP3    H122206   4.906   0.614   3.765  0.8814  0.7260  1.0679
 7414TIP3    H222207   4.919   0.642   3.617 -1.3141 -1.7835  0.3270
 7415TIP3   OH222208   5.631   3.579   5.636  0.1650 -0.5119  0.4414
 7415TIP3    H122209   5.549   3.556   5.592 -0.9804 -0.4777  2.4591
 7415TIP3    H222210   5.623   3.541   5.723  2.1210 -0.1133  0.8337
 7416TIP3   OH222211   3.899   6.399   3.214 -0.5455  0.0272 -0.4081
 7416TIP3    H122212   3.975   6.386   3.271  0.2890  1.0860 -1.2463
 7416TIP3    H222213   3.920   6.353   3.134 -0.9888 -0.0459 -0.4875
 7417TIP3   OH222214   5.672   1.794   4.935 -0.4258 -0.6115  0.3506
 7417TIP3    H122215   5.763   1.821   4.922 -0.5528 -0.5593 -0.4521
 7417TIP3    H222216   5.679   1.706   4.973 -0.0144  0.3489  2.7082
 7418TIP3   OH222217   4.065   0.736   4.158 -0.2949 -0.0721  0.1038
 7418TIP3    H122218   4.096   0.760   4.246  0.0507  0.3187 -0.1197
 7418TIP3    H222219   4.040   0.820   4.118 -1.5479 -0.3597  0.2325
 7419TIP3   OH222220   3.396   0.263   1.983  0.0965 -0.1751 -0.0646
 7419TIP3    H122221   3.352   0.315   2.050 -2.3035 -1.5180 -0.4710
 7419TIP3    H222222   3.361   0.295   1.900  1.1746 -0.1772 -0.5368
 7420TIP3   OH222223   3.199   0.594   2.317  0.0777  0.2892 -0.1036
 7420TIP3    H122224   3.108   0.621   2.327 -0.1391  0.4211 -1.9430
 7420TIP3    H222225   3.247   0.676   2.305  0.3547  0.1864  0.2819
 7421TIP3   OH222226   3.045   4.818   5.277 -0.4968  0.3706  0.1595
 7421TIP3    H122227   2.953   4.799   5.261 -0.4421  0.9321 -0.9710
 7421TIP3    H222228   3.049   4.913   5.284  0.2347  0.5575 -1.8835
 7422TIP3   OH222229   4.941   0.888   5.027  0.1038  0.0268  0.3633
 7422TIP3    H122230   4.874   0.929   4.971 -0.9694 -1.4626  0.4884
 7422TIP3    H222231   5.013   0.869   4.968 -0.0841  0.5327 -0.0419
 7423TIP3   OH222232   6.636   2.418   2.713 -0.1211  0.1066 -0.7177
 7423TIP3    H122233   6.648   2.400   2.620 -0.7089  2.4478 -1.3085
 7423TIP3    H222234   6.703   2.482   2.735 -0.1891 -0.1738  0.4218
 7424TIP3   OH222235   4.254   3.007   3.576 -0.0747 -0.3167  0.5749
 7424TIP3    H122236   4.228   3.013   3.668 -2.6110 -0.6975 -0.0360
 7424TIP3    H222237   4.326   2.944   3.575  3.1468  2.9078  2.7704
 7425TIP3   OH222238   3.471   5.311   0.175  0.5216  0.1256  0.0744
 7425TIP3    H122239   3.565   5.297   0.182  0.8333  1.6703 -0.6293
 7425TIP3    H222240   3.450   5.289   0.084  0.2570  0.0531  0.1529
 7426TIP3   OH222241   6.861   3.754   3.054  0.3994 -0.2628 -0.2540
 7426TIP3    H122242   6.899   3.680   3.100 -0.6409 -0.4970  0.2563
 7426TIP3    H222243   6.864   3.730   2.961  2.1184  0.0328 -0.3057
 7427TIP3   OH222244   1.825   5.828   0.530 -0.2138 -0.5214  0.4102
 7427TIP3    H122245   1.757   5.895   0.537  2.0839  1.9139  1.1870
 7427TIP3    H222246   1.806   5.782   0.448 -1.7471  1.2754 -0.3102
 7428TIP3   OH222247   5.041   3.635   2.425 -0.2359 -0.1942  0.1929
 7428TIP3    H122248   5.132   3.631   2.394 -0.2867 -1.9589  0.1952
 7428TIP3    H222249   5.019   3.728   2.420  1.1913  0.1313 -0.9080
 7429TIP3   OH222250   2.064   2.423   5.296 -0.4493 -0.4908 -0.0494
 7429TIP3    H122251   1.995   2.443   5.233 -1.0018 -0.4684  0.5477
 7429TIP3    H222252   2.125   2.497   5.289  1.0487 -1.8218 -2.5867
 7430TIP3   OH222253   5.916   4.027   5.266  0.1891  0.1089  0.4625
 7430TIP3    H122254   5.879   4.043   5.353 -1.4180  1.0582 -0.3463
 7430TIP3    H222255   5.843   3.992   5.215  0.3184  2.0605 -1.2075
 7431TIP3   OH222256   1.470   0.245   1.326  0.1678  0.2699 -0.0363
 7431TIP3    H122257   1.449   0.299   1.250  0.3832 -0.4547 -0.6291
 7431TIP3    H222258   1.404   0.176   1.325  0.5248 -0.0805  0.0806
 7432TIP3   OH222259   0.261   0.293   3.198  0.7580 -0.1309  0.0748
 7432TIP3    H122260   0.311   0.213   3.184  2.6490  0.9733  0.2379
 7432TIP3    H222261   0.293   0.327   3.281 -1.8244 -0.4389  1.2974
 7433TIP3   OH222262   5.204   4.372   1.825 -0.5039 -0.1091 -0.2776
 7433TIP3    H122263   5.137   4.329   1.773 -0.7487  0.9067 -0.8322
 7433TIP3    H222264   5.255   4.301   1.864 -1.8373 -0.8900  0.0765
 7434TIP3   OH222265   6.580   2.382   5.780  0.0218 -0.1526  0.2984
 7434TIP3    H122266   6.592   2.344   5.693  0.5811 -1.3003  0.8453
 7434TIP3    H222267   6.637   2.458   5.782  0.5707 -0.5512 -0.0896
 7435TIP3   OH222268   2.181   4.607   0.457 -0.2208  0.3216  0.3838
 7435TIP3    H122269   2.272   4.584   0.438 -0.6306 -1.6348  0.6310
 7435TIP3    H222270   2.129   4.539   0.415 -1.5173  0.6620  1.3582
 7436TIP3   OH222271   0.534   5.185   3.771 -0.0163 -0.2640 -0.1432
 7436TIP3    H122272   0.484   5.110   3.805  2.2220 -1.5398  0.5559
 7436TIP3    H222273   0.609   5.193   3.830 -0.9568  3.6417  0.8227
 7437TIP3   OH222274   1.113   4.269   4.098  0.1275 -0.4070  0.0697
 7437TIP3    H122275   1.044   4.274   4.032  1.5217  0.5463 -1.3885
 7437TIP3    H222276   1.140   4.177   4.098 -0.8328 -0.6981  0.3498
 7438TIP3   OH222277   2.592   5.090   5.417  0.0050  0.5197 -0.0595
 7438TIP3    H122278   2.675   5.043   5.412 -0.2577 -0.2677  2.1282
 7438TIP3    H222279   2.539   5.052   5.348  1.2827  0.7079 -1.1884
 7439TIP3   OH222280   5.726   5.115   2.365  0.1936 -0.0515 -0.5135
 7439TIP3    H122281   5.805   5.153   2.326 -0.9566  1.5432 -1.4419
 7439TIP3    H222282   5.692   5.184   2.421  0.7704 -1.6344  1.9490
 7440TIP3   OH222283   3.650   1.542   4.205 -0.3713 -0.1148 -0.0027
 7440TIP3    H122284   3.614   1.576   4.124 -2.6808 -0.2187  0.9057
 7440TIP3    H222285   3.735   1.506   4.181 -0.0277  1.8094 -1.9219
 7441TIP3   OH222286   1.810   0.346   0.153  0.0100 -0.0264  0.4206
 7441TIP3    H122287   1.859   0.386   0.082 -1.0160  0.8121  0.1502
 7441TIP3    H222288   1.722   0.334   0.118  0.3049 -2.7418  0.4496
 7442TIP3   OH222289   5.833   5.782   0.032  0.5338  0.8177 -0.1554
 7442TIP3    H122290   5.920   5.753   0.061  0.5249 -0.5925 -1.4153
 7442TIP3    H222291   5.795   5.705  -0.011 -0.8524  1.7794 -0.7279
 7443TIP3   OH222292   4.786   3.574   3.576  0.0503 -0.3763 -0.0937
 7443TIP3    H122293   4.843   3.646   3.606  0.3890 -0.2379 -1.0402
 7443TIP3    H222294   4.707   3.584   3.628  0.4298  0.1638  0.3989
 7444TIP3   OH222295   6.411   1.667   1.888  0.4163 -0.1795  0.0296
 7444TIP3    H122296   6.399   1.709   1.803  1.6084 -0.7291 -0.4417
 7444TIP3    H222297   6.348   1.595   1.888  0.5949 -0.3489 -0.5296
 7445TIP3   OH222298   5.485   6.221   3.985  0.2077  0.1559 -0.5429
 7445TIP3    H122299   5.529   6.228   4.069 -0.4929 -0.7492 -0.0911
 7445TIP3    H222300   5.440   6.137   3.988 -1.6357  1.0748 -0.9349
 7446TIP3   OH222301   2.994   3.482   1.651 -0.1994 -0.6796  0.1127
 7446TIP3    H122302   2.915   3.500   1.703  0.0600 -0.7012  0.5164
 7446TIP3    H222303   3.066   3.517   1.703  0.5021 -3.8300  1.5440
 7447TIP3   OH222304   4.599   2.851   1.151 -0.1335  0.2322 -0.2703
 7447TIP3    H122305   4.636   2.858   1.239 -0.9130  0.8163  0.0216
 7447TIP3    H222306   4.631   2.928   1.105 -2.5798  1.8953  0.6171
 7448TIP3   OH222307   4.365   5.510   1.804 -0.0759 -0.0453 -0.3654
 7448TIP3    H122308   4.340   5.433   1.854  1.3848 -0.0703  0.3763
 7448TIP3    H222309   4.428   5.477   1.740  0.0962  0.4395 -0.4469
 7449TIP3   OH222310   2.762   5.744   3.229 -0.3425  0.1167  0.3457
 7449TIP3    H122311   2.682   5.726   3.179  1.4370 -2.7228 -1.7216
 7449TIP3    H222312   2.738   5.721   3.319 -2.5912  2.0293  0.3551
 7450TIP3   OH222313   6.524   2.831   3.387  0.5377  0.7033  0.2006
 7450TIP3    H122314   6.531   2.926   3.378 -0.7444  0.7737 -0.3339
 7450TIP3    H222315   6.430   2.815   3.393  0.7819 -0.4631  1.2255
 7451TIP3   OH222316   1.771   4.532   4.424 -0.1909 -0.3616 -0.7518
 7451TIP3    H122317   1.818   4.498   4.348  2.8426  0.1504  0.7226
 7451TIP3    H222318   1.739   4.455   4.469 -0.1028 -0.7984 -1.4273
 7452TIP3   OH222319   0.988   0.946   0.499  0.2570 -0.3734 -0.0066
 7452TIP3    H122320   1.040   1.017   0.535 -0.6492  0.6151 -0.5767
 7452TIP3    H222321   1.001   0.952   0.404 -2.3334  1.1557 -0.3601
 7453TIP3   OH222322   2.545   1.308   5.092  0.2935 -0.7591  0.5378
 7453TIP3    H122323   2.470   1.274   5.044  0.0429 -1.4854  1.4311
 7453TIP3    H222324   2.615   1.312   5.026  0.0653 -2.0960  0.1806
 7454TIP3   OH222325   6.004   5.286   3.699 -0.3731  0.0519  0.4085
 7454TIP3    H122326   6.075   5.250   3.751  0.3902 -0.2966 -0.8295
 7454TIP3    H222327   5.951   5.336   3.761 -0.5834 -1.8902  1.8803
 7455TIP3   OH222328   5.937   3.687   1.182 -0.3366  0.0520  0.6512
 7455TIP3    H122329   5.853   3.644   1.170 -0.0333 -0.4306  0.2212
 7455TIP3    H222330   5.944   3.748   1.109  0.9724 -2.0203 -1.0952
 7456TIP3   OH222331   6.131   6.567   0.648 -0.1199 -0.6608  0.7039
 7456TIP3    H122332   6.053   6.609   0.684  0.6880  1.2884  0.3158
 7456TIP3    H222333   6.170   6.520   0.722 -1.1355 -0.8427  1.1318
 7457TIP3   OH222334   2.940   5.490   3.490  0.1289 -0.3032 -0.3576
 7457TIP3    H122335   3.005   5.559   3.482 -0.0333 -0.1602 -0.4395
 7457TIP3    H222336   2.991   5.409   3.487  0.2470 -0.2112 -1.0485
 7458TIP3   OH222337   1.611   2.132   1.823 -0.7861  0.2173  0.2246
 7458TIP3    H122338   1.523   2.096   1.817 -1.6716  2.2928  0.1565
 7458TIP3    H222339   1.612   2.181   1.905  0.4642 -0.1540  0.4486
 7459TIP3   OH222340   4.441   4.810   0.377 -0.1392  0.1927 -0.0209
 7459TIP3    H122341   4.397   4.843   0.455 -0.1721 -0.4125  0.2243
 7459TIP3    H222342   4.433   4.715   0.384 -0.4797  0.1404 -0.9528
 7460TIP3   OH222343   4.034   4.098   3.511  0.1481 -0.1010 -0.2619
 7460TIP3    H122344   4.124   4.129   3.504  0.7389 -1.3714  1.1941
 7460TIP3    H222345   4.036   4.031   3.579 -1.7940 -0.5863 -0.5992
 7461TIP3   OH222346   2.691   4.519   4.685  0.6147  0.1219 -0.5952
 7461TIP3    H122347   2.711   4.596   4.738  0.6670  0.3736 -0.9758
 7461TIP3    H222348   2.748   4.450   4.721  0.7431  0.3221 -0.4107
 7462TIP3   OH222349   1.340   0.102   3.399 -0.3353 -0.1861  0.4857
 7462TIP3    H122350   1.297   0.056   3.472 -2.0587  3.2646  1.8970
 7462TIP3    H222351   1.415   0.146   3.440  0.0114 -0.0077 -0.3273
 7463TIP3   OH222352   5.131   3.058   5.190 -0.2328 -0.0609  0.0066
 7463TIP3    H122353   5.191   3.061   5.264  0.1079 -2.1742 -0.1315
 7463TIP3    H222354   5.053   3.104   5.221 -0.2540 -1.2508  1.8693
 7464TIP3   OH222355   0.018   0.979   5.478 -0.2775 -0.3998  0.1360
 7464TIP3    H122356  -0.071   0.954   5.505 -0.7648  0.7532 -0.3119
 7464TIP3    H222357   0.076   0.924   5.530 -1.2571 -1.0204  0.5970
 7465TIP3   OH222358   4.056   0.597   1.540  0.4670 -0.2334  0.1876
 7465TIP3    H122359   4.053   0.550   1.457  0.5698 -0.3197  0.2333
 7465TIP3    H222360   4.145   0.631   1.546  1.7455 -3.4557  2.0468
 7466TIP3   OH222361   0.747   5.205   0.758 -0.0186 -0.3329  0.4176
 7466TIP3    H122362   0.827   5.233   0.715  1.0713 -0.3301  2.3397
 7466TIP3    H222363   0.732   5.116   0.727 -0.4399  0.3568 -1.5003
 7467TIP3   OH222364   7.013   3.469   0.003  0.4399 -0.4403  0.4331
 7467TIP3    H122365   7.074   3.525  -0.045  1.4588 -0.8972  1.1422
 7467TIP3    H222366   6.976   3.526   0.070  1.2856 -0.5275  0.9925
 7468TIP3   OH222367   0.768   1.703   1.838  0.2426 -0.6397 -0.4499
 7468TIP3    H122368   0.783   1.794   1.862  0.8828 -0.9795  0.4872
 7468TIP3    H222369   0.747   1.706   1.744  3.0697  0.2259 -1.1557
 7469TIP3   OH222370   3.156   0.665   5.576  0.3423  0.1875 -0.0517
 7469TIP3    H122371   3.130   0.721   5.649 -0.4528 -0.5874  0.2704
 7469TIP3    H222372   3.249   0.683   5.564  0.7602 -0.5445  1.9225
 7470TIP3   OH222373   1.963   4.729   3.978  0.6998 -0.7085  0.2261
 7470TIP3    H122374   1.875   4.707   3.948  1.0977 -0.1960 -1.3986
 7470TIP3    H222375   2.016   4.652   3.958  0.9960 -0.3129 -0.5716
 7471TIP3   OH222376   1.243   5.107   4.979 -0.7292 -0.6296  0.1686
 7471TIP3    H122377   1.204   5.123   5.065 -0.8926 -1.5649  0.2749
 7471TIP3    H222378   1.245   5.012   4.970  0.4901 -0.5799 -0.3132
 7472TIP3   OH222379   0.122   4.571   4.076 -0.1760 -0.1604 -0.0712
 7472TIP3    H122380   0.166   4.639   4.127  2.7079 -2.0466  0.2093
 7472TIP3    H222381   0.120   4.495   4.135 -0.6581 -1.1522 -1.3208
 7473TIP3   OH222382   1.666   3.690   3.427 -0.2426 -0.7139  0.2917
 7473TIP3    H122383   1.619   3.623   3.476 -0.7428 -0.9564 -0.5019
 7473TIP3    H222384   1.644   3.772   3.471 -1.1919 -0.8570  0.0939
 7474TIP3   OH222385   6.548   4.007   4.934 -0.2020  0.5856  0.6468
 7474TIP3    H122386   6.458   4.014   4.902 -0.6064 -3.1925  0.4110
 7474TIP3    H222387   6.600   3.993   4.855  0.7640  3.1207  0.7450
 7475TIP3   OH222388   0.263   2.656   0.551 -0.6270 -0.4250 -0.0547
 7475TIP3    H122389   0.318   2.578   0.553 -1.5421 -1.1286 -1.1303
 7475TIP3    H222390   0.177   2.626   0.582 -0.5584  0.5558  1.1830
 7476TIP3   OH222391   2.007   0.565   4.135  0.2653  0.2428  0.0945
 7476TIP3    H122392   1.975   0.651   4.107  0.7111  0.4296  0.1601
 7476TIP3    H222393   2.070   0.540   4.067  2.6866  1.4759  1.7456
 7477TIP3   OH222394   2.685   0.565   3.606 -0.1318 -0.4056 -0.2240
 7477TIP3    H122395   2.627   0.537   3.536  0.6101 -0.0847 -0.9815
 7477TIP3    H222396   2.712   0.483   3.649  1.2364 -0.8222 -1.7911
 7478TIP3   OH222397   6.871   6.002   4.526  0.5266  0.0416  0.1763
 7478TIP3    H122398   6.934   6.068   4.500  0.1657 -0.0141 -0.9229
 7478TIP3    H222399   6.893   5.926   4.472  1.0679 -0.8287  1.5620
 7479TIP3   OH222400   3.586   2.339   5.278  0.2787 -0.2152 -0.5616
 7479TIP3    H122401   3.528   2.306   5.210  0.6749  0.2818 -1.1486
 7479TIP3    H222402   3.636   2.408   5.236  1.7108 -1.0120 -0.2402
 7480TIP3   OH222403   4.548   1.903   0.264 -0.2340 -0.3795  0.0282
 7480TIP3    H122404   4.577   1.983   0.219  0.4548 -1.1890 -1.0259
 7480TIP3    H222405   4.624   1.877   0.316 -0.8687  0.2898  1.3600
 7481TIP3   OH222406   1.506   2.717   4.298 -0.3263 -0.2169 -0.4194
 7481TIP3    H122407   1.429   2.685   4.250 -0.5372 -0.1677 -0.1172
 7481TIP3    H222408   1.505   2.812   4.283  0.3472 -0.3385 -1.3861
 7482TIP3   OH222409   6.322   1.448   0.954  0.0501  0.3361 -0.2358
 7482TIP3    H122410   6.263   1.378   0.982 -1.0065  1.1982 -0.2147
 7482TIP3    H222411   6.296   1.524   1.006  1.2337  0.7284 -0.1925
 7483TIP3   OH222412   2.068   4.066   3.626 -0.1339  0.3357 -0.5567
 7483TIP3    H122413   1.997   4.126   3.649  0.3622  0.4503  0.8276
 7483TIP3    H222414   2.073   4.006   3.701  1.0311  0.1597 -0.7531
 7484TIP3   OH222415   5.202   0.069   1.110 -0.0469  0.1448 -0.3113
 7484TIP3    H122416   5.212   0.059   1.016 -1.5540  0.4375 -0.5326
 7484TIP3    H222417   5.237   0.156   1.130  0.3355  0.0527 -0.5895
 7485TIP3   OH222418   6.135   2.554   4.359 -0.4839 -0.2970  0.2598
 7485TIP3    H122419   6.164   2.518   4.443 -1.3071 -0.8196  0.3357
 7485TIP3    H222420   6.082   2.630   4.382  1.3755  1.1361  0.0938
 7486TIP3   OH222421   3.519   4.627   4.110  0.2060 -0.7889  0.4790
 7486TIP3    H122422   3.560   4.641   4.195 -0.7344 -0.9474  0.9774
 7486TIP3    H222423   3.572   4.678   4.049 -0.2305  0.9663  1.4644
 7487TIP3   OH222424   0.702   3.535   4.424  0.1027  0.5756 -0.4345
 7487TIP3    H122425   0.684   3.443   4.441 -0.2567  0.8905  0.9858
 7487TIP3    H222426   0.621   3.581   4.444  0.4166  1.2640 -0.6765
 7488TIP3   OH222427   2.548   3.672   5.075 -0.3321 -0.0270  0.0638
 7488TIP3    H122428   2.458   3.646   5.091 -0.0425 -1.1467 -0.0499
 7488TIP3    H222429   2.566   3.739   5.141 -1.1970  0.1129  0.1694
 7489TIP3   OH222430   1.396   1.345   3.735 -0.0550 -0.4213  0.3448
 7489TIP3    H122431   1.362   1.314   3.651 -0.1976  1.6464 -0.4066
 7489TIP3    H222432   1.362   1.282   3.799 -2.5660 -0.3202 -0.7675
 7490TIP3   OH222433   1.645   6.093   2.093 -0.4003 -0.0171 -0.0124
 7490TIP3    H122434   1.658   6.104   2.188 -3.0135  0.6014  0.3561
 7490TIP3    H222435   1.674   6.176   2.055  1.8280 -0.7048  0.0282
 7491TIP3   OH222436   5.406   2.697   4.611  0.1003 -0.3234 -0.0097
 7491TIP3    H122437   5.385   2.781   4.570  1.8657 -1.1173 -2.8490
 7491TIP3    H222438   5.478   2.716   4.671  1.2674  0.0818 -1.4851
 7492TIP3   OH222439   6.566   0.283   2.909  0.0830  0.0261 -0.1629
 7492TIP3    H122440   6.497   0.320   2.855 -1.0491 -0.2828  1.0249
 7492TIP3    H222441   6.549   0.189   2.911  0.4762 -0.0436  0.2252
 7493TIP3   OH222442   0.150   0.842   1.898  0.0695 -0.2076  0.0292
 7493TIP3    H122443   0.130   0.849   1.991 -0.2614  0.9925 -0.1146
 7493TIP3    H222444   0.103   0.915   1.858  2.1723  0.7990 -0.7361
 7494TIP3   OH222445   2.805   5.828   0.351  0.3416 -0.1920 -0.6634
 7494TIP3    H122446   2.874   5.874   0.397  0.5081 -0.0962 -1.0021
 7494TIP3    H222447   2.815   5.855   0.259  1.8594 -2.5456 -1.2947
 7495TIP3   OH222448   6.805   4.104   0.939  0.3595  0.0580 -0.2040
 7495TIP3    H122449   6.887   4.142   0.906  0.0999 -0.0806 -1.0217
 7495TIP3    H222450   6.797   4.140   1.027  1.2376  0.1725 -0.1573
 7496TIP3   OH222451   3.204   1.484   1.709  0.2224  0.1424 -0.5844
 7496TIP3    H122452   3.288   1.502   1.668  1.1572  0.1365  1.2057
 7496TIP3    H222453   3.213   1.396   1.744 -0.8885 -0.2241 -1.1689
 7497TIP3   OH222454   4.476   2.054   4.426  0.5642  1.0008  0.2625
 7497TIP3    H122455   4.411   2.038   4.358  0.5004  1.4002  0.2262
 7497TIP3    H222456   4.547   1.992   4.407  0.5349  1.0922 -0.1540
 7498TIP3   OH222457   3.513   5.633   5.454  0.3395  0.2383  0.2546
 7498TIP3    H122458   3.539   5.541   5.463 -3.3136 -1.1294 -1.2684
 7498TIP3    H222459   3.502   5.646   5.360  0.4454  2.1420  0.4684
 7499TIP3   OH222460   2.673   4.250   3.908  0.0939  0.4303  0.1712
 7499TIP3    H122461   2.728   4.171   3.915 -0.0373  0.3422  0.2132
 7499TIP3    H222462   2.604   4.225   3.846  0.5935  0.8250 -0.5473
 7500TIP3   OH222463   3.194   2.358   5.118  0.2556 -0.3850 -0.4188
 7500TIP3    H122464   3.103   2.326   5.119  0.1284 -0.0167 -0.1256
 7500TIP3    H222465   3.195   2.431   5.180  1.4080 -2.1535  1.8124
 7501TIP3   OH222466   2.964   2.916   2.471  0.2024 -0.0787  0.3182
 7501TIP3    H122467   2.990   2.923   2.379 -0.9588 -1.4852 -0.1390
 7501TIP3    H222468   2.964   3.007   2.502 -0.6727  0.5673 -1.4276
 7502TIP3   OH222469   2.209   0.796   0.192  0.3931  0.1447  0.1088
 7502TIP3    H122470   2.153   0.786   0.115 -1.1472 -0.4186  1.2524
 7502TIP3    H222471   2.154   0.844   0.255  1.4384  0.1489  1.0412
 7503TIP3   OH222472   2.301   5.825   1.938 -0.2356 -0.0893  0.1684
 7503TIP3    H122473   2.326   5.732   1.934 -0.9357 -0.2336 -1.3034
 7503TIP3    H222474   2.223   5.831   1.884  0.3077  1.5265 -0.4888
 7504TIP3   OH222475   5.899   1.682   1.166  0.0305  0.3656  0.1275
 7504TIP3    H122476   5.895   1.759   1.222 -0.8677  0.0630  0.4953
 7504TIP3    H222477   5.809   1.670   1.136  0.4211  0.2871 -1.0683
 7505TIP3   OH222478   5.039   6.525   1.589 -0.1487  0.3837 -0.6310
 7505TIP3    H122479   5.012   6.587   1.522 -1.9033  2.2210  1.6428
 7505TIP3    H222480   5.132   6.544   1.604 -0.0189  0.6724 -1.7505
 7506TIP3   OH222481   5.651   2.814   0.452 -0.0042 -0.4211  0.6627
 7506TIP3    H122482   5.565   2.855   0.456  0.2689  0.3460 -0.7585
 7506TIP3    H222483   5.704   2.865   0.514 -0.4074 -0.5003  1.0803
 7507TIP3   OH222484   6.383   5.716   2.756  0.1039 -0.4216  0.4761
 7507TIP3    H122485   6.304   5.742   2.804 -0.0235 -0.8063  0.4733
 7507TIP3    H222486   6.358   5.636   2.709  0.1858  0.0182 -0.3401
 7508TIP3   OH222487   7.004   2.788   2.378  0.1019  0.0221 -0.2731
 7508TIP3    H122488   7.013   2.858   2.313  2.0064 -1.9350 -2.2767
 7508TIP3    H222489   6.916   2.802   2.415 -0.5762  1.9830 -2.3537
 7509TIP3   OH222490   3.185   5.828   2.011 -0.0932  0.1997  0.3784
 7509TIP3    H122491   3.264   5.806   1.960  0.2958  0.3108  0.9297
 7509TIP3    H222492   3.217   5.881   2.083 -0.9760  2.2741 -0.6820
 7510TIP3   OH222493   1.439   2.661   3.100 -0.2489  0.2402  0.2007
 7510TIP3    H122494   1.533   2.658   3.081 -0.2498  0.8578  0.1010
 7510TIP3    H222495   1.410   2.745   3.066 -0.7763  0.1926  0.5256
 7511TIP3   OH222496   2.202   2.551   0.479 -0.3746  0.0750 -0.2657
 7511TIP3    H122497   2.129   2.506   0.438  1.2054 -1.5559 -1.4103
 7511TIP3    H222498   2.280   2.506   0.447  1.1005  0.7989  2.0458
 7512TIP3   OH222499   6.502   5.121   4.284  0.0475 -0.2830  0.1222
 7512TIP3    H122500   6.546   5.201   4.314  0.3168 -0.1725 -0.5556
 7512TIP3    H222501   6.410   5.145   4.278  0.2334  0.2303 -0.8683
 7513TIP3   OH222502   4.751   2.442   1.829 -0.1460 -0.1775 -0.0646
 7513TIP3    H122503   4.669   2.459   1.876 -0.2453 -0.8402  0.0166
 7513TIP3    H222504   4.786   2.528   1.809 -1.1509  0.1143 -0.6095
 7514TIP3   OH222505   1.523   2.549   2.562  0.8779 -0.0065 -0.2026
 7514TIP3    H122506   1.563   2.495   2.630  2.8535  0.6081 -0.7988
 7514TIP3    H222507   1.596   2.601   2.527 -0.8302  2.6130 -0.0771
 7515TIP3   OH222508   4.337   5.626   3.486 -0.5934 -0.5202  0.1262
 7515TIP3    H122509   4.287   5.554   3.448  0.0701 -1.2866  0.6691
 7515TIP3    H222510   4.271   5.683   3.525 -1.1952 -0.3221 -1.1310
 7516TIP3   OH222511   2.939   6.473   2.932 -0.8260 -0.5232  0.7932
 7516TIP3    H122512   2.870   6.483   2.997 -1.9387  1.7391 -0.6293
 7516TIP3    H222513   2.989   6.554   2.937  0.3710 -1.1982  0.2395
 7517TIP3   OH222514   0.442   1.140   1.517 -0.1181 -0.1410 -0.2842
 7517TIP3    H122515   0.491   1.164   1.596  0.4674 -0.6186 -0.4962
 7517TIP3    H222516   0.353   1.124   1.548 -0.2673  1.1741  0.0385
 7518TIP3   OH222517   4.496   1.564   5.091 -0.2047  0.1221  0.1855
 7518TIP3    H122518   4.548   1.572   5.171 -0.1018 -0.7335  0.2172
 7518TIP3    H222519   4.462   1.474   5.094 -0.2642  0.1101 -0.6920
 7519TIP3   OH222520   2.692   0.607   1.659  0.1140 -0.3197 -0.0525
 7519TIP3    H122521   2.706   0.634   1.568 -2.4619 -0.7009 -0.6424
 7519TIP3    H222522   2.622   0.664   1.691 -0.3564 -1.4574  1.0310
 7520TIP3   OH222523   3.858   4.994   1.446  0.1667  0.4463  0.0993
 7520TIP3    H122524   3.867   5.074   1.497  0.1263 -0.3027  1.3153
 7520TIP3    H222525   3.933   4.941   1.471  0.6008  0.3679 -1.2495
 7521TIP3   OH222526   4.592   6.642   2.909  0.1615 -0.1710  0.0466
 7521TIP3    H122527   4.672   6.687   2.937 -0.4720  0.3466  1.0903
 7521TIP3    H222528   4.537   6.712   2.873 -1.1496  0.0952  2.3884
 7522TIP3   OH222529   5.938   5.769   1.861 -0.2576 -0.0982 -0.0548
 7522TIP3    H122530   5.861   5.809   1.821 -0.1237  0.0924 -0.1196
 7522TIP3    H222531   5.996   5.749   1.788 -0.0737  0.1220  0.0296
 7523TIP3   OH222532   5.935   1.929   5.595 -0.5432  0.3741 -0.3901
 7523TIP3    H122533   5.879   1.850   5.593 -1.1458  0.7496  0.8037
 7523TIP3    H222534   5.923   1.964   5.683  2.6835 -0.2865  0.4271
 7524TIP3   OH222535   5.852   4.336   2.900  0.2223  0.9278  0.1092
 7524TIP3    H122536   5.776   4.346   2.843 -0.4552 -0.3415  0.7373
 7524TIP3    H222537   5.850   4.414   2.956 -1.6812  0.1288  1.2795
 7525TIP3   OH222538   1.140   4.279   1.150 -0.4006  0.3106  0.3072
 7525TIP3    H122539   1.236   4.281   1.139 -0.2998  0.2793  1.1335
 7525TIP3    H222540   1.117   4.369   1.175 -0.5276  0.2027  0.5773
 7526TIP3   OH222541   1.934   3.018   0.213 -0.3525 -0.3484  0.3643
 7526TIP3    H122542   1.900   3.104   0.238 -1.4415 -1.0611  1.4114
 7526TIP3    H222543   1.868   2.983   0.152  0.3069 -0.2820 -0.4098
 7527TIP3   OH222544   3.050   3.040   5.315 -0.4380  0.3744  0.6322
 7527TIP3    H122545   2.991   2.990   5.372 -1.2494 -0.6193 -0.9811
 7527TIP3    H222546   3.017   3.023   5.226  1.1302  1.3660 -0.1854
 7528TIP3   OH222547   3.656   4.863   1.283  0.0632  0.5513  0.3170
 7528TIP3    H122548   3.606   4.794   1.327  2.2653 -0.8010  0.8177
 7528TIP3    H222549   3.724   4.887   1.345  0.9998  1.2295 -0.9321
 7529TIP3   OH222550   2.016   2.375   1.769 -0.1259  0.3897  0.3683
 7529TIP3    H122551   2.100   2.374   1.722 -0.3235 -0.1244  0.0159
 7529TIP3    H222552   2.034   2.422   1.850  0.0428  2.0587 -0.5780
 7530TIP3   OH222553   6.175   0.908   2.483 -0.1873  0.6452  0.4258
 7530TIP3    H122554   6.268   0.910   2.459  0.8801 -0.0155  3.9437
 7530TIP3    H222555   6.140   0.833   2.435  1.3832  0.1950 -0.0861
 7531TIP3   OH222556   6.925   6.816   5.708 -0.2505 -0.3642  0.2861
 7531TIP3    H122557   6.937   6.756   5.635 -2.1400 -1.1994  0.6153
 7531TIP3    H222558   6.926   6.760   5.786 -0.6531  0.2056  0.7092
 7532TIP3   OH222559   6.877   3.545   4.330 -0.0103 -0.5020  0.1898
 7532TIP3    H122560   6.863   3.616   4.267  0.7431 -0.9871 -0.5537
 7532TIP3    H222561   6.823   3.569   4.406 -0.7424  0.2250 -0.5339
 7533TIP3   OH222562   1.364   1.004   1.288  0.4180 -0.4569 -0.2931
 7533TIP3    H122563   1.330   1.087   1.253  0.6478  0.0143  0.5500
 7533TIP3    H222564   1.321   0.936   1.237 -2.1810  0.0884  1.0203
 7534TIP3   OH222565   0.959   4.232   0.334 -0.2093 -0.8870  0.2296
 7534TIP3    H122566   1.008   4.239   0.252  0.9168  0.8926  0.9964
 7534TIP3    H222567   0.980   4.145   0.367  0.3262 -1.1445 -0.7584
 7535TIP3   OH222568   2.653   1.790   4.002  0.2521 -0.5969  0.3476
 7535TIP3    H122569   2.652   1.835   3.917 -1.6541  0.4927  0.8941
 7535TIP3    H222570   2.723   1.725   3.994  2.0415  1.3839 -1.0526
 7536TIP3   OH222571   4.787   4.050   5.016 -0.4940 -0.5348  0.4527
 7536TIP3    H122572   4.822   4.101   5.089 -1.7398  0.4767  0.3696
 7536TIP3    H222573   4.827   4.089   4.938 -0.0549 -0.8714  0.5038
 7537TIP3   OH222574   3.871   0.180   4.862 -0.4040 -0.2772  0.0843
 7537TIP3    H122575   3.807   0.149   4.927  1.0856 -2.5630  0.5750
 7537TIP3    H222576   3.909   0.100   4.825  2.3460  0.9334  0.0241
 7538TIP3   OH222577   0.704   2.905   1.408 -0.9466  0.1524 -0.0530
 7538TIP3    H122578   0.678   2.860   1.489 -0.8304  1.1887  0.5742
 7538TIP3    H222579   0.798   2.919   1.417 -1.1996  1.7845  0.4359
 7539TIP3   OH222580   6.899   5.838   0.076  0.0930  0.6542  0.1682
 7539TIP3    H122581   6.816   5.853   0.121 -0.6757  0.9824 -1.2627
 7539TIP3    H222582   6.960   5.812   0.144 -1.4410 -0.5884  1.1365
 7540TIP3   OH222583   2.449   4.610   4.032  0.0844  0.2206 -0.2799
 7540TIP3    H122584   2.458   4.675   4.102 -0.2915  0.3728 -0.3696
 7540TIP3    H222585   2.518   4.547   4.049  0.7978  0.9298 -0.4983
 7541TIP3   OH222586   4.402   3.860   2.127  0.0352 -0.7621 -0.6341
 7541TIP3    H122587   4.478   3.916   2.142  0.9591 -1.7487 -1.4986
 7541TIP3    H222588   4.387   3.818   2.212 -0.1753  0.1805 -0.1932
 7542TIP3   OH222589   0.233   4.714   4.584 -0.0053 -0.2370 -0.0122
 7542TIP3    H122590   0.242   4.622   4.558  0.9700 -0.2084  0.1669
 7542TIP3    H222591   0.174   4.713   4.659  0.4520 -0.7851  0.3475
 7543TIP3   OH222592   6.933   0.096   3.386 -0.5414  0.3593  0.4977
 7543TIP3    H122593   6.894   0.077   3.301  0.9899 -0.8052  0.0089
 7543TIP3    H222594   6.960   0.188   3.380 -0.1756  0.2055 -0.4094
 7544TIP3   OH222595   4.088   3.091   0.418  0.0156  0.0252  0.2350
 7544TIP3    H122596   4.028   3.030   0.374 -0.3681 -0.9723  2.0651
 7544TIP3    H222597   4.055   3.097   0.507  1.2414  1.3716  0.6298
 7545TIP3   OH222598   0.058   5.646   3.944  0.1466  0.2830 -0.2554
 7545TIP3    H122599   0.064   5.689   4.029 -2.3140 -1.2028  0.7830
 7545TIP3    H222600   0.044   5.717   3.882 -1.5063  1.2283  1.0976
 7546TIP3   OH222601   3.079   2.842   3.925 -0.0279  0.0031  0.3438
 7546TIP3    H122602   3.112   2.811   3.841 -3.1806  0.1060 -1.0595
 7546TIP3    H222603   3.076   2.764   3.980 -0.2622 -0.5712 -0.4694
 7547TIP3   OH222604   3.814   5.236   2.043  0.7826 -0.3512 -0.2910
 7547TIP3    H122605   3.719   5.248   2.049  0.6515 -0.2563 -2.0388
 7547TIP3    H222606   3.849   5.285   2.117 -0.4145  1.3749 -0.8106
 7548TIP3   OH222607   2.180   4.501   2.028 -0.1266 -0.0845  0.0008
 7548TIP3    H122608   2.089   4.498   2.059  0.1904  0.1810  1.0050
 7548TIP3    H222609   2.191   4.591   1.998 -0.4125 -0.3216 -0.8377
 7549TIP3   OH222610   5.145   1.586   0.360  1.2287 -0.0906 -0.4168
 7549TIP3    H122611   5.240   1.588   0.352  1.2991  0.3352  0.4069
 7549TIP3    H222612   5.113   1.585   0.270  2.0092 -0.4078 -0.6999
 7550TIP3   OH222613   0.960   0.513   0.803 -0.2582 -0.0133  0.2598
 7550TIP3    H122614   0.969   0.430   0.757 -0.2030 -0.3345  0.8315
 7550TIP3    H222615   1.038   0.518   0.859 -0.0928  0.5854 -0.0166
 7551TIP3   OH222616   4.790   2.181   1.076  0.1828 -0.2208  0.1485
 7551TIP3    H122617   4.699   2.206   1.092  0.2119  0.1294 -0.2276
 7551TIP3    H222618   4.785   2.117   1.005  0.1030 -1.3441  1.1446
 7552TIP3   OH222619   4.944   3.113   3.420  0.2687  0.4720  0.0419
 7552TIP3    H122620   4.878   3.182   3.431 -0.0928  0.0387  0.6581
 7552TIP3    H222621   5.026   3.160   3.408 -0.0836  1.0170 -0.2808
 7553TIP3   OH222622   6.484   4.735   1.957  0.0073  0.2270 -0.1323
 7553TIP3    H122623   6.533   4.810   1.990  0.2959 -0.6437  1.5657
 7553TIP3    H222624   6.429   4.708   2.031 -2.2337  0.4667 -1.6101
 7554TIP3   OH222625   2.142   1.163   2.684 -0.3834 -0.3609  0.0752
 7554TIP3    H122626   2.179   1.144   2.770 -0.2388 -1.9493 -0.2997
 7554TIP3    H222627   2.174   1.250   2.663  1.4279 -0.8377  0.6791
 7555TIP3   OH222628   6.063   3.071   2.144 -0.4038 -0.1237 -0.1628
 7555TIP3    H122629   5.994   3.005   2.147  0.3203 -0.8645  1.0582
 7555TIP3    H222630   6.040   3.132   2.214 -0.3104  0.1420 -0.3632
 7556TIP3   OH222631   0.623   1.377   3.016 -0.6800  0.2868  0.1793
 7556TIP3    H122632   0.656   1.388   2.927  0.9471 -1.3956  0.5015
 7556TIP3    H222633   0.536   1.338   3.005 -0.1410 -0.7278 -0.7023
 7557TIP3   OH222634   6.425   3.520   0.780 -0.0943 -0.2996  0.4951
 7557TIP3    H122635   6.374   3.556   0.852 -2.4816  1.4333 -1.8442
 7557TIP3    H222636   6.516   3.532   0.806 -0.8629  1.3986  2.6679
 7558TIP3   OH222637   0.988   3.920   2.374 -0.1872  0.5266  0.1933
 7558TIP3    H122638   0.942   3.836   2.370 -0.0576  0.4066  1.0012
 7558TIP3    H222639   0.991   3.941   2.467 -2.8853  2.9346 -0.1239
 7559TIP3   OH222640   1.366   6.078   0.479  0.0439 -0.1410  0.1385
 7559TIP3    H122641   1.300   6.009   0.480 -1.1253  0.9225 -0.7137
 7559TIP3    H222642   1.425   6.055   0.407  0.8694 -1.2927  1.1406
 7560TIP3   OH222643   4.252   3.894   0.591 -0.1032 -0.3985 -0.1327
 7560TIP3    H122644   4.282   3.882   0.681 -0.2915  0.1900  0.0135
 7560TIP3    H222645   4.308   3.964   0.557 -0.5376 -0.0966 -0.2289
 7561TIP3   OH222646   5.336   6.222   3.489 -0.3519 -0.3920 -0.0180
 7561TIP3    H122647   5.361   6.250   3.400 -1.2324 -0.7350 -0.3815
 7561TIP3    H222648   5.311   6.304   3.533 -2.1850 -0.4725 -0.8413
 7562TIP3   OH222649   3.572   5.604   4.987  0.0071  0.3793  0.6183
 7562TIP3    H122650   3.536   5.532   4.934  0.8384  0.5569 -0.2198
 7562TIP3    H222651   3.521   5.680   4.961  0.6550  0.5427 -0.2477
 7563TIP3   OH222652   2.386   4.465   2.959  0.2259  0.1849  0.1339
 7563TIP3    H122653   2.293   4.475   2.938  0.0767  0.9775  1.0917
 7563TIP3    H222654   2.393   4.493   3.050  1.2719 -0.6599  0.3329
 7564TIP3   OH222655   6.008   3.437   1.602 -0.3419 -0.1415  0.1484
 7564TIP3    H122656   5.913   3.443   1.595 -0.3156 -0.1392 -0.2193
 7564TIP3    H222657   6.042   3.501   1.539 -0.0912  1.8925  2.1919
 7565TIP3   OH222658   5.834   2.793   0.721 -0.1554  0.5231 -0.4510
 7565TIP3    H122659   5.906   2.816   0.662 -0.7694  0.1663 -1.3536
 7565TIP3    H222660   5.827   2.868   0.780  1.7028  0.0749  0.4101
 7566TIP3   OH222661   1.769   1.201   5.326  0.2988 -0.3729  0.4825
 7566TIP3    H122662   1.707   1.270   5.303  0.9931  0.0343 -0.2336
 7566TIP3    H222663   1.724   1.148   5.392 -1.3301 -0.8907 -0.9861
 7567TIP3   OH222664   0.539   5.683   3.944 -0.4290  0.2698 -0.3711
 7567TIP3    H122665   0.552   5.588   3.954  2.2760  0.7924  2.5752
 7567TIP3    H222666   0.466   5.703   4.003  1.3441  0.4184  1.8648
 7568TIP3   OH222667   1.674   6.004   0.939  0.3317 -0.6811  0.1142
 7568TIP3    H122668   1.625   6.062   0.881 -0.2959 -1.2715  0.0423
 7568TIP3    H222669   1.727   5.950   0.879  1.0682 -0.0571  0.1905
 7569TIP3   OH222670   0.256   4.011   3.994  0.5226  0.4826 -0.1098
 7569TIP3    H122671   0.294   4.050   4.072 -0.8576  0.9448  0.3730
 7569TIP3    H222672   0.216   4.085   3.948  0.1510  0.0172 -0.5503
 7570TIP3   OH222673   0.269   3.581   2.787  0.1272 -0.3256  0.2517
 7570TIP3    H122674   0.320   3.661   2.800  1.0992 -0.6798 -1.1946
 7570TIP3    H222675   0.178   3.610   2.794  0.4589  0.9181 -0.2147
 7571TIP3   OH222676   1.074   3.013   5.644 -0.3796 -0.4945 -0.7913
 7571TIP3    H122677   1.128   3.092   5.640  0.9399 -1.3492 -0.4691
 7571TIP3    H222678   0.997   3.034   5.592 -0.7834  1.5385  0.5410
 7572TIP3   OH222679   4.136   4.912   4.105 -0.4179  0.6510 -0.2037
 7572TIP3    H122680   4.201   4.865   4.157 -0.7926  0.5244  0.1508
 7572TIP3    H222681   4.075   4.845   4.076 -1.5204  1.0492  1.1324
 7573TIP3   OH222682   6.433   4.607   3.387  1.0426  0.4902 -0.0597
 7573TIP3    H122683   6.349   4.651   3.379  0.9487  0.1368 -1.2107
 7573TIP3    H222684   6.416   4.532   3.444  0.2974 -0.2126 -1.1653
 7574TIP3   OH222685   6.184   4.041   1.635 -0.6317 -0.0841 -0.3736
 7574TIP3    H122686   6.194   4.125   1.591 -0.2514 -0.8303 -1.7835
 7574TIP3    H222687   6.231   4.052   1.718  2.5552  0.0362 -2.0278
 7575TIP3   OH222688   4.614   2.160   0.120  0.6697 -0.5055 -0.2252
 7575TIP3    H122689   4.521   2.185   0.120  0.6964 -0.3990  0.1512
 7575TIP3    H222690   4.654   2.219   0.184  1.3563  0.7532 -1.7366
 7576TIP3   OH222691   4.410   6.404   3.430  0.8742 -0.0844 -0.3750
 7576TIP3    H122692   4.456   6.325   3.458  0.3436 -0.7215 -1.2454
 7576TIP3    H222693   4.460   6.476   3.468  0.7882 -0.8671  1.2833
 7577TIP3   OH222694   4.472   5.110   4.343  0.9600  0.3868  0.0942
 7577TIP3    H122695   4.523   5.178   4.386 -0.9821  0.7911  1.8680
 7577TIP3    H222696   4.427   5.064   4.414 -2.3309  1.0391 -1.3684
 7578TIP3   OH222697   4.112   2.496   5.890  0.5183  0.4734 -0.3384
 7578TIP3    H122698   4.141   2.586   5.907  1.7177 -0.1265  1.1260
 7578TIP3    H222699   4.143   2.477   5.802  1.6970  0.9964 -0.0675
 7579TIP3   OH222700   0.893   6.148   2.751  0.5830  0.4117 -0.0324
 7579TIP3    H122701   0.975   6.181   2.713  1.5148 -1.0227  0.6067
 7579TIP3    H222702   0.915   6.131   2.843 -0.6343  0.5932  0.3062
 7580TIP3   OH222703   2.495   1.244   0.506 -0.4333 -0.1570  0.0075
 7580TIP3    H122704   2.545   1.283   0.577 -0.0553  1.2879 -1.0141
 7580TIP3    H222705   2.439   1.315   0.474 -0.2657 -0.6309 -1.4274
 7581TIP3   OH222706   4.492   3.334   3.922  0.1680 -0.4163 -0.8000
 7581TIP3    H122707   4.471   3.241   3.925  1.2438 -0.6602  1.0610
 7581TIP3    H222708   4.437   3.370   3.853 -0.1407 -2.4599 -1.6722
 7582TIP3   OH222709   6.771   6.541   3.029 -0.1054 -0.1961  0.1307
 7582TIP3    H122710   6.842   6.506   3.083  1.7527  0.7994 -1.5538
 7582TIP3    H222711   6.732   6.464   2.987  0.1997 -0.7189  0.7873
 7583TIP3   OH222712   0.115   2.982   1.400 -0.1255 -0.5994  0.0649
 7583TIP3    H122713   0.148   3.043   1.466 -2.7929  1.4703 -0.3350
 7583TIP3    H222714   0.020   2.986   1.410 -0.4775 -3.1171 -1.4577
 7584TIP3   OH222715   1.131   4.969   3.604  0.7547 -0.1856 -0.3029
 7584TIP3    H122716   1.212   5.003   3.642 -0.0891  0.1665  1.2667
 7584TIP3    H222717   1.126   4.878   3.635  0.2095  0.0111  0.2016
 7585TIP3   OH222718   3.655   6.752   5.717  1.0196 -0.4453  0.1699
 7585TIP3    H122719   3.624   6.824   5.772  2.3284  1.2021 -1.1465
 7585TIP3    H222720   3.580   6.693   5.711 -0.5416  1.4334  0.2800
 7586TIP3   OH222721   4.785   3.768   3.894  0.1973  0.2189  0.2513
 7586TIP3    H122722   4.742   3.843   3.853 -0.7293 -0.4838 -0.1144
 7586TIP3    H222723   4.735   3.692   3.862  1.0021 -0.5357  0.7451
 7587TIP3   OH222724   1.924   1.635   5.456  0.6566  0.1795 -0.5403
 7587TIP3    H122725   1.972   1.574   5.512 -1.3098  1.1519  2.4282
 7587TIP3    H222726   1.869   1.685   5.516  0.0779  2.9603 -3.1292
 7588TIP3   OH222727   2.962   3.812   1.248 -0.0612 -0.6469  0.2677
 7588TIP3    H122728   3.005   3.759   1.180  0.4447  0.4732 -0.3279
 7588TIP3    H222729   2.870   3.786   1.244 -0.7765  1.6440 -3.2233
 7589TIP3   OH222730   5.403   2.447   2.480  0.2886  0.3447  0.2420
 7589TIP3    H122731   5.395   2.381   2.548 -0.1655 -0.1826 -0.3060
 7589TIP3    H222732   5.497   2.462   2.471  0.3601  0.2577  0.8272
 7590TIP3   OH222733   3.619   4.809   5.821 -0.0471 -0.1366  0.0119
 7590TIP3    H122734   3.713   4.791   5.831 -0.2289 -0.6560  0.9576
 7590TIP3    H222735   3.595   4.854   5.903 -1.1815 -2.4844  1.0676
 7591TIP3   OH222736   4.284   1.400   3.669 -0.0032  0.3406  0.7330
 7591TIP3    H122737   4.191   1.417   3.652  0.3601  0.7793 -1.0948
 7591TIP3    H222738   4.310   1.467   3.732 -0.9743  0.0444  1.4710
 7592TIP3   OH222739   1.413   2.543   0.918 -0.1360 -0.1447 -0.7425
 7592TIP3    H122740   1.404   2.475   0.984 -0.1461  0.1033 -0.4861
 7592TIP3    H222741   1.502   2.576   0.929 -0.3844  0.4041 -0.3573
 7593TIP3   OH222742   3.230   5.568   5.568  0.1571 -0.2331 -0.3331
 7593TIP3    H122743   3.315   5.590   5.529 -0.1185  0.1187 -0.7476
 7593TIP3    H222744   3.168   5.577   5.496 -0.0195 -2.0700 -0.4439
 7594TIP3   OH222745   0.346   4.942   0.877 -0.1933  0.5529 -0.0209
 7594TIP3    H122746   0.434   4.939   0.914 -1.6195  0.8508  3.7978
 7594TIP3    H222747   0.347   5.016   0.816  1.9114  1.1251  0.6474
 7595TIP3   OH222748   6.362   5.290   1.970 -0.1837 -0.2304 -0.3981
 7595TIP3    H122749   6.359   5.320   1.879  0.7513 -0.6579 -0.5869
 7595TIP3    H222750   6.276   5.312   2.006  0.2399  2.1003 -0.6823
 7596TIP3   OH222751   2.632   6.759   1.341  0.1481 -0.5524 -0.0742
 7596TIP3    H122752   2.679   6.803   1.271  0.4254  0.8027  0.9200
 7596TIP3    H222753   2.680   6.676   1.354  0.2611 -0.6912 -1.2560
 7597TIP3   OH222754   6.893   5.635   4.770  0.3839  0.5209 -0.7438
 7597TIP3    H122755   6.811   5.598   4.803  0.8439  1.5563  1.8609
 7597TIP3    H222756   6.937   5.562   4.727 -0.2499 -1.1205  1.2065
 7598TIP3   OH222757   3.274   0.729   3.454  0.6011 -0.2895 -0.4304
 7598TIP3    H122758   3.311   0.652   3.498  0.4324 -0.4830 -0.6283
 7598TIP3    H222759   3.278   0.799   3.521  0.9166 -0.4212 -0.3074
 7599TIP3   OH222760   2.433   5.281   0.081  0.5284 -0.5575  0.3929
 7599TIP3    H122761   2.448   5.363   0.127 -0.1427 -0.8351  1.1444
 7599TIP3    H222762   2.362   5.239   0.130 -1.4889 -0.0890 -1.9180
 7600TIP3   OH222763   2.769   5.910   1.259 -0.3671  0.0574  0.7237
 7600TIP3    H122764   2.693   5.928   1.315  0.4175 -0.0694  1.8588
 7600TIP3    H222765   2.839   5.963   1.297 -0.0412  0.7395 -0.7510
 7601TIP3   OH222766   1.754   6.402   4.877  0.0403  0.1927  0.4909
 7601TIP3    H122767   1.778   6.323   4.829  1.8146  0.6464  0.5615
 7601TIP3    H222768   1.705   6.455   4.814 -1.3697 -1.0039  0.5070
 7602TIP3   OH222769   4.949   3.739   4.116  0.5322  0.4352 -0.0298
 7602TIP3    H122770   4.894   3.756   4.040  1.0560  1.3014 -0.2300
 7602TIP3    H222771   4.958   3.824   4.159  1.8917  0.3805 -0.1410
 7603TIP3   OH222772   0.062   6.164   2.609 -0.1127  0.2036 -0.1463
 7603TIP3    H122773  -0.024   6.124   2.623  0.3208 -0.3404  1.1428
 7603TIP3    H222774   0.106   6.105   2.547 -0.6060  0.4027 -0.6940
 7604TIP3   OH222775   7.147   2.110   3.131 -0.3862  0.1865 -0.0036
 7604TIP3    H122776   7.102   2.179   3.084 -0.7972 -0.2249 -0.2144
 7604TIP3    H222777   7.236   2.110   3.094 -0.2466  0.8798  0.2986
 7605TIP3   OH222778   5.826   1.941   5.835  0.6766  0.1710 -0.4615
 7605TIP3    H122779   5.738   1.921   5.804  0.4674  1.0211 -0.4227
 7605TIP3    H222780   5.822   1.931   5.930  0.8956 -0.7969 -0.5392
 7606TIP3   OH222781   7.217   5.390   4.448  0.2485 -0.1383 -0.0570
 7606TIP3    H122782   7.230   5.318   4.388  0.6540 -1.1442  1.1907
 7606TIP3    H222783   7.140   5.437   4.414 -1.5295 -2.5388  0.3848
 7607TIP3   OH222784   0.133   4.956   1.040 -0.1711  0.2629 -0.2150
 7607TIP3    H122785   0.214   4.955   0.989 -1.0643 -0.9176 -1.6830
 7607TIP3    H222786   0.088   4.875   1.016 -1.1920  0.2467  1.5765
 7608TIP3   OH222787   4.891   6.373   1.401  0.2876  0.9265 -0.3242
 7608TIP3    H122788   4.885   6.298   1.342 -0.9531  1.5892 -1.0803
 7608TIP3    H222789   4.945   6.341   1.474 -1.2291 -1.1291  0.0080
 7609TIP3   OH222790   1.008   2.129   3.263 -0.5886 -0.1350 -0.1818
 7609TIP3    H122791   1.098   2.158   3.275 -0.5441 -0.2145 -0.3083
 7609TIP3    H222792   0.968   2.134   3.350 -0.6139  0.3998 -0.2217
 7610TIP3   OH222793   5.830   2.330   1.479  0.5852 -0.3691 -0.1433
 7610TIP3    H122794   5.885   2.400   1.443 -1.3707  1.2361 -0.2068
 7610TIP3    H222795   5.744   2.344   1.439 -0.0391 -2.4654  0.3392
 7611TIP3   OH222796   4.421   4.570   5.054  0.3515  0.1226 -0.1966
 7611TIP3    H122797   4.340   4.528   5.024  0.9031 -1.0827 -0.0646
 7611TIP3    H222798   4.391   4.638   5.115 -0.5934  0.2067 -0.7336
 7612TIP3   OH222799   1.919   3.499   1.868 -0.2515 -0.4077 -0.4507
 7612TIP3    H122800   1.933   3.546   1.950 -0.2538 -0.2135 -0.5582
 7612TIP3    H222801   1.907   3.569   1.803 -0.8273 -0.5616 -0.5156
 7613TIP3   OH222802   3.154   6.475   0.556  0.2253  0.5950 -0.1761
 7613TIP3    H122803   3.229   6.461   0.613 -1.2691  0.2768  1.8337
 7613TIP3    H222804   3.127   6.565   0.573  1.2908  1.4248 -2.4253
 7614TIP3   OH222805   0.114   4.973   4.460  0.2681  0.5115  0.0510
 7614TIP3    H122806   0.140   4.885   4.488 -1.5407  0.3094  1.2394
 7614TIP3    H222807   0.188   5.029   4.482  0.4314 -0.3026  1.6545
 7615TIP3   OH222808   0.888   4.237   5.832 -0.1559 -0.2256  0.2862
 7615TIP3    H122809   0.872   4.332   5.835  0.3473 -0.1411  0.3799
 7615TIP3    H222810   0.925   4.216   5.918  0.2391 -0.4113  0.0718
 7616TIP3   OH222811   5.724   2.044   0.289  0.4364  0.3522 -0.5649
 7616TIP3    H122812   5.785   1.972   0.276  1.6642  0.9900  1.3085
 7616TIP3    H222813   5.648   2.003   0.331  0.1923 -0.1926 -1.5111
 7617TIP3   OH222814   4.769   1.418   0.170  0.0468  0.1433  0.1495
 7617TIP3    H122815   4.755   1.503   0.128  0.8283  0.2899  0.1776
 7617TIP3    H222816   4.847   1.383   0.127 -0.4014 -0.6648 -0.0232
 7618TIP3   OH222817   0.272   1.770   1.914 -0.2312 -0.2507  0.2378
 7618TIP3    H122818   0.229   1.691   1.947  0.2147 -0.6546 -0.1452
 7618TIP3    H222819   0.353   1.739   1.874 -1.0081  0.1578 -1.7671
 7619TIP3   OH222820   2.583   5.796   2.612  0.4959  0.0516 -0.2994
 7619TIP3    H122821   2.655   5.843   2.654  1.2810 -1.9703  0.7048
 7619TIP3    H222822   2.505   5.845   2.639  1.1894  0.2165  1.5673
 7620TIP3   OH222823   5.257   5.013   5.241 -0.0023 -0.0461  0.0608
 7620TIP3    H122824   5.207   5.063   5.177  0.5810 -0.4674 -0.7490
 7620TIP3    H222825   5.206   5.019   5.322 -0.8448  0.3485 -0.4860
 7621TIP3   OH222826   4.805   5.284   1.788 -0.0229 -0.0703  0.2339
 7621TIP3    H122827   4.889   5.264   1.828 -0.5830 -1.3904  0.8257
 7621TIP3    H222828   4.787   5.374   1.813  1.2677  0.2802 -0.0304
 7622TIP3   OH222829   4.367   4.392   4.678  0.1196  0.0634  0.0784
 7622TIP3    H122830   4.296   4.372   4.617  0.9614  0.5047 -1.0870
 7622TIP3    H222831   4.378   4.312   4.730  0.7534 -1.0932 -1.7536
 7623TIP3   OH222832   6.560   5.773   3.185  0.0357 -0.1995 -0.1238
 7623TIP3    H122833   6.508   5.740   3.258 -1.0961 -2.6508 -1.9028
 7623TIP3    H222834   6.647   5.735   3.198  0.3517  0.7822  0.8050
 7624TIP3   OH222835   1.553   6.635   4.778 -0.3964  0.0180  0.5803
 7624TIP3    H122836   1.611   6.694   4.729 -0.5348 -1.0846 -0.9711
 7624TIP3    H222837   1.500   6.592   4.711  1.0639 -3.3660  1.3720
 7625TIP3   OH222838   3.937   6.399   2.414  0.0416 -0.5757 -0.0055
 7625TIP3    H122839   3.916   6.308   2.436 -0.3706 -0.6689 -0.7546
 7625TIP3    H222840   3.912   6.448   2.492 -0.8657 -0.9686 -0.0353
 7626TIP3   OH222841   0.728   3.864   3.000  0.4640  0.4637 -1.0295
 7626TIP3    H122842   0.777   3.797   2.953  0.4010  0.3873 -0.9881
 7626TIP3    H222843   0.772   3.872   3.085  0.9260  1.0186 -1.3224
 7627TIP3   OH222844   1.956   6.595   2.674  0.0422  0.0629 -0.1375
 7627TIP3    H122845   1.927   6.646   2.750 -0.1243 -0.0045 -0.1552
 7627TIP3    H222846   1.968   6.660   2.604 -1.0017 -0.0223 -0.4091
 7628TIP3   OH222847   5.770   5.956   4.068  0.3033 -0.3442  0.2684
 7628TIP3    H122848   5.708   5.902   4.117 -0.0773  0.5757  0.8346
 7628TIP3    H222849   5.745   5.945   3.977  0.1078 -0.9729  0.3956
 7629TIP3   OH222850   5.648   3.370   3.405 -0.5593  0.1740  0.1840
 7629TIP3    H122851   5.645   3.276   3.386  1.0909  0.1313 -0.0175
 7629TIP3    H222852   5.559   3.401   3.387 -0.9218 -1.1921 -0.5325
 7630TIP3   OH222853   2.050   6.465   5.694  0.0428  0.2041 -1.1165
 7630TIP3    H122854   2.097   6.439   5.774 -2.1399  0.3223  0.3061
 7630TIP3    H222855   2.009   6.384   5.663 -1.9019  0.7162 -0.0838
 7631TIP3   OH222856   1.525   0.154   3.889  0.0508 -0.3719 -0.9093
 7631TIP3    H122857   1.459   0.221   3.905  0.0473 -0.2927 -1.2448
 7631TIP3    H222858   1.490   0.076   3.931  0.9316  0.2808  1.1208
 7632TIP3   OH222859   5.691   2.511   3.631  0.0036  0.2896 -0.1380
 7632TIP3    H122860   5.731   2.592   3.663  0.8518 -0.4954  0.8714
 7632TIP3    H222861   5.689   2.453   3.707 -0.1247 -0.8177 -0.9445
 7633TIP3   OH222862   2.074   0.021   4.607 -0.2033 -0.1325  0.0366
 7633TIP3    H122863   2.042   0.090   4.665  0.1532  1.8132 -1.9097
 7633TIP3    H222864   2.169   0.022   4.618 -0.3383 -2.0631  1.7710
 7634TIP3   OH222865   6.828   1.110   4.835  0.2641  0.1918  0.4101
 7634TIP3    H122866   6.850   1.176   4.900  0.0284 -0.5640  1.2731
 7634TIP3    H222867   6.738   1.130   4.809  0.2541  0.3062  0.5367
 7635TIP3   OH222868   1.902   2.078   3.610 -0.4075 -0.3888  0.3867
 7635TIP3    H122869   1.880   2.154   3.664 -2.3355 -1.7394  1.6613
 7635TIP3    H222870   1.932   2.012   3.673  1.7281 -0.5915 -0.7371
 7636TIP3   OH222871   3.810   3.536   2.066 -0.1343 -0.4499 -0.2356
 7636TIP3    H122872   3.714   3.530   2.075 -0.0194 -1.0744  0.8190
 7636TIP3    H222873   3.824   3.603   2.000 -1.3053 -0.2177 -0.2723
 7637TIP3   OH222874   4.920   4.475   4.092 -0.0140  0.3512 -0.2388
 7637TIP3    H122875   4.935   4.520   4.009 -0.6633  0.9987 -0.0055
 7637TIP3    H222876   4.860   4.531   4.140  1.8572  0.9835  1.4920
 7638TIP3   OH222877   5.117   4.898   2.244  0.1371 -0.4016 -0.0835
 7638TIP3    H122878   5.110   4.818   2.193  1.2322 -0.9764  0.6251
 7638TIP3    H222879   5.027   4.928   2.255 -0.2562 -1.3713 -0.6011
 7639TIP3   OH222880   1.320   1.788   2.059  0.5703 -0.0596 -0.3257
 7639TIP3    H122881   1.334   1.879   2.086  0.2376  0.0420 -0.4973
 7639TIP3    H222882   1.385   1.774   1.989  2.0498 -0.5934  1.0795
 7640TIP3   OH222883   4.913   2.775   1.216  0.0375 -0.4430 -0.3415
 7640TIP3    H122884   4.962   2.726   1.151 -0.1411  0.1230 -0.9223
 7640TIP3    H222885   4.845   2.715   1.247  0.4613 -0.8901 -0.2824
 7641TIP3   OH222886   2.502   0.860   1.644 -0.3929  0.2952  0.6229
 7641TIP3    H122887   2.582   0.912   1.652  0.1442 -0.6729  1.7314
 7641TIP3    H222888   2.456   0.900   1.570 -0.0969  2.4492  1.5333
 7642TIP3   OH222889   6.271   2.353   5.756 -0.1767 -0.4598  0.4444
 7642TIP3    H122890   6.253   2.261   5.777 -0.0139 -0.4953  0.4260
 7642TIP3    H222891   6.364   2.365   5.775 -0.8146  0.5520  3.5593
 7643TIP3   OH222892   5.908   1.425   3.428 -0.2310  0.9318 -0.2623
 7643TIP3    H122893   5.932   1.336   3.454  0.2513  2.1721  4.3549
 7643TIP3    H222894   5.955   1.439   3.345  0.5395 -2.6860 -0.5997
 7644TIP3   OH222895   1.887   6.478   4.453  0.5237 -0.6734  0.5140
 7644TIP3    H122896   1.911   6.570   4.465  0.0076 -0.4012 -0.4631
 7644TIP3    H222897   1.941   6.431   4.518 -0.0103  0.4093  1.8008
 7645TIP3   OH222898   1.292   4.500   5.060  0.0081  0.3923  0.4474
 7645TIP3    H122899   1.197   4.503   5.051  0.0833 -0.6261 -1.0409
 7645TIP3    H222900   1.318   4.421   5.013  1.6611  1.0445  0.1943
 7646TIP3   OH222901   2.606   5.281   0.646  0.0019 -0.0430 -0.6390
 7646TIP3    H122902   2.680   5.296   0.586 -0.3004  0.6396 -0.8417
 7646TIP3    H222903   2.599   5.185   0.650  1.0422 -0.1267 -0.4367
 7647TIP3   OH222904   0.464   0.658   0.566 -0.5628 -0.0738  0.0006
 7647TIP3    H122905   0.373   0.629   0.575 -0.5669 -0.0313  0.0870
 7647TIP3    H222906   0.510   0.617   0.639 -0.2150 -1.3153 -0.8634
 7648TIP3   OH222907   4.608   2.546   2.310 -0.3622  0.1598 -0.1626
 7648TIP3    H122908   4.528   2.497   2.328 -0.5345  1.1886  2.1681
 7648TIP3    H222909   4.578   2.631   2.277 -0.2621  0.5766  0.7896
 7649TIP3   OH222910   0.877   2.775   4.584  0.3839 -0.1476  0.4968
 7649TIP3    H122911   0.854   2.690   4.622  0.9518  0.2842  1.8666
 7649TIP3    H222912   0.946   2.808   4.640  0.4639  1.0487 -0.2767
 7650TIP3   OH222913   0.396   5.583   3.181 -0.3796 -0.2114  0.6586
 7650TIP3    H122914   0.413   5.633   3.261 -1.4547  0.1847  0.6655
 7650TIP3    H222915   0.347   5.507   3.211  0.4313 -0.7882  0.5338
 7651TIP3   OH222916   5.733   5.220   3.412  0.0399 -0.9774  0.0119
 7651TIP3    H122917   5.795   5.177   3.353  1.5622  0.6327  0.3297
 7651TIP3    H222918   5.702   5.296   3.363  2.0328  0.9103  1.4898
 7652TIP3   OH222919   7.191   2.661   5.175  0.5316 -0.2843 -0.0527
 7652TIP3    H122920   7.156   2.720   5.108 -0.3371 -0.1247  0.5241
 7652TIP3    H222921   7.242   2.718   5.232 -0.1918 -0.1051  0.4242
 7653TIP3   OH222922   0.492   3.822   1.927 -0.0899  0.2628  0.1113
 7653TIP3    H122923   0.569   3.877   1.915  0.8430 -1.1127 -0.4264
 7653TIP3    H222924   0.514   3.765   2.001 -1.3147  1.0072  1.1148
 7654TIP3   OH222925   4.823   2.657   3.243 -0.6687  0.5496 -0.0615
 7654TIP3    H122926   4.874   2.579   3.221 -0.8215  0.2821  0.4989
 7654TIP3    H222927   4.880   2.708   3.300 -0.6350  0.7599 -0.2859
 7655TIP3   OH222928   0.835   1.456   1.989  1.0491  0.5980 -0.1306
 7655TIP3    H122929   0.847   1.486   1.899  0.5970  0.3784 -0.2632
 7655TIP3    H222930   0.743   1.433   1.995  0.6310  2.3521  0.9205
 7656TIP3   OH222931   4.217   6.552   1.128 -0.2519  0.5764  0.6458
 7656TIP3    H122932   4.156   6.607   1.081  1.5057  1.7446 -0.3622
 7656TIP3    H222933   4.304   6.583   1.102  0.8272  0.0914  3.2542
 7657TIP3   OH222934   6.731   2.462   4.719  0.2986  0.3347  0.1425
 7657TIP3    H122935   6.725   2.553   4.748 -1.3324  0.7920 -1.4150
 7657TIP3    H222936   6.771   2.467   4.633  0.3082 -0.4375  0.0959
 7658TIP3   OH222937   7.130   1.802   5.261  0.2464 -0.0658  0.1287
 7658TIP3    H122938   7.151   1.857   5.336 -1.2908 -0.3733  0.8115
 7658TIP3    H222939   7.127   1.713   5.295 -3.3288  0.0367  0.4577
 7659TIP3   OH222940   6.725   1.039   2.159 -0.2564  0.5467  0.0871
 7659TIP3    H122941   6.639   1.033   2.202 -0.7381  0.7523 -0.7997
 7659TIP3    H222942   6.713   1.108   2.093  0.8351  1.1344  0.4809
 7660TIP3   OH222943   6.295   3.282   0.676 -0.0799  0.1185  1.2492
 7660TIP3    H122944   6.343   3.355   0.716  1.0618  0.1245 -0.0421
 7660TIP3    H222945   6.312   3.291   0.582  1.0334 -2.4303  1.1234
 7661TIP3   OH222946   5.298   3.355   4.318  0.4460 -0.1986  0.4850
 7661TIP3    H122947   5.244   3.337   4.241 -0.2850  0.8904  0.7197
 7661TIP3    H222948   5.380   3.388   4.282  0.6472 -1.0554  0.1433
 7662TIP3   OH222949   6.484   1.715   0.563 -0.5969 -0.1804  0.2664
 7662TIP3    H122950   6.425   1.651   0.602  0.6825 -0.5682  1.6498
 7662TIP3    H222951   6.566   1.705   0.611 -0.0796  1.8861 -0.0873
 7663TIP3   OH222952   2.718   0.448   1.891  0.3053 -0.1259 -0.2353
 7663TIP3    H122953   2.693   0.510   1.823  0.9121 -1.0117 -1.2975
 7663TIP3    H222954   2.780   0.495   1.946 -2.5325  1.6923  1.6934
 7664TIP3   OH222955   4.583   2.937   3.390  0.0134  0.1888 -0.3828
 7664TIP3    H122956   4.668   2.972   3.364 -0.0689  1.8727  1.3992
 7664TIP3    H222957   4.525   3.013   3.390 -1.2565 -0.7489 -0.5379
 7665TIP3   OH222958   7.003   6.091   5.612 -0.3035 -0.1643  0.1465
 7665TIP3    H122959   6.932   6.078   5.675 -0.0813 -1.0389  0.2293
 7665TIP3    H222960   7.055   6.162   5.649  0.4332 -1.3602  1.5447
 7666TIP3   OH222961   5.017   4.840   5.772  0.0727  0.2417  0.5047
 7666TIP3    H122962   4.924   4.817   5.774 -0.1515  1.0983  0.1917
 7666TIP3    H222963   5.060   4.767   5.816 -0.8140  0.1819  1.3037
 7667TIP3   OH222964   5.502   4.844   4.575  0.1174 -0.2585  0.6310
 7667TIP3    H122965   5.519   4.856   4.481  0.0742 -0.3956  0.6060
 7667TIP3    H222966   5.422   4.793   4.579 -1.2817  1.8321  0.7680
 7668TIP3   OH222967   6.966   1.811   3.033 -0.3644 -0.6885 -0.4950
 7668TIP3    H122968   7.053   1.810   2.993 -0.7267  0.1285 -1.3090
 7668TIP3    H222969   6.984   1.804   3.127  0.6952  1.3585 -0.4939
 7669TIP3   OH222970   0.952   0.747   4.309  0.2625  0.1643  0.1594
 7669TIP3    H122971   0.882   0.812   4.310 -0.3960 -0.5064 -0.7986
 7669TIP3    H222972   1.018   0.782   4.369 -0.2834  1.4727  0.0318
 7670TIP3   OH222973   1.403   0.099   4.877 -0.4773  0.5782 -0.4085
 7670TIP3    H122974   1.446   0.031   4.825 -2.0302 -0.0624 -0.9053
 7670TIP3    H222975   1.370   0.054   4.954  1.3155  1.4218  0.9273
 7671TIP3   OH222976   5.346   1.050   4.322  0.2001  0.1516  0.7009
 7671TIP3    H122977   5.425   1.078   4.275  0.1626 -1.0827 -0.1383
 7671TIP3    H222978   5.286   1.022   4.252 -0.9687  1.0049  1.3271
 7672TIP3   OH222979   0.703   1.274   1.414  0.2073 -0.2167 -0.6249
 7672TIP3    H122980   0.648   1.201   1.441 -1.5612  1.6052  0.9620
 7672TIP3    H222981   0.644   1.349   1.409  2.3878  1.6968  0.3918
 7673TIP3   OH222982   2.290   2.461   5.695 -0.1985 -0.4922 -0.4415
 7673TIP3    H122983   2.256   2.373   5.682  0.8527 -1.0018  0.0767
 7673TIP3    H222984   2.303   2.496   5.607 -2.1152 -0.2280 -0.6504
 7674TIP3   OH222985   1.148   5.128   1.617  0.0534  1.5309 -0.4744
 7674TIP3    H122986   1.084   5.198   1.619 -1.1189  0.4946  0.4931
 7674TIP3    H222987   1.206   5.146   1.691  1.1796  2.6928 -1.5939
 7675TIP3   OH222988   4.100   0.923   2.183 -0.4253 -0.4380 -0.4029
 7675TIP3    H122989   4.134   0.863   2.117 -1.3881 -1.1266 -0.2971
 7675TIP3    H222990   4.159   0.914   2.258 -1.3700 -2.3953  0.1777
 7676TIP3   OH222991   1.074   2.705   4.039 -0.4112 -0.5109  0.0703
 7676TIP3    H122992   1.008   2.638   4.020 -1.3838  0.4567 -0.0461
 7676TIP3    H222993   1.041   2.784   3.997  0.9711 -0.0573 -0.2195
 7677TIP3   OH222994   7.009   3.212   4.856  0.3948  0.1234  0.2850
 7677TIP3    H122995   6.978   3.288   4.806 -2.8026 -2.4447 -2.0801
 7677TIP3    H222996   6.976   3.226   4.944  0.3839  1.7050  0.0637
 7678TIP3   OH222997   1.987   0.346   3.515  0.3228 -0.6366 -0.3901
 7678TIP3    H122998   1.894   0.365   3.527  0.1695 -1.2007 -0.6137
 7678TIP3    H222999   2.011   0.295   3.592  0.6087  0.0421 -0.0248
 7679TIP3   OH223000   1.766   6.444   5.142 -0.5089  0.4807  0.7945
 7679TIP3    H123001   1.757   6.356   5.180 -0.9969  0.2290  0.1126
 7679TIP3    H223002   1.752   6.431   5.048  2.2882  0.8032  0.2188
 7680TIP3   OH223003   5.065   2.794   4.864 -0.0246 -0.1366  0.5824
 7680TIP3    H123004   4.993   2.757   4.914  1.3273 -0.4272  2.4493
 7680TIP3    H223005   5.053   2.889   4.871 -0.3441 -0.1869  0.7147
 7681TIP3   OH223006   3.585   0.250   4.274  0.4604 -0.3972  0.2764
 7681TIP3    H123007   3.572   0.339   4.307 -1.5240  0.2539 -1.9547
 7681TIP3    H223008   3.543   0.194   4.339 -1.3322  0.6381  0.0788
 7682TIP3   OH223009   5.912   4.196   3.512 -0.2796 -0.1185  0.2796
 7682TIP3    H123010   5.880   4.219   3.599 -1.1744 -0.6038  0.0841
 7682TIP3    H223011   5.981   4.131   3.528 -0.4319 -0.1943  0.6208
 7683TIP3   OH223012   4.420   5.066   2.795 -0.9547 -0.4359  0.1446
 7683TIP3    H123013   4.398   4.993   2.737 -0.3799 -1.9223  1.6994
 7683TIP3    H223014   4.419   5.028   2.883  1.8314  0.8199  0.8276
 7684TIP3   OH223015   1.417   1.041   3.786 -0.0303 -0.6767 -0.1608
 7684TIP3    H123016   1.339   1.024   3.733  0.3724 -0.2268 -0.9161
 7684TIP3    H223017   1.398   0.999   3.870 -1.2085 -0.3251 -0.2256
 7685TIP3   OH223018   5.245   3.405   0.283 -0.3169 -0.3063 -0.5920
 7685TIP3    H123019   5.313   3.338   0.289 -0.1229  0.0117  1.9041
 7685TIP3    H223020   5.178   3.378   0.346  0.0349  2.0318  0.9518
 7686TIP3   OH223021   3.148   6.749   3.729  0.0396  0.4251 -0.3941
 7686TIP3    H123022   3.099   6.826   3.760  0.9729  0.8462  0.0625
 7686TIP3    H223023   3.228   6.785   3.692  0.9993 -0.3796  0.8188
 7687TIP3   OH223024   2.190   5.325   3.568  0.4671 -0.7285  0.0782
 7687TIP3    H123025   2.170   5.417   3.547  1.4217 -0.8585 -1.5520
 7687TIP3    H223026   2.159   5.276   3.492  2.3745 -1.4604 -0.2612
 7688TIP3   OH223027   7.199   1.686   3.341  0.3484  0.3477 -0.3152
 7688TIP3    H123028   7.135   1.751   3.310 -2.2192 -2.2147 -0.8059
 7688TIP3    H223029   7.218   1.713   3.431  0.2956  2.4137 -0.8766
 7689TIP3   OH223030   6.628   6.518   0.472 -0.0501 -0.2108  0.0442
 7689TIP3    H123031   6.586   6.437   0.444  0.3395 -0.9721  1.5685
 7689TIP3    H223032   6.567   6.556   0.535  1.0081 -0.7776  1.4630
 7690TIP3   OH223033   5.151   1.219   0.623 -0.4232 -0.0446 -0.4170
 7690TIP3    H123034   5.094   1.245   0.550 -0.1188  0.2124 -0.5621
 7690TIP3    H223035   5.235   1.199   0.581 -0.1252  0.5061 -0.0885
 7691TIP3   OH223036   3.415   1.766   2.247 -0.5437 -0.2841 -0.5147
 7691TIP3    H123037   3.498   1.813   2.247 -0.6276 -0.1300 -0.0566
 7691TIP3    H223038   3.397   1.748   2.155 -0.0871 -0.1688 -0.6249
 7692TIP3   OH223039   2.576   0.880   1.221  0.2182 -0.4138 -0.1218
 7692TIP3    H123040   2.627   0.952   1.185 -0.9272  1.3218  1.5275
 7692TIP3    H223041   2.639   0.808   1.231  1.5317  0.5315 -1.2023
 7693TIP3   OH223042   6.972   0.749   5.194 -0.0336 -0.2114  0.0854
 7693TIP3    H123043   6.892   0.779   5.152  0.1929  1.5467  0.8312
 7693TIP3    H223044   6.996   0.669   5.147 -0.8536  0.6054 -1.7808
 7694TIP3   OH223045   6.529   4.247   2.181 -0.5983 -0.1537  0.4162
 7694TIP3    H123046   6.529   4.151   2.179  0.4378 -0.1631  0.0093
 7694TIP3    H223047   6.438   4.271   2.201 -1.1648 -1.2003 -0.7550
 7695TIP3   OH223048   4.469   3.280   2.011 -0.0109  0.7745 -0.1475
 7695TIP3    H123049   4.395   3.327   1.971  0.1598  0.6961 -0.5634
 7695TIP3    H223050   4.542   3.296   1.951  0.0451 -0.0445 -0.3077
 7696TIP3   OH223051   4.184   2.723   0.082 -0.6579 -0.1776 -0.2918
 7696TIP3    H123052   4.191   2.715   0.177  0.9729 -1.1719 -0.4551
 7696TIP3    H223053   4.095   2.695   0.062 -0.6087 -1.2147  0.8366
 7697TIP3   OH223054   2.988   5.683   1.858 -0.3699  0.1811 -0.3583
 7697TIP3    H123055   3.021   5.716   1.942  0.1005 -1.9773  0.3633
 7697TIP3    H223056   3.053   5.710   1.794  0.2390  0.2444  0.2739
 7698TIP3   OH223057   4.968   2.341   1.253  0.3728  0.3781  0.2905
 7698TIP3    H123058   4.908   2.294   1.311  2.3492 -0.9725  1.3260
 7698TIP3    H223059   4.958   2.298   1.168 -1.0504  1.0497  0.0856
 7699TIP3   OH223060   3.062   4.659   0.646  0.1103  0.1085  0.2765
 7699TIP3    H123061   3.064   4.571   0.609  0.8375  0.5120 -0.6675
 7699TIP3    H223062   3.103   4.714   0.580  0.8837  0.9479  1.4275
 7700TIP3   OH223063   5.828   4.120   0.578  0.0322  0.0552  0.4268
 7700TIP3    H123064   5.770   4.174   0.631 -0.2459 -0.0439  0.2244
 7700TIP3    H223065   5.911   4.169   0.575 -0.5338  0.9980 -0.6356
 7701TIP3   OH223066   2.730   3.796   0.353 -0.2589 -0.0949  0.0598
 7701TIP3    H123067   2.734   3.873   0.409  0.4285  0.5173 -0.8074
 7701TIP3    H223068   2.636   3.777   0.346 -0.6207  1.8925 -1.3110
 7702TIP3   OH223069   1.615   5.805   5.849  0.2168 -0.4275 -0.1664
 7702TIP3    H123070   1.690   5.862   5.833 -0.5181  1.0416  1.3115
 7702TIP3    H223071   1.594   5.768   5.764  2.8398 -1.2168 -0.5675
 7703TIP3   OH223072   4.886   6.538   2.282  0.1158  0.7945  0.3806
 7703TIP3    H123073   4.792   6.535   2.298  0.3005  1.2661  1.6916
 7703TIP3    H223074   4.898   6.491   2.200 -1.2180  0.4035  0.3885
 7704TIP3   OH223075   4.139   1.860   5.720 -0.4154 -0.7199 -0.4145
 7704TIP3    H123076   4.052   1.884   5.688 -0.7665 -1.0573  0.2455
 7704TIP3    H223077   4.172   1.941   5.760 -0.9951 -0.9258  0.5224
 7705TIP3   OH223078   1.490   4.981   5.680  0.6001  0.9854  0.5571
 7705TIP3    H123079   1.426   4.935   5.734  2.1044 -1.9090  0.0523
 7705TIP3    H223080   1.437   5.019   5.609 -0.5768 -2.5209 -0.6604
 7706TIP3   OH223081   6.523   5.155   0.744 -0.4959  0.0536  0.5401
 7706TIP3    H123082   6.488   5.071   0.713 -2.2903  1.1215 -0.5370
 7706TIP3    H223083   6.549   5.138   0.834  0.9336 -2.1062 -0.1944
 7707TIP3   OH223084   4.757   6.685   0.223  0.2225  0.0883 -0.0874
 7707TIP3    H123085   4.714   6.771   0.227  0.1888  0.0253  1.0762
 7707TIP3    H223086   4.767   6.668   0.129 -0.1471  1.1751 -0.3375
 7708TIP3   OH223087   3.447   0.684   5.058 -0.0983 -0.2168  0.7004
 7708TIP3    H123088   3.492   0.646   4.982  0.9429 -0.9570  1.6691
 7708TIP3    H223089   3.423   0.772   5.029 -0.3097 -0.7025 -0.7095
 7709TIP3   OH223090   0.724   2.268   5.480 -0.2133 -0.0014 -0.1999
 7709TIP3    H123091   0.673   2.247   5.558 -1.9114 -0.6945 -1.4471
 7709TIP3    H223092   0.812   2.235   5.500 -0.4889  0.2486  1.5752
 7710TIP3   OH223093   1.227   2.323   5.457  0.3503  1.1555 -0.2749
 7710TIP3    H123094   1.220   2.351   5.548 -2.6402  0.4163 -0.1813
 7710TIP3    H223095   1.221   2.404   5.406 -0.8434  1.3653  0.1608
 7711TIP3   OH223096   2.818   1.251   2.989 -0.0141  0.2295 -0.4239
 7711TIP3    H123097   2.743   1.192   2.987 -0.2406  0.5454 -1.6516
 7711TIP3    H223098   2.808   1.298   3.073 -0.6891 -0.3609 -0.1644
 7712TIP3   OH223099   3.719   5.539   5.841  0.2514 -0.0194 -0.3901
 7712TIP3    H123100   3.801   5.531   5.793  0.3988  3.1933 -0.8881
 7712TIP3    H223101   3.744   5.527   5.933  0.6796 -2.1448 -0.7520
 7713TIP3   OH223102   6.113   1.761   1.857 -0.5754  0.1208  0.0983
 7713TIP3    H123103   6.161   1.843   1.842  0.2250 -0.2780  0.3970
 7713TIP3    H223104   6.143   1.703   1.786  0.1953 -0.4687  0.8759
 7714TIP3   OH223105   2.446   2.068   0.693  0.2892 -0.1892  0.2153
 7714TIP3    H123106   2.529   2.060   0.740  0.1614 -0.6075  0.3744
 7714TIP3    H223107   2.405   2.147   0.729 -0.3005 -1.0861  1.5990
 7715TIP3   OH223108   6.018   0.107   2.460 -0.1757 -0.7662  0.6518
 7715TIP3    H123109   5.931   0.085   2.494 -0.3639 -0.7307  0.1936
 7715TIP3    H223110   6.039   0.037   2.399 -0.1149 -0.4931  0.3543
 7716TIP3   OH223111   5.916   5.800   3.257  0.2350 -0.1006 -0.4503
 7716TIP3    H123112   5.845   5.815   3.319 -0.0899 -0.4666 -0.7287
 7716TIP3    H223113   5.965   5.882   3.256  0.7325 -0.3678  0.9033
 7717TIP3   OH223114   5.092   5.717   0.947 -0.3605  0.4337  0.3406
 7717TIP3    H123115   5.001   5.693   0.930 -0.2242  0.4371 -0.4182
 7717TIP3    H223116   5.141   5.683   0.873  0.4778 -0.7946  1.4056
 7718TIP3   OH223117   1.141   3.346   4.255  1.0705  0.8348 -0.3573
 7718TIP3    H123118   1.201   3.332   4.328  0.7543 -0.0496 -0.2609
 7718TIP3    H223119   1.137   3.262   4.209 -0.6071  0.6513  0.0356
 7719TIP3   OH223120   1.869   0.762   1.222  0.2530  0.1713  0.9286
 7719TIP3    H123121   1.954   0.775   1.182  0.0787  1.0496  0.8210
 7719TIP3    H223122   1.834   0.851   1.234 -2.6799 -0.1201 -3.3559
 7720TIP3   OH223123   5.383   2.885   0.496 -0.0519 -0.4285 -0.6186
 7720TIP3    H123124   5.336   2.815   0.451 -1.4604  0.3568 -0.4209
 7720TIP3    H223125   5.338   2.894   0.580  1.1014 -0.3304  0.0080
 7721TIP3   OH223126   5.770   4.045   5.495  0.2714 -0.3873 -0.0490
 7721TIP3    H123127   5.677   4.025   5.506  0.0203  0.3539 -0.7248
 7721TIP3    H223128   5.816   3.971   5.536 -0.6081 -0.6527  0.4752
 7722TIP3   OH223129   1.816   1.796   1.511 -0.2806 -0.0927 -0.3706
 7722TIP3    H123130   1.722   1.788   1.494 -0.3253  1.0448 -0.7621
 7722TIP3    H223131   1.826   1.776   1.604 -1.1339  1.2622  0.0390
 7723TIP3   OH223132   4.581   4.525   1.650  0.1986 -0.3456  0.6819
 7723TIP3    H123133   4.486   4.511   1.648  0.3189 -1.1797 -0.2581
 7723TIP3    H223134   4.592   4.620   1.646 -0.5997 -0.2833 -1.4049
 7724TIP3   OH223135   4.555   2.199   4.811 -0.2216 -0.1729 -0.4350
 7724TIP3    H123136   4.576   2.111   4.782  1.7234  0.2966 -0.5912
 7724TIP3    H223137   4.522   2.243   4.732 -1.7262 -0.8678 -0.2337
 7725TIP3   OH223138   0.806   1.976   4.409  0.5269 -0.0223  0.2456
 7725TIP3    H123139   0.837   1.905   4.352 -0.8912 -0.2825 -0.2499
 7725TIP3    H223140   0.770   2.040   4.349 -2.1828 -0.8794  0.8317
 7726TIP3   OH223141   1.095   1.104   5.684  0.1720 -0.4725 -0.3323
 7726TIP3    H123142   1.078   1.055   5.765 -0.6480  0.0646 -0.1621
 7726TIP3    H223143   1.095   1.196   5.711 -0.1376 -0.2880 -0.9417
 7727TIP3   OH223144   2.924   6.421   5.605 -0.8808 -0.1604  0.4966
 7727TIP3    H123145   2.946   6.484   5.536 -2.7707  0.6824  0.5940
 7727TIP3    H223146   2.908   6.339   5.558 -0.6598  0.0135  0.1115
 7728TIP3   OH223147   2.964   2.114   2.351 -0.5926 -0.2670 -0.5755
 7728TIP3    H123148   2.956   2.063   2.432 -0.3949  0.6644  0.0491
 7728TIP3    H223149   3.052   2.094   2.319 -0.2132  0.2692  0.0955
 7729TIP3   OH223150   0.157   6.434   2.008  0.2101 -0.2931  0.3714
 7729TIP3    H123151   0.242   6.479   2.001  0.6102 -1.0557  0.2140
 7729TIP3    H223152   0.146   6.419   2.102  0.4748 -0.5959  0.3574
 7730TIP3   OH223153   0.020   5.858   5.366 -0.1408 -0.0144 -0.2895
 7730TIP3    H123154  -0.020   5.899   5.443 -1.8858  1.1716 -1.7576
 7730TIP3    H223155   0.078   5.925   5.330  2.4835 -1.3176  1.1395
 7731TIP3   OH223156   1.690   3.683   0.850  0.6617 -0.0781 -0.4181
 7731TIP3    H123157   1.625   3.747   0.879  2.6276  0.9902  1.9940
 7731TIP3    H223158   1.663   3.601   0.891 -0.1867 -0.1278 -1.0363
 7732TIP3   OH223159   1.164   0.154   1.274  0.3689 -0.6584  0.0309
 7732TIP3    H123160   1.085   0.106   1.250 -0.5916  1.3078 -0.9342
 7732TIP3    H223161   1.140   0.201   1.354  0.4042  0.2579 -0.4853
 7733TIP3   OH223162   3.098   0.824   2.046 -0.0115  0.7334 -0.1426
 7733TIP3    H123163   3.172   0.826   1.986  0.2526 -1.3124  0.0345
 7733TIP3    H223164   3.044   0.899   2.020  0.3424  0.2138 -2.6131
 7734TIP3   OH223165   1.573   5.470   0.019  0.5850 -0.3356 -0.3159
 7734TIP3    H123166   1.497   5.518   0.052 -0.7657 -3.5254  1.6949
 7734TIP3    H223167   1.548   5.444  -0.069 -0.9666 -1.7142  0.4705
 7735TIP3   OH223168   6.674   6.392   5.820  0.2266  0.0875 -0.7783
 7735TIP3    H123169   6.586   6.411   5.853 -1.0535 -2.3522 -2.4858
 7735TIP3    H223170   6.700   6.312   5.867  1.2794  0.4064 -0.7848
 7736TIP3   OH223171   5.474   1.881   5.525  0.0720  0.2352  0.4268
 7736TIP3    H123172   5.401   1.821   5.543 -0.7533  1.3010  0.7073
 7736TIP3    H223173   5.552   1.830   5.546 -0.6354 -0.5448  1.2317
 7737TIP3   OH223174   1.448   5.742   2.646  0.3412 -0.1151  0.0586
 7737TIP3    H123175   1.436   5.685   2.722 -0.7594 -1.3528 -0.9843
 7737TIP3    H223176   1.492   5.687   2.581 -3.2540 -0.8684 -2.0102
 7738TIP3   OH223177   2.588   5.637   0.494  0.7070 -0.3025  0.2261
 7738TIP3    H123178   2.561   5.639   0.586 -0.7042 -0.4559 -0.1605
 7738TIP3    H223179   2.655   5.706   0.488  1.3992 -0.8104  1.5162
 7739TIP3   OH223180   1.306   3.050   3.107  0.0520 -0.0394  0.2854
 7739TIP3    H123181   1.358   3.011   3.037  1.2626  0.3444  0.9485
 7739TIP3    H223182   1.359   3.038   3.186 -1.0924 -0.0756  1.0642
 7740TIP3   OH223183   4.273   4.849   2.328 -0.1076  0.8033  0.9599
 7740TIP3    H123184   4.292   4.895   2.410 -3.5727  0.1743  2.2766
 7740TIP3    H223185   4.205   4.786   2.351  0.5573 -1.1614 -1.9493
 7741TIP3   OH223186   4.805   5.301   5.393 -0.1049 -0.6172  0.0277
 7741TIP3    H123187   4.756   5.335   5.318 -0.8367 -1.4441  0.1161
 7741TIP3    H223188   4.782   5.359   5.465 -0.1234 -0.3740 -0.1727
 7742TIP3   OH223189   6.246   4.132   4.897 -0.2806 -0.3746  0.3995
 7742TIP3    H123190   6.233   4.115   4.990 -0.7180  0.1241  0.4404
 7742TIP3    H223191   6.223   4.050   4.854  0.1773 -0.6882  0.7470
 7743TIP3   OH223192   4.988   4.043   4.214 -0.2043  0.1986 -0.7159
 7743TIP3    H123193   5.011   3.997   4.295  0.2052  0.2524 -0.7966
 7743TIP3    H223194   5.072   4.077   4.182 -0.5201  1.1243 -0.5819
 7744TIP3   OH223195   5.216   6.702   1.036 -0.2210 -0.5546  0.1089
 7744TIP3    H123196   5.157   6.764   0.993  0.4564 -0.5689 -0.8898
 7744TIP3    H223197   5.225   6.735   1.125 -3.1171 -1.5248  0.8750
 7745TIP3   OH223198   3.453   3.757   0.292  0.2121 -0.2524 -0.2182
 7745TIP3    H123199   3.464   3.803   0.208 -0.2901 -0.0155 -0.1601
 7745TIP3    H223200   3.464   3.825   0.358 -3.4459  0.5190 -0.1679
 7746TIP3   OH223201   1.556   6.105   3.694 -0.1795  0.1037 -0.5096
 7746TIP3    H123202   1.569   6.084   3.602 -1.8937  1.0653 -1.0162
 7746TIP3    H223203   1.508   6.031   3.730  1.7687 -0.9747  0.0456
 7747TIP3   OH223204   4.085   3.077   3.057 -0.0478  0.1444 -0.3548
 7747TIP3    H123205   4.025   3.079   2.982 -1.7128  0.8523  0.9452
 7747TIP3    H223206   4.137   3.157   3.047  0.0795 -0.0093 -0.9973
 7748TIP3   OH223207   0.813   4.522   2.289 -0.7008 -0.2116  0.4570
 7748TIP3    H123208   0.868   4.466   2.236 -1.8811 -1.9959  1.0246
 7748TIP3    H223209   0.747   4.556   2.228 -1.9781 -2.1558  0.6466
 7749TIP3   OH223210   1.463   6.086   2.783  0.4750  0.4835  0.2816
 7749TIP3    H123211   1.400   6.016   2.768  0.2785  0.7858 -0.3585
 7749TIP3    H223212   1.435   6.156   2.723  1.4517  0.6015 -0.0439
 7750TIP3   OH223213   1.533   4.422   1.673 -0.5634 -0.3626 -0.1023
 7750TIP3    H123214   1.448   4.387   1.646 -0.8933  0.8392 -0.7124
 7750TIP3    H223215   1.527   4.431   1.768 -0.2123 -2.5460  0.1670
 7751TIP3   OH223216   5.941   1.553   3.821 -0.0178 -0.0482  0.2321
 7751TIP3    H123217   5.991   1.488   3.870  0.9668 -0.9002 -1.7810
 7751TIP3    H223218   5.901   1.608   3.888  0.4598 -1.7104  1.9811
 7752TIP3   OH223219   6.672   0.878   4.114  0.1334  0.6760  0.1190
 7752TIP3    H123220   6.601   0.907   4.171 -0.4938  2.0103 -1.2695
 7752TIP3    H223221   6.664   0.933   4.036  2.6287  0.8062 -0.1272
 7753TIP3   OH223222   6.114   3.403   4.444  0.3900 -0.6068 -0.3917
 7753TIP3    H123223   6.126   3.308   4.446  0.9912 -0.6459 -2.9236
 7753TIP3    H223224   6.195   3.438   4.481  1.5056 -1.0956 -2.2634
 7754TIP3   OH223225   3.139   0.960   3.550  0.6398  0.5682 -0.0983
 7754TIP3    H123226   3.154   1.034   3.492  1.4996  0.4427 -0.0392
 7754TIP3    H223227   3.070   0.990   3.610  0.4228  1.0283 -0.5769
 7755TIP3   OH223228   7.184   0.969   5.065 -0.3934  0.2296  0.1931
 7755TIP3    H123229   7.138   0.889   5.092  0.4820 -0.4758 -0.3502
 7755TIP3    H223230   7.276   0.948   5.076 -0.1536  1.2222  0.1496
 7756TIP3   OH223231   0.593   3.440   3.937 -0.7644 -0.1920 -0.5070
 7756TIP3    H123232   0.572   3.468   3.848  1.0892  0.6428 -0.7263
 7756TIP3    H223233   0.687   3.456   3.946 -0.8692 -0.4413  1.5459
 7757TIP3   OH223234   3.180   2.840   0.376  0.4245  0.1358 -0.0267
 7757TIP3    H123235   3.105   2.899   0.363  0.7551  1.5110  3.2452
 7757TIP3    H223236   3.245   2.894   0.422  1.7734 -2.1009  0.8458
 7758TIP3   OH223237   5.284   4.030   4.158  0.2397  0.3362  0.0578
 7758TIP3    H123238   5.302   4.031   4.064 -1.5178 -0.4688 -0.3389
 7758TIP3    H223239   5.274   4.123   4.181  0.3135  0.5239 -0.6444
 7759TIP3   OH223240   2.996   5.161   5.026  0.4168 -0.6000  0.1960
 7759TIP3    H123241   3.081   5.175   4.984 -0.7103  1.3929 -1.6956
 7759TIP3    H223242   2.933   5.165   4.953 -1.4686  0.5924  1.7875
 7760TIP3   OH223243   6.148   4.566   5.351  0.4748 -0.0458 -0.6375
 7760TIP3    H123244   6.208   4.493   5.335  0.0504 -0.0173 -2.6386
 7760TIP3    H223245   6.197   4.626   5.407  2.2579 -0.1469 -1.9909
 7761TIP3   OH223246   0.574   0.328   2.572 -0.6430  0.0711 -0.3227
 7761TIP3    H123247   0.520   0.405   2.589 -0.1266  0.4168 -0.2403
 7761TIP3    H223248   0.518   0.254   2.596 -0.2651  0.4949  2.0881
 7762TIP3   OH223249   4.680   6.613   5.488 -0.2514 -0.5571 -0.0189
 7762TIP3    H123250   4.644   6.697   5.516  1.2782 -0.4206  1.7484
 7762TIP3    H223251   4.707   6.628   5.397  0.9028  1.2246  0.5532
 7763TIP3   OH223252   0.070   0.442   2.049 -0.2710 -0.5726 -0.1726
 7763TIP3    H123253  -0.013   0.394   2.040 -0.0545 -0.7624 -1.3370
 7763TIP3    H223254   0.135   0.374   2.067 -0.1936 -0.5608 -0.4004
 7764TIP3   OH223255   3.355   1.031   4.777 -0.2953  0.3685  0.1565
 7764TIP3    H123256   3.310   1.113   4.793 -0.5549  0.2307  0.1465
 7764TIP3    H223257   3.362   0.989   4.863 -1.4397 -0.2436 -0.0369
 7765TIP3   OH223258   2.109   6.144   3.517  0.2718  0.1612 -0.2252
 7765TIP3    H123259   2.086   6.200   3.591 -2.4297 -0.4265 -0.5215
 7765TIP3    H223260   2.119   6.057   3.555 -0.2421  0.0159 -0.4204
 7766TIP3   OH223261   5.149   3.286   2.483 -0.1565  0.2485 -0.0216
 7766TIP3    H123262   5.182   3.368   2.447 -0.4361  0.8504  1.0290
 7766TIP3    H223263   5.120   3.309   2.572 -1.6794 -0.6416 -0.2420
 7767TIP3   OH223264   4.884   0.238   0.983  0.1043  0.5930 -0.3111
 7767TIP3    H123265   4.867   0.198   0.898  1.2684  1.3542 -0.9190
 7767TIP3    H223266   4.873   0.167   1.046 -0.8282  0.0365 -1.0777
 7768TIP3   OH223267   5.716   1.370   1.036 -0.4000  0.6234 -0.5348
 7768TIP3    H123268   5.711   1.368   0.940 -0.5421  0.6967 -0.5294
 7768TIP3    H223269   5.648   1.431   1.062  0.9917  2.2234 -0.4846
 7769TIP3   OH223270   0.889   5.154   0.334  0.0571  1.0169 -0.3255
 7769TIP3    H123271   0.794   5.148   0.325 -0.0963  1.2291  0.9178
 7769TIP3    H223272   0.902   5.196   0.419  1.2609  0.1774 -0.0679
 7770TIP3   OH223273   1.752   0.130   1.392  0.1866 -0.4398 -0.2039
 7770TIP3    H123274   1.661   0.159   1.385 -0.0829 -0.9792  0.8465
 7770TIP3    H223275   1.749   0.055   1.451  1.3337 -0.3898 -0.0554
 7771TIP3   OH223276   2.018   1.209   5.190  0.2094 -0.4355 -0.3957
 7771TIP3    H123277   2.053   1.145   5.252 -0.5913 -0.0722  0.4435
 7771TIP3    H223278   1.933   1.234   5.226  1.1562  2.3209  0.2204
 7772TIP3   OH223279   3.156   1.258   4.375  0.0057 -0.1017  0.1183
 7772TIP3    H123280   3.207   1.177   4.375 -0.1821 -0.2234 -0.4374
 7772TIP3    H223281   3.170   1.295   4.288  1.3037  1.2359  0.8373
 7773TIP3   OH223282   6.866   0.429   5.335 -0.2882  0.9384 -0.0178
 7773TIP3    H123283   6.874   0.517   5.371  1.9893  1.0388 -0.5946
 7773TIP3    H223284   6.867   0.441   5.240  1.2141  0.2543 -0.1140
 7774TIP3   OH223285   0.604   2.695   5.578 -0.1044  0.0107 -0.1833
 7774TIP3    H123286   0.548   2.770   5.597  1.0637  1.1823 -1.1932
 7774TIP3    H223287   0.548   2.636   5.528 -0.3260  1.4274 -1.6997
 7775TIP3   OH223288   3.370   1.797   5.044  0.1337 -0.5317  0.0676
 7775TIP3    H123289   3.442   1.739   5.069  0.6227  0.2725  0.5533
 7775TIP3    H223290   3.297   1.737   5.025  1.1742 -1.4174 -1.3481
 7776TIP3   OH223291   3.886   2.807   2.705  0.3026 -0.2217  0.5432
 7776TIP3    H123292   3.856   2.865   2.635  3.2352  2.8396  1.5834
 7776TIP3    H223293   3.871   2.855   2.786  0.4366 -2.0927  1.7629
 7777TIP3   OH223294   4.810   5.001   5.591  0.4484 -0.2830 -0.3030
 7777TIP3    H123295   4.760   5.075   5.625 -2.0150 -0.4269 -3.1949
 7777TIP3    H223296   4.805   4.934   5.659 -1.4233  0.5475  0.4154
 7778TIP3   OH223297   2.746   2.826   0.788 -0.8868 -0.2303 -0.2753
 7778TIP3    H123298   2.821   2.803   0.732 -0.6917 -1.3739  0.4158
 7778TIP3    H223299   2.749   2.921   0.795 -0.9851 -0.0383 -2.2925
 7779TIP3   OH223300   2.376   2.325   3.511 -0.2816  0.1683  0.6662
 7779TIP3    H123301   2.420   2.404   3.476  1.1053 -0.9568 -0.2588
 7779TIP3    H223302   2.405   2.320   3.602  1.7709 -0.6647  0.0165
 7780TIP3   OH223303   1.414   4.336   0.387 -0.3728 -0.3036  0.3050
 7780TIP3    H123304   1.451   4.385   0.314  0.0049 -0.2824  0.5070
 7780TIP3    H223305   1.322   4.363   0.390 -0.0661  0.7378  0.6939
 7781TIP3   OH223306   1.318   3.924   0.337  0.3339 -0.5735 -0.6476
 7781TIP3    H123307   1.311   3.897   0.429  1.5503 -0.5281 -0.5235
 7781TIP3    H223308   1.408   3.954   0.328 -0.3362  1.3982 -1.3504
 7782TIP3   OH223309   5.480   4.050   2.103 -0.1189 -0.2131  0.1879
 7782TIP3    H123310   5.516   3.962   2.112 -0.6361 -0.3099  1.5128
 7782TIP3    H223311   5.385   4.037   2.106 -0.2419  0.2589 -1.0509
 7783TIP3   OH223312   2.533   3.115   0.623  0.1880 -0.5157  0.1956
 7783TIP3    H123313   2.540   3.137   0.716  0.2484  2.3080 -0.3969
 7783TIP3    H223314   2.623   3.120   0.590  0.0665 -0.7106 -0.1797
 7784TIP3   OH223315   2.775   0.631   1.368 -0.3410  0.2710  0.7225
 7784TIP3    H123316   2.779   0.536   1.356 -0.0326  0.5917 -2.7411
 7784TIP3    H223317   2.687   0.655   1.338  0.4556  1.2699 -0.9679
 7785TIP3   OH223318   2.339   1.836   1.549 -0.3995 -0.5555 -0.0618
 7785TIP3    H123319   2.313   1.746   1.528 -1.0259 -0.7917  1.5738
 7785TIP3    H223320   2.257   1.884   1.554  0.0087  0.5069 -2.3946
 7786TIP3   OH223321   0.357   4.149   5.020 -0.7271 -0.2486 -0.3996
 7786TIP3    H123322   0.308   4.147   4.938 -1.4313 -0.5049  0.0101
 7786TIP3    H223323   0.415   4.073   5.016 -0.6532 -0.1756 -0.7197
 7787TIP3   OH223324   3.525   1.022   1.329 -0.1797  0.3439  0.0520
 7787TIP3    H123325   3.621   1.021   1.335 -0.1745 -1.7938  0.2584
 7787TIP3    H223326   3.500   1.109   1.360  1.6296  0.4714  1.2904
 7788TIP3   OH223327   2.771   5.237   1.316 -0.6351  0.5332 -0.0607
 7788TIP3    H123328   2.844   5.248   1.376 -0.0642  0.2385 -0.6902
 7788TIP3    H223329   2.760   5.142   1.309 -0.0376  0.5240 -1.1806
 7789TIP3   OH223330   0.918   2.679   0.171 -0.0345  0.4116  0.1790
 7789TIP3    H123331   0.916   2.586   0.148  0.4515  0.2676  0.7206
 7789TIP3    H223332   0.898   2.724   0.089  2.9885 -0.0349 -0.9044
 7790TIP3   OH223333   7.083   1.956   1.934  0.0250  0.1396 -0.2335
 7790TIP3    H123334   7.128   2.003   2.004  0.1282 -2.2706  1.4198
 7790TIP3    H223335   7.152   1.903   1.893 -0.6556 -0.9884  0.0564
 7791TIP3   OH223336   2.514   4.834   3.260  0.2950 -0.1470  0.1249
 7791TIP3    H123337   2.580   4.898   3.285  0.9468 -1.2112  1.1769
 7791TIP3    H223338   2.555   4.783   3.190  0.2037 -0.1904  0.1022
 7792TIP3   OH223339   0.664   4.741   3.158  0.1830  0.0883  0.0926
 7792TIP3    H123340   0.590   4.784   3.116 -0.2805 -1.0759 -0.3373
 7792TIP3    H223341   0.643   4.648   3.152  1.9436 -0.2970 -0.5185
 7793TIP3   OH223342   4.057   6.212   0.183  0.4922 -0.0354  0.3618
 7793TIP3    H123343   4.012   6.148   0.127  1.2454 -0.6351  0.4217
 7793TIP3    H223344   3.991   6.238   0.248 -0.1968  0.1919 -0.4202
 7794TIP3   OH223345   2.306   5.916   1.279 -0.3481 -0.0663  0.1879
 7794TIP3    H123346   2.219   5.877   1.289 -1.0608  1.5424  0.6170
 7794TIP3    H223347   2.289   6.010   1.276  1.4218  0.2877  0.6257
 7795TIP3   OH223348   4.625   4.720   3.369 -0.4952  0.2800 -0.3350
 7795TIP3    H123349   4.574   4.767   3.303  0.7531  0.6774 -1.0553
 7795TIP3    H223350   4.582   4.635   3.377 -0.4015  0.0427 -2.0250
 7796TIP3   OH223351   4.139   0.653   2.712 -0.3130  0.4655 -0.1173
 7796TIP3    H123352   4.065   0.626   2.766 -0.4024  0.1273 -0.4020
 7796TIP3    H223353   4.138   0.592   2.638  0.2831  0.4225 -0.0970
 7797TIP3   OH223354   0.808   3.031   2.628  0.0264 -0.4429  0.1171
 7797TIP3    H123355   0.793   3.114   2.583  1.6284  0.5882  1.3898
 7797TIP3    H223356   0.903   3.024   2.634 -0.0934 -0.8130  2.7965
 7798TIP3   OH223357   6.437   1.575   4.236 -0.0417  0.1133 -0.4214
 7798TIP3    H123358   6.528   1.548   4.223 -0.5196 -1.4424 -0.6890
 7798TIP3    H223359   6.436   1.667   4.208  1.1751 -0.2044 -1.6482
 7799TIP3   OH223360   1.489   0.661   0.013 -0.3565 -0.4071  0.1641
 7799TIP3    H123361   1.573   0.707   0.014 -0.4101 -0.2770 -0.5322
 7799TIP3    H223362   1.509   0.572   0.039  0.0671 -0.4828 -0.4142
 7800TIP3   OH223363   7.127   4.869   5.685 -0.7516 -0.3054  0.3142
 7800TIP3    H123364   7.042   4.909   5.666 -0.4252 -0.0729 -0.7105
 7800TIP3    H223365   7.189   4.941   5.679 -0.2165 -0.8374 -1.1007
 7801TIP3   OH223366   1.883   3.305   0.445 -0.1189 -0.1458 -0.0561
 7801TIP3    H123367   1.914   3.393   0.467 -0.3663  0.3708 -1.6041
 7801TIP3    H223368   1.861   3.311   0.352 -0.1627 -1.8485 -0.1756
 7802TIP3   OH223369   1.525   1.509   2.817  0.0611  0.4040  0.0521
 7802TIP3    H123370   1.577   1.489   2.895 -0.3234 -1.1064 -0.0474
 7802TIP3    H223371   1.493   1.598   2.832  0.3167  0.2887  1.4376
 7803TIP3   OH223372   1.745   3.138   1.746 -0.1749  0.1481  0.6552
 7803TIP3    H123373   1.713   3.049   1.761 -0.9809  0.4550  0.7604
 7803TIP3    H223374   1.673   3.183   1.703  0.7428  0.3593 -0.7213
 7804TIP3   OH223375   0.133   2.396   3.091  0.4136  0.3016 -0.2088
 7804TIP3    H123376   0.044   2.361   3.096  0.6652 -0.1395  1.7918
 7804TIP3    H223377   0.152   2.399   2.997 -1.1337 -1.0686 -0.6072
 7805TIP3   OH223378   3.178   1.771   3.982 -0.1962 -0.0463 -0.1738
 7805TIP3    H123379   3.220   1.699   4.028 -0.0430 -0.0169 -0.2666
 7805TIP3    H223380   3.238   1.792   3.910 -1.3003 -1.3134 -1.5160
 7806TIP3   OH223381   6.360   4.705   2.970 -0.4118  0.0074  0.4885
 7806TIP3    H123382   6.316   4.774   3.020 -2.3215 -2.3891  2.3760
 7806TIP3    H223383   6.338   4.624   3.017  0.2551 -2.0972 -2.5504
 7807TIP3   OH223384   3.960   2.228   2.307  0.4073 -0.3159  0.0142
 7807TIP3    H123385   3.922   2.234   2.395 -1.0823 -2.1733 -0.4227
 7807TIP3    H223386   4.042   2.180   2.320  0.0429 -0.8587  0.3840
 7808TIP3   OH223387   2.517   6.218   1.454 -0.1848 -0.2086 -0.5322
 7808TIP3    H123388   2.543   6.128   1.475  0.0561  0.4033  2.0863
 7808TIP3    H223389   2.475   6.250   1.534  2.5487  3.0538 -0.2060
 7809TIP3   OH223390   6.731   1.424   1.747  0.6291  0.1418  0.2515
 7809TIP3    H123391   6.687   1.440   1.663  0.1378  1.3011  0.7144
 7809TIP3    H223392   6.670   1.457   1.813  1.0700 -0.6291  1.0666
 7810TIP3   OH223393   3.891   1.023   3.267 -0.0967  0.5841  0.0289
 7810TIP3    H123394   3.869   0.974   3.346  0.8705  1.2024  0.6994
 7810TIP3    H223395   3.906   1.113   3.297  2.9039  0.3227 -0.3727
 7811TIP3   OH223396   3.474   1.162   5.497 -0.2394 -0.4383  0.1467
 7811TIP3    H123397   3.545   1.191   5.440  1.1805  0.8233  2.3758
 7811TIP3    H223398   3.512   1.090   5.548 -1.2051 -1.0368  0.0397
 7812TIP3   OH223399   4.770   0.031   4.582 -0.2117 -0.1714  0.6872
 7812TIP3    H123400   4.699  -0.015   4.628 -0.1898  0.5177  1.4356
 7812TIP3    H223401   4.737   0.120   4.569 -0.0492 -0.2490 -0.2748
 7813TIP3   OH223402   3.295   3.700   2.671  0.1308 -0.8163 -0.3652
 7813TIP3    H123403   3.302   3.742   2.757  2.2959 -1.3757 -0.2177
 7813TIP3    H223404   3.201   3.682   2.661 -0.5258  1.5877  0.7076
 7814TIP3   OH223405   2.987   1.756   2.055  0.6898 -0.7803 -0.1480
 7814TIP3    H123406   2.967   1.806   2.134  0.5430 -0.3409 -0.4601
 7814TIP3    H223407   2.901   1.723   2.026  1.1186 -5.3265  2.6902
 7815TIP3   OH223408   3.667   3.944   3.524 -0.3420  0.6670 -0.1630
 7815TIP3    H123409   3.697   3.994   3.448 -0.9000 -0.6692 -1.3119
 7815TIP3    H223410   3.605   3.881   3.488  0.7317 -1.2287  1.1017
 7816TIP3   OH223411   1.841   1.087   3.888 -0.3171  0.5593 -0.0166
 7816TIP3    H123412   1.815   1.003   3.850 -0.5824  0.2993  0.7251
 7816TIP3    H223413   1.797   1.090   3.973  1.5015  0.4282  0.9763
 7817TIP3   OH223414   5.806   1.306   0.344 -0.3032  0.0792  0.0832
 7817TIP3    H123415   5.783   1.223   0.385  1.0791  0.1995  1.1500
 7817TIP3    H223416   5.884   1.286   0.292  1.4674  1.1536  2.1967
 7818TIP3   OH223417   2.934   1.691   0.443  0.2289  0.5537 -0.0269
 7818TIP3    H123418   3.026   1.702   0.419  0.2586 -2.3860 -1.7010
 7818TIP3    H223419   2.931   1.606   0.487 -1.7459  0.4341 -0.3313
 7819TIP3   OH223420   6.794   0.059   2.856 -0.6237 -0.1557  0.1493
 7819TIP3    H123421   6.703   0.037   2.874 -0.4975 -1.2190 -0.4662
 7819TIP3    H223422   6.789   0.133   2.795 -1.0638  0.0723  0.4552
 7820TIP3   OH223423   5.173   0.038   5.450 -0.3996  0.1876 -0.4861
 7820TIP3    H123424   5.231  -0.019   5.500 -0.1983  1.1305  0.3624
 7820TIP3    H223425   5.152  -0.014   5.371  0.7572 -0.5664 -0.3248
 7821TIP3   OH223426   0.400   4.898   5.807  0.1969 -0.6203 -0.2592
 7821TIP3    H123427   0.472   4.856   5.855  0.9722  0.0285 -0.8503
 7821TIP3    H223428   0.424   4.990   5.802 -0.3424 -0.5117 -1.0578
 7822TIP3   OH223429   6.643   1.709   5.081 -0.0530 -0.4436  0.7754
 7822TIP3    H123430   6.711   1.733   5.144 -0.4889 -1.8259  1.8447
 7822TIP3    H223431   6.588   1.786   5.074  1.2211  0.4593  0.4309
 7823TIP3   OH223432   1.124   6.803   0.374  0.0137 -0.0248 -0.4611
 7823TIP3    H123433   1.206   6.787   0.421 -0.4639 -0.5531  0.2208
 7823TIP3    H223434   1.098   6.717   0.341 -0.6955 -0.0195  0.0567
 7824TIP3   OH223435   2.721   5.066   1.862  0.3082 -0.5704 -0.5284
 7824TIP3    H123436   2.804   5.027   1.835 -0.6081 -2.4331 -0.8010
 7824TIP3    H223437   2.707   5.138   1.801  2.0003  0.1878 -0.0830
 7825TIP3   OH223438   6.328   1.731   2.183 -0.2283 -0.5922  0.2678
 7825TIP3    H123439   6.382   1.664   2.225  0.1030 -1.0355 -0.8274
 7825TIP3    H223440   6.266   1.682   2.130 -1.1633 -0.0598  0.8330
 7826TIP3   OH223441   4.270   4.036   3.015 -0.7669  0.0140  0.3307
 7826TIP3    H123442   4.276   4.041   2.920 -0.8616  1.6457  0.3777
 7826TIP3    H223443   4.304   3.950   3.037 -0.5363 -0.3009 -1.1648
 7827TIP3   OH223444   3.113   2.038   3.254  0.1836  0.0002  0.3531
 7827TIP3    H123445   3.088   2.034   3.346  0.8949  0.1312  0.5591
 7827TIP3    H223446   3.035   2.012   3.206  0.0075 -0.7248  1.0202
 7828TIP3   OH223447   6.102   1.685   0.828  0.0321 -0.2534  0.9930
 7828TIP3    H123448   6.169   1.705   0.893  0.0029  1.4327  0.5567
 7828TIP3    H223449   6.147   1.634   0.761  1.0885  1.3755  0.3984
 7829TIP3   OH223450   0.195   4.304   5.215  0.1688 -0.1012  0.0462
 7829TIP3    H123451   0.239   4.310   5.300 -0.2730  0.9426  0.2140
 7829TIP3    H223452   0.240   4.232   5.170  0.8742 -0.2028  0.8877
 7830TIP3   OH223453   1.147   0.909   3.107 -1.0588 -0.0011 -0.0681
 7830TIP3    H123454   1.219   0.946   3.055  0.9168 -1.8644  1.2162
 7830TIP3    H223455   1.109   0.842   3.050 -1.5420  0.6602 -0.5590
 7831TIP3   OH223456   4.688   2.704   3.726  0.6822 -0.1576 -0.2799
 7831TIP3    H123457   4.722   2.643   3.792  1.2608  0.8645  0.3978
 7831TIP3    H223458   4.766   2.742   3.686  0.3431  0.7048 -0.1490
 7832TIP3   OH223459   5.916   4.085   1.702  0.0140  0.0384 -0.6479
 7832TIP3    H123460   5.979   4.141   1.657 -0.3722  0.0779 -1.1527
 7832TIP3    H223461   5.883   4.138   1.775  1.1471 -0.2674  0.1160
 7833TIP3   OH223462   0.420   0.918   0.848  0.1252  0.0284  0.1142
 7833TIP3    H123463   0.393   0.923   0.939 -1.2540  0.0224 -0.2691
 7833TIP3    H223464   0.449   0.828   0.835 -0.1380 -0.0994  0.4254
 7834TIP3   OH223465   1.271   5.955   0.843 -1.2255  0.5634  1.0301
 7834TIP3    H123466   1.270   6.035   0.896 -2.4491  0.3591  1.3566
 7834TIP3    H223467   1.313   5.890   0.898 -1.2802  0.6938  1.2267
 7835TIP3   OH223468   1.102   3.055   4.396  0.3086  0.5765  0.7506
 7835TIP3    H123469   1.143   3.141   4.409  0.1441  0.5606  1.4210
 7835TIP3    H223470   1.065   3.059   4.308  0.8867  0.9478  0.5141
 7836TIP3   OH223471   6.646   1.108   2.429 -0.3020  0.0985  0.1356
 7836TIP3    H123472   6.636   1.198   2.398  0.7615 -0.0835 -0.8111
 7836TIP3    H223473   6.740   1.098   2.444 -0.3160 -1.0331 -0.3728
 7837TIP3   OH223474   4.428   4.092   2.454  0.6315 -0.4635  0.1454
 7837TIP3    H123475   4.523   4.101   2.462  0.4945  1.1117  0.3042
 7837TIP3    H223476   4.400   4.065   2.542  0.7252  1.4316  0.8134
 7838TIP3   OH223477   6.708   5.518   2.145 -0.1674 -0.3610 -0.1407
 7838TIP3    H123478   6.618   5.545   2.128 -0.7762 -2.3228 -0.1770
 7838TIP3    H223479   6.731   5.563   2.226 -1.6549 -0.8712  0.5975
 7839TIP3   OH223480   4.314   6.122   1.411  0.3044 -0.9909  0.2843
 7839TIP3    H123481   4.249   6.120   1.481 -0.8355 -1.0511 -0.7253
 7839TIP3    H223482   4.306   6.036   1.369 -0.3918 -0.2926 -1.0768
 7840TIP3   OH223483   0.523   3.415   3.038 -0.4480  0.0636  0.2051
 7840TIP3    H123484   0.435   3.385   3.018  0.0047 -0.4004 -1.2564
 7840TIP3    H223485   0.539   3.486   2.976  0.8044 -1.0048 -0.7698
 7841TIP3   OH223486   2.600   2.615   0.655 -0.0032 -0.9484  0.3663
 7841TIP3    H123487   2.658   2.540   0.661 -0.1265 -1.4475 -2.8310
 7841TIP3    H223488   2.654   2.690   0.680  0.7283 -1.8306  1.5143
 7842TIP3   OH223489   5.252   4.683   1.562  0.2767 -0.1352  0.3445
 7842TIP3    H123490   5.192   4.679   1.637  0.3311 -1.3502  0.3426
 7842TIP3    H223491   5.280   4.775   1.558 -0.6801  0.2022  1.0541
 7843TIP3   OH223492   3.596   3.292   4.547  0.4347  0.4475 -0.1702
 7843TIP3    H123493   3.540   3.301   4.470 -0.2084 -2.8183 -0.2127
 7843TIP3    H223494   3.670   3.239   4.517  1.0970  0.6394  1.0582
 7844TIP3   OH223495   4.527   2.248   1.960 -0.0229 -0.2151  0.1827
 7844TIP3    H123496   4.600   2.281   2.013 -1.4773  0.2787  1.9684
 7844TIP3    H223497   4.452   2.250   2.019 -2.0877  1.6858 -2.2846
 7845TIP3   OH223498   5.190   4.139   5.319 -0.1805  0.3288  0.6364
 7845TIP3    H123499   5.276   4.104   5.297  1.0127  2.6040  1.3510
 7845TIP3    H223500   5.168   4.100   5.404  0.5228  0.3201  0.8157
 7846TIP3   OH223501   3.119   3.917   3.525 -0.1039 -0.4469 -0.1281
 7846TIP3    H123502   3.084   4.006   3.532  1.3852  0.2612 -1.1357
 7846TIP3    H223503   3.101   3.891   3.435 -0.5663 -1.1856  0.1777
 7847TIP3   OH223504   3.401   4.553   4.765 -0.2897  0.0692 -0.4095
 7847TIP3    H123505   3.442   4.592   4.687 -0.7536  1.3233 -0.0465
 7847TIP3    H223506   3.379   4.627   4.820 -2.8620 -0.5554 -0.4951
 7848TIP3   OH223507   6.320   0.103   0.557  0.3663 -0.3489 -0.8745
 7848TIP3    H123508   6.297   0.195   0.546 -0.8779 -0.6704 -1.1439
 7848TIP3    H223509   6.400   0.092   0.504  0.9414  0.7126 -0.2634
 7849TIP3   OH223510   2.252   0.644   4.326 -0.6712 -0.4109 -0.2020
 7849TIP3    H123511   2.169   0.608   4.357 -0.6072 -0.0006  0.4723
 7849TIP3    H223512   2.268   0.600   4.243 -0.9421 -1.4011  0.2580
 7850TIP3   OH223513   5.911   5.868   1.307  0.6106  0.4470  0.2578
 7850TIP3    H123514   6.000   5.900   1.290  0.4581  0.3891 -0.7026
 7850TIP3    H223515   5.863   5.887   1.226  0.0262 -0.4751  0.3709
 7851TIP3   OH223516   2.389   6.405   3.358 -0.9991 -0.1985  0.5917
 7851TIP3    H123517   2.329   6.336   3.329  0.6881 -0.7750 -1.8444
 7851TIP3    H223518   2.440   6.365   3.429 -2.1730 -0.3244  1.3903
 7852TIP3   OH223519   5.036   6.067   2.556 -0.1744 -0.3648 -0.3289
 7852TIP3    H123520   4.983   5.988   2.548 -1.0634  0.1291  0.4325
 7852TIP3    H223521   5.097   6.063   2.483 -1.5535 -0.7413 -1.4975
 7853TIP3   OH223522   0.255   5.801   2.632  0.0156 -0.5541  0.3060
 7853TIP3    H123523   0.336   5.825   2.586 -0.6704  1.4044  0.0383
 7853TIP3    H223524   0.193   5.781   2.562 -0.9917  2.3027  0.2728
 7854TIP3   OH223525   5.198   6.318   1.819 -0.2522  0.0732  0.0569
 7854TIP3    H123526   5.240   6.368   1.749 -2.6425  0.6792 -1.0697
 7854TIP3    H223527   5.138   6.259   1.774 -0.4126 -0.9670  1.5471
 7855TIP3   OH223528   4.202   2.757   1.765 -0.6147  0.3502  0.3240
 7855TIP3    H123529   4.286   2.722   1.736  0.2819  2.1513  0.6507
 7855TIP3    H223530   4.145   2.747   1.688  0.0923 -0.2102 -0.1431
 7856TIP3   OH223531   3.173   5.401   0.870  0.2600 -0.0718  0.1079
 7856TIP3    H123532   3.081   5.409   0.894 -0.0752 -0.9052 -0.7854
 7856TIP3    H223533   3.216   5.370   0.950 -0.7932 -2.6770 -0.2072
 7857TIP3   OH223534   6.065   1.543   2.434 -0.5601  0.2083  0.4850
 7857TIP3    H123535   6.047   1.612   2.369 -0.3082 -0.7171 -0.5958
 7857TIP3    H223536   6.159   1.528   2.426 -0.8248 -1.1891 -0.2664
 7858TIP3   OH223537   6.905   6.795   0.777 -0.5898 -0.5684  0.1670
 7858TIP3    H123538   6.906   6.874   0.831  0.6392 -0.4481  0.0012
 7858TIP3    H223539   6.869   6.727   0.834  0.9752 -0.5129  1.2867
 7859TIP3   OH223540   1.070   6.409   2.226 -0.0853  0.4658  0.2462
 7859TIP3    H123541   0.980   6.377   2.229 -0.4626  1.4609 -0.1928
 7859TIP3    H223542   1.122   6.332   2.204 -0.6955 -0.3618  1.5637
 7860TIP3   OH223543   1.906   2.714   4.880 -0.4712  0.0439  0.2688
 7860TIP3    H123544   1.975   2.671   4.830 -1.1638  0.7708 -1.3760
 7860TIP3    H223545   1.891   2.797   4.836 -0.9197  0.8745  1.8767
 7861TIP3   OH223546   2.768   3.340   5.857 -0.1511 -0.0020  0.1260
 7861TIP3    H123547   2.726   3.361   5.940  1.4238 -0.2056  1.0129
 7861TIP3    H223548   2.791   3.247   5.865  1.1597  0.3016 -0.0046
 7862TIP3   OH223549   2.855   2.183   0.523 -0.0137 -0.4543  0.0149
 7862TIP3    H123550   2.866   2.206   0.431  0.7066 -0.8643 -0.0048
 7862TIP3    H223551   2.943   2.167   0.555 -0.0246  1.6255  1.3062
 7863TIP3   OH223552   2.007   6.042   2.715  0.2233 -0.1839 -0.0095
 7863TIP3    H123553   2.001   5.947   2.721  0.2606 -0.3428 -1.8519
 7863TIP3    H223554   1.920   6.070   2.685  0.5503  0.2538 -0.5567
 7864TIP3   OH223555   5.050   6.162   1.654 -0.1655  0.0282  0.7500
 7864TIP3    H123556   5.073   6.076   1.618 -2.1701  0.2074 -1.2334
 7864TIP3    H223557   4.965   6.148   1.696 -0.3282  0.9541  0.7513
 7865TIP3   OH223558   5.183   1.417   4.199  0.2162 -0.2273  0.0123
 7865TIP3    H123559   5.133   1.363   4.260 -0.0814  0.0461  0.0185
 7865TIP3    H223560   5.123   1.431   4.126  0.3161  0.0298 -0.0218
 7866TIP3   OH223561   6.653   3.367   4.355 -0.4431 -0.6733 -0.1650
 7866TIP3    H123562   6.564   3.335   4.346 -0.7008  0.4477 -2.4845
 7866TIP3    H223563   6.644   3.453   4.397 -0.4156 -0.7791  0.0556
 7867TIP3   OH223564   1.070   0.288   1.514 -0.5719 -0.0171  0.1572
 7867TIP3    H123565   1.125   0.366   1.518 -0.8832  0.3006 -1.3204
 7867TIP3    H223566   0.984   0.320   1.486 -0.2575 -1.0636 -2.2049
 7868TIP3   OH223567   0.390   6.757   4.764 -0.0353 -0.5807  0.3942
 7868TIP3    H123568   0.333   6.834   4.755  1.1205  0.4739  1.6282
 7868TIP3    H223569   0.344   6.700   4.825 -1.1368 -1.1385 -0.9092
 7869TIP3   OH223570   1.154   4.670   2.805  0.2594  0.1787  0.0328
 7869TIP3    H123571   1.074   4.656   2.754 -0.3390  0.3583  0.8959
 7869TIP3    H223572   1.130   4.737   2.869  2.1461  2.9694 -1.9974
 7870TIP3   OH223573   3.914   0.162   0.618 -0.3673  0.9294  0.2356
 7870TIP3    H123574   3.903   0.117   0.534 -0.8034  0.7460  0.3825
 7870TIP3    H223575   3.942   0.092   0.678  0.4072  1.1547  0.1388
 7871TIP3   OH223576   1.658   1.547   2.579 -0.5848 -0.1908 -0.7901
 7871TIP3    H123577   1.662   1.637   2.610  2.2890 -1.4255  3.2730
 7871TIP3    H223578   1.604   1.501   2.643  2.0332 -2.1495  0.2012
 7872TIP3   OH223579   1.068   3.362   0.873 -0.2020 -0.0630  0.1661
 7872TIP3    H123580   1.069   3.441   0.820  1.7140  0.0419  0.2965
 7872TIP3    H223581   1.160   3.336   0.879 -0.6163 -1.3260  1.5652
 7873TIP3   OH223582   1.190   0.087   1.712  0.5505  0.0943  0.7223
 7873TIP3    H123583   1.183   0.144   1.636  1.3387 -1.2200 -0.3666
 7873TIP3    H223584   1.224   0.144   1.781 -1.9142  1.7667  0.6851
 7874TIP3   OH223585   5.760   0.215   0.834  0.5351  0.7802  0.0251
 7874TIP3    H123586   5.771   0.280   0.903  0.7786  0.6930  0.0694
 7874TIP3    H223587   5.676   0.237   0.793 -0.8983 -0.7074  1.9797
 7875TIP3   OH223588   0.669   6.447   4.809  0.4405  0.1607 -0.1498
 7875TIP3    H123589   0.689   6.459   4.717  0.3232  1.2883 -0.0365
 7875TIP3    H223590   0.607   6.374   4.811 -0.6628  1.0355 -1.1055
 7876TIP3   OH223591   6.423   4.401   2.827 -0.2216  0.0624 -0.1731
 7876TIP3    H123592   6.382   4.485   2.810 -0.5606 -0.0017  0.2983
 7876TIP3    H223593   6.351   4.345   2.858  0.3447  0.1888  1.4726
 7877TIP3   OH223594   1.655   5.446   2.764 -0.3063  0.0413  0.0304
 7877TIP3    H123595   1.598   5.486   2.829  0.1027  1.2632 -0.3310
 7877TIP3    H223596   1.665   5.513   2.696 -2.1054 -1.7458 -2.1902
 7878TIP3   OH223597   2.686   6.638   5.269  0.3923 -0.3368 -0.0915
 7878TIP3    H123598   2.766   6.642   5.218  1.4194 -0.6895  1.4031
 7878TIP3    H223599   2.693   6.555   5.317 -1.6429 -1.1768 -1.1205
 7879TIP3   OH223600   0.009   2.864   4.978  0.2537 -0.0126 -0.0318
 7879TIP3    H123601   0.017   2.880   4.884  0.2380 -1.5639 -0.3161
 7879TIP3    H223602   0.098   2.875   5.012  0.7686 -1.8479 -0.6595
 7880TIP3   OH223603   1.966   6.292   1.761 -0.1816  0.3778 -0.5379
 7880TIP3    H123604   1.995   6.300   1.852 -0.0036  2.4717 -0.7450
 7880TIP3    H223605   1.978   6.199   1.741 -0.1750 -0.1239  1.5480
 7881TIP3   OH223606   0.915   0.978   5.132  0.1000  0.1151 -0.7844
 7881TIP3    H123607   0.837   0.947   5.086 -0.7297 -1.8715  1.6620
 7881TIP3    H223608   0.942   0.903   5.185  1.5878  1.8547  1.0771
 7882TIP3   OH223609   6.520   3.217   1.715  0.0967 -0.0379  0.4888
 7882TIP3    H123610   6.440   3.268   1.725  0.3636  0.1822  1.6545
 7882TIP3    H223611   6.510   3.144   1.777 -0.0059 -1.0722 -0.6953
 7883TIP3   OH223612   3.583   5.565   2.198 -0.1885 -0.1833  0.5521
 7883TIP3    H123613   3.495   5.569   2.236 -0.0738  1.2835  0.7583
 7883TIP3    H223614   3.631   5.504   2.254 -0.4661  0.7435  1.8721
 7884TIP3   OH223615   0.827   4.043   4.854  0.2382 -0.5125  0.3376
 7884TIP3    H123616   0.816   3.974   4.788 -1.8512 -1.5439  1.6390
 7884TIP3    H223617   0.738   4.057   4.888  1.0039  1.1563  1.7839
 7885TIP3   OH223618   3.519   4.898   3.206 -0.4740  0.0873  0.1525
 7885TIP3    H123619   3.492   4.834   3.140  1.1231  1.1306 -1.6140
 7885TIP3    H223620   3.577   4.849   3.264  2.6041  0.2554 -2.4936
 7886TIP3   OH223621   5.017   2.340   4.189  0.9989 -0.1838  0.6177
 7886TIP3    H123622   4.936   2.373   4.227  1.8059  0.8641  1.4814
 7886TIP3    H223623   5.086   2.394   4.228  2.1188 -1.0563 -0.0871
 7887TIP3   OH223624   0.497   4.068   3.623  0.0314 -0.3953 -0.6339
 7887TIP3    H123625   0.528   4.045   3.536  1.5097  1.8584 -0.7840
 7887TIP3    H223626   0.409   4.103   3.608 -0.4652 -1.7124 -0.9347
 7888TIP3   OH223627   5.733   6.782   1.639 -0.4171 -0.1120  0.3222
 7888TIP3    H123628   5.729   6.762   1.545 -1.1564 -1.1452  0.5692
 7888TIP3    H223629   5.826   6.799   1.655 -0.1927 -0.5077 -0.4849
 7889TIP3   OH223630   0.357   3.637   4.129  0.8810  0.1169  0.4215
 7889TIP3    H123631   0.327   3.547   4.140  0.7982  0.1810  0.7249
 7889TIP3    H223632   0.279   3.691   4.144  0.2524  0.1553 -2.4247
 7890TIP3   OH223633   0.077   0.663   0.772  0.3947 -0.4212 -0.0814
 7890TIP3    H123634   0.101   0.752   0.797 -0.1070  0.0168 -1.0897
 7890TIP3    H223635  -0.009   0.650   0.813 -0.5949  0.4283 -1.7492
 7891TIP3   OH223636   1.556   1.819   3.373 -0.4292  0.8640  0.8682
 7891TIP3    H123637   1.528   1.752   3.436 -0.2632  1.4593  1.5795
 7891TIP3    H223638   1.571   1.897   3.426  1.8249  0.7946  0.4419
 7892TIP3   OH223639   4.860   0.738   2.957  0.4604  0.0713 -0.1962
 7892TIP3    H123640   4.795   0.743   3.027  1.3963 -0.6375  0.7495
 7892TIP3    H223641   4.880   0.830   2.936  0.9391  0.3174  1.2168
 7893TIP3   OH223642   4.898   1.717   4.349 -0.2767  0.3798  0.0238
 7893TIP3    H123643   4.907   1.699   4.443 -0.7163  0.4903  0.0901
 7893TIP3    H223644   4.986   1.705   4.314 -0.1293  0.2321  0.4335
 7894TIP3   OH223645   6.793   3.246   0.341 -0.3741  0.6118 -0.2073
 7894TIP3    H123646   6.823   3.269   0.429 -1.3689  0.4125  0.1961
 7894TIP3    H223647   6.701   3.272   0.339 -0.4317  0.3867 -1.1111
 7895TIP3   OH223648   3.685   0.742   0.909 -0.1673  0.1045 -0.0473
 7895TIP3    H123649   3.603   0.693   0.912 -0.8692  1.1617 -1.1055
 7895TIP3    H223650   3.705   0.750   0.816  1.4774 -0.6558  0.2179
 7896TIP3   OH223651   2.856   1.669   3.395 -0.1725 -0.9396 -0.2774
 7896TIP3    H123652   2.860   1.765   3.401  0.4723 -0.9738 -0.0946
 7896TIP3    H223653   2.762   1.649   3.401 -0.2157 -0.4298  1.7794
 7897TIP3   OH223654   6.529   0.516   5.372  0.5236 -0.7104  0.3027
 7897TIP3    H123655   6.622   0.531   5.356  0.5224 -1.2084 -0.1969
 7897TIP3    H223656   6.514   0.552   5.459  0.9594  0.3319 -0.0286
 7898TIP3   OH223657   5.613   3.184   5.703  0.4352 -0.1911 -0.0492
 7898TIP3    H123658   5.630   3.198   5.610  0.8993 -2.9991 -0.4783
 7898TIP3    H223659   5.688   3.135   5.735  0.5336  1.1552  1.9899
 7899TIP3   OH223660   6.844   1.073   5.370  0.0673 -0.5566 -0.0549
 7899TIP3    H123661   6.820   1.022   5.292  0.7603 -1.3293  0.2231
 7899TIP3    H223662   6.938   1.088   5.361 -0.5545  3.5131 -1.7720
 7900TIP3   OH223663   0.700   5.873   4.729  0.3787  0.6539  0.4243
 7900TIP3    H123664   0.741   5.880   4.815 -1.8696  0.4968  1.5714
 7900TIP3    H223665   0.683   5.964   4.703 -1.6995  0.6659  1.6100
 7901TIP3   OH223666   3.730   5.229   4.599  0.0844 -0.0711  0.2664
 7901TIP3    H123667   3.711   5.138   4.574  0.0873 -0.1555  0.5619
 7901TIP3    H223668   3.823   5.239   4.583  0.6139 -0.8680  2.4586
 7902TIP3   OH223669   6.086   0.089   1.227 -0.5370 -0.2409  0.5022
 7902TIP3    H123670   5.992   0.088   1.246 -0.8006  1.4020 -0.4843
 7902TIP3    H223671   6.127   0.056   1.307 -1.9202 -0.2658  1.2341
 7903TIP3   OH223672   4.953   0.151   2.753 -0.0318 -0.0580 -0.0409
 7903TIP3    H123673   4.971   0.064   2.789 -0.0006  0.1653  0.4958
 7903TIP3    H223674   4.877   0.182   2.802 -0.3271  0.0388 -0.5451
 7904TIP3   OH223675   1.945   2.842   5.121 -0.3151 -0.0954 -0.1348
 7904TIP3    H123676   1.932   2.804   5.034 -0.5936  0.5001 -0.3544
 7904TIP3    H223677   1.876   2.908   5.129  2.0224  2.6430 -1.0346
 7905TIP3   OH223678   5.575   4.867   0.054 -0.1820 -0.3687 -0.1033
 7905TIP3    H123679   5.541   4.954   0.035  0.9518  0.2299  0.5102
 7905TIP3    H223680   5.667   4.881   0.075 -0.1415 -1.6190  0.6877
 7906TIP3   OH223681   6.225   6.446   4.110  0.1236  0.9237 -0.0682
 7906TIP3    H123682   6.245   6.354   4.096 -0.8202  0.7802 -0.5033
 7906TIP3    H223683   6.132   6.454   4.093  0.3654  2.1485 -1.0046
 7907TIP3   OH223684   0.104   1.862   0.557  0.6358 -0.0838 -0.0009
 7907TIP3    H123685   0.137   1.807   0.486  2.2638 -0.1014  0.7165
 7907TIP3    H223686   0.151   1.944   0.547  2.0938 -0.5946  1.9034
 7908TIP3   OH223687   6.508   5.274   0.355 -0.5086  0.4760  0.9646
 7908TIP3    H123688   6.460   5.194   0.334 -0.4192 -0.0458  2.5988
 7908TIP3    H223689   6.510   5.323   0.273 -0.8486 -1.0412  0.0046
 7909TIP3   OH223690   5.106   1.584   2.236 -0.3220 -0.5921  0.3236
 7909TIP3    H123691   5.096   1.495   2.269  0.2928 -1.2865 -1.2670
 7909TIP3    H223692   5.173   1.623   2.292 -0.0667 -1.3687  0.5725
 7910TIP3   OH223693   0.428   6.804   1.337  0.6251 -0.1757  0.4297
 7910TIP3    H123694   0.451   6.742   1.268  1.8524  0.5814  0.1274
 7910TIP3    H223695   0.337   6.826   1.319 -0.2818 -2.8234  1.3185
 7911TIP3   OH223696   1.603   1.557   3.524 -0.2114  0.0491  0.7523
 7911TIP3    H123697   1.550   1.510   3.460  0.1486 -1.5634  1.5814
 7911TIP3    H223698   1.541   1.611   3.573 -0.8438 -0.5601  0.6366
 7912TIP3   OH223699   6.055   2.181   2.419 -0.3409 -0.4217 -0.0633
 7912TIP3    H123700   6.126   2.219   2.470 -1.1150  0.4666  0.3897
 7912TIP3    H223701   6.097   2.144   2.342  0.8139 -1.4005  0.9917
 7913TIP3   OH223702   6.255   1.074   1.622 -0.0666  0.0835  0.1054
 7913TIP3    H123703   6.267   1.135   1.549 -0.1659 -0.1327 -0.0910
 7913TIP3    H223704   6.230   1.130   1.696 -0.1926  0.2790 -0.0833
 7914TIP3   OH223705   5.440   3.303   3.879 -0.0474 -0.3273  0.2299
 7914TIP3    H123706   5.345   3.306   3.885 -0.1439  0.4893 -1.1301
 7914TIP3    H223707   5.471   3.332   3.965 -1.0713  1.4403  0.0620
 7915TIP3   OH223708   4.177   2.354   3.345 -0.5315  0.2463 -0.2538
 7915TIP3    H123709   4.093   2.370   3.388 -1.5681 -2.2158 -1.1805
 7915TIP3    H223710   4.171   2.402   3.263 -1.7720 -1.1849 -1.0500
 7916TIP3   OH223711   4.187   0.149   5.260  0.5528 -0.3970 -0.1246
 7916TIP3    H123712   4.207   0.195   5.342  0.5219 -0.6460  0.0226
 7916TIP3    H223713   4.231   0.065   5.268  1.6352  0.0841 -0.9201
 7917TIP3   OH223714   5.317   0.356   4.585 -0.4441 -0.3823 -0.0218
 7917TIP3    H123715   5.315   0.448   4.559 -2.4804 -0.2343  0.4540
 7917TIP3    H223716   5.230   0.323   4.560  0.1093 -2.0783  0.1802
 7918TIP3   OH223717   6.507   2.085   0.293 -0.2589 -0.2234 -0.7743
 7918TIP3    H123718   6.567   2.138   0.240 -1.3807  0.5865 -1.2700
 7918TIP3    H223719   6.536   2.100   0.383  0.6315 -0.3035 -1.0310
 7919TIP3   OH223720   0.446   0.353   4.259 -0.2241 -0.2175  0.0911
 7919TIP3    H123721   0.400   0.322   4.337  0.9232 -1.8574  0.1807
 7919TIP3    H223722   0.418   0.444   4.248 -1.1882 -0.2716  1.8097
 7920TIP3   OH223723   4.545   3.979   5.165 -0.4881  0.0760  0.2579
 7920TIP3    H123724   4.550   3.921   5.240 -0.2723 -2.2636 -1.4491
 7920TIP3    H223725   4.636   3.991   5.138 -0.5632  0.9014  0.3429
 7921TIP3   OH223726   0.577   5.936   2.986 -0.2911  0.0512  0.1989
 7921TIP3    H123727   0.608   5.989   3.059 -0.9669  0.1616  0.4182
 7921TIP3    H223728   0.492   5.975   2.962  0.1611  0.3516 -0.9994
 7922TIP3   OH223729   6.593   1.538   0.199  0.2911  0.2731 -0.5657
 7922TIP3    H123730   6.606   1.478   0.273 -0.0636  1.7370  0.7552
 7922TIP3    H223731   6.582   1.624   0.240  2.8651  1.6287 -2.4741
 7923TIP3   OH223732   0.678   2.859   3.171 -0.4671  0.1977 -0.3802
 7923TIP3    H123733   0.711   2.893   3.254 -1.3305  0.8201 -0.2720
 7923TIP3    H223734   0.731   2.903   3.104 -1.2087  1.3783 -0.2196
 7924TIP3   OH223735   0.383   0.452   1.186 -0.1552 -0.6026 -0.7942
 7924TIP3    H123736   0.333   0.377   1.220  1.3261 -1.2428  0.0713
 7924TIP3    H223737   0.317   0.519   1.170 -1.0886 -0.5052  2.6519
 7925TIP3   OH223738   5.976   6.086   2.432 -0.0264 -0.3988 -0.3694
 7925TIP3    H123739   6.012   6.014   2.381 -0.6866 -2.0144  1.3495
 7925TIP3    H223740   6.043   6.155   2.426  1.0861 -1.5066 -1.2306
 7926TIP3   OH223741   1.695   6.020   1.677  0.1883 -0.8367  0.0922
 7926TIP3    H123742   1.698   6.112   1.650  0.9619 -0.3153  1.8199
 7926TIP3    H223743   1.612   6.012   1.725  0.6132 -0.7628  0.8465
 7927TIP3   OH223744   3.265   2.013   5.886 -0.1198 -0.3461 -0.6158
 7927TIP3    H123745   3.245   1.951   5.816  0.0094  0.4414 -1.3655
 7927TIP3    H223746   3.339   2.064   5.853  0.0965 -0.1129  0.1901
 7928TIP3   OH223747   1.622   1.975   5.396 -0.1744  0.1798 -0.1243
 7928TIP3    H123748   1.581   1.892   5.418 -0.4289  0.4134  0.3002
 7928TIP3    H223749   1.572   2.040   5.445 -0.5976  0.6987 -1.2047
 7929TIP3   OH223750   3.791   6.271   0.882  0.3024  0.0166 -0.4219
 7929TIP3    H123751   3.868   6.326   0.901 -1.2126  2.2644 -0.4335
 7929TIP3    H223752   3.761   6.241   0.968  0.9512 -0.5528 -0.3867
 7930TIP3   OH223753   3.354   5.422   4.111  0.0686 -0.5120  0.2273
 7930TIP3    H123754   3.264   5.439   4.081 -0.2755 -0.8555  1.0317
 7930TIP3    H223755   3.370   5.488   4.179  0.7188  0.0474 -0.4546
 7931TIP3   OH223756   0.591   5.449   5.617 -0.1272 -0.6070  0.0200
 7931TIP3    H123757   0.500   5.470   5.597 -0.4442  0.0605  1.9906
 7931TIP3    H223758   0.611   5.499   5.696  1.7894 -1.1616 -0.0627
 7932TIP3   OH223759   6.766   3.829   0.960 -0.2395 -0.2024  0.1463
 7932TIP3    H123760   6.773   3.922   0.941  1.3886 -0.8182 -2.9593
 7932TIP3    H223761   6.836   3.812   1.023  0.8335  0.3686 -0.8554
 7933TIP3   OH223762   2.284   0.734   2.918  0.5412 -0.4981  0.3570
 7933TIP3    H123763   2.313   0.765   3.003 -0.3081 -0.4338  0.6318
 7933TIP3    H223764   2.361   0.740   2.862  0.4118  2.1877  0.3560
 7934TIP3   OH223765   6.476   2.968   0.998 -0.3033  0.0473 -0.2579
 7934TIP3    H123766   6.523   2.899   0.951 -1.7001 -0.9894 -0.1983
 7934TIP3    H223767   6.474   2.939   1.089 -2.5042 -0.8293 -0.5278
 7935TIP3   OH223768   3.459   1.115   3.188 -0.1857 -0.5881  0.9084
 7935TIP3    H123769   3.429   1.039   3.238 -1.3661  0.2339  1.4995
 7935TIP3    H223770   3.519   1.079   3.123 -1.4678 -2.1587  0.5273
 7936TIP3   OH223771   2.605   5.331   1.768 -0.1305 -0.3471 -0.0832
 7936TIP3    H123772   2.565   5.413   1.797  0.6006  0.0992 -0.3262
 7936TIP3    H223773   2.694   5.355   1.743  0.2444 -1.2986  0.2981
 7937TIP3   OH223774   1.405   4.134   0.964  0.0938 -0.1070  0.5806
 7937TIP3    H123775   1.498   4.111   0.965  0.5372  1.5699  1.0982
 7937TIP3    H223776   1.390   4.175   1.049 -0.5049  1.8257 -0.3860
 7938TIP3   OH223777   1.195   3.795   1.961  0.1071 -0.3250  0.1581
 7938TIP3    H123778   1.154   3.826   1.880  1.1062 -0.5730 -0.4551
 7938TIP3    H223779   1.245   3.870   1.993 -1.2864  0.1843  1.2504
 7939TIP3   OH223780   4.125   0.610   4.860 -0.3592 -0.1710  0.3154
 7939TIP3    H123781   4.087   0.696   4.839  0.0103 -0.0966 -0.0586
 7939TIP3    H223782   4.195   0.630   4.922 -1.3774 -0.3790  1.5677
 7940TIP3   OH223783   2.705   1.127   2.119  0.9025  0.1049 -0.4197
 7940TIP3    H123784   2.680   1.038   2.145 -0.5578  0.7237  0.4418
 7940TIP3    H223785   2.798   1.133   2.139  0.8197 -0.9386  0.3810
 7941TIP3   OH223786   3.854   5.200   0.881  0.1058 -0.5875  0.0383
 7941TIP3    H123787   3.910   5.125   0.899 -1.5584 -2.5202 -2.1462
 7941TIP3    H223788   3.768   5.174   0.915 -0.4165  0.4906 -0.4165
 7942TIP3   OH223789   5.151   0.815   4.854 -0.3166 -0.1058  0.4411
 7942TIP3    H123790   5.210   0.766   4.910  1.7820  0.7442 -0.9059
 7942TIP3    H223791   5.208   0.855   4.788 -2.4940  0.1164 -1.4290
 7943TIP3   OH223792   0.869   3.057   5.487  0.6751  0.0433 -0.3010
 7943TIP3    H123793   0.803   3.067   5.555  0.0139  0.5306 -1.0010
 7943TIP3    H223794   0.878   2.963   5.475  0.0730 -0.0243 -0.2274
 7944TIP3   OH223795   0.316   6.726   4.232  0.1681  0.3716  0.3137
 7944TIP3    H123796   0.375   6.668   4.184  0.3317 -0.0647  1.0172
 7944TIP3    H223797   0.232   6.681   4.232  0.1181  0.4641  0.2669
 7945TIP3   OH223798   3.491   6.304   4.284  0.2757 -0.2258 -0.2270
 7945TIP3    H123799   3.428   6.282   4.215  0.6366  0.9029 -0.9509
 7945TIP3    H223800   3.545   6.226   4.293 -0.5193 -0.8020 -0.4009
 7946TIP3   OH223801   5.380   1.243   2.746 -0.0803  0.0126  0.3043
 7946TIP3    H123802   5.400   1.206   2.660  0.9821  0.0139  0.5290
 7946TIP3    H223803   5.442   1.199   2.805 -1.3644 -0.6240  1.2155
 7947TIP3   OH223804   3.757   5.118   2.466 -0.2175  0.1869  0.4555
 7947TIP3    H123805   3.844   5.101   2.431 -0.3272  0.9013 -0.1619
 7947TIP3    H223806   3.746   5.051   2.534  0.3598 -0.6264 -0.2258
 7948TIP3   OH223807   0.789   0.109   2.030  0.7821  0.1332 -0.3846
 7948TIP3    H123808   0.842   0.137   2.105 -1.5277  1.6598  0.7860
 7948TIP3    H223809   0.807   0.015   2.021  1.5407  0.0392  1.7196
 7949TIP3   OH223810   5.050   0.486   5.822  0.0732  0.1150  0.1338
 7949TIP3    H123811   5.012   0.517   5.904 -0.4866 -0.9080  0.2781
 7949TIP3    H223812   4.975   0.471   5.765  0.4717  0.9626 -0.6264
 7950TIP3   OH223813   3.398   4.427   3.705  0.0351 -0.4298  0.0443
 7950TIP3    H123814   3.366   4.514   3.727 -0.8310 -0.6926 -0.1444
 7950TIP3    H223815   3.329   4.367   3.735  0.0122 -0.9600 -1.0215
 7951TIP3   OH223816   5.235   6.380   0.400 -0.2777 -0.2264 -0.0255
 7951TIP3    H123817   5.209   6.313   0.336  2.6970 -1.3883 -0.2169
 7951TIP3    H223818   5.242   6.332   0.483  0.5460  0.1375  0.1279
 7952TIP3   OH223819   4.699   4.628   1.213  0.0709 -0.2615  0.5144
 7952TIP3    H123820   4.626   4.575   1.180  0.2590 -0.3585  0.2508
 7952TIP3    H223821   4.757   4.567   1.257  0.4722 -0.3445 -0.1056
 7953TIP3   OH223822   4.592   3.247   2.627 -0.6098 -0.1173 -0.8533
 7953TIP3    H123823   4.599   3.163   2.672  1.1601 -0.0688 -0.9322
 7953TIP3    H223824   4.504   3.247   2.589 -0.2237 -2.5367 -1.9758
 7954TIP3   OH223825   2.254   4.890   1.340  0.1214  1.0007  0.6085
 7954TIP3    H123826   2.337   4.876   1.295 -0.1668  2.0092 -0.2691
 7954TIP3    H223827   2.197   4.821   1.306  1.0534 -0.8535  2.5542
 7955TIP3   OH223828   6.766   2.346   3.738 -0.3241  0.1852 -0.1745
 7955TIP3    H123829   6.822   2.407   3.690 -1.8697  1.9783  0.1708
 7955TIP3    H223830   6.772   2.375   3.829 -0.4820 -0.6819  0.1122
 7956TIP3   OH223831   3.044   6.642   1.636  0.5067 -0.1790 -0.3281
 7956TIP3    H123832   2.963   6.617   1.679 -0.5411 -0.4425 -2.3485
 7956TIP3    H223833   3.105   6.661   1.708 -1.2534 -0.1816  1.2214
 7957TIP3   OH223834   2.941   1.396   5.277  0.4885  0.0647  0.0768
 7957TIP3    H123835   2.999   1.458   5.321  0.0541  1.0904 -0.7563
 7957TIP3    H223836   2.854   1.416   5.310  0.4402 -0.6475  0.3987
 7958TIP3   OH223837   1.171   6.753   1.810  0.3551 -0.2628  0.2521
 7958TIP3    H123838   1.220   6.834   1.824 -0.2862  0.0887  0.5296
 7958TIP3    H223839   1.162   6.715   1.898 -2.3628  1.1731  0.7237
 7959TIP3   OH223840   2.638   6.480   3.284  0.4195 -0.3181  0.3152
 7959TIP3    H123841   2.562   6.455   3.338 -0.8070 -0.8374 -1.5568
 7959TIP3    H223842   2.653   6.405   3.228  1.0236  0.5690 -0.7489
 7960TIP3   OH223843   5.675   0.492   3.696 -0.7636  0.1200  0.2719
 7960TIP3    H123844   5.694   0.475   3.789 -0.1127 -1.2977 -0.0912
 7960TIP3    H223845   5.588   0.455   3.682  0.2088 -2.1063 -0.2624
 7961TIP3   OH223846   0.637   5.802   5.322 -0.0208 -0.4456 -0.4086
 7961TIP3    H123847   0.555   5.833   5.360 -0.6790 -1.0318 -1.3037
 7961TIP3    H223848   0.615   5.717   5.284  0.4768  0.2707 -2.4460
 7962TIP3   OH223849   6.409   5.359   0.086 -0.0427 -0.7830 -0.8573
 7962TIP3    H123850   6.447   5.337   0.001  0.1783  0.7024 -1.1797
 7962TIP3    H223851   6.351   5.433   0.068  0.1569 -0.3126  0.3150
 7963TIP3   OH223852   3.211   0.159   5.076 -0.0270  0.6116 -0.1376
 7963TIP3    H123853   3.191   0.252   5.071  1.1776  0.9162  0.3585
 7963TIP3    H223854   3.148   0.118   5.016 -2.1744  1.4462  1.4191
 7964TIP3   OH223855   6.586   0.181   4.544  0.1731 -0.6403 -0.6770
 7964TIP3    H123856   6.586   0.261   4.490  1.9712  0.7111  1.1464
 7964TIP3    H223857   6.525   0.201   4.615  0.1420 -1.1438 -0.5639
 7965TIP3   OH223858   2.815   2.620   2.845 -0.1972 -0.0704 -0.0376
 7965TIP3    H123859   2.767   2.633   2.763  1.8872  0.5853 -1.2445
 7965TIP3    H223860   2.856   2.535   2.835 -0.1093 -0.0847  0.4283
 7966TIP3   OH223861   3.490   4.191   0.651 -0.2322  0.0310  0.1799
 7966TIP3    H123862   3.584   4.189   0.671 -0.1339 -1.0759 -0.3217
 7966TIP3    H223863   3.453   4.120   0.703 -0.9297  0.9558  0.9720
 7967TIP3   OH223864   2.385   1.141   3.796 -0.1876  0.2555  0.2251
 7967TIP3    H123865   2.349   1.141   3.885 -0.8262 -1.3145 -0.0025
 7967TIP3    H223866   2.424   1.228   3.786  1.3984 -0.0775  2.6371
 7968TIP3   OH223867   6.583   0.839   3.011 -0.2770 -0.3947  0.0699
 7968TIP3    H123868   6.650   0.809   3.072  2.9220  2.4081 -1.7312
 7968TIP3    H223869   6.541   0.913   3.055  0.3282  0.0773 -0.1285
 7969TIP3   OH223870   4.122   2.979   5.463 -0.0807 -0.5128 -0.1265
 7969TIP3    H123871   4.099   2.994   5.554 -0.8244 -0.9707 -0.2267
 7969TIP3    H223872   4.116   3.066   5.422  0.5700 -0.2522  0.3167
 7970TIP3   OH223873   3.390   6.468   0.736 -0.2331  0.0855  0.6524
 7970TIP3    H123874   3.385   6.561   0.757 -1.7129  0.2929 -0.4276
 7970TIP3    H223875   3.477   6.457   0.696 -0.9744  1.5853 -1.5823
 7971TIP3   OH223876   4.457   4.917   5.717  0.3062  0.0979  0.0308
 7971TIP3    H123877   4.369   4.920   5.679  0.6587  1.2759 -0.7497
 7971TIP3    H223878   4.476   5.008   5.740  1.4287 -0.0989 -0.0650
 7972TIP3   OH223879   6.993   4.355   0.388  0.3789 -0.1533 -0.1727
 7972TIP3    H123880   7.035   4.298   0.452  0.3634 -0.6551 -0.6019
 7972TIP3    H223881   6.899   4.348   0.407  0.4274  0.3101  0.2477
 7973TIP3   OH223882   4.544   4.701   2.924  0.0319 -0.5003  0.3384
 7973TIP3    H123883   4.639   4.702   2.927  0.0291 -1.3504  1.5710
 7973TIP3    H223884   4.521   4.611   2.902 -0.4880 -0.7904  1.9430
 7974TIP3   OH223885   3.393   0.798   1.434 -0.1906 -0.4289  0.4129
 7974TIP3    H123886   3.455   0.859   1.395 -0.8222 -1.0206 -1.6850
 7974TIP3    H223887   3.350   0.848   1.503 -0.7335  1.5708 -1.2657
 7975TIP3   OH223888   4.908   0.031   3.066 -0.5955 -0.2008 -0.1560
 7975TIP3    H123889   4.830   0.061   3.019 -1.6423  0.7375  2.0538
 7975TIP3    H223890   4.892  -0.062   3.081 -0.7515 -0.2681 -0.7218
 7976TIP3   OH223891   4.329   6.244   0.781  0.1003  0.0670  0.0139
 7976TIP3    H123892   4.254   6.300   0.760  0.3960 -0.4621 -2.7681
 7976TIP3    H223893   4.346   6.195   0.701  2.6829 -0.7095  0.9336
 7977TIP3   OH223894   1.974   1.110   0.300 -0.0590 -0.1337 -0.2189
 7977TIP3    H123895   1.969   1.020   0.267  0.3767  0.1326 -1.0369
 7977TIP3    H223896   1.969   1.164   0.222 -1.4233  0.6137  0.3410
 7978TIP3   OH223897   3.739   2.289   2.784  0.0042 -0.2064 -0.4814
 7978TIP3    H123898   3.777   2.262   2.701  0.4824  0.0250 -0.3404
 7978TIP3    H223899   3.765   2.221   2.846  0.8715  0.3582 -0.2134
 7979TIP3   OH223900   3.265   6.214   0.677  0.3615 -0.4025 -0.3004
 7979TIP3    H123901   3.343   6.268   0.692  1.4294 -1.8525 -0.3291
 7979TIP3    H223902   3.240   6.232   0.587 -0.6606  1.6570  0.3293
 7980TIP3   OH223903   1.649   5.811   4.944 -0.1311 -0.3381  0.2023
 7980TIP3    H123904   1.599   5.890   4.923  0.8268  0.6240  1.3951
 7980TIP3    H223905   1.609   5.743   4.890 -0.8750  0.9851 -1.0044
 7981TIP3   OH223906   4.198   3.212   4.171 -0.2111 -0.7344 -0.5898
 7981TIP3    H123907   4.113   3.255   4.165  0.8805  1.3845 -1.8155
 7981TIP3    H223908   4.177   3.120   4.188 -2.6765  0.0022  0.7897
 7982TIP3   OH223909   5.605   2.006   3.293 -0.3044  0.8385  0.3498
 7982TIP3    H123910   5.519   2.021   3.333 -1.2126 -2.2586 -0.1868
 7982TIP3    H223911   5.648   1.944   3.351  0.0321 -0.4794 -1.2220
 7983TIP3   OH223912   5.157   2.725   3.134 -0.4348 -0.4066  0.5451
 7983TIP3    H123913   5.155   2.671   3.055 -0.7100  0.5393 -0.1093
 7983TIP3    H223914   5.162   2.815   3.102  1.2710 -0.0791  1.6299
 7984TIP3   OH223915   5.545   3.661   1.362  0.5575 -0.3991 -0.1866
 7984TIP3    H123916   5.608   3.673   1.433  0.9710 -0.9748 -0.4472
 7984TIP3    H223917   5.596   3.620   1.292  0.0845 -0.1109 -0.7098
 7985TIP3   OH223918   2.915   4.461   3.192  0.0983  0.3980 -0.3252
 7985TIP3    H123919   2.913   4.547   3.150  0.1903 -0.4038 -2.0697
 7985TIP3    H223920   2.825   4.428   3.185  0.2660 -0.0296 -0.5281
 7986TIP3   OH223921   2.491   1.835   3.022  0.1795 -0.3414  0.3011
 7986TIP3    H123922   2.513   1.748   3.058  0.5056  0.5327  2.3359
 7986TIP3    H223923   2.419   1.866   3.077 -0.5617  0.3072 -1.0099
 7987TIP3   OH223924   3.215   5.898   2.654 -0.1796  0.2543 -0.3640
 7987TIP3    H123925   3.289   5.850   2.617 -1.4816 -0.5616 -2.0373
 7987TIP3    H223926   3.221   5.882   2.748  0.8911 -1.0707 -0.6186
 7988TIP3   OH223927   2.870   6.726   0.181  0.2540 -0.4480 -0.2538
 7988TIP3    H123928   2.849   6.677   0.260 -0.9739  0.8265  0.2575
 7988TIP3    H223929   2.877   6.817   0.210 -0.3419  0.0603 -1.6122
 7989TIP3   OH223930   1.744   5.243   5.028  0.2987  0.0753  0.3668
 7989TIP3    H123931   1.750   5.295   4.948 -0.3274  0.5826  0.6399
 7989TIP3    H223932   1.793   5.292   5.093  0.8653 -0.3729  0.2788
 7990TIP3   OH223933   6.409   2.205   3.847 -0.1911  0.1588 -0.1773
 7990TIP3    H123934   6.462   2.275   3.886  0.2753 -0.9037  1.2218
 7990TIP3    H223935   6.453   2.185   3.764 -1.0622  2.3245 -1.2358
 7991TIP3   OH223936   3.865   4.862   4.330 -0.3810 -0.2615 -0.9714
 7991TIP3    H123937   3.907   4.909   4.403 -1.9666  0.4899 -0.4962
 7991TIP3    H223938   3.896   4.772   4.339  0.1100 -0.0026  0.1198
 7992TIP3   OH223939   4.706   3.040   5.465 -0.1905 -0.3926  0.5278
 7992TIP3    H123940   4.742   3.060   5.551  0.0185 -1.4736  0.7055
 7992TIP3    H223941   4.629   2.986   5.484 -0.1316 -0.6525  0.0388
 7993TIP3   OH223942   5.402   0.493   1.697  0.3397  0.5227  0.0636
 7993TIP3    H123943   5.447   0.530   1.621 -0.8631  2.0997  0.0658
 7993TIP3    H223944   5.416   0.399   1.690  2.7829  0.8709 -0.4461
 7994TIP3   OH223945   6.779   4.828   3.974  0.5990 -0.3741  0.5748
 7994TIP3    H123946   6.736   4.816   4.059 -1.3034  0.9192 -0.1357
 7994TIP3    H223947   6.753   4.751   3.923 -0.8607  0.3376  0.1930
 7995TIP3   OH223948   1.949   5.840   2.117  0.2997  1.1643  0.1992
 7995TIP3    H123949   1.863   5.847   2.158 -0.4406 -0.5869 -0.9282
 7995TIP3    H223950   1.984   5.757   2.151  0.4210  0.5764 -1.3084
 7996TIP3   OH223951   2.899   0.139   0.133 -0.2335  0.1932 -0.3704
 7996TIP3    H123952   2.958   0.202   0.175  0.8882 -0.6221 -0.6537
 7996TIP3    H223953   2.893   0.066   0.194  1.8130 -1.2271 -1.7153
 7997TIP3   OH223954   6.254   6.530   5.453  0.0738 -0.4997  0.4331
 7997TIP3    H123955   6.184   6.589   5.427  1.6433  2.0860  1.7391
 7997TIP3    H223956   6.213   6.472   5.518 -1.0765  0.2897  0.4431
 7998TIP3   OH223957   0.091   4.715   0.149 -0.1189 -0.5513  0.4349
 7998TIP3    H123958   0.047   4.761   0.078  1.6005 -0.4832 -0.6572
 7998TIP3    H223959   0.022   4.665   0.192 -1.4285  0.4253 -0.4615
 7999TIP3   OH223960   1.834   3.123   5.584  0.6044 -0.7753 -1.0159
 7999TIP3    H123961   1.891   3.082   5.519 -1.0586 -1.8172 -1.8896
 7999TIP3    H223962   1.755   3.148   5.535  0.0746  0.1267  0.2407
 8000TIP3   OH223963   4.744   2.480   0.109 -0.3869 -0.1060  0.4520
 8000TIP3    H123964   4.801   2.441   0.043 -0.5209 -2.5489  1.6767
 8000TIP3    H223965   4.730   2.570   0.079  0.9641 -0.6094 -1.8821
 8001TIP3   OH223966   6.446   0.733   5.198 -0.0370  0.1808 -0.5383
 8001TIP3    H123967   6.429   0.662   5.260  0.7141  0.6479  0.2270
 8001TIP3    H223968   6.503   0.695   5.132  0.3506  0.0591 -0.1402
 8002TIP3   OH223969   7.043   4.619   4.096  0.6076  0.0431  0.0831
 8002TIP3    H123970   7.128   4.622   4.053  0.9492  3.2817  0.7672
 8002TIP3    H223971   6.989   4.563   4.039  2.3850  0.1959 -1.8596
 8003TIP3   OH223972   2.642   5.747   3.505 -0.2660  0.2613 -0.3034
 8003TIP3    H123973   2.681   5.800   3.574 -2.8764  0.0736  1.4645
 8003TIP3    H223974   2.550   5.775   3.502 -0.6639 -1.0401 -2.4568
 8004TIP3   OH223975   0.031   5.383   1.091  0.4259 -0.5047 -0.0380
 8004TIP3    H123976  -0.062   5.390   1.115 -0.0722 -0.3862 -1.8611
 8004TIP3    H223977   0.064   5.312   1.146 -1.1986 -1.7472 -0.5655
 8005TIP3   OH223978   6.511   4.348   1.170  0.1049  0.2978  0.1030
 8005TIP3    H123979   6.563   4.416   1.213  0.1682  0.3412 -0.0426
 8005TIP3    H223980   6.489   4.287   1.240 -1.3268  1.3115  0.5620
 8006TIP3   OH223981   6.206   0.412   1.636 -0.2254 -0.2031  0.2708
 8006TIP3    H123982   6.210   0.326   1.594  0.8532 -0.1511  0.2568
 8006TIP3    H223983   6.285   0.417   1.689  0.2899  1.2218 -0.5856
 8007TIP3   OH223984   5.381   1.109   4.842 -0.1879 -0.8969  0.0619
 8007TIP3    H123985   5.461   1.061   4.821  1.1166  0.7668  0.9629
 8007TIP3    H223986   5.352   1.145   4.758 -0.2865 -1.9291 -0.3522
 8008TIP3   OH223987   1.416   2.806   2.671  0.0807 -0.2331  0.2782
 8008TIP3    H123988   1.405   2.868   2.598  0.6574 -0.0321  0.3543
 8008TIP3    H223989   1.443   2.725   2.628 -1.7269 -0.7764  0.0761
 8009TIP3   OH223990   5.366   4.170   0.481 -0.3050 -0.2052 -0.2828
 8009TIP3    H123991   5.444   4.137   0.437  0.3264 -1.6541  1.7451
 8009TIP3    H223992   5.294   4.120   0.443  0.1799 -1.1775  0.0273
 8010TIP3   OH223993   0.635   1.794   3.051  0.0185 -1.1623  0.5486
 8010TIP3    H123994   0.587   1.824   3.128 -0.0914  1.4264 -0.4442
 8010TIP3    H223995   0.568   1.757   2.993 -0.4257  0.1054  0.2387
 8011TIP3   OH223996   3.257   6.537   3.185  0.0218 -1.2584  0.0652
 8011TIP3    H123997   3.206   6.604   3.231 -0.2819 -1.2320 -0.3046
 8011TIP3    H223998   3.289   6.479   3.255 -0.6003 -1.3357  0.2990
 8012TIP3   OH223999   3.964   5.768   2.337  0.3831 -0.3965  0.0060
 8012TIP3    H124000   3.904   5.792   2.267  0.2353 -1.2441 -0.1735
 8012TIP3    H224001   3.908   5.739   2.408  0.5116  0.9849  0.7031
 8013TIP3   OH224002   4.177   1.785   3.143 -0.0419  0.6210  0.2654
 8013TIP3    H124003   4.239   1.761   3.074 -1.7293 -1.8161 -0.5301
 8013TIP3    H224004   4.190   1.719   3.211  0.8405  2.3623  1.8943
 8014TIP3   OH224005   6.498   0.092   3.987 -0.5170  0.2346  0.1123
 8014TIP3    H124006   6.551   0.012   3.991 -1.4038 -0.3892 -0.2364
 8014TIP3    H224007   6.551   0.159   4.030  1.1416 -0.0286 -1.4457
 8015TIP3   OH224008   0.622   4.669   2.153 -0.5493 -0.0561  0.1056
 8015TIP3    H124009   0.584   4.749   2.187  1.3461  0.8849  0.1034
 8015TIP3    H224010   0.641   4.689   2.061 -1.8637 -1.1948 -0.4467
 8016TIP3   OH224011   0.368   3.398   0.152 -0.8487  0.2320  0.5824
 8016TIP3    H124012   0.302   3.443   0.099 -0.4925 -1.5125 -1.4907
 8016TIP3    H224013   0.401   3.328   0.095 -0.5477 -1.9090  3.1779
 8017TIP3   OH224014   1.012   0.244   1.029  0.2223 -0.5030  0.9306
 8017TIP3    H124015   0.943   0.311   1.024 -0.1519 -0.9582 -0.6749
 8017TIP3    H224016   1.079   0.276   0.969  1.3687 -0.1527  2.3580
 8018TIP3   OH224017   2.288   4.199   2.722  0.0789  0.1825 -0.2990
 8018TIP3    H124018   2.241   4.274   2.759  0.5366  1.4097 -2.0408
 8018TIP3    H224019   2.223   4.130   2.717 -0.9360  1.1172 -0.5007
 8019TIP3   OH224020   1.103   2.213   5.086 -0.5195 -0.5792 -0.2130
 8019TIP3    H124021   1.060   2.180   5.007 -0.1054 -0.5346 -0.4615
 8019TIP3    H224022   1.150   2.291   5.057  0.7898 -1.3471 -0.2446
 8020TIP3   OH224023   6.318   0.214   1.416  0.0067 -0.2558 -0.0572
 8020TIP3    H124024   6.381   0.182   1.352  0.0489 -0.3034  0.0085
 8020TIP3    H224025   6.282   0.134   1.457  0.9887 -0.2022  0.9609
 8021TIP3   OH224026   1.969   3.841   0.416  0.0238 -0.4677  1.0275
 8021TIP3    H124027   1.877   3.860   0.433 -0.6415  2.0710 -3.7609
 8021TIP3    H224028   2.016   3.919   0.445  0.2517 -0.4820  0.6992
 8022TIP3   OH224029   4.991   1.041   3.633  0.6415 -0.3773  0.2301
 8022TIP3    H124030   4.909   1.046   3.584  0.0929 -2.8315  0.7546
 8022TIP3    H224031   5.059   1.057   3.567 -0.1719  3.0607  0.0453
 8023TIP3   OH224032   4.813   2.296   4.913  0.0356 -0.2135  0.1098
 8023TIP3    H124033   4.728   2.263   4.885  0.6161 -1.2600 -0.5159
 8023TIP3    H224034   4.872   2.273   4.841  0.8567  0.4474  0.5542
 8024TIP3   OH224035   4.360   0.495   3.809 -0.4105 -0.2896 -0.0701
 8024TIP3    H124036   4.397   0.521   3.893 -0.1927  2.2034 -0.8545
 8024TIP3    H224037   4.266   0.509   3.820 -0.2513  1.4982 -0.6396
 8025TIP3   OH224038   0.238   1.294   5.701  0.1962 -0.2586 -0.3696
 8025TIP3    H124039   0.223   1.384   5.670  0.0652 -0.2137 -0.1781
 8025TIP3    H224040   0.242   1.242   5.621  2.7317  0.2497 -0.6487
 8026TIP3   OH224041   2.703   4.059   0.675  0.4016 -0.4415 -0.3014
 8026TIP3    H124042   2.657   4.137   0.644  0.2248 -0.7581 -0.8552
 8026TIP3    H224043   2.758   4.033   0.601  1.4337 -0.1049  0.3293
 8027TIP3   OH224044   4.536   1.007   2.712 -0.0239 -0.4763 -0.0053
 8027TIP3    H124045   4.604   1.034   2.774 -2.4249  0.6588  2.3256
 8027TIP3    H224046   4.496   0.930   2.752 -1.1650 -0.1307 -0.4238
 8028TIP3   OH224047   5.327   1.052   3.332  0.0492  0.4710  0.2349
 8028TIP3    H124048   5.370   0.968   3.317  2.5151  1.6388  0.2436
 8028TIP3    H224049   5.357   1.107   3.259 -0.6681  1.6506  0.7977
 8029TIP3   OH224050   3.818   4.586   2.313  0.2680 -0.3761 -0.0107
 8029TIP3    H124051   3.735   4.570   2.267  0.7096  0.4969 -1.1829
 8029TIP3    H224052   3.848   4.670   2.277  0.1260  0.9054  2.6783
 8030TIP3   OH224053   2.278   5.544   5.454  0.0081  0.0118  0.3574
 8030TIP3    H124054   2.267   5.553   5.360  1.2795  1.7037  0.3227
 8030TIP3    H224055   2.288   5.450   5.469  3.8195 -0.0899 -1.7345
 8031TIP3   OH224056   2.304   3.684   5.727  0.0912 -0.0704  0.1582
 8031TIP3    H124057   2.213   3.673   5.697  0.2522 -0.4365 -0.2064
 8031TIP3    H224058   2.300   3.759   5.786 -0.8828 -1.4731  1.9789
 8032TIP3   OH224059   2.219   1.982   3.952  0.4244 -0.3015 -0.1397
 8032TIP3    H124060   2.300   1.982   4.003  1.0678 -1.8562 -1.1184
 8032TIP3    H224061   2.165   2.049   3.994  1.4198 -0.6417  1.7982
 8033TIP3   OH224062   0.206   4.198   1.753 -0.0891 -0.0077 -0.5984
 8033TIP3    H124063   0.159   4.258   1.811  0.7678  0.6592 -0.5672
 8033TIP3    H224064   0.202   4.239   1.667 -0.5886 -0.5507 -0.8425
 8034TIP3   OH224065   2.076   6.529   1.319 -0.0215 -0.4014  0.4475
 8034TIP3    H124066   2.068   6.623   1.304  1.4440 -0.1984  0.7645
 8034TIP3    H224067   1.997   6.492   1.279  0.0982  0.8188 -1.0471
 8035TIP3   OH224068   0.617   6.373   1.150  0.1501 -0.3169  0.0305
 8035TIP3    H124069   0.678   6.300   1.140  0.6244  0.3161 -2.2922
 8035TIP3    H224070   0.545   6.353   1.090 -0.3576  0.4972  0.3402
 8036TIP3   OH224071   6.355   5.152   4.910  0.5540  0.3520 -0.3901
 8036TIP3    H124072   6.401   5.081   4.954  1.8903  1.4561  0.0605
 8036TIP3    H224073   6.405   5.167   4.829  1.4795  2.0288  0.4412
 8037TIP3   OH224074   2.103   5.489   5.211  0.0694  0.4614  0.3716
 8037TIP3    H124075   2.025   5.460   5.258 -0.5363 -1.4378 -1.6433
 8037TIP3    H224076   2.071   5.553   5.148  0.0505 -0.5615 -0.6821
 8038TIP3   OH224077   4.149   2.697   3.463  0.2744 -0.2003  0.3818
 8038TIP3    H124078   4.118   2.770   3.410 -1.3198 -1.0101  0.1747
 8038TIP3    H224079   4.165   2.626   3.401  0.9095 -0.3400  0.6933
 8039TIP3   OH224080   1.557   5.398   5.314 -0.2057 -0.0844  0.5900
 8039TIP3    H124081   1.606   5.458   5.258 -1.7659 -0.2287 -0.9978
 8039TIP3    H224082   1.469   5.398   5.278 -0.9253 -1.2661  2.2297
 8040TIP3   OH224083   3.486   0.960   1.704  0.2011 -0.7056  0.2639
 8040TIP3    H124084   3.535   0.904   1.764  1.4565  0.3819  0.3089
 8040TIP3    H224085   3.553   1.006   1.655 -0.7480  1.3357  0.7766
 8041TIP3   OH224086   6.927   3.536   3.683 -0.4560 -0.4045  0.2760
 8041TIP3    H124087   6.873   3.610   3.656  0.0413 -0.6438 -1.5458
 8041TIP3    H224088   6.920   3.535   3.778 -2.2268  0.6367  0.2188
 8042TIP3   OH224089   0.493   6.696   0.643 -0.2594 -0.3092  0.5365
 8042TIP3    H124090   0.399   6.685   0.657 -0.0194 -1.2547  1.6211
 8042TIP3    H224091   0.509   6.660   0.556 -1.0176  0.6626 -0.0219
 8043TIP3   OH224092   3.316   3.853   4.250 -0.1864 -0.7642 -0.3771
 8043TIP3    H124093   3.316   3.790   4.178  0.6722 -0.4028 -0.7131
 8043TIP3    H224094   3.402   3.895   4.245  0.1532 -1.1889  1.2786
 8044TIP3   OH224095   2.512   2.787   4.364  0.7898  0.5760 -0.0808
 8044TIP3    H124096   2.438   2.838   4.396  0.6810 -0.1031  0.8058
 8044TIP3    H224097   2.536   2.828   4.281 -0.7079  0.6965 -0.4955
 8045TIP3   OH224098   5.315   0.798   0.722 -0.2749  0.6815 -0.4666
 8045TIP3    H124099   5.333   0.710   0.687  0.2434  1.4667 -2.3215
 8045TIP3    H224100   5.389   0.816   0.779 -0.6850 -0.3037  0.4157
 8046TIP3   OH224101   7.104   4.601   1.460  0.7757  0.6807 -0.7752
 8046TIP3    H124102   7.098   4.511   1.430  0.1615  1.2896 -2.6537
 8046TIP3    H224103   7.198   4.622   1.452  1.5291 -0.6853  2.7679
 8047TIP3   OH224104   0.495   3.770   2.672  0.2905 -0.2183  0.3598
 8047TIP3    H124105   0.579   3.784   2.629  0.1378 -0.5646 -0.0662
 8047TIP3    H224106   0.516   3.720   2.751  0.4893 -0.2708  0.2742
 8048TIP3   OH224107   2.430   0.316   1.018 -0.1397  0.3409 -0.6202
 8048TIP3    H124108   2.449   0.286   0.930  0.3277 -2.0451  0.2194
 8048TIP3    H224109   2.356   0.375   1.008 -0.2609 -0.0858 -2.5662
 8049TIP3   OH224110   1.282   3.497   2.392  0.0127  0.5831 -0.5512
 8049TIP3    H124111   1.214   3.488   2.458 -0.3329  1.3409 -0.7889
 8049TIP3    H224112   1.364   3.491   2.441 -0.2416  1.4501  0.0016
 8050TIP3   OH224113   1.217   6.199   0.962  0.1578 -0.7199  0.1693
 8050TIP3    H124114   1.283   6.228   1.025 -0.6242 -0.9508  1.1225
 8050TIP3    H224115   1.133   6.227   1.001 -0.2972 -0.2324 -1.1233
 8051TIP3   OH224116   7.134   6.526   4.286 -0.1193 -0.4008 -0.1254
 8051TIP3    H124117   7.045   6.559   4.295 -0.2970 -1.1249  0.9791
 8051TIP3    H224118   7.179   6.557   4.365 -0.1778 -2.3884  0.7321
 8052TIP3   OH224119   6.605   1.986   3.312  0.1143  0.3825  0.1439
 8052TIP3    H124120   6.639   1.941   3.235 -1.3703 -0.2998 -0.1495
 8052TIP3    H224121   6.680   1.993   3.371  1.5336  1.7573 -1.6967
 8053TIP3   OH224122   0.739   1.606   0.733  0.0115 -0.2777 -0.4433
 8053TIP3    H124123   0.698   1.522   0.752 -0.0137 -0.1033  0.2914
 8053TIP3    H224124   0.681   1.671   0.773  1.2061 -0.0501  1.0088
 8054TIP3   OH224125   2.851   5.976   0.089 -0.0843  0.1881 -0.1418
 8054TIP3    H124126   2.871   6.066   0.065  1.4536  0.2664  1.2149
 8054TIP3    H224127   2.917   5.924   0.042  1.0051  0.0928  1.3833
 8055TIP3   OH224128   4.651   0.174   2.205  0.1305 -0.5204 -0.3555
 8055TIP3    H124129   4.575   0.223   2.237  1.3954  2.0329 -0.9285
 8055TIP3    H224130   4.710   0.172   2.281  0.2884 -0.7261 -0.4855
 8056TIP3   OH224131   3.157   1.842   5.705 -0.5649 -0.3623  0.7550
 8056TIP3    H124132   3.065   1.848   5.682 -0.5563 -1.9001  0.2217
 8056TIP3    H224133   3.189   1.766   5.657  1.1845  0.6253  0.2700
 8057TIP3   OH224134   7.077   5.815   4.782  0.3642 -0.3109  0.2975
 8057TIP3    H124135   7.140   5.744   4.766  0.4793 -0.5658  1.7278
 8057TIP3    H224136   6.992   5.770   4.786 -0.1213  0.1446 -2.5763
 8058TIP3   OH224137   4.648   6.546   0.988  0.3231  0.1386  0.1031
 8058TIP3    H124138   4.707   6.541   1.063 -0.3051 -1.8398  0.5276
 8058TIP3    H224139   4.621   6.455   0.973 -1.6003  0.8211 -0.8753
 8059TIP3   OH224140   0.284   4.882   2.869 -0.3096  0.3175 -0.5495
 8059TIP3    H124141   0.298   4.928   2.786 -0.9149 -1.1734 -1.5174
 8059TIP3    H224142   0.220   4.813   2.848  0.0898 -0.5677  0.9792
 8060TIP3   OH224143   2.348   0.667   2.112  0.7811  0.1463  0.1019
 8060TIP3    H124144   2.349   0.635   2.021  0.3035  1.7835 -0.5149
 8060TIP3    H224145   2.325   0.590   2.164 -1.8569 -0.2495 -1.4577
 8061TIP3   OH224146   1.576   6.762   0.814 -0.5642  0.1537 -0.3157
 8061TIP3    H124147   1.604   6.672   0.826  1.1221  0.8070  1.0672
 8061TIP3    H224148   1.534   6.785   0.897  1.9519  1.5948  0.6478
 8062TIP3   OH224149   3.552   5.676   1.212  0.1508  0.2946  0.5616
 8062TIP3    H124150   3.619   5.744   1.204  0.6675 -0.2062  0.5275
 8062TIP3    H224151   3.529   5.654   1.122  1.3774 -0.9022  0.4996
 8063TIP3   OH224152   2.222   5.844   5.807  0.0923  0.7451  0.1637
 8063TIP3    H124153   2.201   5.813   5.895 -0.8640 -1.6178 -0.8158
 8063TIP3    H224154   2.182   5.931   5.802  1.1054  1.3908  2.3889
 8064TIP3   OH224155   7.186   1.195   0.493 -0.1975 -0.6187 -0.7135
 8064TIP3    H124156   7.094   1.193   0.521  0.4344 -0.8317  1.5112
 8064TIP3    H224157   7.197   1.114   0.442 -1.0330 -1.0602 -0.2221
 8065TIP3   OH224158   3.100   6.476   4.621 -0.4320  0.2309 -0.7075
 8065TIP3    H124159   3.163   6.416   4.580  0.2296  0.7371 -0.4578
 8065TIP3    H224160   3.103   6.555   4.566 -0.7292  0.3201 -0.6001
 8066TIP3   OH224161   1.861   1.705   4.104 -0.8179  0.3416 -0.1397
 8066TIP3    H124162   1.823   1.771   4.163 -2.2335 -1.7649  1.4446
 8066TIP3    H224163   1.878   1.630   4.160  1.6362 -0.3720 -1.7032
 8067TIP3   OH224164   3.428   5.084   5.191 -0.5690  0.0810 -0.2859
 8067TIP3    H124165   3.384   5.004   5.162 -0.5326 -0.9093  2.2076
 8067TIP3    H224166   3.395   5.152   5.132  0.2447 -1.8657 -3.2446
 8068TIP3   OH224167   5.678   4.887   2.502 -0.9948  0.1115  0.5611
 8068TIP3    H124168   5.654   4.966   2.453 -0.9063  0.4669  1.0896
 8068TIP3    H224169   5.663   4.910   2.594 -1.0851 -0.5270  0.7113
 8069TIP3   OH224170   4.814   4.753   4.165  0.9215  0.3323  0.0788
 8069TIP3    H124171   4.758   4.695   4.216 -0.4070  1.3535 -0.1713
 8069TIP3    H224172   4.754   4.816   4.125  2.2771  1.6739  0.0689
 8070TIP3   OH224173   3.361   5.545   2.350 -0.4737  0.6062 -0.0078
 8070TIP3    H124174   3.333   5.464   2.393 -0.2646 -0.2098 -1.3280
 8070TIP3    H224175   3.357   5.612   2.418 -1.8520 -0.2679  0.8121
 8071TIP3   OH224176   3.332   2.303   3.137  0.1961 -0.4254  0.2310
 8071TIP3    H124177   3.270   2.230   3.143  0.1351 -0.2812  1.9280
 8071TIP3    H224178   3.316   2.353   3.217  1.0233  0.8208 -0.3693
 8072TIP3   OH224179   2.423   5.386   1.185 -0.5508 -0.1816  0.2825
 8072TIP3    H124180   2.463   5.364   1.101  0.2006  0.3499  0.4933
 8072TIP3    H224181   2.443   5.311   1.241  1.3071  0.6061  0.7630
 8073TIP3   OH224182   4.510   0.521   2.761 -0.1471 -0.1382 -0.2476
 8073TIP3    H124183   4.599   0.498   2.736 -0.2226  1.2859 -2.0549
 8073TIP3    H224184   4.508   0.507   2.856  1.2689 -2.3850 -0.4641
 8074TIP3   OH224185   3.646   5.995   1.974 -0.1638  0.6980  0.3312
 8074TIP3    H124186   3.573   6.054   1.954  0.7950  2.0656  0.7218
 8074TIP3    H224187   3.659   5.946   1.893 -0.9214  1.0754 -0.0377
 8075TIP3   OH224188   3.469   3.786   5.338  0.3799  0.0437  0.3282
 8075TIP3    H124189   3.505   3.769   5.425  0.8641  3.1579  0.8446
 8075TIP3    H224190   3.539   3.762   5.278  0.5593 -0.8057  0.8510
 8076TIP3   OH224191   5.531   4.208   2.331 -0.2821 -0.5994  0.7843
 8076TIP3    H124192   5.510   4.165   2.249  0.7641 -0.1046  0.2379
 8076TIP3    H224193   5.447   4.241   2.363 -0.7212 -0.9276 -0.0009
 8077TIP3   OH224194   2.575   2.062   0.423  0.1035 -0.4113 -0.0473
 8077TIP3    H124195   2.621   2.133   0.467 -1.3774  0.0329  0.8653
 8077TIP3    H224196   2.613   1.982   0.460  1.9355 -0.1419 -1.2490
 8078TIP3   OH224197   4.624   1.882   0.689  0.4895  0.3892  0.5647
 8078TIP3    H124198   4.677   1.881   0.769 -0.0070 -0.7961  0.9060
 8078TIP3    H224199   4.663   1.814   0.634  0.6343  0.9865 -0.0891
 8079TIP3   OH224200   4.547   5.725   5.718 -0.1136  0.1804  0.4525
 8079TIP3    H124201   4.480   5.678   5.767  0.7385 -0.4454  1.0535
 8079TIP3    H224202   4.523   5.711   5.626 -1.3223  0.7639  0.6670
 8080TIP3   OH224203   5.425   0.807   3.261  0.1829  0.2775  0.5872
 8080TIP3    H124204   5.401   0.764   3.179  2.1752 -1.4306  0.8232
 8080TIP3    H224205   5.363   0.775   3.325  0.0951 -0.2651  0.2319
 8081TIP3   OH224206   1.023   5.803   2.559  0.4020  0.4073 -0.2812
 8081TIP3    H124207   1.001   5.888   2.522 -0.8106  0.2988  0.1481
 8081TIP3    H224208   1.065   5.755   2.487 -1.0265  0.5383 -1.2344
 8082TIP3   OH224209   6.113   2.237   4.880 -0.1085 -0.1986  0.0414
 8082TIP3    H124210   6.059   2.310   4.911  0.0608  0.3492 -0.8991
 8082TIP3    H224211   6.110   2.173   4.951 -0.2192  0.7438  0.9136
 8083TIP3   OH224212   1.804   4.935   4.334  0.2698  0.3395  0.6580
 8083TIP3    H124213   1.801   4.865   4.269  0.6917 -0.1315  1.1392
 8083TIP3    H224214   1.737   4.911   4.398 -1.4564  1.7531 -0.5232
 8084TIP3   OH224215   2.052   5.552   0.418 -0.2569 -0.2913  0.2085
 8084TIP3    H124216   2.097   5.616   0.363  1.5868 -0.7248  1.1107
 8084TIP3    H224217   2.069   5.581   0.507 -0.6150 -1.2451  0.5954
 8085TIP3   OH224218   0.140   2.881   4.089  0.2154 -0.5804 -0.1247
 8085TIP3    H124219   0.184   2.961   4.118 -0.4589 -0.4291  0.5037
 8085TIP3    H224220   0.201   2.842   4.027  1.2399 -0.3804  0.7332
 8086TIP3   OH224221   2.058   3.598   0.515 -0.1499  0.0629 -0.1823
 8086TIP3    H124222   1.979   3.592   0.569  0.8383 -1.7831  1.1488
 8086TIP3    H224223   2.047   3.680   0.467 -3.1598 -0.4207 -0.5435
 8087TIP3   OH224224   4.715   3.554   1.031  0.3096 -0.2860 -0.3077
 8087TIP3    H124225   4.725   3.555   0.936 -0.2603  1.9573 -0.4088
 8087TIP3    H224226   4.800   3.583   1.064  0.2325 -0.2102 -0.1769
 8088TIP3   OH224227   4.338   3.968   2.755  0.1906 -0.3492  0.1428
 8088TIP3    H124228   4.353   3.875   2.741 -1.1169 -0.9011  2.0860
 8088TIP3    H224229   4.265   3.990   2.695 -0.2204 -0.8390  0.4572
 8089TIP3   OH224230   1.069   5.364   1.334  0.1158 -0.4981  0.3423
 8089TIP3    H124231   0.982   5.348   1.297  0.6107  1.4707 -1.9757
 8089TIP3    H224232   1.059   5.349   1.428 -2.2736 -1.9599 -0.0647
 8090TIP3   OH224233   1.588   3.964   3.144 -0.1770  0.1458  0.3042
 8090TIP3    H124234   1.573   3.972   3.049 -0.7185  0.0931  0.3843
 8090TIP3    H224235   1.637   3.882   3.153 -1.1838 -0.4994  0.1663
 8091TIP3   OH224236   7.107   3.383   4.133  0.0356  0.0480 -0.3276
 8091TIP3    H124237   7.053   3.442   4.185  1.8404  0.9481  0.6151
 8091TIP3    H224238   7.121   3.430   4.051 -0.1017  0.0818 -0.3326
 8092TIP3   OH224239   1.805   1.002   4.782  0.1553  0.1686 -0.2612
 8092TIP3    H124240   1.792   1.093   4.754  1.4883  0.9989  1.5285
 8092TIP3    H224241   1.865   0.966   4.717  0.3051  0.8595 -0.5238
 8093TIP3   OH224242   0.578   1.948   2.031 -0.3419 -0.2513 -0.1699
 8093TIP3    H124243   0.561   1.932   1.938  0.0179 -0.7742 -0.1497
 8093TIP3    H224244   0.510   2.010   2.057  1.3581  2.3902 -1.5207
 8094TIP3   OH224245   5.263   6.359   5.638  0.3498  0.2140  0.2507
 8094TIP3    H124246   5.199   6.325   5.701 -0.5721  0.4887 -0.5057
 8094TIP3    H224247   5.271   6.289   5.573  0.0258  0.5910 -0.2029
 8095TIP3   OH224248   0.827   0.191   0.761 -0.3903  0.2410  0.1643
 8095TIP3    H124249   0.905   0.228   0.721 -0.0218 -0.7083 -0.0203
 8095TIP3    H224250   0.765   0.183   0.689 -0.6761  1.0052  0.3131
 8096TIP3   OH224251   2.392   1.023   3.496  0.0292  0.7141  0.1727
 8096TIP3    H124252   2.401   1.072   3.578 -0.8192  0.8595  0.1887
 8096TIP3    H224253   2.481   1.015   3.463  0.2387  1.8165  0.4427
 8097TIP3   OH224254   0.139   1.183   4.601 -0.2831  0.3579 -0.2312
 8097TIP3    H124255   0.202   1.133   4.549 -0.3229 -1.1693  1.0844
 8097TIP3    H224256   0.161   1.162   4.692 -2.5936 -0.1713  0.2849
 8098TIP3   OH224257   2.264   3.682   3.999 -0.3989  0.0895 -0.4783
 8098TIP3    H124258   2.310   3.604   4.032  1.4932  0.3493 -2.3029
 8098TIP3    H224259   2.178   3.649   3.974  0.3158 -1.4314 -1.0869
 8099TIP3   OH224260   3.590   1.674   0.983  0.5078  0.3763  0.2687
 8099TIP3    H124261   3.671   1.623   0.991  1.6197  2.2536  1.5707
 8099TIP3    H224262   3.522   1.607   0.968  2.2521 -1.2477 -0.9389
 8100TIP3   OH224263   4.685   0.810   3.415  0.0221  0.7616 -0.1219
 8100TIP3    H124264   4.632   0.826   3.493  2.4752 -0.8910  2.0856
 8100TIP3    H224265   4.688   0.715   3.408  1.5622  0.8466 -0.9419
 8101TIP3   OH224266   1.779   4.844   2.916 -0.3300 -0.2655  0.4514
 8101TIP3    H124267   1.745   4.929   2.887 -1.8078 -0.7093  0.7601
 8101TIP3    H224268   1.727   4.780   2.867  0.4305 -0.9923  0.5814
 8102TIP3   OH224269   2.085   1.552   2.435 -0.2334  0.9340  0.3674
 8102TIP3    H124270   2.171   1.512   2.425 -0.0069  1.7492 -1.2034
 8102TIP3    H224271   2.041   1.498   2.501  0.5553 -1.0419 -0.6360
 8103TIP3   OH224272   4.575   3.005   2.042  0.7051  0.5023 -0.4916
 8103TIP3    H124273   4.552   2.946   1.970  1.4862  0.2483 -0.5493
 8103TIP3    H224274   4.537   3.089   2.018 -0.0718  0.1190 -0.6127
 8104TIP3   OH224275   0.365   1.194   0.831  0.2864 -0.2004 -0.8899
 8104TIP3    H124276   0.384   1.100   0.837  2.2465  0.2278  2.2630
 8104TIP3    H224277   0.308   1.212   0.906  0.9749  1.2906 -0.6798
 8105TIP3   OH224278   2.403   4.342   2.062  0.0621  0.2400  0.0780
 8105TIP3    H124279   2.325   4.394   2.046 -0.9949 -0.8364  1.4504
 8105TIP3    H224280   2.373   4.251   2.059  1.1535 -0.1922  1.0188
 8106TIP3   OH224281   5.660   5.427   5.048 -0.1346 -0.1083  0.3924
 8106TIP3    H124282   5.748   5.460   5.062 -0.1775 -0.0009  0.4151
 8106TIP3    H224283   5.654   5.349   5.102  0.2298 -0.6023 -0.2666
 8107TIP3   OH224284   2.700   1.563   1.501  0.0207  0.3962  0.3459
 8107TIP3    H124285   2.629   1.517   1.456 -0.5164  0.6963  0.8748
 8107TIP3    H224286   2.723   1.506   1.575 -0.9582  1.1637  1.2727
 8108TIP3   OH224287   0.608   1.085   0.655 -0.2981  0.0690 -0.5995
 8108TIP3    H124288   0.634   1.003   0.614 -0.9833 -0.3477 -0.2320
 8108TIP3    H224289   0.531   1.062   0.708 -0.8849  1.0696 -0.9823
 8109TIP3   OH224290   6.127   3.776   1.809  0.2376 -0.4508  0.3718
 8109TIP3    H124291   6.034   3.787   1.787  0.3525 -0.2516 -0.0330
 8109TIP3    H224292   6.129   3.700   1.867 -0.5528  1.2600  2.8542
 8110TIP3   OH224293   4.822   4.413   5.099 -0.6614  0.1465 -0.1081
 8110TIP3    H124294   4.831   4.491   5.153 -0.2509  0.1385 -0.1619
 8110TIP3    H224295   4.887   4.351   5.134 -0.4302  0.1218 -0.5673
 8111TIP3   OH224296   5.292   1.163   5.109 -0.2298 -0.1912  0.7428
 8111TIP3    H124297   5.317   1.089   5.165  0.1566  0.8858  2.0223
 8111TIP3    H224298   5.342   1.149   5.028 -1.0634 -1.9542  0.4699
 8112TIP3   OH224299   1.812   6.244   4.648 -0.1787  0.5379 -0.4660
 8112TIP3    H124300   1.764   6.163   4.632  0.2831  0.3569 -0.9295
 8112TIP3    H224301   1.870   6.254   4.572  0.6110  0.6969  0.1524
 8113TIP3   OH224302   6.550   4.459   3.850 -0.4943 -0.1866  0.0423
 8113TIP3    H124303   6.493   4.495   3.782 -0.7991 -0.8011 -0.0338
 8113TIP3    H224304   6.593   4.385   3.808  0.0446  0.0138  0.2317
 8114TIP3   OH224305   0.032   1.696   2.544 -0.2251  0.5368  0.1227
 8114TIP3    H124306   0.045   1.671   2.453  2.7341  2.9057 -0.2408
 8114TIP3    H224307  -0.040   1.759   2.542  0.4549  1.3071 -0.7477
 8115TIP3   OH224308   1.847   5.429   5.748 -0.4131 -0.2254 -0.5369
 8115TIP3    H124309   1.815   5.388   5.668  0.5847  0.0784 -1.0938
 8115TIP3    H224310   1.938   5.403   5.755 -0.1014  0.8823 -0.2379
 8116TIP3   OH224311   3.868   5.783   4.231 -0.0907  0.2892  0.0085
 8116TIP3    H124312   3.799   5.771   4.297  1.0787 -1.0622  1.0320
 8116TIP3    H224313   3.942   5.818   4.280 -0.0156  1.8158 -1.1038
 8117TIP3   OH224314   4.402   0.884   1.546  0.1579  0.0767  0.5018
 8117TIP3    H124315   4.412   0.979   1.537  0.0739  0.0484  0.0927
 8117TIP3    H224316   4.491   0.851   1.552  0.3729 -0.1143 -2.5108
 8118TIP3   OH224317   2.488   3.012   5.601 -0.0383 -0.1253  0.2425
 8118TIP3    H124318   2.433   3.089   5.589 -1.1041 -0.9703 -0.4147
 8118TIP3    H224319   2.458   2.950   5.535  0.8922 -1.0695  0.6756
 8119TIP3   OH224320   4.590   2.228   5.298  0.1731  0.4178 -0.1048
 8119TIP3    H124321   4.621   2.250   5.386  0.8820 -0.1029 -0.2140
 8119TIP3    H224322   4.666   2.240   5.242  0.2051 -0.8947 -0.3845
 8120TIP3   OH224323   6.954   3.849   4.662 -0.0241 -0.4181  0.2183
 8120TIP3    H124324   6.946   3.772   4.719  0.5760  0.2569  1.2441
 8120TIP3    H224325   7.034   3.892   4.692 -0.2404  0.4972 -0.4921
 8121TIP3   OH224326   4.606   3.657   2.310  0.4632  0.0561  0.0830
 8121TIP3    H124327   4.545   3.716   2.353  0.9160  0.0193  0.7915
 8121TIP3    H224328   4.635   3.597   2.379 -0.4366 -1.3822 -0.7306
 8122TIP3   OH224329   1.205   5.262   1.941  0.5863  0.8070  0.3793
 8122TIP3    H124330   1.136   5.220   1.992  0.0411  1.9627  0.6437
 8122TIP3    H224331   1.267   5.192   1.920 -1.0942 -0.4583 -0.6184
 8123TIP3   OH224332   0.966   0.329   5.478 -0.1354  0.3931  0.1550
 8123TIP3    H124333   0.980   0.281   5.397 -0.3204  1.1504 -0.3396
 8123TIP3    H224334   1.007   0.276   5.546  0.5506  0.0506 -0.5258
 8124TIP3   OH224335   1.055   4.602   1.682 -0.2508 -0.6223 -0.3893
 8124TIP3    H124336   1.030   4.678   1.631  0.1454 -0.2754 -0.0696
 8124TIP3    H224337   0.999   4.606   1.760 -0.1737 -0.6154 -0.3344
 8125TIP3   OH224338   0.552   2.364   2.857 -0.3736  0.0776 -0.6433
 8125TIP3    H124339   0.536   2.458   2.869  0.8467  0.5134 -2.1029
 8125TIP3    H224340   0.553   2.328   2.946 -0.6168  1.4999 -0.0460
 8126TIP3   OH224341   3.243   5.221   3.648  0.5525  0.1527 -0.0203
 8126TIP3    H124342   3.162   5.263   3.677  0.2992 -0.8819  0.8019
 8126TIP3    H224343   3.234   5.130   3.675  2.6969  0.3493  1.5942
 8127TIP3   OH224344   1.980   3.683   5.471  0.1924  0.0993  0.0373
 8127TIP3    H124345   1.956   3.702   5.562 -1.1145  0.0593 -0.2829
 8127TIP3    H224346   1.987   3.588   5.467  1.4683  0.1538  0.3641
 8128TIP3   OH224347   6.988   2.702   3.025  0.3601 -0.0445 -0.0317
 8128TIP3    H124348   6.958   2.781   2.981  0.0879  0.0668  0.3433
 8128TIP3    H224349   7.038   2.734   3.100  0.7715 -0.2303 -0.2208
 8129TIP3   OH224350   5.001   2.466   3.761 -0.7072 -0.1858 -0.4855
 8129TIP3    H124351   4.968   2.403   3.696 -1.6526 -2.4428  1.9757
 8129TIP3    H224352   5.065   2.416   3.812  0.8335  1.8437 -0.2985
 8130TIP3   OH224353   7.031   0.250   1.574 -0.0457  0.0714 -0.2896
 8130TIP3    H124354   7.019   0.301   1.654 -2.5255  0.0061 -0.5338
 8130TIP3    H224355   7.072   0.169   1.603  1.1494  0.9497  0.5568
 8131TIP3   OH224356   4.021   3.010   0.100  0.0513  0.3827  0.1301
 8131TIP3    H124357   4.018   2.941   0.166  0.9826 -0.8941 -1.0744
 8131TIP3    H224358   3.951   3.070   0.124 -1.7434 -1.7110  0.4921
 8132TIP3   OH224359   5.480   0.132   2.555 -0.4439  0.0944  0.5465
 8132TIP3    H124360   5.523   0.190   2.618 -0.4199  0.9997 -0.2858
 8132TIP3    H224361   5.414   0.187   2.514 -2.5313 -1.2990  1.8700
 8133TIP3   OH224362   6.140   6.598   2.316 -0.9813  0.7149  0.1382
 8133TIP3    H124363   6.066   6.570   2.369 -1.1675 -0.7931 -0.8327
 8133TIP3    H224364   6.102   6.645   2.243 -0.9428  0.4701 -0.0417
 8134TIP3   OH224365   0.731   0.753   5.870  0.0374 -0.0240 -0.2400
 8134TIP3    H124366   0.682   0.677   5.837  2.9406 -2.5085  0.6775
 8134TIP3    H224367   0.724   0.818   5.801 -0.9094 -1.8955 -2.0307
 8135TIP3   OH224368   5.759   1.020   4.627 -0.1901  0.2401  0.1776
 8135TIP3    H124369   5.763   1.062   4.541 -1.1160  0.9347  0.4535
 8135TIP3    H224370   5.757   1.093   4.689 -1.9428 -0.1680  0.6685
 8136TIP3   OH224371   3.247   6.388   1.478 -0.1211 -0.8210 -0.1852
 8136TIP3    H124372   3.279   6.310   1.433 -0.3675 -0.9473 -0.1447
 8136TIP3    H224373   3.325   6.439   1.498  0.2931 -2.1887  1.9474
 8137TIP3   OH224374   5.590   2.780   4.794 -0.1054 -0.4220 -0.1981
 8137TIP3    H124375   5.671   2.818   4.828 -1.4637  2.0406  0.5486
 8137TIP3    H224376   5.569   2.709   4.854  0.5590  0.0923  0.6667
 8138TIP3   OH224377   6.126   1.123   0.507  1.0299  0.2332  0.3797
 8138TIP3    H124378   6.043   1.085   0.478  0.4720  0.4654  1.6087
 8138TIP3    H224379   6.186   1.107   0.434 -0.0066 -0.2113 -0.4064
 8139TIP3   OH224380   0.995   0.683   3.754  0.5199  0.4837  0.2442
 8139TIP3    H124381   1.025   0.642   3.673  2.2599 -2.5561  2.2373
 8139TIP3    H224382   0.913   0.637   3.775 -0.4440  1.9317 -0.2070
 8140TIP3   OH224383   0.105   5.138   3.640  0.0740  0.4083 -0.1814
 8140TIP3    H124384   0.174   5.082   3.605  0.6336  0.8511  0.1833
 8140TIP3    H224385   0.032   5.128   3.579  0.0378 -0.9634  0.0460
 8141TIP3   OH224386   7.114   2.526   2.859  0.0548  0.3541  0.5602
 8141TIP3    H124387   7.084   2.572   2.937 -0.3685 -0.0209  0.6224
 8141TIP3    H224388   7.192   2.575   2.830  0.2293  0.4762  1.2273
 8142TIP3   OH224389   4.968   3.420   1.565 -0.2487 -0.0158 -0.0384
 8142TIP3    H124390   4.940   3.433   1.655 -0.7455  0.1711 -0.2189
 8142TIP3    H224391   5.034   3.350   1.570 -1.5532 -1.2631  0.2482
 8143TIP3   OH224392   6.675   3.496   3.018 -0.2719  0.0018 -0.1718
 8143TIP3    H124393   6.591   3.534   3.043 -1.1893 -0.8811 -1.7435
 8143TIP3    H224394   6.689   3.424   3.079 -1.1864 -0.4851 -0.5114
 8144TIP3   OH224395   6.601   1.388   2.385  0.6436 -0.0865  0.5018
 8144TIP3    H124396   6.663   1.404   2.313  1.7187 -1.2165  1.1312
 8144TIP3    H224397   6.652   1.406   2.464 -0.0104 -0.5015  1.0286
 8145TIP3   OH224398   3.505   4.177   5.711 -0.6527  0.7551  0.1126
 8145TIP3    H124399   3.493   4.089   5.747  1.1536  0.6585  0.6021
 8145TIP3    H224400   3.462   4.235   5.773 -0.0926  0.3528  0.8966
 8146TIP3   OH224401   0.354   4.271   0.072 -0.0776  0.1300  0.2520
 8146TIP3    H124402   0.320   4.360   0.061 -2.5192 -0.7011  0.4747
 8146TIP3    H224403   0.356   4.257   0.166  1.0722  0.1964  0.2491
 8147TIP3   OH224404   1.553   2.691   0.646 -0.5689  0.1061  0.1720
 8147TIP3    H124405   1.549   2.746   0.568  0.6744  1.8809  1.2852
 8147TIP3    H224406   1.646   2.674   0.659 -0.8663 -1.3872  0.4659
 8148TIP3   OH224407   2.626   5.796   2.979 -0.1537  0.3594  0.6719
 8148TIP3    H124408   2.539   5.834   2.965  0.2730  1.1727  0.1449
 8148TIP3    H224409   2.685   5.852   2.929  0.6577 -0.2920  0.8743
 8149TIP3   OH224410   5.108   2.972   4.598  0.4424 -0.1548 -0.0925
 8149TIP3    H124411   5.051   2.899   4.624 -0.6707  1.2192  1.5510
 8149TIP3    H224412   5.178   2.972   4.662 -0.0158  0.6948  0.4274
 8150TIP3   OH224413   3.934   3.728   4.870 -0.5379  0.0483  0.6333
 8150TIP3    H124414   3.885   3.701   4.792  0.7149  0.1078 -0.1946
 8150TIP3    H224415   3.890   3.808   4.899 -2.8321 -1.5117  1.7430
 8151TIP3   OH224416   4.437   5.006   3.060 -0.5175  0.0437  1.0486
 8151TIP3    H124417   4.437   4.918   3.097 -0.7789 -1.3918 -2.0954
 8151TIP3    H224418   4.529   5.032   3.059 -0.3178 -0.6556  0.9637
 8152TIP3   OH224419   2.002   1.826   0.623  0.0078  0.3829  0.2930
 8152TIP3    H124420   2.024   1.792   0.709 -1.5452  3.4998  2.0859
 8152TIP3    H224421   2.064   1.899   0.609  0.0548  0.1054 -1.1264
 8153TIP3   OH224422   3.609   2.249   0.806  0.0830 -0.0713 -0.2629
 8153TIP3    H124423   3.690   2.247   0.859  1.4627  1.7233 -2.1663
 8153TIP3    H224424   3.635   2.288   0.723 -2.1940 -1.9535 -2.0225
 8154TIP3   OH224425   4.116   0.840   5.318 -0.0381 -0.4799  0.1876
 8154TIP3    H124426   4.125   0.913   5.258  1.4380 -0.7626  0.0265
 8154TIP3    H224427   4.206   0.813   5.337 -0.3755  0.1151  3.1589
 8155TIP3   OH224428   0.114   4.692   5.621  0.5999  0.2451  0.5939
 8155TIP3    H124429   0.183   4.753   5.594  0.1194  0.2302 -0.7150
 8155TIP3    H224430   0.040   4.748   5.643  0.5970  0.1981  0.7034
 8156TIP3   OH224431   3.502   2.692   2.013 -0.4114 -0.0892 -0.2427
 8156TIP3    H124432   3.503   2.676   2.108 -2.4424 -0.4772 -0.2425
 8156TIP3    H224433   3.534   2.782   2.004  1.1878 -0.5366  0.6645
 8157TIP3   OH224434   0.554   0.930   3.407  0.3740  0.6104  0.2362
 8157TIP3    H124435   0.569   1.024   3.400  2.8038  0.3189  0.5633
 8157TIP3    H224436   0.640   0.894   3.427 -0.6624 -1.6130  0.9623
 8158TIP3   OH224437   2.302   6.022   5.008  0.0828  0.3425  0.1389
 8158TIP3    H124438   2.337   6.039   4.920  0.0276  0.0342  0.0579
 8158TIP3    H224439   2.223   5.970   4.993 -0.3754  0.9694  0.3244
 8159TIP3   OH224440   3.288   0.981   5.348 -0.7031  0.0307  0.1084
 8159TIP3    H124441   3.350   1.053   5.359 -0.9078  0.3594 -0.7554
 8159TIP3    H224442   3.242   1.002   5.266 -1.9722 -0.1910  0.7473
 8160TIP3   OH224443   0.903   1.599   4.443  0.5480  0.6467 -0.1218
 8160TIP3    H124444   0.878   1.634   4.357  1.1178 -0.2517 -0.6758
 8160TIP3    H224445   0.932   1.510   4.424  0.8668  0.5062  0.9882
 8161TIP3   OH224446   0.993   4.113   0.933 -0.3857  0.0245  0.4327
 8161TIP3    H124447   0.982   4.037   0.990 -0.0328 -0.1065  0.3319
 8161TIP3    H224448   1.042   4.176   0.985 -1.0958  0.3771  0.6826
 8162TIP3   OH224449   3.335   0.435   4.840  0.9277  0.0541  0.5834
 8162TIP3    H124450   3.414   0.381   4.829  0.6460 -0.2403 -0.0090
 8162TIP3    H224451   3.343   0.503   4.773 -0.9506 -1.9365 -1.8467
 8163TIP3   OH224452   4.792   2.208   4.516  0.0184 -0.6638  0.3028
 8163TIP3    H124453   4.853   2.257   4.570  2.2984 -0.0868 -2.5143
 8163TIP3    H224454   4.791   2.120   4.555 -0.5019  0.3439  2.7026
 8164TIP3   OH224455   6.169   5.179   5.148  0.7159 -0.2792 -0.1080
 8164TIP3    H124456   6.180   5.084   5.142 -0.6543 -0.3847 -1.5544
 8164TIP3    H224457   6.191   5.212   5.061 -0.4177  0.5452 -0.1021
 8165TIP3   OH224458   6.950   0.344   1.322 -0.3561  0.0030  0.1795
 8165TIP3    H124459   6.859   0.316   1.311 -0.5387  0.3641  0.7177
 8165TIP3    H224460   6.977   0.305   1.405  0.1526 -0.5308 -0.2280
 8166TIP3   OH224461   0.901   3.106   5.079  0.3616 -0.0620  0.3943
 8166TIP3    H124462   0.963   3.111   5.006  1.4113  1.1002  1.3093
 8166TIP3    H224463   0.815   3.112   5.038  0.8818 -0.6686 -0.8391
 8167TIP3   OH224464   3.553   5.841   2.312  0.0275  0.1966 -0.0174
 8167TIP3    H124465   3.486   5.879   2.254 -0.2033 -0.6460 -0.3096
 8167TIP3    H224466   3.573   5.756   2.273  0.4805 -0.0246  0.6825
 8168TIP3   OH224467   5.368   6.734   1.265 -0.4465 -0.6366  0.0416
 8168TIP3    H124468   5.341   6.760   1.352 -0.5509 -0.7603  0.0466
 8168TIP3    H224469   5.412   6.650   1.277  2.0333  0.5994  0.3652
 8169TIP3   OH224470   2.075   6.222   0.834  0.0775  0.2249 -0.4172
 8169TIP3    H124471   2.103   6.162   0.903 -0.3773  0.5148  0.0265
 8169TIP3    H224472   2.047   6.165   0.762  0.0785 -0.0907 -0.1694
 8170TIP3   OH224473   6.052   3.480   4.708 -0.5781  0.0801 -0.4970
 8170TIP3    H124474   6.089   3.434   4.633  0.5025  1.6303 -0.9715
 8170TIP3    H224475   6.115   3.464   4.779  0.2909  1.4955 -0.9056
 8171TIP3   OH224476   0.877   4.121   4.549 -0.2670  0.0791 -0.1370
 8171TIP3    H124477   0.918   4.084   4.471 -0.5710 -0.2081 -0.1653
 8171TIP3    H224478   0.931   4.091   4.621 -1.2345 -1.5229 -0.0400
 8172TIP3   OH224479   2.851   5.460   1.599 -0.1041 -0.5057  0.5732
 8172TIP3    H124480   2.884   5.491   1.514  1.2435  0.8355  1.5377
 8172TIP3    H224481   2.913   5.393   1.626 -0.9206 -1.4302  0.2126
 8173TIP3   OH224482   1.787   4.493   5.080 -0.0248 -0.3434  0.0191
 8173TIP3    H124483   1.861   4.432   5.077  0.8518  0.7165 -0.3159
 8173TIP3    H224484   1.792   4.532   5.168 -0.0313 -0.0828 -0.0970
 8174TIP3   OH224485   4.131   4.363   0.803 -0.1601 -0.2934 -0.3892
 8174TIP3    H124486   4.143   4.449   0.763  0.1461 -0.8107 -1.4491
 8174TIP3    H224487   4.116   4.381   0.896 -0.6809  0.9269 -0.6973
 8175TIP3   OH224488   4.811   3.040   2.183  0.6497  0.0567 -0.1865
 8175TIP3    H124489   4.817   3.136   2.185 -2.3639  0.3219 -0.5956
 8175TIP3    H224490   4.734   3.021   2.130 -0.0235 -2.5303  1.5287
 8176TIP3   OH224491   3.930   2.117   3.387 -1.3055  0.0038  0.3329
 8176TIP3    H124492   4.017   2.083   3.366 -2.1372 -1.0661 -1.5730
 8176TIP3    H224493   3.916   2.093   3.478  0.2111 -0.1620  0.5529
 8177TIP3   OH224494   5.233   1.241   1.796  0.2239  0.1236 -0.2900
 8177TIP3    H124495   5.148   1.222   1.757 -0.3829  0.7977  0.6922
 8177TIP3    H224496   5.217   1.312   1.858  1.2788 -0.5205  0.7662
 8178TIP3   OH224497   1.400   0.881   2.340 -0.0641 -0.1600 -0.2957
 8178TIP3    H124498   1.353   0.925   2.270  0.4182  0.6932 -0.1100
 8178TIP3    H224499   1.336   0.872   2.410 -0.2778 -0.0916 -0.4815
 8179TIP3   OH224500   6.631   6.164   2.459  0.4668 -0.7493 -0.5535
 8179TIP3    H124501   6.724   6.186   2.457  0.6889 -1.6661 -0.9992
 8179TIP3    H224502   6.586   6.247   2.477  1.2470  0.0623 -2.1737
 8180TIP3   OH224503   0.721   0.468   5.493 -0.4265  0.7600 -0.2900
 8180TIP3    H124504   0.805   0.427   5.474 -1.3329 -0.2097 -2.4548
 8180TIP3    H224505   0.657   0.417   5.444 -2.2248  1.8489  0.8099
 8181TIP3   OH224506   4.946   1.295   0.458  0.0297  0.0054 -0.4724
 8181TIP3    H124507   4.906   1.365   0.406 -0.8397 -0.0957  0.0331
 8181TIP3    H224508   4.875   1.266   0.516  1.2687  0.9627  1.6428
 8182TIP3   OH224509   1.887   0.590   2.980 -0.2097  0.6638 -0.3489
 8182TIP3    H124510   1.844   0.563   2.899  1.8348 -1.9053 -0.7297
 8182TIP3    H224511   1.932   0.671   2.957  0.4081 -0.0645 -1.8695
 8183TIP3   OH224512   6.834   4.307   1.158 -0.4827 -0.7016 -0.1736
 8183TIP3    H124513   6.770   4.356   1.210  1.5287  0.6593  1.1752
 8183TIP3    H224514   6.845   4.359   1.079  1.7122  1.2792  1.2932
 8184TIP3   OH224515   4.790   2.098   0.438 -0.4060  0.3120  0.2049
 8184TIP3    H124516   4.774   2.187   0.407 -0.2358  0.9763  1.9318
 8184TIP3    H224517   4.830   2.053   0.363 -0.3625  1.7187 -0.6450
 8185TIP3   OH224518   1.005   5.620   5.130  0.3621 -0.3507  0.3081
 8185TIP3    H124519   1.064   5.665   5.190  3.3088 -0.7662 -2.0584
 8185TIP3    H224520   0.982   5.539   5.176 -0.7447  1.0448  2.4081
 8186TIP3   OH224521   1.623   6.676   3.168  0.2925 -0.0585 -0.4568
 8186TIP3    H124522   1.529   6.692   3.159  0.6345  1.6399 -1.4180
 8186TIP3    H224523   1.629   6.596   3.219 -1.6716  0.1694  0.1990
 8187TIP3   OH224524   5.469   0.399   1.446  0.7265 -0.2304  0.0888
 8187TIP3    H124525   5.473   0.414   1.352 -3.2682 -1.4901 -0.4888
 8187TIP3    H224526   5.503   0.310   1.457  0.5889 -0.3250 -0.2483
 8188TIP3   OH224527   4.644   5.677   4.376  0.3759 -0.3738 -0.6756
 8188TIP3    H124528   4.601   5.762   4.385 -0.5272 -0.8437 -0.4494
 8188TIP3    H224529   4.655   5.646   4.466  1.8243  0.0321 -0.6855
 8189TIP3   OH224530   5.760   2.656   4.303  0.8995 -0.3844 -0.0009
 8189TIP3    H124531   5.783   2.713   4.377  0.2944  0.2142 -0.2625
 8189TIP3    H224532   5.668   2.675   4.286  1.2965  0.2651 -1.5754
 8190TIP3   OH224533   6.082   3.295   1.968 -0.0172  0.1911  0.3605
 8190TIP3    H124534   6.053   3.220   2.019 -1.7964  1.5656  1.4889
 8190TIP3    H224535   6.001   3.331   1.930  1.0248  0.3436 -1.9087
 8191TIP3   OH224536   0.274   5.512   1.306 -0.1632  0.6311  0.3255
 8191TIP3    H124537   0.261   5.606   1.294  0.9780  1.2543  3.1422
 8191TIP3    H224538   0.348   5.505   1.366  0.4261 -2.1344 -0.5506
 8192TIP3   OH224539   2.371   4.221   0.348 -0.0609 -0.2881 -0.5109
 8192TIP3    H124540   2.339   4.167   0.420  0.5119 -0.9002 -0.7023
 8192TIP3    H224541   2.465   4.232   0.366  0.1463 -0.6655 -1.2793
 8193TIP3   OH224542   6.371   2.601   0.218  0.2543  0.0267 -0.7461
 8193TIP3    H124543   6.459   2.618   0.254  0.5327 -1.2707 -0.7580
 8193TIP3    H224544   6.354   2.510   0.241 -0.9684  0.1758 -1.0341
 8194TIP3   OH224545   6.944   0.084   4.655 -0.1378  0.0089  0.2141
 8194TIP3    H124546   6.890   0.107   4.579 -1.1327 -0.0009  0.9008
 8194TIP3    H224547   7.002   0.160   4.667  1.3499 -0.7532 -1.6607
 8195TIP3   OH224548   3.099   0.530   3.961 -0.0265  0.1062  0.0216
 8195TIP3    H124549   3.161   0.457   3.962  2.0427  1.7526 -0.0234
 8195TIP3    H224550   3.078   0.543   3.868 -1.3826 -1.1764  0.1299
 8196TIP3   OH224551   1.882   2.748   3.565 -0.2439 -0.1832 -0.4953
 8196TIP3    H124552   1.842   2.695   3.635  1.4352 -0.9642 -0.0788
 8196TIP3    H224553   1.966   2.705   3.547  1.4108  2.5309  0.1320
 8197TIP3   OH224554   0.922   1.742   3.323 -0.2158  0.2075 -0.1617
 8197TIP3    H124555   0.983   1.801   3.278  0.5191  0.3992  1.0610
 8197TIP3    H224556   0.883   1.690   3.252 -0.2059  1.5186 -1.1689
 8198TIP3   OH224557   1.976   1.416   5.022  0.1310  0.3462  0.0418
 8198TIP3    H124558   1.998   1.351   5.090 -0.7853  1.1255  1.1221
 8198TIP3    H224559   1.909   1.471   5.063  1.2528  2.3086 -0.6439
 8199TIP3   OH224560   0.938   6.348   4.848 -0.8520  0.0928  0.0097
 8199TIP3    H124561   0.968   6.411   4.913  0.0135 -1.2234  0.9333
 8199TIP3    H224562   0.848   6.373   4.829 -0.2994  2.0380 -0.2116
 8200TIP3   OH224563   6.179   4.909   1.203 -0.6785  0.7096 -0.6070
 8200TIP3    H124564   6.174   4.985   1.144 -0.9583  1.4958  0.4137
 8200TIP3    H224565   6.226   4.941   1.280  2.3913 -1.0731 -1.5380
 8201TIP3   OH224566   6.497   4.700   1.395 -0.2075  0.1582  0.2080
 8201TIP3    H124567   6.530   4.769   1.452  1.0892 -2.0747  2.3899
 8201TIP3    H224568   6.570   4.640   1.385 -1.2599 -0.9246 -1.6328
 8202TIP3   OH224569   0.437   4.558   4.264  0.2445 -0.6472  0.2588
 8202TIP3    H124570   0.366   4.538   4.324  1.5754  0.8806  2.4790
 8202TIP3    H224571   0.469   4.644   4.292  1.7834 -0.4642 -1.8263
 8203TIP3   OH224572   6.253   4.498   0.375  0.2380  0.0425  0.2234
 8203TIP3    H124573   6.315   4.571   0.370  0.7731 -0.3525  0.8820
 8203TIP3    H224574   6.233   4.477   0.284  2.0599 -0.6387 -0.0736
 8204TIP3   OH224575   6.836   3.082   2.037 -0.3778  0.2944  0.2732
 8204TIP3    H124576   6.751   3.122   2.059 -0.2227  0.5754  0.3643
 8204TIP3    H224577   6.814   2.992   2.013 -0.8221  0.6331 -0.6664
 8205TIP3   OH224578   3.037   6.089   5.722  0.4613  0.1072  0.3711
 8205TIP3    H124579   3.056   6.132   5.806  1.2318 -0.1983  0.3681
 8205TIP3    H224580   2.942   6.091   5.715  0.4613  1.6773  0.4307
 8206TIP3   OH224581   1.870   3.308   3.694  0.2652 -0.3526 -0.0824
 8206TIP3    H124582   1.962   3.283   3.700 -0.0677 -1.4568  1.0264
 8206TIP3    H224583   1.855   3.360   3.773 -0.7072 -2.6151  1.3331
 8207TIP3   OH224584   1.125   0.854   1.169 -0.0615  0.1901  0.1646
 8207TIP3    H124585   1.066   0.918   1.209 -0.6227 -0.3151  0.1618
 8207TIP3    H224586   1.117   0.777   1.226 -1.2066 -0.7003 -1.1283
 8208TIP3   OH224587   1.118   1.167   2.902  0.1318 -0.2095 -0.7901
 8208TIP3    H124588   1.153   1.253   2.879 -0.5334 -0.1909 -1.8085
 8208TIP3    H224589   1.053   1.184   2.970  0.4458  0.0117 -0.5403
 8209TIP3   OH224590   5.411   3.818   4.275  0.1455 -0.7013 -0.1952
 8209TIP3    H124591   5.371   3.754   4.216  0.7483 -0.9008 -0.3916
 8209TIP3    H224592   5.369   3.901   4.252  0.5472 -0.7278 -1.0835
 8210TIP3   OH224593   4.549   5.406   1.622  0.2355 -0.5884  0.2315
 8210TIP3    H124594   4.610   5.337   1.648 -0.3110 -0.7260  1.2136
 8210TIP3    H224595   4.547   5.402   1.527  1.9485 -0.4189  0.1422
 8211TIP3   OH224596   4.445   5.055   0.789  0.2040  0.2912 -0.6638
 8211TIP3    H124597   4.455   5.148   0.767  2.4353  0.4487  0.6309
 8211TIP3    H224598   4.535   5.023   0.798 -0.4749 -1.2220  1.8662
 8212TIP3   OH224599   2.989   2.215   4.744 -0.0550 -0.1931 -0.4149
 8212TIP3    H124600   2.944   2.133   4.760  0.0570 -0.8808 -3.0715
 8212TIP3    H224601   3.082   2.191   4.739  0.1862  0.4492  0.6654
 8213TIP3   OH224602   6.906   1.544   4.637 -0.3510 -0.4231  0.0191
 8213TIP3    H124603   6.814   1.521   4.646 -0.0009 -2.1548 -0.2935
 8213TIP3    H224604   6.952   1.484   4.696  0.5332  0.8552  0.6592
 8214TIP3   OH224605   6.975   5.208  -0.003 -0.0112  0.6041  0.0018
 8214TIP3    H124606   6.970   5.301   0.016  0.3364  0.9261 -1.3605
 8214TIP3    H224607   7.065   5.184   0.020 -0.3203  0.4154  1.0695
 8215TIP3   OH224608   0.270   4.744   2.322  0.6832  0.0016  0.0841
 8215TIP3    H124609   0.340   4.735   2.387 -0.7294 -0.6344  1.5981
 8215TIP3    H224610   0.256   4.839   2.316  3.1812  0.3547 -2.0238
 8216TIP3   OH224611   6.817   2.466   0.807  0.0713  0.3012  0.1095
 8216TIP3    H124612   6.756   2.486   0.878  0.6137 -0.0832  0.6977
 8216TIP3    H224613   6.839   2.552   0.770 -2.5611  0.3297 -1.6490
 8217TIP3   OH224614   0.207   1.955   2.100 -0.5968  0.2493 -0.0250
 8217TIP3    H124615   0.233   1.888   2.036  0.0884 -0.8215  1.3050
 8217TIP3    H224616   0.129   1.919   2.142 -1.2856  1.1322 -0.5111
 8218TIP3   OH224617   4.383   4.340   4.057  0.2820 -0.0394  0.3687
 8218TIP3    H124618   4.472   4.376   4.056  0.1166  0.3681  0.1985
 8218TIP3    H224619   4.330   4.407   4.014  0.1593 -0.9707 -1.0083
 8219TIP3   OH224620   5.554   0.101   4.913  0.0596  0.0673  0.4895
 8219TIP3    H124621   5.512   0.183   4.884  0.4844  0.4631  0.9763
 8219TIP3    H224622   5.512   0.033   4.860  0.2800  0.6883 -0.4986
 8220TIP3   OH224623   4.910   0.250   1.734  0.3818 -0.0348  0.4678
 8220TIP3    H124624   4.989   0.218   1.690  1.1300  2.3277 -0.0638
 8220TIP3    H224625   4.843   0.184   1.715  0.8491  0.4543 -3.6983
 8221TIP3   OH224626   4.393   4.507   0.357  0.3161 -0.2605  0.3151
 8221TIP3    H124627   4.421   4.497   0.448 -0.6300 -0.8435  0.5622
 8221TIP3    H224628   4.469   4.484   0.305  1.6727  2.4329  0.9353
 8222TIP3   OH224629   5.270   5.579   3.096 -0.0274 -0.0800  0.2612
 8222TIP3    H124630   5.354   5.565   3.052  0.5457 -0.0803  1.3107
 8222TIP3    H224631   5.208   5.526   3.047  1.0099 -1.8630  0.7797
 8223TIP3   OH224632   6.240   6.768   1.673 -0.8917  0.3054 -0.0206
 8223TIP3    H124633   6.147   6.793   1.678 -0.8774  0.5882 -1.0620
 8223TIP3    H224634   6.285   6.834   1.727 -1.4517 -0.8482  1.9773
 8224TIP3   OH224635   6.184   5.661   1.268 -0.1387  0.8087  0.3748
 8224TIP3    H124636   6.272   5.685   1.242 -0.1921 -0.8324 -1.6031
 8224TIP3    H224637   6.128   5.726   1.225  0.0353  1.0921  0.5744
 8225TIP3   OH224638   3.459   3.913   1.092  0.1748  0.0241  0.4158
 8225TIP3    H124639   3.396   3.905   1.163 -1.6159  0.7565 -1.0416
 8225TIP3    H224640   3.544   3.899   1.135 -0.9142 -0.8538  2.4496
 8226TIP3   OH224641   2.423   2.915   3.106 -0.2786  0.6690 -0.0843
 8226TIP3    H124642   2.488   2.944   3.042 -0.9137  1.9624 -0.1823
 8226TIP3    H224643   2.399   2.827   3.078  1.7862 -0.0614  0.2469
 8227TIP3   OH224644   1.042   4.916   1.863 -0.6120 -0.4753  0.1415
 8227TIP3    H124645   1.014   4.994   1.815  0.6180  0.1296  0.3562
 8227TIP3    H224646   1.061   4.852   1.795 -1.6855 -0.6193 -0.0355
 8228TIP3   OH224647   6.871   2.935   2.926  0.2127 -0.0026 -0.3967
 8228TIP3    H124648   6.802   3.000   2.932 -0.3281 -0.5584 -0.4754
 8228TIP3    H224649   6.872   2.908   2.834 -0.6407 -1.2315 -0.0657
 8229TIP3   OH224650   6.717   1.608   4.265  0.1498  0.7341 -0.0872
 8229TIP3    H124651   6.750   1.662   4.194 -0.6642  0.0104 -1.0427
 8229TIP3    H224652   6.786   1.543   4.280  0.5606  1.2235  0.1771
 8230TIP3   OH224653   4.062   0.919   0.315 -0.2298  0.3507 -0.0229
 8230TIP3    H124654   4.020   0.960   0.240 -0.6990 -0.0647  0.0015
 8230TIP3    H224655   4.156   0.935   0.302 -0.4028  1.4966  0.0449
 8231TIP3   OH224656   0.166   5.159   2.931  0.5765  0.2465  0.1534
 8231TIP3    H124657   0.102   5.133   2.996  0.3593 -2.2229 -0.9624
 8231TIP3    H224658   0.241   5.102   2.947  0.0739 -1.2673 -2.4138
 8232TIP3   OH224659   7.210   5.924   5.699 -0.4521 -0.1325  0.0558
 8232TIP3    H124660   7.137   5.975   5.664 -0.0167 -0.1797 -0.9452
 8232TIP3    H224661   7.182   5.833   5.690 -1.2461 -0.1108  1.8789
 8233TIP3   OH224662   4.689   1.906   3.052  0.4860 -0.4876  0.1873
 8233TIP3    H124663   4.741   1.974   3.095  1.1982 -0.1237 -1.1950
 8233TIP3    H224664   4.619   1.954   3.007 -0.0346 -0.8289  0.6217
 8234TIP3   OH224665   4.085   4.645   0.839 -0.4811  0.0747 -0.1172
 8234TIP3    H124666   4.132   4.690   0.908  0.3412  1.2205 -1.3703
 8234TIP3    H224667   4.048   4.715   0.785  0.0955 -0.7405 -1.6265
 8235TIP3   OH224668   2.854   1.767   4.544 -0.3525  0.3631 -0.3439
 8235TIP3    H124669   2.932   1.748   4.491 -0.4945 -0.7874 -0.1709
 8235TIP3    H224670   2.838   1.686   4.593 -1.2366  0.8282  0.1609
 8236TIP3   OH224671   5.765   0.392   1.809 -0.1819 -0.3063 -0.3037
 8236TIP3    H124672   5.779   0.452   1.736  0.4352  0.9058  0.7453
 8236TIP3    H224673   5.852   0.382   1.848 -0.2536 -2.0287 -0.5351
 8237TIP3   OH224674   4.952   5.596   3.841 -0.0225  0.5940 -0.1476
 8237TIP3    H124675   4.965   5.566   3.751 -1.4869  1.9120 -0.8562
 8237TIP3    H224676   4.868   5.558   3.867  1.4657 -1.7348  1.5880
 8238TIP3   OH224677   1.002   2.382   3.785 -0.3641  0.2548 -0.8145
 8238TIP3    H124678   0.925   2.326   3.776 -1.0961  1.3296 -1.4185
 8238TIP3    H224679   1.014   2.420   3.698  0.0606  1.1040 -0.3960
 8239TIP3   OH224680   2.500   3.817   0.008 -0.1141 -0.3603  0.7834
 8239TIP3    H124681   2.421   3.825   0.063 -0.3832  0.1181  0.3299
 8239TIP3    H224682   2.471   3.765  -0.067  0.4576 -1.7074  1.4637
 8240TIP3   OH224683   2.994   3.780   2.118 -0.4677 -0.1554  0.0829
 8240TIP3    H124684   2.908   3.757   2.154 -0.5625  1.7040  1.2449
 8240TIP3    H224685   2.989   3.759   2.025 -1.2764 -2.4132  0.5893
 8241TIP3   OH224686   3.470   1.006   2.525 -0.0662 -0.0979 -0.0163
 8241TIP3    H124687   3.483   0.921   2.484 -1.6810 -0.4352  0.1027
 8241TIP3    H224688   3.547   1.019   2.580  0.7773 -0.9150 -0.9885
 8242TIP3   OH224689   7.035   4.109   1.676 -0.0348 -0.0208 -0.0639
 8242TIP3    H124690   6.960   4.152   1.634  0.1994  0.5520  0.0943
 8242TIP3    H224691   7.033   4.140   1.766 -0.8492 -1.6647  0.5118
 8243TIP3   OH224692   3.371   2.069   5.116  0.0119  0.1857 -0.1295
 8243TIP3    H124693   3.378   1.977   5.094 -1.4463 -0.3143  1.3242
 8243TIP3    H224694   3.415   2.077   5.201  0.2127  0.8514 -0.2894
 8244TIP3   OH224695   0.274   5.487   4.354 -0.1450  0.2965  0.2063
 8244TIP3    H124696   0.285   5.410   4.297 -1.3120  0.1766  0.1025
 8244TIP3    H224697   0.198   5.465   4.409 -0.6864  1.4918 -0.0323
 8245TIP3   OH224698   5.122   1.841   5.386  0.1018 -0.2128 -0.6550
 8245TIP3    H124699   5.071   1.765   5.414  1.8101 -0.8695  0.8429
 8245TIP3    H224700   5.067   1.883   5.319 -1.3528 -2.1390 -0.7605
 8246TIP3   OH224701   2.480   3.221   0.903 -0.3291 -0.3581  0.2818
 8246TIP3    H124702   2.559   3.270   0.929 -0.9856 -0.3414  2.4426
 8246TIP3    H224703   2.410   3.286   0.908 -0.6409 -0.5992 -0.7436
 8247TIP3   OH224704   3.670   1.316   0.900  0.8701 -0.0248 -0.0411
 8247TIP3    H124705   3.678   1.311   0.805  0.8301 -0.6628 -0.0181
 8247TIP3    H224706   3.578   1.335   0.916  0.5908 -1.2347 -0.1071
 8248TIP3   OH224707   3.018   4.961   3.443 -0.0662  0.0967  0.7742
 8248TIP3    H124708   2.951   5.014   3.400 -0.6715 -0.9703  0.3819
 8248TIP3    H224709   3.077   4.934   3.372 -0.7190 -1.1532  0.6858
 8249TIP3   OH224710   0.564   5.865   3.736 -0.0452  0.1843  0.2103
 8249TIP3    H124711   0.588   5.813   3.812  3.1210  1.2530  0.0840
 8249TIP3    H224712   0.585   5.809   3.661 -1.2771 -0.1175  0.0658
 8250TIP3   OH224713   2.496   6.396   3.781  0.3948 -0.1489 -0.1691
 8250TIP3    H124714   2.416   6.408   3.833 -0.7811 -0.4118 -1.8466
 8250TIP3    H224715   2.522   6.485   3.756 -0.4708 -0.1620 -1.1770
 8251TIP3   OH224716   1.668   2.084   3.135  0.4648  0.3383  0.3231
 8251TIP3    H124717   1.636   2.172   3.153 -0.5496 -0.2246  1.4656
 8251TIP3    H224718   1.755   2.081   3.176 -0.5859  0.0245  2.6918
 8252TIP3   OH224719   5.684   3.594   0.550 -0.1496 -0.1660 -0.3906
 8252TIP3    H124720   5.738   3.651   0.496 -2.7965  1.2002 -1.8294
 8252TIP3    H224721   5.633   3.542   0.487 -1.5335 -0.3350  0.8104
 8253TIP3   OH224722   0.166   5.288   5.301 -0.2144  0.4195  0.3802
 8253TIP3    H124723   0.081   5.322   5.274 -1.1102 -0.8692  1.4465
 8253TIP3    H224724   0.172   5.202   5.259  1.7240  1.4952 -1.7572
 8254TIP3   OH224725   3.069   6.174   3.166 -0.0421 -0.1208  0.1481
 8254TIP3    H124726   3.026   6.252   3.201  0.6172  0.4211 -0.2348
 8254TIP3    H224727   3.002   6.105   3.171 -1.7835  1.2003 -2.5745
 8255TIP3   OH224728   0.273   0.130   0.537 -0.6500 -0.7951  0.3459
 8255TIP3    H124729   0.204   0.148   0.601 -1.5273 -0.3176 -0.7029
 8255TIP3    H224730   0.241   0.169   0.455  1.2726  0.2511  0.0225
 8256TIP3   OH224731   7.209   5.058   4.724  0.6143  0.7685 -0.4060
 8256TIP3    H124732   7.177   4.988   4.781 -0.9097  1.9552  0.2745
 8256TIP3    H224733   7.181   5.032   4.636  0.0053  0.5385 -0.1521
 8257TIP3   OH224734   5.169   0.478   4.059 -0.4639 -0.5019 -0.1026
 8257TIP3    H124735   5.123   0.396   4.042  0.0916 -0.4320 -2.1492
 8257TIP3    H224736   5.138   0.505   4.146 -4.9392 -0.0157 -1.5872
 8258TIP3   OH224737   4.228   6.527   4.821 -0.5173  0.1653 -0.4311
 8258TIP3    H124738   4.298   6.560   4.764 -0.7915  0.8244 -0.3980
 8258TIP3    H224739   4.196   6.605   4.866 -1.8796  0.0144 -1.1177
 8259TIP3   OH224740   1.801   6.116   1.341  0.3805  0.4715 -0.1309
 8259TIP3    H124741   1.765   6.147   1.424 -0.1636 -0.5992  0.0515
 8259TIP3    H224742   1.779   6.184   1.278 -1.2588  0.2292  0.1455
 8260TIP3   OH224743   1.349   1.929   2.457 -0.3777  0.7934  0.4004
 8260TIP3    H124744   1.294   2.002   2.428  0.1618  0.8386 -0.5725
 8260TIP3    H224745   1.304   1.851   2.423 -0.0526  0.8059 -0.0748
 8261TIP3   OH224746   5.518   0.761   1.835  0.2956  0.2889  0.4391
 8261TIP3    H124747   5.436   0.780   1.790  0.4052  0.8231  0.4586
 8261TIP3    H224748   5.554   0.685   1.790 -0.9203 -0.8656  1.3506
 8262TIP3   OH224749   0.669   3.487   5.755 -0.1082 -0.0037 -0.5443
 8262TIP3    H124750   0.595   3.501   5.813  0.6157 -0.6090  0.5460
 8262TIP3    H224751   0.667   3.393   5.736 -0.1537  0.1345 -1.2682
 8263TIP3   OH224752   4.911   6.211   3.390  0.3897  0.0510  0.2198
 8263TIP3    H124753   4.970   6.179   3.321 -0.2360 -1.9735  0.5598
 8263TIP3    H224754   4.955   6.289   3.425  2.3144 -0.7589 -0.2681
 8264TIP3   OH224755   5.622   1.644   1.161  0.4187 -0.4679  0.2403
 8264TIP3    H124756   5.570   1.658   1.241  0.3707 -0.0304  0.1380
 8264TIP3    H224757   5.571   1.686   1.092  0.3003 -1.1382 -0.0790
 8265TIP3   OH224758   2.808   3.166   1.733  0.6298 -0.2728  0.2935
 8265TIP3    H124759   2.744   3.123   1.676 -0.7583  2.8149 -0.6758
 8265TIP3    H224760   2.885   3.177   1.679  0.8090 -0.9810  0.3860
 8266TIP3   OH224761   0.156   2.432   2.744 -0.6691 -0.0735  0.0307
 8266TIP3    H124762   0.063   2.422   2.765 -0.8450  2.7065  0.9973
 8266TIP3    H224763   0.167   2.526   2.730  1.9587 -0.3802 -0.3910
 8267TIP3   OH224764   4.276   6.120   5.622  0.1466 -0.2277 -0.0836
 8267TIP3    H124765   4.317   6.108   5.708 -1.7755 -1.9580  0.6689
 8267TIP3    H224766   4.315   6.051   5.568  0.8320  0.4099 -0.4146
 8268TIP3   OH224767   5.268   4.561   4.885  0.1397  0.0172  0.8125
 8268TIP3    H124768   5.337   4.518   4.836  0.2556  1.9603 -0.8736
 8268TIP3    H224769   5.292   4.549   4.977  1.3022 -1.5129  0.3529
 8269TIP3   OH224770   4.023   5.494   5.786 -0.1852 -0.0720  0.0439
 8269TIP3    H124771   4.030   5.439   5.864  1.8649  0.0011 -0.0208
 8269TIP3    H224772   4.010   5.433   5.714 -1.0936 -0.2172  0.3243
 8270TIP3   OH224773   6.999   0.079   5.528 -0.4751  0.1627  0.1663
 8270TIP3    H124774   7.071   0.138   5.549  0.0656 -1.1444  2.3267
 8270TIP3    H224775   6.924   0.115   5.577 -0.6326  0.1143 -0.0386
 8271TIP3   OH224776   5.311   0.324   3.270  0.4972  0.2000  0.5008
 8271TIP3    H124777   5.293   0.241   3.226  0.1046  0.4033  0.2754
 8271TIP3    H224778   5.245   0.384   3.236  0.0927  0.3244  1.4627
 8272TIP3   OH224779   1.854   6.049   5.403  0.2407 -0.3162  0.5064
 8272TIP3    H124780   1.777   6.067   5.456  0.4988  0.7183  0.5481
 8272TIP3    H224781   1.920   6.111   5.434  0.6092 -0.1519 -0.5625
 8273TIP3   OH224782   1.228   1.668   4.223  0.0480 -0.0697  0.6115
 8273TIP3    H124783   1.316   1.703   4.210  0.6244 -1.3361  0.9299
 8273TIP3    H224784   1.224   1.592   4.165 -1.0279  0.2569  0.2244
 8274TIP3   OH224785   3.963   0.660   1.165  0.6895  0.1462  0.0508
 8274TIP3    H124786   4.057   0.646   1.179  1.0801 -1.7219 -3.3348
 8274TIP3    H224787   3.921   0.584   1.205  0.8590 -0.1742 -0.3708
 8275TIP3   OH224788   3.076   4.247   3.208 -0.1642 -0.7732 -0.2789
 8275TIP3    H124789   3.024   4.326   3.191  1.6988  0.2087 -1.8160
 8275TIP3    H224790   3.074   4.238   3.303  1.2862  2.4370  0.1940
 8276TIP3   OH224791   3.773   2.492   5.656 -0.2270 -0.2711  0.7358
 8276TIP3    H124792   3.709   2.562   5.636  0.4037 -0.2137 -1.3701
 8276TIP3    H224793   3.853   2.520   5.612  0.8837 -1.0122  2.2034
 8277TIP3   OH224794   2.860   5.819   5.476 -0.4859 -0.0541 -0.0055
 8277TIP3    H124795   2.836   5.729   5.498  0.8988 -0.7372 -1.1057
 8277TIP3    H224796   2.942   5.834   5.523  1.4310 -0.8414 -2.7627
 8278TIP3   OH224797   6.602   3.874   2.993 -0.3371 -0.1979  0.2904
 8278TIP3    H124798   6.551   3.955   2.987 -0.5387 -0.1403  2.3675
 8278TIP3    H224799   6.688   3.903   3.025 -0.2779 -0.7550  0.6416
 8279TIP3   OH224800   0.256   5.303   5.571 -0.0121  0.3797 -0.0744
 8279TIP3    H124801   0.198   5.361   5.620  0.1654  0.5772 -0.0966
 8279TIP3    H224802   0.230   5.314   5.480  0.1614  0.5856 -0.1004
 8280TIP3   OH224803   0.873   3.725   1.232 -0.5862  0.6152  0.1921
 8280TIP3    H124804   0.837   3.637   1.226  1.1591 -0.0972 -0.4740
 8280TIP3    H224805   0.799   3.783   1.213 -1.3536 -0.7679 -1.1960
 8281TIP3   OH224806   2.441   4.011   0.993 -0.3798 -0.2061  0.2625
 8281TIP3    H124807   2.449   4.090   1.046  0.6250 -1.0402  1.3991
 8281TIP3    H224808   2.531   3.984   0.975 -0.6589 -1.8772  1.1442
 8282TIP3   OH224809   3.811   3.217   3.264 -0.0821  0.0389  0.6261
 8282TIP3    H124810   3.887   3.274   3.251  0.9021 -0.9496  1.8558
 8282TIP3    H224811   3.752   3.268   3.320 -1.3089  1.6084 -1.8973
 8283TIP3   OH224812   0.329   2.651   5.127 -0.1897 -0.0787  0.3828
 8283TIP3    H124813   0.264   2.682   5.190  0.8389 -0.0436  1.4587
 8283TIP3    H224814   0.385   2.591   5.178  0.3690 -0.4328 -0.6174
 8284TIP3   OH224815   5.461   5.948   2.602  0.1499  0.1371  0.0316
 8284TIP3    H124816   5.465   6.035   2.563  1.9286  0.1882  0.2588
 8284TIP3    H224817   5.418   5.893   2.536 -1.1521  1.1868 -0.0398
 8285TIP3   OH224818   0.036   4.369   4.215  0.3714 -0.6591 -0.3803
 8285TIP3    H124819  -0.043   4.317   4.228  0.0111  0.1476  0.8372
 8285TIP3    H224820   0.107   4.312   4.245  0.0704 -0.7575  0.1459
 8286TIP3   OH224821   1.551   3.785   4.183 -0.0706 -0.4670  0.2902
 8286TIP3    H124822   1.599   3.783   4.100 -0.4409 -1.4637  0.0930
 8286TIP3    H224823   1.521   3.876   4.191  0.1052 -0.3236 -0.5865
 8287TIP3   OH224824   0.793   5.442   1.313  0.3423  0.1079 -0.0486
 8287TIP3    H124825   0.704   5.450   1.279  0.3646 -2.6947 -1.0741
 8287TIP3    H224826   0.850   5.472   1.241  0.2486  0.9546  0.2300
 8288TIP3   OH224827   3.759   4.208   3.642  0.0665  0.1872  1.0535
 8288TIP3    H124828   3.744   4.126   3.594 -2.7168  0.5681  1.1214
 8288TIP3    H224829   3.814   4.182   3.716  0.0349 -1.4236  0.5524
 8289TIP3   OH224830   3.233   6.213   1.255 -0.3476  0.5919  0.2261
 8289TIP3    H124831   3.164   6.274   1.228 -1.3262 -0.7729 -0.4913
 8289TIP3    H224832   3.243   6.153   1.181  1.2454  0.4285  0.5466
 8290TIP3   OH224833   3.942   2.927   3.253  0.0302 -0.0156  0.2806
 8290TIP3    H124834   3.942   2.847   3.200 -0.6158  0.1381  0.0415
 8290TIP3    H224835   3.935   2.998   3.190 -0.5090  0.1812  0.5587
 8291TIP3   OH224836   6.227   3.260   1.726  0.2026  0.1557  0.1737
 8291TIP3    H124837   6.175   3.316   1.669  0.8334 -0.5471 -1.1360
 8291TIP3    H224838   6.196   3.281   1.814 -2.8494 -0.7387 -0.5482
 8292TIP3   OH224839   3.050   4.420   0.447  0.2109 -0.3081 -0.0871
 8292TIP3    H124840   3.083   4.350   0.391  1.2513  0.6627 -0.7353
 8292TIP3    H224841   2.965   4.442   0.411 -0.0313 -1.0742 -0.0079
 8293TIP3   OH224842   4.773   4.979   3.368 -0.1011 -0.3266 -0.2182
 8293TIP3    H124843   4.858   4.954   3.331 -0.5263  0.4112 -1.7983
 8293TIP3    H224844   4.725   4.896   3.377 -0.3123 -0.4866 -2.2858
 8294TIP3   OH224845   6.478   5.333   3.419  0.5494 -0.7201 -0.4211
 8294TIP3    H124846   6.459   5.396   3.349 -0.7476  0.5932  1.0351
 8294TIP3    H224847   6.512   5.256   3.373  0.2128  0.2639 -2.4482
 8295TIP3   OH224848   1.953   3.764   0.879  0.2246 -0.4946 -0.0533
 8295TIP3    H124849   1.867   3.724   0.878 -0.3579  0.6611  0.9289
 8295TIP3    H224850   1.936   3.857   0.866  1.4058 -0.3581 -0.7657
 8296TIP3   OH224851   0.444   4.410   1.320 -0.1792  0.0327  0.0384
 8296TIP3    H124852   0.410   4.486   1.274 -0.2580  0.6949  1.1677
 8296TIP3    H224853   0.539   4.421   1.320 -0.2749  1.9700  3.1494
 8297TIP3   OH224854   3.436   5.830   4.172  0.3442 -0.0326  0.6671
 8297TIP3    H124855   3.493   5.906   4.182 -0.1733  0.4366  0.1177
 8297TIP3    H224856   3.462   5.790   4.089 -0.4909  0.5076  0.1353
 8298TIP3   OH224857   3.797   0.982   1.292 -0.1275 -0.1494  1.0589
 8298TIP3    H124858   3.884   0.964   1.328 -0.2266 -0.3844  1.1841
 8298TIP3    H224859   3.757   0.896   1.282 -0.3771 -0.0350  1.0753
 8299TIP3   OH224860   1.063   0.814   4.537 -0.0954 -0.3041  0.3449
 8299TIP3    H124861   1.001   0.805   4.610  2.3298  0.6137  2.6907
 8299TIP3    H224862   1.101   0.901   4.549  1.7033 -0.8614 -0.8855
 8300TIP3   OH224863   2.018   1.858   5.310  0.4976  0.3736  0.2718
 8300TIP3    H124864   1.994   1.798   5.379 -0.5965  0.8069  0.2851
 8300TIP3    H224865   1.958   1.838   5.238 -0.5164  2.0085  0.5951
 8301TIP3   OH224866   6.223   2.421   3.668 -0.0225 -0.2879 -0.2306
 8301TIP3    H124867   6.265   2.437   3.753 -1.5837  1.8451  0.2307
 8301TIP3    H224868   6.170   2.499   3.653 -2.5387 -2.1305 -1.5312
 8302TIP3   OH224869   6.227   0.893   5.304 -0.1311  0.0633  0.0349
 8302TIP3    H124870   6.291   0.832   5.267 -0.9860 -0.5622 -0.4385
 8302TIP3    H224871   6.147   0.878   5.253 -0.5241  1.1743  0.2938
 8303TIP3   OH224872   5.586   1.707   2.944  0.4542  0.5663 -0.2853
 8303TIP3    H124873   5.532   1.675   2.872 -0.6649  0.0077  0.7609
 8303TIP3    H224874   5.675   1.702   2.911 -0.0288  0.4099 -1.6526
 8304TIP3   OH224875   3.047   2.080   4.244  0.1309 -0.1363  0.6228
 8304TIP3    H124876   3.081   2.136   4.314  0.7117 -0.6022  0.7181
 8304TIP3    H224877   3.058   1.991   4.277 -1.2811 -0.3065  0.6965
 8305TIP3   OH224878   0.977   2.962   1.316 -0.2871 -0.1517  0.4681
 8305TIP3    H124879   0.923   2.900   1.268 -1.2571  1.0235 -0.0145
 8305TIP3    H224880   1.053   2.977   1.259  1.1834 -2.6197  1.6179
 8306TIP3   OH224881   1.406   3.341   2.085  0.2589 -0.5573 -0.1638
 8306TIP3    H124882   1.389   3.262   2.137  0.5279 -0.4942  0.0189
 8306TIP3    H224883   1.492   3.326   2.045  1.1166  0.3821  1.2565
 8307TIP3   OH224884   4.179   2.494   1.463 -0.0613  0.1022  0.5824
 8307TIP3    H124885   4.200   2.414   1.510  1.0774 -0.5091 -0.9164
 8307TIP3    H224886   4.083   2.496   1.462 -0.1051 -0.6403  1.5872
 8308TIP3   OH224887   2.542   0.831   5.456 -0.4207 -0.2423  0.2694
 8308TIP3    H124888   2.629   0.856   5.486 -0.0070 -2.1153  0.6934
 8308TIP3    H224889   2.557   0.778   5.378 -1.2548  0.2363 -0.2472
 8309TIP3   OH224890   6.239   5.546   3.793  0.4762 -0.1115  0.5810
 8309TIP3    H124891   6.240   5.489   3.870 -1.2096 -0.3345  0.4739
 8309TIP3    H224892   6.218   5.633   3.828  2.7782  0.4426  0.7117
 8310TIP3   OH224893   1.150   5.900   4.584  0.5509 -0.0275  0.1924
 8310TIP3    H124894   1.057   5.902   4.561  0.3393 -1.9872  0.7170
 8310TIP3    H224895   1.163   5.979   4.637 -1.0550 -0.2023  0.9189
 8311TIP3   OH224896   4.883   4.405   1.957  0.1707  0.3777 -0.4152
 8311TIP3    H124897   4.919   4.332   2.007  2.2885  2.5751  1.5887
 8311TIP3    H224898   4.954   4.429   1.896 -0.1024  1.3526 -0.3603
 8312TIP3   OH224899   6.120   3.531   2.732 -0.6254 -0.0665  0.7839
 8312TIP3    H124900   6.040   3.512   2.782 -0.0559 -2.0715  0.9981
 8312TIP3    H224901   6.096   3.512   2.641 -0.7563  0.6011  0.6731
 8313TIP3   OH224902   1.934   0.634   0.135 -0.8459  0.4793 -0.0632
 8313TIP3    H124903   1.894   0.638   0.048 -1.0772 -0.6195 -0.0147
 8313TIP3    H224904   2.026   0.613   0.117 -0.9593 -0.0554 -0.0352
 8314TIP3   OH224905   5.136   1.066   2.490 -0.7077  0.4543  0.5404
 8314TIP3    H124906   5.142   1.066   2.395 -0.6475 -0.7918  0.5237
 8314TIP3    H224907   5.227   1.069   2.520 -0.4551 -2.6686  0.4695
 8315TIP3   OH224908   6.131   6.165   0.144 -0.4173  0.0151 -0.0920
 8315TIP3    H124909   6.188   6.240   0.161  2.3482 -2.0552  0.5086
 8315TIP3    H224910   6.116   6.127   0.231  0.4346 -1.5871 -0.6175
 8316TIP3   OH224911   1.434   0.375   2.929 -0.1853 -0.4349  0.2577
 8316TIP3    H124912   1.375   0.384   2.855  0.5534 -1.0521 -0.4206
 8316TIP3    H224913   1.520   0.362   2.890  0.7498  2.2063  1.1971
 8317TIP3   OH224914   0.745   3.162   1.726 -0.0391  0.2256  0.1233
 8317TIP3    H124915   0.810   3.143   1.658  0.5608 -1.7098  1.1795
 8317TIP3    H224916   0.752   3.257   1.739  0.5144  0.4970 -1.7855
 8318TIP3   OH224917   4.867   1.211   2.240  0.0610  0.2039 -0.0903
 8318TIP3    H124918   4.889   1.173   2.155  2.8093  0.3682  0.4520
 8318TIP3    H224919   4.936   1.275   2.256 -1.9291  2.1745  1.0725
 8319TIP3   OH224920   2.361   3.904   5.857 -0.4160  0.4123 -0.1373
 8319TIP3    H124921   2.419   3.925   5.930 -0.6208  1.3446 -0.2390
 8319TIP3    H224922   2.356   3.984   5.806 -1.7634  0.3379 -0.1585
 8320TIP3   OH224923   5.754   5.119   1.850  0.0090 -0.4709 -0.4501
 8320TIP3    H124924   5.738   5.208   1.880  1.0301 -0.4507  0.0806
 8320TIP3    H224925   5.746   5.066   1.929 -1.9376 -1.0564 -0.9842
 8321TIP3   OH224926   0.968   3.667   5.792  0.6926  0.2897  0.0392
 8321TIP3    H124927   0.894   3.728   5.782  1.0208  0.6926  0.0549
 8321TIP3    H224928   0.981   3.630   5.705  0.8939  0.7139 -0.1138
 8322TIP3   OH224929   4.006   4.218   2.117 -0.4999  0.3588  0.2528
 8322TIP3    H124930   3.942   4.240   2.185  1.2114  0.0947  2.0240
 8322TIP3    H224931   4.034   4.302   2.083 -0.7808  0.5293  0.4332
 8323TIP3   OH224932   2.540   6.661   3.743  0.3447  0.3002 -0.0576
 8323TIP3    H124933   2.604   6.732   3.738 -1.9046  2.5701  1.1058
 8323TIP3    H224934   2.471   6.687   3.682 -0.6889 -0.6695  0.6555
 8324TIP3   OH224935   3.647   3.721   4.085 -0.1381 -0.1344 -0.0440
 8324TIP3    H124936   3.628   3.811   4.108  0.6898 -0.0205  0.2236
 8324TIP3    H224937   3.630   3.717   3.991 -1.1323  0.0360  0.1215
 8325TIP3   OH224938   4.950   5.241   4.905  0.3709 -0.5673 -0.0646
 8325TIP3    H124939   4.962   5.220   4.998 -1.4732 -0.5317  0.2101
 8325TIP3    H224940   4.961   5.157   4.861 -0.0690 -0.8389  0.3285
 8326TIP3   OH224941   2.160   3.645   4.588 -0.1508  0.1085  0.1544
 8326TIP3    H124942   2.165   3.573   4.525  0.3341 -0.7979  1.2159
 8326TIP3    H224943   2.211   3.616   4.663 -0.1471  1.4663  0.7044
 8327TIP3   OH224944   6.050   6.213   1.612 -0.7396 -0.2697  0.0140
 8327TIP3    H124945   6.051   6.258   1.696  1.6102 -0.6648  0.2696
 8327TIP3    H224946   6.042   6.282   1.547 -1.7637  0.0993  0.5079
 8328TIP3   OH224947   4.657   2.950   5.181  0.1640  0.7090 -0.0792
 8328TIP3    H124948   4.687   2.926   5.269  0.2107 -0.9434 -0.5202
 8328TIP3    H224949   4.576   2.902   5.169  0.5811  0.2716 -1.2507
 8329TIP3   OH224950   0.965   3.582   2.507 -0.7595 -0.3716 -0.7429
 8329TIP3    H124951   0.988   3.496   2.541 -2.8977 -1.1825 -1.2258
 8329TIP3    H224952   0.946   3.567   2.414 -1.9896  0.4555 -0.6420
 8330TIP3   OH224953   2.630   4.897   4.036  0.5531  0.3131 -0.2378
 8330TIP3    H124954   2.546   4.867   4.069  0.2135  0.7290 -0.6979
 8330TIP3    H224955   2.618   4.904   3.941 -0.9788  6.2022 -0.0367
 8331TIP3   OH224956   2.211   2.942   2.198 -0.5063 -0.1781 -0.0541
 8331TIP3    H124957   2.117   2.952   2.183 -0.8515  0.8028  2.3642
 8331TIP3    H224958   2.223   2.849   2.217 -1.2947 -0.0301  1.2691
 8332TIP3   OH224959   1.490   4.008   5.126  0.1612 -0.7133  0.8659
 8332TIP3    H124960   1.433   4.085   5.131 -1.1682 -1.7006  1.7461
 8332TIP3    H224961   1.541   4.021   5.046 -1.1133  0.3449  0.1826
 8333TIP3   OH224962   0.833   6.446   0.154 -0.4198  0.5281 -0.3437
 8333TIP3    H124963   0.897   6.431   0.085 -0.9137  0.6198 -0.8338
 8333TIP3    H224964   0.834   6.541   0.169  1.1791  0.3066  1.2595
 8334TIP3   OH224965   0.712   4.667   0.486  0.4320  0.0326  0.2416
 8334TIP3    H124966   0.627   4.708   0.467 -0.0332 -1.5411 -1.3692
 8334TIP3    H224967   0.709   4.645   0.579 -1.4873 -1.1757 -0.0622
 8335TIP3   OH224968   4.710   6.367   4.229  0.0600  0.2680 -0.0864
 8335TIP3    H124969   4.750   6.363   4.316 -1.4968  0.2937  0.6633
 8335TIP3    H224970   4.724   6.457   4.201  1.4273  0.0076 -0.3076
 8336TIP3   OH224971   5.587   0.164   5.404 -0.4594 -0.1361  0.0246
 8336TIP3    H124972   5.558   0.148   5.314  0.2078 -0.4077 -0.1483
 8336TIP3    H224973   5.648   0.093   5.422  0.3591  0.6139  0.2588
 8337TIP3   OH224974   5.804   0.592   5.459 -0.3395 -0.1856 -0.2535
 8337TIP3    H124975   5.716   0.589   5.419 -1.1459  2.0498  1.1670
 8337TIP3    H224976   5.802   0.669   5.516  1.8351 -1.3611  1.5800
 8338TIP3   OH224977   6.454   3.978   5.602  0.6459 -0.1515  0.3440
 8338TIP3    H124978   6.469   4.007   5.692 -0.0174 -1.3519  0.8610
 8338TIP3    H224979   6.460   4.058   5.550 -2.2706  1.1957  1.8493
 8339TIP3   OH224980   0.941   1.901   2.019 -0.1734  0.1824 -0.2111
 8339TIP3    H124981   0.895   1.964   2.074 -1.2478 -0.4456 -0.3565
 8339TIP3    H224982   1.032   1.931   2.018 -0.4316  1.0331  0.6955
 8340TIP3   OH224983   5.273   1.456   2.568 -0.7653 -0.2853 -0.1019
 8340TIP3    H124984   5.319   1.389   2.618  0.8166  0.6210 -0.2876
 8340TIP3    H224985   5.326   1.469   2.489 -1.6547  0.3770 -0.6219
 8341TIP3   OH224986   6.166   1.798   0.462 -0.6752  0.8545  0.5952
 8341TIP3    H124987   6.138   1.761   0.378 -0.9983 -0.1798  1.1451
 8341TIP3    H224988   6.237   1.741   0.491  0.3234  1.9674  0.4300
 8342TIP3   OH224989   1.276   6.444   4.357 -0.4925 -0.0411  0.2340
 8342TIP3    H124990   1.314   6.521   4.313 -1.5373  1.4126  1.7418
 8342TIP3    H224991   1.311   6.369   4.308 -0.4411  1.4086 -2.1219
 8343TIP3   OH224992   4.831   5.694   2.937 -0.6111  0.0221  0.4364
 8343TIP3    H124993   4.840   5.771   2.994  2.7950  0.1292 -0.0427
 8343TIP3    H224994   4.840   5.620   2.996  1.5014  0.1227  0.3128
 8344TIP3   OH224995   0.943   6.541   3.338  0.1506  0.3553 -0.1839
 8344TIP3    H124996   0.971   6.632   3.350  1.5281 -0.3878  3.8165
 8344TIP3    H224997   0.853   6.540   3.369  0.8222  0.0990  1.9612
 8345TIP3   OH224998   6.168   1.203   1.913  0.7484 -0.2335 -0.5202
 8345TIP3    H124999   6.088   1.155   1.889  1.6171 -0.7354 -2.5921
 8345TIP3    H225000   6.182   1.180   2.005 -0.6314 -1.3944 -0.5502
 8346TIP3   OH225001   5.506   3.073   2.335  0.2383 -0.1056  0.4927
 8346TIP3    H125002   5.498   3.115   2.421 -0.6463  1.9978 -0.5478
 8346TIP3    H225003   5.435   3.009   2.332  0.0360  0.0807  1.1749
 8347TIP3   OH225004   0.857   5.420   4.037  0.3201 -0.1315  0.0158
 8347TIP3    H125005   0.934   5.468   4.066  0.1553 -0.6260  1.3377
 8347TIP3    H225006   0.869   5.331   4.072  0.0966 -0.7737 -1.4460
 8348TIP3   OH225007   0.738   6.178   0.888 -0.2359 -0.7400  0.1284
 8348TIP3    H125008   0.818   6.149   0.933  0.8860  1.3473 -0.4070
 8348TIP3    H225009   0.669   6.125   0.927  1.6330 -4.6840 -1.3118
 8349TIP3   OH225010   5.167   1.661   4.386 -0.7651 -0.4339  0.2227
 8349TIP3    H125011   5.211   1.672   4.471 -1.3036 -0.6429  0.5348
 8349TIP3    H225012   5.194   1.575   4.356  0.5654  0.2068 -0.5059
 8350TIP3   OH225013   0.412   3.317   4.682  0.4075 -0.6582 -0.5479
 8350TIP3    H125014   0.362   3.397   4.669  0.8414 -0.3141 -0.1423
 8350TIP3    H225015   0.352   3.257   4.726  0.3740 -0.2218  0.0099
 8351TIP3   OH225016   3.927   0.133   2.404 -0.0979 -0.3807 -0.2653
 8351TIP3    H125017   3.990   0.200   2.432  0.4723 -0.0120 -2.2620
 8351TIP3    H225018   3.842   0.168   2.429  0.1542  1.3281 -1.6032
 8352TIP3   OH225019   6.680   0.425   5.723 -0.6899  0.0426 -0.0914
 8352TIP3    H125020   6.664   0.436   5.816 -1.0326  0.1037 -0.1576
 8352TIP3    H225021   6.607   0.469   5.680  0.4374  1.6905 -0.4211
 8353TIP3   OH225022   5.057   1.720   5.768 -0.4943 -0.4352  0.1859
 8353TIP3    H125023   5.065   1.634   5.809 -2.2065 -0.9908 -0.5315
 8353TIP3    H225024   5.014   1.702   5.684 -1.2739  1.1509  0.2115
 8354TIP3   OH225025   3.282   6.274   0.974 -0.0610  0.2307  0.2004
 8354TIP3    H125026   3.292   6.321   0.891 -0.0300  0.3678  0.2812
 8354TIP3    H225027   3.202   6.309   1.012 -0.4783 -0.3646 -0.1145
 8355TIP3   OH225028   3.555   1.517   0.172  0.1937  0.1777  0.5562
 8355TIP3    H125029   3.564   1.480   0.085  0.5678 -0.3134  0.7970
 8355TIP3    H225030   3.619   1.588   0.176  1.3641 -0.8655  0.9798
 8356TIP3   OH225031   4.728   1.220   2.622 -0.0410 -0.1808  0.9258
 8356TIP3    H125032   4.719   1.227   2.527  0.4698 -0.4339  0.8563
 8356TIP3    H225033   4.822   1.220   2.638 -0.1143 -0.6642  1.3928
 8357TIP3   OH225034   2.148   2.442   1.258 -0.5244  0.1985 -0.3852
 8357TIP3    H125035   2.066   2.490   1.246 -2.2443 -2.6474 -1.2655
 8357TIP3    H225036   2.135   2.393   1.340  0.6170  0.2197 -0.1702
 8358TIP3   OH225037   5.832   3.529   3.257 -0.1795  0.2632  0.0498
 8358TIP3    H125038   5.768   3.469   3.294  0.4627 -0.1019  0.5960
 8358TIP3    H225039   5.894   3.473   3.210  0.3739  0.5016  0.4900
 8359TIP3   OH225040  -0.011   2.629   4.544  0.2033  0.6345  0.2537
 8359TIP3    H125041   0.032   2.643   4.628 -0.6253 -1.6875  1.1608
 8359TIP3    H225042   0.024   2.546   4.513 -1.2661  0.2677 -0.5194
 8360TIP3   OH225043   2.987   5.299   2.207  0.2108 -0.6146  0.3225
 8360TIP3    H125044   2.894   5.303   2.183  0.1965 -1.6909  0.1468
 8360TIP3    H225045   3.011   5.207   2.193  1.8263  0.0429 -1.5952
 8361TIP3   OH225046   0.405   4.597   1.715 -0.2741 -0.1856 -0.5087
 8361TIP3    H125047   0.399   4.539   1.791  0.2775  2.2600  1.5472
 8361TIP3    H225048   0.495   4.586   1.683  0.4916  0.8632  1.1132
 8362TIP3   OH225049   3.174   5.880   1.223 -0.9072  0.4500  0.1188
 8362TIP3    H125050   3.138   5.814   1.165  0.3828 -0.6912  0.5525
 8362TIP3    H225051   3.219   5.941   1.166 -1.9573  0.8735 -0.2732
 8363TIP3   OH225052   1.120   1.232   0.209 -0.4219  0.5683 -0.7576
 8363TIP3    H125053   1.174   1.201   0.281 -0.5209 -1.9492 -1.6685
 8363TIP3    H225054   1.031   1.212   0.235 -0.5427  0.5960 -1.1468
 8364TIP3   OH225055   0.410   3.126   1.230  0.3410  0.4981  0.4159
 8364TIP3    H125056   0.435   3.180   1.305  0.7359  0.3902  0.3611
 8364TIP3    H225057   0.483   3.066   1.218  1.4230  2.1099 -1.5954
 8365TIP3   OH225058   4.763   1.457   3.453 -0.2143  0.0056  0.4177
 8365TIP3    H125059   4.699   1.481   3.520 -0.6357 -2.4374  1.0101
 8365TIP3    H225060   4.846   1.449   3.500  0.3173  1.9383 -0.1149
 8366TIP3   OH225061   4.118   0.952   2.642  0.0510 -0.5676 -0.7570
 8366TIP3    H125062   4.176   1.000   2.702 -1.4806  0.5418 -0.1057
 8366TIP3    H225063   4.166   0.872   2.622 -0.1305 -1.9889  3.5413
 8367TIP3   OH225064   0.530   4.360   5.134  0.4021 -0.2874 -0.0639
 8367TIP3    H125065   0.507   4.452   5.117 -1.5824 -0.5070  1.1415
 8367TIP3    H225066   0.459   4.310   5.095  0.5570 -1.2136  0.8147
 8368TIP3   OH225067   0.411   4.832   1.489 -0.2566  0.3278 -0.0469
 8368TIP3    H125068   0.437   4.922   1.470 -2.0127  0.7600 -0.5597
 8368TIP3    H225069   0.370   4.801   1.408 -0.8634 -0.4768  0.5439
 8369TIP3   OH225070   4.089   5.009   4.791 -0.3931 -0.0655  0.6958
 8369TIP3    H125071   4.127   5.084   4.836  0.8968  0.8372 -1.7348
 8369TIP3    H225072   4.142   4.934   4.818  1.2513  0.6939 -0.3131
 8370TIP3   OH225073   6.235   1.428   5.349  0.3248  0.0646 -0.0899
 8370TIP3    H125074   6.237   1.365   5.421 -3.5602  0.4847  0.6125
 8370TIP3    H225075   6.231   1.375   5.270 -0.4992 -0.5372  0.3432
 8371TIP3   OH225076   3.661   6.267   4.944  0.2566 -0.3193  0.0184
 8371TIP3    H125077   3.621   6.288   4.860 -0.2375  1.1438  0.5740
 8371TIP3    H225078   3.754   6.283   4.932  0.2771 -0.7577 -0.4278
 8372TIP3   OH225079   6.603   4.820   1.178 -0.4816 -0.3020 -0.1612
 8372TIP3    H125080   6.587   4.776   1.095 -3.0832  2.6776 -1.4978
 8372TIP3    H225081   6.557   4.767   1.244 -0.0926 -1.6442 -0.9519
 8373TIP3   OH225082   5.306   6.645   4.105  0.1835 -0.2808 -0.6896
 8373TIP3    H125083   5.387   6.596   4.095 -0.2608 -1.8605  2.2952
 8373TIP3    H225084   5.332   6.727   4.146  0.4828  0.3605 -2.0888
 8374TIP3   OH225085   1.820   4.653   5.319  0.0319 -0.5691 -0.3725
 8374TIP3    H125086   1.730   4.683   5.335  0.3687  0.5508 -0.4718
 8374TIP3    H225087   1.875   4.725   5.351  0.8695 -0.8126 -1.2193
 8375TIP3   OH225088   6.818   1.379   3.372 -0.4930  0.4439  0.3707
 8375TIP3    H125089   6.871   1.367   3.451 -0.5774  1.8369  0.6680
 8375TIP3    H225090   6.800   1.290   3.341  0.4452 -0.0919  1.3113
 8376TIP3   OH225091   4.260   1.014   0.826  1.0416 -0.0523 -0.5042
 8376TIP3    H125092   4.261   0.921   0.805 -1.5270 -0.4468  0.6745
 8376TIP3    H225093   4.225   1.056   0.747  0.0589 -0.3923 -0.2624
 8377TIP3   OH225094   5.508   1.126   1.061  0.2118  0.4933  0.2098
 8377TIP3    H125095   5.554   1.209   1.076  0.7018  0.5083 -1.2308
 8377TIP3    H225096   5.493   1.091   1.149  0.2849  1.9443  0.8330
 8378TIP3   OH225097   6.258   5.715   5.374  0.0469 -0.3251 -0.2629
 8378TIP3    H125098   6.287   5.731   5.464  1.1505 -2.1325 -0.2686
 8378TIP3    H225099   6.335   5.731   5.320 -0.2487 -0.5452 -0.7594
 8379TIP3   OH225100   4.197   0.513   0.857 -0.3058 -0.3695  0.4661
 8379TIP3    H125101   4.206   0.430   0.903 -0.6291 -0.4776  0.3332
 8379TIP3    H225102   4.103   0.526   0.848 -0.2666  0.2142  0.8518
 8380TIP3   OH225103   3.396   0.778   5.519  0.1611  0.1738 -0.2861
 8380TIP3    H125104   3.492   0.777   5.514  0.1358  1.3219 -3.2083
 8380TIP3    H225105   3.370   0.855   5.470 -2.2990 -0.0617  0.5102
 8381TIP3   OH225106   4.659   1.554   5.309  0.3939  0.0346 -0.4236
 8381TIP3    H125107   4.663   1.637   5.356  1.4234 -0.1715 -0.0998
 8381TIP3    H225108   4.712   1.494   5.362 -0.8788 -1.0235 -0.2922
 8382TIP3   OH225109   4.604   2.453   1.579 -0.4057 -0.2874  0.4414
 8382TIP3    H125110   4.522   2.502   1.588 -0.2673 -0.1806  1.1822
 8382TIP3    H225111   4.592   2.375   1.633 -0.2729 -0.6143  0.0051
 8383TIP3   OH225112   3.174   2.543   5.680 -0.2314 -0.1478 -0.0813
 8383TIP3    H125113   3.234   2.524   5.607  0.5150 -0.9664  0.7240
 8383TIP3    H225114   3.139   2.458   5.705 -2.0150  0.3377 -0.7324
 8384TIP3   OH225115   6.452   3.585   5.836 -0.3959 -0.3437 -0.1737
 8384TIP3    H125116   6.451   3.649   5.907 -0.4233 -1.3534  0.7690
 8384TIP3    H225117   6.432   3.636   5.758 -1.1822  0.6675  0.6499
 8385TIP3   OH225118   4.871   0.413   4.899 -0.0338 -0.0166 -0.6081
 8385TIP3    H125119   4.842   0.333   4.943 -1.3047  0.7397 -0.0215
 8385TIP3    H225120   4.963   0.421   4.923 -0.2540 -0.5464  0.5041
 8386TIP3   OH225121   2.108   4.499   4.840  0.0711 -0.3704  0.0582
 8386TIP3    H125122   2.085   4.452   4.920  0.6507  0.6734  0.8621
 8386TIP3    H225123   2.079   4.442   4.769 -0.2262 -1.4272  1.0099
 8387TIP3   OH225124   3.859   0.921   0.086 -0.3152  0.1475  0.6674
 8387TIP3    H125125   3.776   0.961   0.060 -1.0463 -1.8369 -0.2565
 8387TIP3    H225126   3.835   0.854   0.150  0.7870  0.6458  1.6411
 8388TIP3   OH225127   1.452   1.365   4.663  0.0328 -0.1735  0.2611
 8388TIP3    H125128   1.362   1.361   4.630  0.1947 -1.0532 -0.1073
 8388TIP3    H225129   1.507   1.355   4.585  0.4278 -1.6606  0.6999
 8389TIP3   OH225130   0.514   6.098   5.355  0.5449  0.3471  0.1345
 8389TIP3    H125131   0.451   6.168   5.374 -0.1904  1.0890 -4.1032
 8389TIP3    H225132   0.595   6.127   5.398 -0.8882  1.3565  2.3899
 8390TIP3   OH225133   3.968   2.674   4.558  0.0306  0.0605  0.2504
 8390TIP3    H125134   3.960   2.764   4.590  2.4733  0.4571 -0.0195
 8390TIP3    H225135   3.895   2.664   4.496 -1.0312  1.4010  1.2236
 8391TIP3   OH225136   1.755   5.630   5.465  0.0104 -0.4430 -0.2528
 8391TIP3    H125137   1.783   5.709   5.419  0.2481 -0.4858 -0.1782
 8391TIP3    H225138   1.662   5.647   5.485  0.1934  0.0358  0.2227
 8392TIP3   OH225139   1.567   0.138   0.467  0.5556  0.6821  0.0991
 8392TIP3    H125140   1.655   0.144   0.428 -0.4047 -0.2236 -2.4169
 8392TIP3    H225141   1.524   0.069   0.418 -1.9960  1.9374  0.4103
 8393TIP3   OH225142   1.195   0.265   0.811  0.6046  0.4674 -0.3370
 8393TIP3    H125143   1.277   0.218   0.795 -1.1749 -2.3386 -1.8583
 8393TIP3    H225144   1.147   0.258   0.729 -3.1790 -2.3297  1.8304
 8394TIP3   OH225145   4.160   3.683   1.308 -0.2609  0.4216  0.3512
 8394TIP3    H125146   4.196   3.690   1.220  0.0986  2.8129  0.6063
 8394TIP3    H225147   4.065   3.681   1.296 -0.2143 -2.0624 -0.1474
 8395TIP3   OH225148   6.243   6.366   4.442 -0.3523 -0.4713 -0.4147
 8395TIP3    H125149   6.331   6.340   4.416  1.2397  1.3879  2.4886
 8395TIP3    H225150   6.231   6.452   4.401 -0.6800 -0.5590 -0.5049
 8396TIP3   OH225151   4.584   6.369   2.758 -0.2770  0.2994 -0.3800
 8396TIP3    H125152   4.662   6.318   2.778 -0.0183 -0.0855 -2.1733
 8396TIP3    H225153   4.568   6.421   2.836  1.5813  0.1498  0.1413
 8397TIP3   OH225154   5.832   0.758   2.387 -0.1920 -0.3700  0.0509
 8397TIP3    H125155   5.852   0.677   2.434 -1.6942 -2.1669 -2.1994
 8397TIP3    H225156   5.743   0.779   2.415 -0.1946 -0.0872 -0.1761
 8398TIP3   OH225157   7.106   4.439   3.384 -0.2608 -0.6532 -0.1016
 8398TIP3    H125158   7.164   4.506   3.419  0.3642 -0.3314 -1.6976
 8398TIP3    H225159   7.033   4.487   3.345 -0.1792 -0.9269 -0.6011
 8399TIP3   OH225160   0.899   3.808   2.008  0.1005  0.2655  0.1876
 8399TIP3    H125161   0.854   3.872   1.954  0.8958 -0.2057 -1.0879
 8399TIP3    H225162   0.991   3.834   2.003  0.1953  0.2058  1.3344
 8400TIP3   OH225163   4.162   4.682   5.621 -0.0767  0.1759  0.2056
 8400TIP3    H125164   4.132   4.664   5.710  0.5062  0.9504  0.5698
 8400TIP3    H225165   4.151   4.776   5.610  1.7859  0.4376  0.2154
 8401TIP3   OH225166   2.052   4.843   0.331 -0.2033 -0.5817  0.0894
 8401TIP3    H125167   2.122   4.796   0.376 -0.2199 -0.4149  0.2952
 8401TIP3    H225168   1.975   4.830   0.387  0.0153  0.5045  0.6777
 8402TIP3   OH225169   1.344   5.684   4.828 -0.0764 -0.3092 -0.1564
 8402TIP3    H125170   1.250   5.667   4.822  0.0427 -0.7806 -0.8665
 8402TIP3    H225171   1.350   5.768   4.874 -0.7321 -1.5064  2.2472
 8403TIP3   OH225172   3.333   6.614   5.737  0.2445 -0.1283  0.1885
 8403TIP3    H125173   3.380   6.531   5.741 -0.6330 -0.7737 -1.8087
 8403TIP3    H225174   3.295   6.625   5.824  1.4627 -1.1314  0.8777
 8404TIP3   OH225175   3.114   4.541   5.254  0.3026 -0.3010 -0.1650
 8404TIP3    H125176   3.179   4.519   5.321 -1.3502 -1.9978  0.9777
 8404TIP3    H225177   3.097   4.634   5.267  1.2087 -0.2387  0.6871
 8405TIP3   OH225178   5.548   6.708   5.154 -0.1269 -0.3876 -0.3219
 8405TIP3    H125179   5.565   6.721   5.061 -0.8355  0.9116 -0.2807
 8405TIP3    H225180   5.465   6.661   5.157 -0.2599 -0.1512 -0.3314
 8406TIP3   OH225181   5.420   0.383   3.994 -0.2232 -0.2888 -0.4551
 8406TIP3    H125182   5.328   0.410   3.994  0.4718  2.3621 -0.4798
 8406TIP3    H225183   5.469   0.465   4.000  2.1609 -1.7355  2.6940
 8407TIP3   OH225184   3.429   6.690   5.232 -0.1944  0.6169 -0.3837
 8407TIP3    H125185   3.344   6.696   5.188  0.0519 -0.4361 -1.0446
 8407TIP3    H225186   3.492   6.718   5.165  0.1824 -0.9615 -0.7300
 8408TIP3   OH225187   7.146   2.269   3.707 -0.0501  0.2546 -0.3572
 8408TIP3    H125188   7.188   2.314   3.782  0.0336 -0.2363 -0.1049
 8408TIP3    H225189   7.092   2.336   3.666 -0.6377  0.3542  0.5581
 8409TIP3   OH225190   2.558   0.078   3.910  0.1477 -0.1504 -0.0198
 8409TIP3    H125191   2.499   0.063   3.836 -0.1298 -0.5989  0.2874
 8409TIP3    H225192   2.614   0.001   3.913  0.9792  0.4177 -0.5067
 8410TIP3   OH225193   1.849   1.001   4.343  0.0906 -0.2276  0.1857
 8410TIP3    H125194   1.837   0.988   4.437  1.6131 -1.3303  0.2706
 8410TIP3    H225195   1.901   1.082   4.337 -0.9018  0.4244  0.2176
 8411TIP3   OH225196   5.718   2.257   0.792  0.1543  0.1155 -0.0982
 8411TIP3    H125197   5.794   2.260   0.850  0.2845  0.2995 -0.2759
 8411TIP3    H225198   5.682   2.346   0.794 -2.0839 -0.7089  2.6185
 8412TIP3   OH225199   3.013   3.461   0.718  0.3241 -0.1047 -0.3397
 8412TIP3    H125200   3.046   3.550   0.708  0.8960 -0.0727  1.4401
 8412TIP3    H225201   3.077   3.418   0.774 -0.1469 -1.5285 -0.8562
 8413TIP3   OH225202   2.395   0.784   4.095  0.4439 -0.1471  0.5727
 8413TIP3    H125203   2.383   0.871   4.133  0.5872  0.8463 -1.5272
 8413TIP3    H225204   2.309   0.760   4.061  0.8556  0.1434 -0.7325
 8414TIP3   OH225205   1.849   3.361   5.214 -0.0252 -0.1448 -0.3516
 8414TIP3    H125206   1.941   3.354   5.191 -0.4936 -1.3073 -1.9858
 8414TIP3    H225207   1.809   3.407   5.140 -1.1272 -1.6516 -0.7207
 8415TIP3   OH225208   6.982   1.765   3.538  0.6784 -0.2330  0.2922
 8415TIP3    H125209   6.930   1.843   3.555  0.7800 -0.0147 -0.3747
 8415TIP3    H225210   7.071   1.790   3.561  0.6819 -0.2030  0.2484
 8416TIP3   OH225211   7.066   2.352   0.720  0.2124  0.1966 -0.4054
 8416TIP3    H125212   7.102   2.320   0.802  0.2402  2.2579  0.4658
 8416TIP3    H225213   6.978   2.381   0.742  0.6908  2.0311 -0.7276
 8417TIP3   OH225214   6.985   0.465   3.206 -0.0367 -0.0410 -0.4123
 8417TIP3    H125215   7.071   0.442   3.172  0.1513 -0.0073  0.0326
 8417TIP3    H225216   6.923   0.415   3.152  0.2520 -0.0016 -0.7869
 8418TIP3   OH225217   3.922   5.561   1.256 -0.2436  0.5563  0.1051
 8418TIP3    H125218   3.841   5.608   1.276  0.2167  0.7964  1.5499
 8418TIP3    H225219   3.992   5.622   1.279  0.3637 -0.6839  1.7725
 8419TIP3   OH225220   0.173   4.813   4.212 -0.7143  0.7185 -0.0904
 8419TIP3    H125221   0.164   4.856   4.127 -3.3432  1.8193  0.6366
 8419TIP3    H225222   0.141   4.878   4.275 -0.3156 -0.6314  1.5775
 8420TIP3   OH225223   4.620   5.695   2.280 -0.5668 -0.0524  0.2542
 8420TIP3    H125224   4.528   5.685   2.305 -0.4718 -1.8402 -0.0068
 8420TIP3    H225225   4.668   5.641   2.342  0.3639  1.0243  0.5186
 8421TIP3   OH225226   1.596   3.762   4.487  0.1468 -0.8200  0.3213
 8421TIP3    H125227   1.684   3.725   4.494  0.2573 -0.4587  0.8706
 8421TIP3    H225228   1.582   3.807   4.570  0.3852  1.1935 -0.6832
 8422TIP3   OH225229   3.698   0.721   4.135 -0.0300  0.0816  0.4638
 8422TIP3    H125230   3.719   0.715   4.228  2.6547  0.1214 -0.0611
 8422TIP3    H225231   3.603   0.736   4.133 -0.6804 -2.7310  3.0595
 8423TIP3   OH225232   4.798   2.857   0.853 -0.2250  0.0207  0.5460
 8423TIP3    H125233   4.740   2.781   0.852  0.5161 -0.5917 -1.5215
 8423TIP3    H225234   4.768   2.910   0.927 -2.7623 -0.7473  0.1582
 8424TIP3   OH225235   4.329   3.249   5.650  0.6384 -0.2069 -0.3306
 8424TIP3    H125236   4.408   3.239   5.704  0.7133  0.1359 -0.3783
 8424TIP3    H225237   4.326   3.342   5.629 -1.3990  0.4141  2.1779
 8425TIP3   OH225238   1.501   2.020   3.807 -0.1610  0.2859  0.0607
 8425TIP3    H125239   1.576   2.027   3.866 -0.2620  0.3649  0.1799
 8425TIP3    H225240   1.436   2.079   3.844 -0.1589  0.4750 -0.2282
 8426TIP3   OH225241   3.699   0.172   0.825  0.1062  0.1434 -0.1381
 8426TIP3    H125242   3.757   0.191   0.751 -1.0094  1.1399 -0.8012
 8426TIP3    H225243   3.705   0.077   0.836  2.1172  0.2528  0.0587
 8427TIP3   OH225244   6.322   5.451   1.725 -0.1066  0.3381 -0.3290
 8427TIP3    H125245   6.290   5.529   1.770  0.3455 -0.3517  1.2435
 8427TIP3    H225246   6.386   5.484   1.662 -0.6072  1.3112 -0.3436
 8428TIP3   OH225247   5.390   1.155   2.492 -0.3728  0.4022 -0.5306
 8428TIP3    H125248   5.368   1.168   2.399  1.8520 -0.0670 -1.1874
 8428TIP3    H225249   5.478   1.116   2.490 -1.5145 -2.6078  1.6939
 8429TIP3   OH225250   0.828   2.092   2.205 -0.4244 -0.6902 -0.1129
 8429TIP3    H125251   0.814   2.124   2.116 -0.3476 -2.5870 -0.8494
 8429TIP3    H225252   0.750   2.120   2.253  0.5944  2.5028 -0.0453
 8430TIP3   OH225253   1.577   3.846   0.144 -1.0001  0.3293  1.0052
 8430TIP3    H125254   1.538   3.795   0.216  2.3067 -1.9087  1.4384
 8430TIP3    H225255   1.575   3.787   0.069 -0.2632  0.8938  0.5270
 8431TIP3   OH225256   2.275   5.307   5.122  0.3186  0.3874 -0.4072
 8431TIP3    H125257   2.354   5.347   5.088  0.8024  0.1474  0.4100
 8431TIP3    H225258   2.228   5.378   5.166  0.9424  0.1792  0.6244
 8432TIP3   OH225259   4.951   6.718   1.431  0.2459  0.5170 -0.1223
 8432TIP3    H125260   5.021   6.768   1.390  0.5932 -1.2723 -1.8593
 8432TIP3    H225261   4.880   6.720   1.367  0.2305 -1.0544 -0.1889
 8433TIP3   OH225262   1.715   4.532   1.489 -0.0694 -0.1224 -0.4260
 8433TIP3    H125263   1.809   4.537   1.509  0.0219 -0.2567 -0.8145
 8433TIP3    H225264   1.675   4.506   1.572  0.2158  0.1204 -0.2072
 8434TIP3   OH225265   4.211   3.704   1.033  0.0524 -0.0971 -0.3290
 8434TIP3    H125266   4.303   3.725   1.021  0.2630 -0.9946 -0.4006
 8434TIP3    H225267   4.169   3.733   0.952  0.2896  0.2103 -0.3432
 8435TIP3   OH225268   4.427   3.109   0.729 -0.0871  0.3972  0.0250
 8435TIP3    H125269   4.422   3.017   0.754  0.4840  0.1151 -0.8290
 8435TIP3    H225270   4.350   3.150   0.769 -0.4287 -0.4819  0.2803
 8436TIP3   OH225271   0.273   4.531   0.595 -0.0360  0.4524 -0.8218
 8436TIP3    H125272   0.196   4.475   0.609 -0.1925  0.8394 -0.0380
 8436TIP3    H225273   0.285   4.533   0.500 -0.3255 -0.5052 -0.8846
 8437TIP3   OH225274   6.982   1.352   0.657  0.4331  0.7799  0.1871
 8437TIP3    H125275   6.939   1.323   0.737 -0.8458 -0.4965 -0.8952
 8437TIP3    H225276   7.073   1.369   0.683  0.4619 -1.1786  1.6001
 8438TIP3   OH225277   3.285  -0.001   2.107 -0.4734 -0.4294 -0.0549
 8438TIP3    H125278   3.226   0.026   2.177  0.8380 -0.7944  1.2464
 8438TIP3    H225279   3.288   0.074   2.048 -3.2005 -0.8547 -0.8981
 8439TIP3   OH225280   2.127   0.239   0.082  0.1204 -0.2213 -0.1296
 8439TIP3    H125281   2.199   0.300   0.064  0.0552 -0.2243 -0.4204
 8439TIP3    H225282   2.048   0.291   0.066  0.0323  0.1671  1.4751
 8440TIP3   OH225283   2.845   4.110   1.174  0.0530  0.6489 -0.3146
 8440TIP3    H125284   2.922   4.166   1.168  0.3376  0.3907  0.6648
 8440TIP3    H225285   2.876   4.032   1.220 -0.7112  0.3859 -0.2284
 8441TIP3   OH225286   5.645   4.981   1.340 -0.0593  0.2313 -0.6300
 8441TIP3    H125287   5.616   4.997   1.430 -0.3671  0.3039 -0.7421
 8441TIP3    H225288   5.738   4.960   1.349  0.0029  0.6154 -0.3311
 8442TIP3   OH225289   1.935   2.296   0.390  0.0073  0.1180 -1.0231
 8442TIP3    H125290   1.859   2.266   0.340 -0.5929 -2.3429  1.1485
 8442TIP3    H225291   1.898   2.344   0.464  0.6054 -0.3872 -0.3888
 8443TIP3   OH225292   2.070   4.833   4.466  0.5098  0.0982 -0.2762
 8443TIP3    H125293   2.025   4.795   4.541  0.9325  0.3656  0.1211
 8443TIP3    H225294   2.069   4.764   4.400  2.5118 -1.1785  0.9144
 8444TIP3   OH225295   1.290   1.676   2.320  0.1302 -0.6012 -0.2002
 8444TIP3    H125296   1.381   1.647   2.328  0.6685  0.8213 -0.8699
 8444TIP3    H225297   1.281   1.702   2.229 -0.6745  0.1388  0.0777
 8445TIP3   OH225298   4.866   0.486   4.618 -0.0054 -0.4134 -0.2200
 8445TIP3    H125299   4.816   0.561   4.585  1.4026  0.2692 -0.8807
 8445TIP3    H225300   4.879   0.505   4.711 -1.0720 -0.6754 -0.0034
 8446TIP3   OH225301   1.188   1.442   4.043  0.1968  0.3158  0.4441
 8446TIP3    H125302   1.202   1.358   3.999  0.3424  0.2666  0.5808
 8446TIP3    H225303   1.093   1.450   4.051  0.1857  0.0893  0.5685
 8447TIP3   OH225304   4.230   3.092   3.323  0.4349  0.7937 -0.3564
 8447TIP3    H125305   4.233   3.080   3.418 -0.0057  2.2056 -0.1450
 8447TIP3    H225306   4.140   3.071   3.298  0.7914 -0.5138 -0.6235
 8448TIP3   OH225307   2.340   6.232   2.205  0.1945 -0.0451  0.4735
 8448TIP3    H125308   2.280   6.157   2.211 -0.3883  0.4173  0.6136
 8448TIP3    H225309   2.422   6.195   2.172 -0.0767 -0.7452  0.5584
 8449TIP3   OH225310   1.785   4.566   1.868 -0.3869  1.1152  0.7268
 8449TIP3    H125311   1.745   4.582   1.783 -0.4499 -0.3129  0.4552
 8449TIP3    H225312   1.775   4.471   1.882  0.8730  1.0872  1.6805
 8450TIP3   OH225313   6.183   4.242   1.422  0.3576 -0.0689  0.0427
 8450TIP3    H125314   6.246   4.295   1.372  0.6928  2.0043  2.4923
 8450TIP3    H225315   6.146   4.303   1.486 -0.9417 -2.3028  1.5296
 8451TIP3   OH225316   4.917   0.360   1.421  0.2988 -0.1273  0.6337
 8451TIP3    H125317   4.960   0.431   1.469  1.6175  0.0997 -0.7998
 8451TIP3    H225318   4.828   0.357   1.457  0.5796  1.4491  1.5520
 8452TIP3   OH225319   4.897   6.429   3.657 -0.0357 -0.0240  0.3592
 8452TIP3    H125320   4.977   6.481   3.654  0.1206 -0.2789 -1.6228
 8452TIP3    H225321   4.840   6.470   3.592 -0.2041 -1.7986 -0.6971
 8453TIP3   OH225322   6.600   5.867   5.885  0.3730 -0.1529  0.1569
 8453TIP3    H125323   6.673   5.929   5.882  0.4933 -0.2661  0.6670
 8453TIP3    H225324   6.549   5.887   5.807  1.7879 -1.1142 -1.0844
 8454TIP3   OH225325   4.787   3.325   3.452  0.3033 -0.4999  0.0216
 8454TIP3    H125326   4.797   3.412   3.491  0.1765 -0.9548  1.1149
 8454TIP3    H225327   4.701   3.295   3.483  0.9959 -1.6302  0.9500
 8455TIP3   OH225328   6.708   6.426   1.816 -0.2687 -0.0528  0.2064
 8455TIP3    H125329   6.790   6.465   1.843 -0.8168  0.2704  1.4759
 8455TIP3    H225330   6.642   6.494   1.831 -0.8694 -0.5630 -0.0611
 8456TIP3   OH225331   0.852   0.303   4.225  0.6599  0.0820 -0.3660
 8456TIP3    H125332   0.919   0.369   4.244  1.4024 -0.9716  0.7735
 8456TIP3    H225333   0.888   0.253   4.152  1.3403 -0.7312  0.4940
 8457TIP3   OH225334   3.016   5.081   5.333  0.4433  0.0219  0.5405
 8457TIP3    H125335   2.997   5.107   5.243  0.0049 -0.5995  0.4542
 8457TIP3    H225336   3.051   5.161   5.373  0.5529  0.3306 -0.1491
 8458TIP3   OH225337   2.899   4.406   3.772 -0.1086  0.0743 -0.4901
 8458TIP3    H125338   2.850   4.330   3.803 -1.8066  1.2063 -0.2315
 8458TIP3    H225339   2.855   4.432   3.691  0.4473  0.7752 -0.5779
 8459TIP3   OH225340   0.143   0.209   3.699 -0.1335  0.2617  0.1968
 8459TIP3    H125341   0.168   0.140   3.638 -1.3949  0.1017 -0.1818
 8459TIP3    H225342   0.222   0.261   3.711  0.8029 -1.1466  0.3672
 8460TIP3   OH225343   2.255   6.303   0.227  0.1266  0.2332 -0.1248
 8460TIP3    H125344   2.273   6.237   0.294 -1.4749  0.5274  0.6449
 8460TIP3    H225345   2.321   6.371   0.242  0.8478 -0.4878  0.0339
 8461TIP3   OH225346   6.045   2.811   3.952 -0.4276 -0.0256 -0.8917
 8461TIP3    H125347   6.108   2.879   3.974 -1.8824  0.7146  1.2591
 8461TIP3    H225348   6.036   2.817   3.857  2.9190 -0.4047 -1.3656
 8462TIP3   OH225349   6.033   2.200   3.707  0.1627 -0.3973  0.1685
 8462TIP3    H125350   6.075   2.279   3.671 -0.7102 -0.4248 -0.9709
 8462TIP3    H225351   6.104   2.138   3.718  0.6230 -0.0152 -0.5408
 8463TIP3   OH225352   4.472   5.475   4.839 -0.4901  0.0888  0.0352
 8463TIP3    H125353   4.462   5.492   4.746 -1.9723  1.5652  0.4205
 8463TIP3    H225354   4.540   5.407   4.844  0.3853  0.7332 -2.0399
 8464TIP3   OH225355   5.857   6.197   0.652  0.1737 -0.1280 -0.0426
 8464TIP3    H125356   5.824   6.285   0.631 -0.1573 -0.0548  0.7466
 8464TIP3    H225357   5.815   6.140   0.587 -1.4087 -0.0096  0.8219
 8465TIP3   OH225358   6.095   5.655   0.108 -0.3925 -0.2737  0.2322
 8465TIP3    H125359   6.171   5.637   0.051 -0.9622  0.9817 -0.9760
 8465TIP3    H225360   6.131   5.707   0.180 -0.0260 -0.0691 -0.0923
 8466TIP3   OH225361   4.533   0.957   5.683 -0.1123 -0.0326 -0.1877
 8466TIP3    H125362   4.622   0.986   5.662  0.0293 -1.4763 -1.8173
 8466TIP3    H225363   4.543   0.900   5.759  0.6945 -1.7414 -1.5087
 8467TIP3   OH225364   0.287   6.291   5.379 -0.1471 -0.3198 -0.2555
 8467TIP3    H125365   0.312   6.345   5.453 -0.1509 -1.0696  0.3000
 8467TIP3    H225366   0.194   6.272   5.392 -0.0843 -0.6762 -0.3024
 8468TIP3   OH225367   6.284   1.251   0.094 -0.6839  0.4930  0.0519
 8468TIP3    H125368   6.362   1.290   0.055 -0.0649  1.5910  2.2734
 8468TIP3    H225369   6.310   1.228   0.183 -2.9896  1.1914  0.9708
 8469TIP3   OH225370   2.866   3.212   4.717  0.2932  0.1681 -0.6768
 8469TIP3    H125371   2.867   3.302   4.683  0.2274  0.6193  0.4933
 8469TIP3    H225372   2.954   3.198   4.750 -0.2158  0.4940  0.8823
 8470TIP3   OH225373   4.025   6.045   0.512  0.1639 -0.5697 -0.0720
 8470TIP3    H125374   3.967   6.093   0.453  2.1003  2.8069  0.5075
 8470TIP3    H225375   3.974   6.036   0.593 -0.3063  0.5112 -0.2225
 8471TIP3   OH225376   6.422   0.803   2.792  0.2409  0.0623  0.0749
 8471TIP3    H125377   6.476   0.803   2.871  2.2375 -1.1364 -1.1947
 8471TIP3    H225378   6.356   0.736   2.808  0.3871  0.0985  0.8739
 8472TIP3   OH225379   5.020   0.966   1.042 -0.2213 -0.1480  0.3453
 8472TIP3    H125380   5.052   0.969   0.952 -1.3216 -0.2928 -0.0678
 8472TIP3    H225381   5.054   1.046   1.082  0.1245  0.0101 -0.2513
 8473TIP3   OH225382   2.807   6.334   3.604 -0.0037 -0.1533 -0.1463
 8473TIP3    H125383   2.823   6.412   3.657 -2.1873 -1.1485  2.1834
 8473TIP3    H225384   2.715   6.342   3.577  0.5895 -0.5002 -2.4772
 8474TIP3   OH225385   0.307   2.369   1.402  0.0528  0.4623  0.1666
 8474TIP3    H125386   0.350   2.451   1.426  1.2327 -0.2678  0.5984
 8474TIP3    H225387   0.234   2.362   1.464 -0.1656  1.2656  0.0122
 8475TIP3   OH225388   1.872   5.904   3.600 -0.3663 -0.2506 -0.3814
 8475TIP3    H125389   1.855   5.914   3.693  1.0841  1.4249 -0.2459
 8475TIP3    H225390   1.793   5.861   3.565 -1.7209  0.7718  1.2931
 8476TIP3   OH225391   5.815   3.149   4.217 -0.0173  0.7666 -0.1505
 8476TIP3    H125392   5.786   3.061   4.193  0.7075  0.1993  0.9691
 8476TIP3    H225393   5.846   3.140   4.308  1.9504  1.7217 -0.6724
 8477TIP3   OH225394   1.202   0.257   4.779 -0.1021 -0.2373  0.0226
 8477TIP3    H125395   1.141   0.209   4.835 -0.6993  0.0502 -0.3788
 8477TIP3    H225396   1.286   0.214   4.794 -0.4129 -0.6813  0.5280
 8478TIP3   OH225397   3.799   4.706   5.522 -0.7229 -0.7522 -0.1860
 8478TIP3    H125398   3.772   4.753   5.601 -1.0061 -1.7636  0.3283
 8478TIP3    H225399   3.877   4.658   5.548  0.4582  0.5559 -1.1170
 8479TIP3   OH225400   5.124   5.320   1.619  0.0695  0.5211 -0.0956
 8479TIP3    H125401   5.154   5.229   1.622  1.3461  0.9417  1.4553
 8479TIP3    H225402   5.204   5.372   1.621 -0.6547  1.6804  0.9762
 8480TIP3   OH225403   5.349   3.588   3.700  0.0700  0.1144 -0.2561
 8480TIP3    H125404   5.260   3.553   3.698  0.2880 -0.4376 -1.9135
 8480TIP3    H225405   5.404   3.512   3.724  0.4087 -0.4406 -2.5809
 8481TIP3   OH225406   6.178   4.578   1.717 -0.0334  0.1222  0.0563
 8481TIP3    H125407   6.099   4.606   1.763  0.8065 -0.0409  1.6675
 8481TIP3    H225408   6.179   4.630   1.636 -2.1381 -0.3841 -0.3692
 8482TIP3   OH225409   4.982   4.663   3.888 -0.3634  0.2993 -0.3248
 8482TIP3    H125410   4.902   4.715   3.876  1.0447  2.3726 -1.3548
 8482TIP3    H225411   5.032   4.713   3.953  0.4163 -0.5670 -0.2464
 8483TIP3   OH225412   0.743   3.442   1.355  0.4393 -0.5389 -0.3080
 8483TIP3    H125413   0.688   3.477   1.286 -0.2661  0.7505  0.8540
 8483TIP3    H225414   0.752   3.349   1.334 -2.4282 -0.8897 -0.4186
 8484TIP3   OH225415   6.028   3.482   0.590 -0.1118  0.6041  0.1018
 8484TIP3    H125416   6.019   3.471   0.495 -0.6482  0.4715  0.1660
 8484TIP3    H225417   6.029   3.577   0.603  0.7410  0.6293 -0.1051
 8485TIP3   OH225418   3.177   2.054   3.970  1.3051  0.0268  0.9410
 8485TIP3    H125419   3.191   1.962   3.992  0.6490 -0.3855 -0.2763
 8485TIP3    H225420   3.094   2.076   4.011 -0.1247 -0.8565 -1.2845
 8486TIP3   OH225421   2.629   0.526   2.470  0.3648 -0.2693  0.4312
 8486TIP3    H125422   2.649   0.484   2.387  0.6313 -0.7793  0.7440
 8486TIP3    H225423   2.690   0.599   2.476  1.6231 -1.3222  0.9982
 8487TIP3   OH225424   6.528   0.683   3.629 -0.2683  0.3281 -0.0628
 8487TIP3    H125425   6.453   0.657   3.575 -0.3406 -1.0486  0.6651
 8487TIP3    H225426   6.490   0.727   3.705 -0.2358  1.0335 -0.4435
 8488TIP3   OH225427   2.030   5.051   2.181  0.2009  0.3846  0.0360
 8488TIP3    H125428   2.115   5.094   2.170  0.6732 -0.5615 -0.1187
 8488TIP3    H225429   1.979   5.081   2.105  0.4050  0.9175  0.0986
 8489TIP3   OH225430   1.615   2.643   4.906  0.3963  0.1681 -0.0533
 8489TIP3    H125431   1.572   2.722   4.874  0.1973 -0.0898 -0.4231
 8489TIP3    H225432   1.707   2.653   4.880  0.1025 -0.3663 -1.3536
 8490TIP3   OH225433   4.468   5.915   5.415  0.0782  0.3910 -0.6133
 8490TIP3    H125434   4.545   5.971   5.423 -0.2964  0.7341  0.7733
 8490TIP3    H225435   4.477   5.874   5.329  3.0064 -1.3436  0.4049
 8491TIP3   OH225436   4.232   3.354   4.535 -0.0800 -0.2620 -0.0827
 8491TIP3    H125437   4.243   3.270   4.492  0.9833 -0.5436  0.7044
 8491TIP3    H225438   4.142   3.353   4.568 -0.3853 -0.6827 -0.9189
 8492TIP3   OH225439   4.799   6.026   4.291  0.1738  0.3831 -0.1302
 8492TIP3    H125440   4.805   6.120   4.272 -0.4660  0.3700 -0.4256
 8492TIP3    H225441   4.810   5.984   4.206 -1.2604  0.2659 -0.2843
 8493TIP3   OH225442   4.393   1.344   5.429 -0.1112  0.2950  0.4522
 8493TIP3    H125443   4.309   1.302   5.443  0.0468 -0.6311 -1.1394
 8493TIP3    H225444   4.437   1.290   5.364  0.8644  1.9192 -0.3141
 8494TIP3   OH225445   1.457   2.575   1.943 -0.3757 -0.3800  0.8030
 8494TIP3    H125446   1.424   2.646   1.998  0.5197  1.3976 -0.8203
 8494TIP3    H225447   1.551   2.574   1.960 -0.1767 -0.1943 -0.2507
 8495TIP3   OH225448   1.622   0.632   3.522  0.0888 -0.0206 -0.1237
 8495TIP3    H125449   1.699   0.672   3.483  0.3086 -1.4934 -1.3253
 8495TIP3    H225450   1.570   0.705   3.554  1.5802  1.0452 -0.0489
 8496TIP3   OH225451   0.767   3.082   5.800  0.5771 -0.3781 -0.8625
 8496TIP3    H125452   0.786   2.992   5.827  0.9241  0.1093  0.5956
 8496TIP3    H225453   0.679   3.098   5.833  0.4396 -0.2430 -1.2930
 8497TIP3   OH225454   3.359   3.996   5.214  0.2539 -0.1335  0.0042
 8497TIP3    H125455   3.380   3.912   5.255  0.0590 -0.7410 -1.1177
 8497TIP3    H225456   3.444   4.035   5.195  0.3517  0.2914  1.2304
 8498TIP3   OH225457   5.007   4.751   0.842  0.0750  0.0997 -0.2298
 8498TIP3    H125458   5.025   4.748   0.936 -0.7619  0.8061 -0.0378
 8498TIP3    H225459   4.921   4.709   0.833  0.9832 -1.7525 -0.9354
 8499TIP3   OH225460   1.923   6.375   1.002 -0.0217  0.0261 -0.5978
 8499TIP3    H125461   1.930   6.464   0.966  0.4676 -0.8054 -2.6908
 8499TIP3    H225462   1.996   6.328   0.963 -1.5594 -1.8747 -1.2986
 8500TIP3   OH225463   3.127   1.008   5.127 -1.1605  0.0665  0.0424
 8500TIP3    H125464   3.073   1.070   5.078 -0.1991 -1.0431 -2.6073
 8500TIP3    H225465   3.123   0.927   5.076  2.7458 -0.1612 -0.1729
 8501TIP3   OH225466   4.150   1.959   3.388  0.6685  0.1613 -0.2325
 8501TIP3    H125467   4.171   1.920   3.303  0.1256  1.0716 -0.7903
 8501TIP3    H225468   4.224   1.935   3.444  0.0347 -2.3316 -0.3093
 8502TIP3   OH225469   5.194   4.485   0.494  0.5724 -0.1283  0.0119
 8502TIP3    H125470   5.116   4.520   0.452  1.8023  2.4456 -0.3128
 8502TIP3    H225471   5.169   4.396   0.519 -1.9352  0.0610 -1.4096
 8503TIP3   OH225472   1.619   5.612   3.285 -1.0712 -0.5987  0.5117
 8503TIP3    H125473   1.647   5.521   3.286  0.3477 -0.1824  1.0031
 8503TIP3    H225474   1.638   5.644   3.373 -0.0923  0.5884 -0.1058
 8504TIP3   OH225475   5.051   6.796   3.509 -0.1571  0.3965  0.2086
 8504TIP3    H125476   4.973   6.815   3.457  0.7701  0.2229 -1.2793
 8504TIP3    H225477   5.095   6.725   3.462  0.6731  0.1794  1.2736
 8505TIP3   OH225478   6.309   0.334   5.807 -0.4609 -0.4946  0.4067
 8505TIP3    H125479   6.286   0.254   5.759 -0.2465 -1.5340  1.9695
 8505TIP3    H225480   6.289   0.405   5.746  0.8542 -1.7754 -1.6335
 8506TIP3   OH225481   4.074   5.373   0.796  0.0771  0.0490  0.2776
 8506TIP3    H125482   4.045   5.292   0.839 -0.0660  0.5773  1.2083
 8506TIP3    H225483   4.119   5.422   0.865 -0.2258  0.9550 -0.1518
 8507TIP3   OH225484   2.694   2.181   4.432  0.1563  0.1356  0.4962
 8507TIP3    H125485   2.785   2.188   4.402 -0.0465 -1.1085 -0.5296
 8507TIP3    H225486   2.646   2.243   4.377  0.5247  1.7003  1.8674
 8508TIP3   OH225487   5.698   3.926   5.133  0.0276  0.2698 -0.2720
 8508TIP3    H125488   5.667   3.838   5.112 -1.3433  0.6997 -0.1644
 8508TIP3    H225489   5.667   3.980   5.060 -0.2244  0.8614  0.2603
 8509TIP3   OH225490   5.184   1.600   1.460 -0.0113 -0.3542 -0.0378
 8509TIP3    H125491   5.125   1.635   1.526 -0.4407 -1.4227  0.1708
 8509TIP3    H225492   5.146   1.515   1.437  1.3832 -1.0329  0.0376
 8510TIP3   OH225493   2.523   3.047   1.532  0.1777  0.0700  0.0080
 8510TIP3    H125494   2.570   2.975   1.574 -0.7377 -0.2864  0.4569
 8510TIP3    H225495   2.444   3.007   1.496 -0.8162  0.9729  1.0667
 8511TIP3   OH225496   1.375   3.450   1.800 -0.7774  0.1007 -0.3380
 8511TIP3    H125497   1.321   3.423   1.874 -0.6016  1.4919  0.3222
 8511TIP3    H225498   1.312   3.470   1.731 -0.9556 -0.8472 -0.4737
 8512TIP3   OH225499   4.081   6.439   1.576 -0.4649  0.7364 -0.1065
 8512TIP3    H125500   4.045   6.500   1.640  0.4421  1.0636  0.1102
 8512TIP3    H225501   4.149   6.490   1.530  2.2668 -0.8049  1.9126
 8513TIP3   OH225502   5.823   2.866   4.124  0.0125 -0.0905 -0.0430
 8513TIP3    H125503   5.803   2.773   4.121  0.3274 -0.1553 -0.1539
 8513TIP3    H225504   5.911   2.873   4.088  0.2538  0.1778  0.5896
 8514TIP3   OH225505   5.867   1.850   4.276 -0.6464  0.5071 -0.2580
 8514TIP3    H125506   5.865   1.818   4.186 -2.0309 -0.1222 -0.0305
 8514TIP3    H225507   5.860   1.945   4.268  0.9993  0.6125 -0.8528
 8515TIP3   OH225508   7.119   0.110   0.085  0.0585 -0.1841  0.3118
 8515TIP3    H125509   7.160   0.170   0.022 -0.4832  1.5293  1.5162
 8515TIP3    H225510   7.025   0.124   0.075 -0.5141 -4.2166 -2.5590
 8516TIP3   OH225511   1.316   2.708   1.135 -0.3727 -0.6826  0.1128
 8516TIP3    H125512   1.310   2.686   1.042 -0.8614 -1.2704  0.2787
 8516TIP3    H225513   1.330   2.624   1.179  0.4932 -0.3418  0.5272
 8517TIP3   OH225514   4.109   5.371   4.089  0.6354 -0.1764 -0.3459
 8517TIP3    H125515   4.026   5.412   4.113  1.6844  0.4154  2.6597
 8517TIP3    H225516   4.089   5.277   4.084 -0.5150  0.0950 -1.3090
 8518TIP3   OH225517   6.065   2.855   4.787 -0.3260  0.2517  0.0783
 8518TIP3    H125518   6.077   2.855   4.692  0.5683  0.2913  0.1766
 8518TIP3    H225519   6.155   2.855   4.822 -0.5977  1.8958  0.9084
 8519TIP3   OH225520   6.689   0.288   1.298 -0.0404 -0.4269  0.2017
 8519TIP3    H125521   6.630   0.237   1.242 -0.5856 -0.2277  0.5865
 8519TIP3    H225522   6.660   0.379   1.285  0.6134 -0.2549 -0.1128
 8520TIP3   OH225523   1.447   0.835   5.729  0.6254  0.4663 -0.4543
 8520TIP3    H125524   1.429   0.780   5.805  0.1162 -0.2469 -1.0843
 8520TIP3    H225525   1.537   0.864   5.742  0.9107 -0.5268 -0.1226
 8521TIP3   OH225526   0.787   5.579   5.483 -0.3431 -0.8187  0.9678
 8521TIP3    H125527   0.716   5.563   5.545 -0.4537 -0.6418  0.8872
 8521TIP3    H225528   0.745   5.578   5.397  0.0907 -2.9034  0.7380
 8522TIP3   OH225529   2.535   2.310   5.655 -0.4458 -0.2064  0.0134
 8522TIP3    H125530   2.480   2.232   5.662 -0.9334 -0.3496 -3.6534
 8522TIP3    H225531   2.482   2.373   5.607  1.0753  1.2727  0.1579
 8523TIP3   OH225532   2.004   2.134   5.051 -0.4591  0.2777  0.2152
 8523TIP3    H125533   1.942   2.068   5.082  0.3848 -0.4860  0.3125
 8523TIP3    H225534   2.061   2.150   5.127  1.6026 -1.5752 -0.8405
 8524TIP3   OH225535   1.513   1.920   0.357 -0.7600  0.4459  0.3866
 8524TIP3    H125536   1.426   1.958   0.347 -1.1181 -0.7068 -1.3332
 8524TIP3    H225537   1.497   1.827   0.373  0.1212  0.1683 -0.2279
 8525TIP3   OH225538   4.812   4.084   5.476 -0.4765  0.2323 -0.8554
 8525TIP3    H125539   4.743   4.027   5.509 -0.4320 -0.1473 -1.3954
 8525TIP3    H225540   4.893   4.042   5.504 -0.4505  0.2122 -0.9591
 8526TIP3   OH225541   4.463   0.768   4.761  0.3667  0.0451 -0.6536
 8526TIP3    H125542   4.423   0.794   4.844  0.9962 -0.3575 -0.2149
 8526TIP3    H225543   4.551   0.738   4.785  1.0913  1.2709 -1.6283
 8527TIP3   OH225544   3.223   3.590   5.388  0.2796 -0.6011 -0.2273
 8527TIP3    H125545   3.307   3.554   5.414  0.4350  0.7436  1.2623
 8527TIP3    H225546   3.176   3.517   5.348  1.6486 -1.6938  0.1280
 8528TIP3   OH225547   4.874   6.730   2.953 -0.7771 -0.3213  0.6875
 8528TIP3    H125548   4.889   6.677   2.874 -0.1381 -1.2321  1.4006
 8528TIP3    H225549   4.954   6.780   2.964  0.1685 -2.0348  2.1144
 8529TIP3   OH225550   5.384   3.193   5.356  0.1111 -0.1942  0.0316
 8529TIP3    H125551   5.460   3.187   5.299 -0.2659  0.0034 -0.5106
 8529TIP3    H225552   5.404   3.136   5.430  1.1414  0.5190  0.3256
 8530TIP3   OH225553   7.231   4.999   3.095 -0.1110  0.5276  0.1571
 8530TIP3    H125554   7.151   4.979   3.047 -0.2962  1.7510 -0.0936
 8530TIP3    H225555   7.209   4.980   3.187 -0.1140 -0.7650 -0.0987
 8531TIP3   OH225556   0.884   4.864   4.400  0.0779 -0.1711 -0.0003
 8531TIP3    H125557   0.934   4.904   4.328 -1.1219 -1.1783 -1.4575
 8531TIP3    H225558   0.946   4.806   4.443  0.1813 -1.5757 -1.9181
 8532TIP3   OH225559   2.814   3.304   0.011  0.5807 -0.1583  0.2354
 8532TIP3    H125560   2.740   3.363   0.023 -0.7850 -1.6219 -0.5219
 8532TIP3    H225561   2.806   3.240   0.082  0.6755 -0.7588 -0.2858
 8533TIP3   OH225562   4.588   5.929   2.702  0.0312 -0.3705  0.1699
 8533TIP3    H125563   4.554   5.980   2.776  0.2948 -1.3429  0.9870
 8533TIP3    H225564   4.525   5.943   2.632 -1.7821 -1.6777  1.4697
 8534TIP3   OH225565   6.146   5.536   5.173 -0.0720  0.5634 -0.0794
 8534TIP3    H125566   6.241   5.525   5.166  0.0126  1.8442 -1.5295
 8534TIP3    H225567   6.134   5.629   5.191 -1.0417  0.2538  0.9713
 8535TIP3   OH225568   1.753   5.958   4.215 -0.0253  0.2738 -0.2637
 8535TIP3    H125569   1.759   6.052   4.198 -1.7007  0.3047 -0.9184
 8535TIP3    H225570   1.769   5.948   4.309  0.3153  1.1954 -0.2235
 8536TIP3   OH225571   4.196   2.416   1.804 -0.2412  0.0939 -0.3479
 8536TIP3    H125572   4.126   2.370   1.850  0.0641  0.2028  0.2414
 8536TIP3    H225573   4.200   2.375   1.718 -2.6230  1.6271 -1.2847
 8537TIP3   OH225574   5.241   3.991   2.251 -0.0100 -0.1875 -0.6332
 8537TIP3    H125575   5.305   3.951   2.311 -1.5978 -0.0840  1.2284
 8537TIP3    H225576   5.233   3.928   2.179  1.8132 -0.4155 -0.6774
 8538TIP3   OH225577   2.406   4.286   0.055  0.5075  0.7809 -0.4012
 8538TIP3    H125578   2.325   4.235   0.052  0.1710  1.3278 -0.7277
 8538TIP3    H225579   2.459   4.242   0.121 -0.6637  1.3009  0.9393
 8539TIP3   OH225580   4.508   5.766   0.685  0.4013 -0.6609 -0.2777
 8539TIP3    H125581   4.522   5.671   0.685 -0.3267 -0.7700 -0.3030
 8539TIP3    H225582   4.423   5.778   0.643  0.4044 -0.0074 -0.1055
 8540TIP3   OH225583   0.778   4.779   2.475 -0.4369  0.0655 -0.0056
 8540TIP3    H125584   0.833   4.706   2.446 -1.3865 -0.8348  0.4071
 8540TIP3    H225585   0.806   4.852   2.420  0.1967 -0.7211 -0.7748
 8541TIP3   OH225586   5.033   4.669   4.548 -0.0974  0.0853 -0.1851
 8541TIP3    H125587   5.025   4.612   4.471 -1.1289 -0.8858  0.6038
 8541TIP3    H225588   4.942   4.690   4.572  0.2484  1.6262 -0.1134
 8542TIP3   OH225589   5.020   4.924   3.243 -0.2184  0.1117 -0.1178
 8542TIP3    H125590   5.094   4.915   3.303 -0.9358 -0.5732  0.6848
 8542TIP3    H225591   5.060   4.935   3.157  0.8588 -2.8113 -0.1041
 8543TIP3   OH225592   5.538   2.807   1.652  0.0527  0.5662 -0.4644
 8543TIP3    H125593   5.455   2.775   1.688  0.1605 -0.1399 -0.8213
 8543TIP3    H225594   5.532   2.787   1.558  0.8650 -0.0006 -0.3997
 8544TIP3   OH225595   0.542   3.741   4.887 -0.2614 -0.0208 -0.5735
 8544TIP3    H125596   0.611   3.685   4.851 -1.4028 -1.9106 -0.0279
 8544TIP3    H225597   0.492   3.769   4.811  0.3283  0.2747 -0.8578
 8545TIP3   OH225598   4.017   2.743   1.567 -0.3861 -0.0196  0.2162
 8545TIP3    H125599   3.946   2.807   1.566 -0.3818 -0.0146 -0.6249
 8545TIP3    H225600   4.057   2.751   1.480  0.4714 -0.2124  0.5844
 8546TIP3   OH225601   0.268   2.656   2.976  0.0477 -0.7117  0.0828
 8546TIP3    H125602   0.321   2.584   2.942  1.0759  0.0788 -0.0454
 8546TIP3    H225603   0.317   2.687   3.052 -0.8572 -0.7259  0.6796
 8547TIP3   OH225604   4.938   5.739   5.479  0.2890  0.0465  0.4403
 8547TIP3    H125605   4.966   5.828   5.458 -1.5950  0.4589 -0.5837
 8547TIP3    H225606   4.879   5.714   5.408 -1.1986 -1.0411  1.9412
 8548TIP3   OH225607   6.669   2.161   4.019  0.4292 -0.1157 -0.0283
 8548TIP3    H125608   6.642   2.074   3.989 -0.7083  0.2590 -0.1367
 8548TIP3    H225609   6.597   2.191   4.074  0.1777  1.2980 -1.0568
 8549TIP3   OH225610   5.852   2.368   3.006 -0.1117 -0.1540 -0.0654
 8549TIP3    H125611   5.867   2.338   3.096  0.6097  0.4586  0.0279
 8549TIP3    H225612   5.773   2.321   2.978 -0.6746  0.0826  1.0808
 8550TIP3   OH225613   3.944   2.671   2.120 -0.2287 -0.0677 -0.6413
 8550TIP3    H125614   3.862   2.625   2.099 -0.4551  0.3888 -0.7532
 8550TIP3    H225615   3.921   2.730   2.192 -0.2618  0.8484 -1.3841
 8551TIP3   OH225616   3.134   3.209   1.031 -1.3606  0.4216 -0.2423
 8551TIP3    H125617   3.121   3.162   0.949  1.1449 -0.9405  0.0135
 8551TIP3    H225618   3.212   3.262   1.016 -1.6185  1.1440  0.8513
 8552TIP3   OH225619   5.122   3.957   5.065 -0.0361 -0.0889  0.2015
 8552TIP3    H125620   5.033   3.982   5.089 -0.2508 -1.4622  0.9250
 8552TIP3    H225621   5.168   4.040   5.054 -1.7732  0.7009 -1.7096
 8553TIP3   OH225622   2.921   4.795   2.790 -0.0663  0.2296  0.0400
 8553TIP3    H125623   2.991   4.738   2.757 -0.0620  0.5907 -0.5970
 8553TIP3    H225624   2.930   4.792   2.885 -0.3148 -1.1456  0.0414
 8554TIP3   OH225625   5.218   6.096   1.118 -0.4254  0.2405  0.2043
 8554TIP3    H125626   5.149   6.033   1.097  0.6871 -0.8586 -0.2903
 8554TIP3    H225627   5.172   6.179   1.132 -1.8143 -0.4203 -0.2999
 8555TIP3   OH225628   3.458   5.178   0.904 -0.0920  0.1389  0.2141
 8555TIP3    H125629   3.415   5.213   0.826 -0.6295 -1.6745 -0.3548
 8555TIP3    H225630   3.397   5.197   0.976  0.1021  1.2270  0.1114
 8556TIP3   OH225631   1.575   3.413   5.875  0.1269 -0.2073  0.4473
 8556TIP3    H125632   1.670   3.407   5.874  0.3006  0.9882 -2.8788
 8556TIP3    H225633   1.545   3.334   5.829 -0.5937 -0.7884  1.8237
 8557TIP3   OH225634   5.238   5.612   1.207 -0.2607  0.0123 -0.0431
 8557TIP3    H125635   5.203   5.664   1.134 -1.3489  1.2289  1.2579
 8557TIP3    H225636   5.242   5.523   1.174 -1.9711  0.3147 -1.1895
 8558TIP3   OH225637   1.401   4.249   1.201 -0.6608 -0.3789 -0.0019
 8558TIP3    H125638   1.409   4.195   1.280 -0.2637 -1.9525 -1.0631
 8558TIP3    H225639   1.450   4.329   1.222 -0.2769 -0.9076  1.2305
 8559TIP3   OH225640   7.161   6.628   0.465  0.1908  0.2927  0.3212
 8559TIP3    H125641   7.086   6.578   0.433 -0.6322  2.0530 -0.6606
 8559TIP3    H225642   7.237   6.590   0.420 -0.2548 -0.7619  0.4439
 8560TIP3   OH225643   1.643   3.164   0.818 -0.0596  0.0111 -0.7391
 8560TIP3    H125644   1.564   3.215   0.833 -0.3470 -0.4031 -0.8238
 8560TIP3    H225645   1.637   3.091   0.880  0.2163 -0.0649 -0.7992
 8561TIP3   OH225646   3.658   1.715   4.418  0.1148  0.2322  0.2762
 8561TIP3    H125647   3.573   1.706   4.463 -0.4172  1.7269 -0.3603
 8561TIP3    H225648   3.648   1.662   4.339  0.4139 -0.9683  1.0137
 8562TIP3   OH225649   4.606   5.379   5.235  0.7682  0.0724 -0.6898
 8562TIP3    H125650   4.571   5.458   5.192 -0.6796 -0.3605 -0.3529
 8562TIP3    H225651   4.546   5.309   5.210  0.7150 -0.4756  0.8402
 8563TIP3   OH225652   6.314   4.624   5.617  0.0113  0.1273  0.1871
 8563TIP3    H125653   6.226   4.590   5.633 -0.1570  0.1446 -0.6686
 8563TIP3    H225654   6.372   4.560   5.658 -0.3207 -0.9304 -0.9417
 8564TIP3   OH225655   4.043   5.569   3.145 -0.2504  0.1454 -0.2605
 8564TIP3    H125656   4.066   5.658   3.118  0.3067  0.5163  1.3019
 8564TIP3    H225657   3.950   5.562   3.126 -0.1911  0.8691 -0.8931
 8565TIP3   OH225658   5.085   5.692   2.250  0.3245  0.2425  0.5548
 8565TIP3    H125659   5.094   5.638   2.329  0.7219 -2.2918 -1.0779
 8565TIP3    H225660   5.164   5.673   2.199 -0.6171  0.5592 -1.1168
 8566TIP3   OH225661   6.120   2.144   5.860  0.0088  0.4453 -0.1647
 8566TIP3    H125662   6.039   2.110   5.898  1.0403 -1.0872  0.7801
 8566TIP3    H225663   6.103   2.150   5.766 -0.5939 -1.7096 -0.2325
 8567TIP3   OH225664   0.731   4.015   0.630  0.1607 -0.0558  0.0308
 8567TIP3    H125665   0.643   3.978   0.624 -0.2873  1.2068 -2.0704
 8567TIP3    H225666   0.727   4.078   0.701 -0.4889 -0.3885  0.2897
 8568TIP3   OH225667   2.463   3.813   5.569 -0.6109 -0.0655  0.5579
 8568TIP3    H125668   2.406   3.772   5.634 -0.7706 -0.2104  0.3314
 8568TIP3    H225669   2.552   3.796   5.600 -0.5682 -2.7550 -0.7580
 8569TIP3   OH225670   1.167   1.587   3.411 -0.5801  0.4108  0.3165
 8569TIP3    H125671   1.172   1.671   3.366  0.1361  0.2550  0.0961
 8569TIP3    H225672   1.085   1.548   3.380  0.2662 -0.0359 -1.4908
 8570TIP3   OH225673   3.697   4.051   2.158  0.3128  0.6054  0.1573
 8570TIP3    H125674   3.757   4.006   2.217  2.0192  0.1116 -1.8303
 8570TIP3    H225675   3.711   4.144   2.176  1.9638  0.5148 -0.4442
 8571TIP3   OH225676   4.540   5.231   3.274  0.1138 -0.0160 -0.3909
 8571TIP3    H125677   4.604   5.161   3.262  1.6147  0.6824  2.6493
 8571TIP3    H225678   4.466   5.189   3.319 -0.2583 -0.1830 -1.1365
 8572TIP3   OH225679   0.925   4.262   2.616  0.8544  0.1593 -0.4059
 8572TIP3    H125680   0.842   4.295   2.582  1.1220  1.8582  0.4751
 8572TIP3    H225681   0.908   4.170   2.638 -0.4036  0.1239 -1.4156
 8573TIP3   OH225682   6.630   3.398   1.130 -0.4954  0.4567  0.4948
 8573TIP3    H125683   6.721   3.424   1.113 -0.8304  1.0962 -0.3407
 8573TIP3    H225684   6.630   3.303   1.113  0.0554  0.4149  0.6863
 8574TIP3   OH225685   2.893   0.275   3.920  0.3994  0.3318 -0.8792
 8574TIP3    H125686   2.848   0.205   3.872 -0.0560 -1.2129  1.6042
 8574TIP3    H225687   2.984   0.247   3.923  0.6847  1.0888 -1.8876
 8575TIP3   OH225688   6.144   5.878   0.819 -0.2593  0.2428  0.4958
 8575TIP3    H125689   6.071   5.819   0.800 -1.2526  1.3704  0.7516
 8575TIP3    H225690   6.181   5.898   0.733  1.6160 -2.5535  0.5054
 8576TIP3   OH225691   5.633   6.339   4.589 -0.1759  0.3278 -0.8678
 8576TIP3    H125692   5.632   6.290   4.507 -2.1346 -0.2061 -0.5836
 8576TIP3    H225693   5.707   6.304   4.638 -0.2462 -0.8238 -1.5530
 8577TIP3   OH225694   6.059   0.939   4.470 -0.0684  0.4558  0.4427
 8577TIP3    H125695   6.071   1.018   4.522 -1.2126  0.9963 -0.0786
 8577TIP3    H225696   6.046   0.971   4.381 -1.7833 -0.2109  0.4083
 8578TIP3   OH225697   2.591   6.379   2.858  0.3347  0.2742 -0.4587
 8578TIP3    H125698   2.570   6.470   2.835  0.7364  0.4499 -0.1402
 8578TIP3    H225699   2.623   6.384   2.948 -1.3642 -0.4293  0.2292
 8579TIP3   OH225700   4.107   1.552   1.093 -0.0258  0.3625 -0.5386
 8579TIP3    H125701   4.063   1.593   1.019 -0.4004  2.1532  0.6284
 8579TIP3    H225702   4.180   1.611   1.114  0.3811 -0.3747  0.2183
 8580TIP3   OH225703   6.425   3.549   4.297  0.3250 -0.0979 -0.1667
 8580TIP3    H125704   6.483   3.589   4.362 -2.2257 -0.9491  2.8836
 8580TIP3    H225705   6.436   3.455   4.307 -0.4284 -0.2583 -0.6612
 8581TIP3   OH225706   2.990   6.792   5.660  0.2927 -0.3005 -0.4823
 8581TIP3    H125707   3.019   6.731   5.591  1.5143 -0.8714  0.4984
 8581TIP3    H225708   3.059   6.858   5.663  0.0707 -0.0884 -0.0400
 8582TIP3   OH225709   0.832   1.502   2.457 -0.1709  0.1198 -0.2586
 8582TIP3    H125710   0.808   1.423   2.408  1.7089 -1.4273  1.1635
 8582TIP3    H225711   0.864   1.469   2.541  0.8645  2.3835  0.2997
 8583TIP3   OH225712   5.625   1.009   2.173 -0.1458  0.1534  0.1087
 8583TIP3    H125713   5.704   0.961   2.150 -1.3830 -1.2571 -1.5187
 8583TIP3    H225714   5.632   1.092   2.126  0.5695  0.2462  0.3675
 8584TIP3   OH225715   0.416   3.713   3.437 -0.0814 -0.3099 -0.0032
 8584TIP3    H125716   0.425   3.790   3.493 -1.6240 -0.3586  0.3543
 8584TIP3    H225717   0.505   3.682   3.425  0.3228 -0.3176  2.4677
 8585TIP3   OH225718   6.639   2.603   1.051 -0.2177  0.1242 -0.0238
 8585TIP3    H125719   6.695   2.543   1.100  0.7688  0.1990 -1.0271
 8585TIP3    H225720   6.651   2.688   1.094 -0.5019 -0.0978  0.5036
 8586TIP3   OH225721   5.603   1.578   0.622  0.1076  0.1831  0.2315
 8586TIP3    H125722   5.589   1.486   0.599  2.6582 -0.5800  1.3525
 8586TIP3    H225723   5.515   1.614   0.633 -1.0388 -2.8969  2.6943
 8587TIP3   OH225724   2.712   3.611   2.756 -0.0041 -0.1917  0.3274
 8587TIP3    H125725   2.771   3.573   2.821  1.4716  1.5040  0.0311
 8587TIP3    H225726   2.659   3.673   2.805 -0.2863 -0.3670  0.2500
 8588TIP3   OH225727   2.578  -0.002   5.322  0.2158 -0.0206  0.0291
 8588TIP3    H125728   2.581   0.077   5.267  1.0342  1.3387  1.9232
 8588TIP3    H225729   2.670  -0.025   5.335 -0.0088 -1.0186 -0.0894
 8589TIP3   OH225730   4.642   5.108   2.533  0.2808 -0.3347  0.1613
 8589TIP3    H125731   4.641   5.141   2.443  0.4615 -3.2525 -1.0293
 8589TIP3    H225732   4.632   5.013   2.524 -0.7732 -0.6556  3.3091
 8590TIP3   OH225733   6.311   3.746   2.926  0.6075 -0.0669  0.2769
 8590TIP3    H125734   6.261   3.784   2.853  0.7917 -0.1266  0.1184
 8590TIP3    H225735   6.318   3.818   2.989  0.8921  0.1463  0.0092
 8591TIP3   OH225736   4.316   1.602   0.705 -0.2640  0.4668  0.1591
 8591TIP3    H125737   4.320   1.555   0.622  0.3737  1.0553 -0.1496
 8591TIP3    H225738   4.309   1.694   0.681  0.1804  0.6660  0.7483
 8592TIP3   OH225739   1.939   4.615   2.709  0.4511 -0.4053  0.2208
 8592TIP3    H125740   1.852   4.647   2.731 -0.3317 -1.3377 -1.2953
 8592TIP3    H225741   1.931   4.519   2.715  1.7366 -0.4808  1.2463
 8593TIP3   OH225742   6.769   3.284   3.745 -0.6579  0.8451 -0.4983
 8593TIP3    H125743   6.792   3.372   3.716 -0.6781  0.8841 -0.3969
 8593TIP3    H225744   6.841   3.259   3.803 -0.2500  0.4821 -1.1526
 8594TIP3   OH225745   3.521   0.110   4.488 -0.3400 -0.0107 -0.4055
 8594TIP3    H125746   3.597   0.052   4.481 -1.0527 -0.8342 -1.5825
 8594TIP3    H225747   3.450   0.052   4.517 -0.7732  0.5414 -0.3544
 8595TIP3   OH225748   2.390   2.437   2.741 -0.2328 -0.4149 -0.3649
 8595TIP3    H125749   2.430   2.511   2.786  0.5400  0.1282 -1.8807
 8595TIP3    H225750   2.384   2.368   2.808  0.9063  0.3385  0.5418
 8596TIP3   OH225751   1.615   1.329   1.556 -0.0095  0.2344 -0.3121
 8596TIP3    H125752   1.562   1.249   1.548  0.8984 -0.4171  0.1415
 8596TIP3    H225753   1.639   1.334   1.648 -0.1737  1.1254 -0.3028
 8597TIP3   OH225754   4.735   2.731   5.397  0.7255 -0.2060 -0.0765
 8597TIP3    H125755   4.829   2.734   5.377  0.5169  0.9052 -0.9698
 8597TIP3    H225756   4.727   2.772   5.483  0.9962  0.2258 -0.2546
 8598TIP3   OH225757   5.871   5.243   4.078  0.2001 -0.2767 -0.3053
 8598TIP3    H125758   5.842   5.166   4.028 -0.0598  0.0889 -0.7234
 8598TIP3    H225759   5.859   5.218   4.170 -1.7773 -0.0293 -0.4432
 8599TIP3   OH225760   6.337   1.476   2.439 -0.2288  0.1852  0.4530
 8599TIP3    H125761   6.417   1.454   2.391 -1.9620  1.4435 -3.4193
 8599TIP3    H225762   6.337   1.416   2.514  2.6732 -2.1358 -1.1734
 8600TIP3   OH225763   0.867   3.941   3.745 -0.2384  0.2367  0.0585
 8600TIP3    H125764   0.889   3.997   3.670 -0.0318  0.3647  0.2128
 8600TIP3    H225765   0.846   4.003   3.815 -0.2478  0.1169  0.1616
 8601TIP3   OH225766   0.936   0.761   0.906  0.0248 -0.1034 -0.6460
 8601TIP3    H125767   0.878   0.732   0.977  0.0192  0.0988 -0.5684
 8601TIP3    H225768   0.940   0.686   0.846  0.2904 -0.4025 -0.2657
 8602TIP3   OH225769   3.380   5.553   5.192  0.2048  0.3645  0.3454
 8602TIP3    H125770   3.450   5.531   5.131  1.0284 -0.7508  1.6193
 8602TIP3    H225771   3.299   5.532   5.146  0.7741  0.2628 -0.6186
 8603TIP3   OH225772   0.462   4.886   1.776  0.1727 -0.3785 -0.2888
 8603TIP3    H125773   0.437   4.856   1.688 -1.2150 -1.3916  0.4161
 8603TIP3    H225774   0.411   4.831   1.835  0.0944  1.1642  1.1394
 8604TIP3   OH225775   5.697   2.680   3.417  0.5390 -0.2815  0.9543
 8604TIP3    H125776   5.645   2.757   3.394  2.5128  1.1259  0.9058
 8604TIP3    H225777   5.651   2.640   3.491 -2.1292 -0.8277 -0.8640
 8605TIP3   OH225778   2.617   2.159   1.257 -0.0984 -0.0725  0.3963
 8605TIP3    H125779   2.530   2.184   1.227  0.4774  1.5256 -0.0138
 8605TIP3    H225780   2.634   2.074   1.215 -1.8176 -0.8824  1.2474
 8606TIP3   OH225781   1.548   6.478   5.437 -0.0712 -0.5949  0.3865
 8606TIP3    H125782   1.595   6.547   5.390  0.2361 -0.9808  0.1215
 8606TIP3    H225783   1.550   6.505   5.529 -0.2068 -0.1045  0.2455
 8607TIP3   OH225784   6.245   3.328   5.146 -0.3571 -0.6374  0.0645
 8607TIP3    H125785   6.256   3.246   5.194 -1.8088 -0.0593  1.4715
 8607TIP3    H225786   6.272   3.395   5.208 -0.5146  0.0217 -0.5779
 8608TIP3   OH225787   4.074   3.867   2.809 -0.2978 -0.3659  0.2131
 8608TIP3    H125788   4.026   3.941   2.847  1.6776  0.2143  1.7276
 8608TIP3    H225789   4.061   3.877   2.714 -1.6559  0.7843  0.4762
 8609TIP3   OH225790   2.798   6.546   2.435  0.3878 -0.6817 -0.6826
 8609TIP3    H125791   2.804   6.452   2.419 -2.6408 -1.2901  1.0179
 8609TIP3    H225792   2.853   6.561   2.511  0.8765 -1.0729 -0.9540
 8610TIP3   OH225793   3.706   0.230   5.280 -0.6916  0.8113  0.5108
 8610TIP3    H125794   3.684   0.138   5.265 -0.3267  0.5855  1.2941
 8610TIP3    H225795   3.677   0.275   5.201  1.3866 -0.3370 -1.0119
 8611TIP3   OH225796   7.190   3.322   0.789 -0.1797 -0.2871 -0.5383
 8611TIP3    H125797   7.239   3.265   0.849 -1.0580 -0.1341  0.3605
 8611TIP3    H225798   7.184   3.272   0.708  0.6473 -0.6955 -0.3528
 8612TIP3   OH225799   6.280   4.368   4.779 -0.3689  0.0376  0.0968
 8612TIP3    H125800   6.185   4.381   4.773 -0.2840  0.5095 -0.3019
 8612TIP3    H225801   6.290   4.282   4.820 -0.9725 -0.2377 -0.3227
 8613TIP3   OH225802   5.210   0.748   2.414  0.0636  0.1761 -0.1116
 8613TIP3    H125803   5.304   0.744   2.430  0.1163 -1.5425 -0.6541
 8613TIP3    H225804   5.199   0.813   2.346  0.7263  1.2213  0.7518
 8614TIP3   OH225805   1.126   1.082   4.552 -0.2806 -0.1445  0.0347
 8614TIP3    H125806   1.184   1.115   4.621 -1.1127  1.0887  0.1706
 8614TIP3    H225807   1.058   1.148   4.544 -1.0038 -0.9782 -0.9760
 8615TIP3   OH225808   4.044   3.618   5.532 -0.1047 -0.1590  0.2374
 8615TIP3    H125809   3.960   3.656   5.508  0.6297  0.8687 -0.7829
 8615TIP3    H225810   4.023   3.527   5.555 -1.4967  0.1068  0.1337
 8616TIP3   OH225811   0.123   2.131   2.585  0.4749 -0.8372  0.3168
 8616TIP3    H125812   0.050   2.152   2.527  0.5791 -1.7185 -0.1611
 8616TIP3    H225813   0.164   2.215   2.604 -0.8080 -0.2910  0.7983
 8617TIP3   OH225814   3.275   2.761   2.556  0.2957  0.5514 -0.3795
 8617TIP3    H125815   3.261   2.724   2.469  1.9169  0.5230 -0.6555
 8617TIP3    H225816   3.257   2.689   2.616 -3.5400  1.2633 -0.4396
 8618TIP3   OH225817   1.437   0.409   4.533 -0.0840 -0.9345 -0.5335
 8618TIP3    H125818   1.425   0.432   4.441 -0.0910 -0.0377 -0.3180
 8618TIP3    H225819   1.526   0.374   4.538 -0.1595 -1.1899 -0.9112
 8619TIP3   OH225820   6.466   4.524   2.162  0.8155 -1.2804  0.1427
 8619TIP3    H125821   6.461   4.539   2.257  1.5186  0.3852 -0.0562
 8619TIP3    H225822   6.559   4.526   2.142  0.5850  0.8111 -0.9097
 8620TIP3   OH225823   5.400   6.492   0.991 -0.5528  0.6880 -0.3522
 8620TIP3    H125824   5.364   6.580   0.996  0.7890  1.3326 -1.4010
 8620TIP3    H225825   5.491   6.505   0.963 -0.5436 -1.0611 -1.2537
 8621TIP3   OH225826   1.712   4.074   5.312  0.1238 -0.2024  1.0176
 8621TIP3    H125827   1.687   3.987   5.343  0.5025 -1.5372 -2.0587
 8621TIP3    H225828   1.650   4.093   5.241 -0.2534  2.3170  1.9261
 8622TIP3   OH225829   5.990   3.993   0.080  0.4679 -0.0922 -0.6868
 8622TIP3    H125830   5.984   4.088   0.080 -1.0802 -0.1683 -1.1695
 8622TIP3    H225831   6.028   3.971  -0.006  0.8812  0.0740 -0.5515
 8623TIP3   OH225832   3.259   0.497   3.056  0.5692  0.2277 -0.2834
 8623TIP3    H125833   3.168   0.491   3.087  1.1436  0.1989  1.5272
 8623TIP3    H225834   3.272   0.591   3.042  0.8547  0.4787  1.4783
 8624TIP3   OH225835   1.670   0.275   2.057 -0.0988 -0.6711 -0.0884
 8624TIP3    H125836   1.596   0.269   2.117  1.4064 -1.6769  1.7754
 8624TIP3    H225837   1.717   0.353   2.085  0.2524 -0.7737 -0.3881
 8625TIP3   OH225838   4.599   2.633   5.812 -0.7543 -0.0860 -0.0516
 8625TIP3    H125839   4.693   2.633   5.832 -0.5354  2.5305 -0.7004
 8625TIP3    H225840   4.564   2.560   5.862  1.2825  0.2089  1.9762
 8626TIP3   OH225841   2.375   1.080   5.359 -0.0192 -0.3577 -0.2575
 8626TIP3    H125842   2.423   1.020   5.415 -0.2133  0.3019  0.6305
 8626TIP3    H225843   2.411   1.065   5.271  2.4884  0.7681  0.5015
 8627TIP3   OH225844   2.150   3.043   3.059 -0.5666  0.3418  0.9055
 8627TIP3    H125845   2.076   3.101   3.046 -0.6231  0.8081  2.9348
 8627TIP3    H225846   2.220   3.100   3.091 -0.4557 -0.5690  2.3955
 8628TIP3   OH225847   4.602   5.567   0.095 -0.0834  0.3345  0.3298
 8628TIP3    H125848   4.694   5.562   0.121  0.2483 -2.1843 -1.0186
 8628TIP3    H225849   4.570   5.477   0.104 -2.8680  1.3725  2.1524
 8629TIP3   OH225850   4.964   5.041   3.777  0.0684 -0.0352 -0.9360
 8629TIP3    H125851   4.934   5.120   3.822 -2.2043 -0.5221 -1.4898
 8629TIP3    H225852   4.991   4.982   3.848 -1.3570  0.0414 -0.2986
 8630TIP3   OH225853   6.247   3.757   4.213  0.2462 -0.6017  0.2285
 8630TIP3    H125854   6.171   3.753   4.155  1.6147  0.3679 -1.7900
 8630TIP3    H225855   6.283   3.668   4.211  1.1409 -0.2707 -1.8008
 8631TIP3   OH225856   5.590   0.259   2.755 -0.6231  0.3119 -0.2709
 8631TIP3    H125857   5.640   0.194   2.803 -0.4265 -0.7044 -1.7785
 8631TIP3    H225858   5.656   0.308   2.705 -0.7494  1.8167  0.9735
 8632TIP3   OH225859   3.198   0.053   3.690  0.0484  0.3754 -0.3192
 8632TIP3    H125860   3.186   0.136   3.644 -3.2649 -0.3862 -1.1289
 8632TIP3    H225861   3.128  -0.003   3.656 -0.5417 -1.3488  3.2387
 8633TIP3   OH225862   2.067   6.023   1.380 -0.0732 -0.2127  0.1546
 8633TIP3    H125863   2.051   5.973   1.460 -0.4229  0.3530  0.4490
 8633TIP3    H225864   1.982   6.063   1.359 -0.0515 -0.5499 -0.6410
 8634TIP3   OH225865   4.968   3.100   1.297 -0.2335 -0.0326  0.2517
 8634TIP3    H125866   4.944   3.007   1.289  1.2960 -0.3850 -0.6270
 8634TIP3    H225867   4.916   3.132   1.371 -1.4001 -1.3794  0.0524
 8635TIP3   OH225868   6.742   1.105   3.940  0.3600  0.4928 -0.4138
 8635TIP3    H125869   6.712   1.196   3.944  1.1584  0.8516 -1.9539
 8635TIP3    H225870   6.821   1.105   3.994  0.8259  0.9147 -1.0879
 8636TIP3   OH225871   3.590   6.741   0.936  0.3322 -0.2777  0.2393
 8636TIP3    H125872   3.587   6.836   0.941 -0.6033 -0.0930 -2.4606
 8636TIP3    H225873   3.623   6.722   0.848  1.4258 -2.4915  1.0465
 8637TIP3   OH225874   3.759   5.856   1.158 -0.0916 -0.3212  0.5060
 8637TIP3    H125875   3.781   5.839   1.067  0.7399 -1.7707  0.9389
 8637TIP3    H225876   3.844   5.867   1.202 -0.4284 -0.8380  1.3132
 8638TIP3   OH225877   4.275   3.215   0.258 -0.5912  0.6130 -0.4675
 8638TIP3    H125878   4.220   3.140   0.281 -0.0973  0.5179  0.5110
 8638TIP3    H225879   4.341   3.217   0.328  0.1772  1.1770 -1.1955
 8639TIP3   OH225880   3.715   1.439   5.130  0.3181 -0.0341  0.0856
 8639TIP3    H125881   3.704   1.432   5.035 -1.0631 -0.0259  0.2303
 8639TIP3    H225882   3.637   1.485   5.160  0.7820  0.0455  1.2265
 8640TIP3   OH225883   3.842   1.860   4.197  0.3941 -0.3655 -0.4903
 8640TIP3    H125884   3.779   1.791   4.214 -0.8122  0.8626  0.1793
 8640TIP3    H225885   3.823   1.927   4.262  3.4406 -0.6107  0.8069
 8641TIP3   OH225886   4.087   1.756   0.328  0.0923  0.3761 -0.4038
 8641TIP3    H125887   4.062   1.685   0.269  0.6399 -1.2323  1.2163
 8641TIP3    H225888   4.157   1.802   0.282 -0.6320  0.2087 -1.7041
 8642TIP3   OH225889   0.663   5.151   5.154  0.1331 -0.4803  0.2654
 8642TIP3    H125890   0.601   5.219   5.181 -1.2511 -1.5064 -0.2145
 8642TIP3    H225891   0.729   5.198   5.103 -1.0382  0.4565 -0.4431
 8643TIP3   OH225892   5.779   3.368   5.068  0.1160 -0.0551 -0.2776
 8643TIP3    H125893   5.684   3.382   5.072  0.0198 -0.2838 -1.3476
 8643TIP3    H225894   5.816   3.456   5.070  0.0270 -0.0078  2.3325
 8644TIP3   OH225895   2.582   4.076   1.670 -0.4902  0.3126  0.2784
 8644TIP3    H125896   2.600   4.011   1.602 -0.8859 -0.7688  1.1751
 8644TIP3    H225897   2.635   4.151   1.646  0.2197 -0.4540 -0.6326
 8645TIP3   OH225898   6.032   5.238   5.389 -0.2936  0.2226 -0.2211
 8645TIP3    H125899   6.097   5.211   5.454  0.2069  1.8000 -0.0214
 8645TIP3    H225900   6.072   5.215   5.305 -0.5299 -0.9616 -0.0207
 8646TIP3   OH225901   4.931   1.006   2.936 -0.4454  0.4068  0.0987
 8646TIP3    H125902   4.842   1.036   2.918 -0.7747 -1.1750 -1.0758
 8646TIP3    H225903   4.969   0.989   2.850 -0.2470 -2.3177  0.6576
 8647TIP3   OH225904   3.314   1.110   1.014  0.4050 -0.0681 -0.2986
 8647TIP3    H125905   3.274   1.075   0.934 -1.6206  1.3289  0.0369
 8647TIP3    H225906   3.391   1.055   1.028 -0.9244 -2.3873 -1.4584
 8648TIP3   OH225907   0.675   2.497   3.755  0.3039 -0.0815  0.6325
 8648TIP3    H125908   0.725   2.416   3.759 -0.3743 -0.5256  0.1009
 8648TIP3    H225909   0.598   2.476   3.703 -0.0141  0.8301  0.7199
 8649TIP3   OH225910   5.991   5.723   2.437  0.0293 -1.0311 -0.3911
 8649TIP3    H125911   5.999   5.766   2.352  0.2500  0.2273  0.2434
 8649TIP3    H225912   5.903   5.687   2.438 -0.8473  1.0054 -0.2439
 8650TIP3   OH225913   2.386   0.138   4.585 -0.3059 -0.2991 -0.1054
 8650TIP3    H125914   2.444   0.168   4.515  0.0739 -1.0950 -0.1426
 8650TIP3    H225915   2.430   0.062   4.622 -1.3363 -0.9450 -0.1543
 8651TIP3   OH225916   3.615   2.117   0.105 -0.4666  0.5249 -0.2042
 8651TIP3    H125917   3.536   2.090   0.059 -0.1416 -2.0071  0.5683
 8651TIP3    H225918   3.616   2.212   0.097 -3.0627  0.5629 -1.0465
 8652TIP3   OH225919   4.098   4.906   3.360 -0.2621 -0.1438  0.0073
 8652TIP3    H125920   4.025   4.947   3.313 -0.5702 -0.8421 -0.1451
 8652TIP3    H225921   4.119   4.829   3.307  1.5491  0.8112 -0.7463
 8653TIP3   OH225922   3.643   0.436   2.007 -0.1052  0.0243 -0.7899
 8653TIP3    H125923   3.609   0.514   2.051  1.7202  1.0352 -1.0620
 8653TIP3    H225924   3.601   0.437   1.921 -0.8008  0.1760 -0.4550
 8654TIP3   OH225925   0.048   1.961   2.830 -0.7353  0.1473 -0.2818
 8654TIP3    H125926   0.098   2.018   2.888 -0.2735  0.0930 -0.6175
 8654TIP3    H225927   0.043   2.009   2.747  1.0066 -0.9229 -1.0734
 8655TIP3   OH225928   1.095   0.595   0.314 -0.7897  0.2704 -0.2369
 8655TIP3    H125929   1.056   0.566   0.232 -0.0834 -0.7319 -0.2407
 8655TIP3    H225930   1.166   0.654   0.288 -0.5334 -0.0872 -0.3539
 8656TIP3   OH225931   6.077   3.016   1.702 -0.2773 -0.3946 -0.4382
 8656TIP3    H125932   6.086   2.951   1.771 -0.3191 -0.0282 -0.0858
 8656TIP3    H225933   6.151   3.076   1.716 -0.6872  0.0797 -0.2774
 8657TIP3   OH225934   5.343   2.379   3.752 -0.0657 -0.3964  0.0576
 8657TIP3    H125935   5.293   2.359   3.831 -2.4124  1.2462 -0.8922
 8657TIP3    H225936   5.344   2.474   3.747  2.6857 -0.3689 -0.3542
 8658TIP3   OH225937   5.956   3.290   5.281 -0.2283 -0.0287 -0.4500
 8658TIP3    H125938   6.030   3.287   5.220 -1.1091  0.9391 -1.6047
 8658TIP3    H225939   5.879   3.301   5.226 -1.1469  0.0484  0.7945
 8659TIP3   OH225940   6.854   1.047   0.792  0.2265  0.3111 -0.3163
 8659TIP3    H125941   6.805   0.987   0.848  0.3626  0.4823 -0.0118
 8659TIP3    H225942   6.914   1.093   0.851  0.3067  0.5620 -0.5854
 8660TIP3   OH225943   3.866   2.395   3.389 -0.1246 -0.4220  0.4393
 8660TIP3    H125944   3.885   2.303   3.373 -0.7662 -0.6105  0.7476
 8660TIP3    H225945   3.883   2.408   3.482 -0.9256 -0.4565  0.5972
 8661TIP3   OH225946   3.308   0.583   1.618  0.4200 -0.7881  0.7776
 8661TIP3    H125947   3.325   0.639   1.541 -2.1641  0.6087  1.1220
 8661TIP3    H225948   3.386   0.593   1.672  0.7971  1.0573 -0.0341
 8662TIP3   OH225949   5.120   2.533   5.759  0.5779  0.2041 -0.0040
 8662TIP3    H125950   5.193   2.562   5.814  0.2199 -1.3957  1.3894
 8662TIP3    H225951   5.162   2.501   5.679  1.3989 -0.5216  0.7017
 8663TIP3   OH225952   0.145   2.053   3.888 -0.0120 -0.1443  0.2151
 8663TIP3    H125953   0.089   2.029   3.963  0.2631 -0.1522  0.4190
 8663TIP3    H225954   0.163   2.146   3.900 -0.2517 -0.0655 -0.0304
 8664TIP3   OH225955   3.975   1.483   1.545  0.2538  0.1378 -0.4389
 8664TIP3    H125956   3.959   1.450   1.456  2.1844  0.5699 -1.0143
 8664TIP3    H225957   3.963   1.578   1.538  0.2781  0.1578 -0.2169
 8665TIP3   OH225958   0.931   5.778   0.771 -0.4428  0.1116  0.0051
 8665TIP3    H125959   0.915   5.763   0.678 -0.8817  1.3102 -0.1239
 8665TIP3    H225960   0.844   5.775   0.811 -0.1095 -2.3006  0.7043
 8666TIP3   OH225961   5.692   4.600   4.369  0.3234 -0.5089 -0.1388
 8666TIP3    H125962   5.723   4.691   4.374  2.0826 -0.9443 -1.7861
 8666TIP3    H225963   5.645   4.586   4.451  0.0366  1.8642  0.1719
 8667TIP3   OH225964   6.543   6.767   0.107 -0.2998 -0.0939  0.0306
 8667TIP3    H125965   6.455   6.756   0.142 -0.6246  0.8119 -0.4496
 8667TIP3    H225966   6.590   6.688   0.132 -1.7994 -1.5007 -1.3850
 8668TIP3   OH225967   0.336   3.072   4.240 -0.4656  0.1788  0.0322
 8668TIP3    H125968   0.381   3.148   4.204 -0.0627  0.4107  0.9855
 8668TIP3    H225969   0.402   3.003   4.243 -0.9690 -0.3933 -1.3308
 8669TIP3   OH225970   3.491   5.733   1.756  0.1583 -0.2935 -0.0283
 8669TIP3    H125971   3.529   5.728   1.668  0.4321 -1.0619  0.1191
 8669TIP3    H225972   3.433   5.808   1.753  1.5838  0.8465 -0.3152
 8670TIP3   OH225973   2.431   0.597   2.673  0.3066 -0.1989 -0.1800
 8670TIP3    H125974   2.354   0.645   2.643 -0.4583 -0.9439  0.5357
 8670TIP3    H225975   2.494   0.607   2.602  0.2225  1.9040 -0.0444
 8671TIP3   OH225976   5.109   2.632   3.531  0.0714  0.1578  0.6359
 8671TIP3    H125977   5.050   2.612   3.603  0.4366  1.8109  1.4598
 8671TIP3    H225978   5.063   2.700   3.481  0.5479  0.2359  0.2983
 8672TIP3   OH225979   7.182   1.907   1.526 -0.0532  0.1599  0.1859
 8672TIP3    H125980   7.276   1.900   1.539 -0.1795 -1.8881  0.2240
 8672TIP3    H225981   7.143   1.874   1.607 -0.8015  0.4330 -0.0514
 8673TIP3   OH225982   1.916   5.386   2.682 -0.2846  0.7152 -0.3635
 8673TIP3    H125983   1.828   5.399   2.716  0.0533  0.3148  0.7438
 8673TIP3    H225984   1.904   5.345   2.597 -1.1762  1.6377 -0.6935
 8674TIP3   OH225985   1.026   3.555   0.247  0.3084  0.0595  0.8749
 8674TIP3    H125986   0.969   3.604   0.187 -0.6580  0.1652  1.8379
 8674TIP3    H225987   1.006   3.463   0.229 -0.2241  0.0976  1.2469
 8675TIP3   OH225988   2.643   4.733   3.795  0.2667 -0.0676 -0.1028
 8675TIP3    H125989   2.557   4.697   3.815 -0.8776  2.5473  0.1215
 8675TIP3    H225990   2.639   4.757   3.702  0.4894  0.6909  0.0737
 8676TIP3   OH225991   3.736   2.741   1.243  0.2404  0.0725  0.3045
 8676TIP3    H125992   3.725   2.826   1.200  2.6342  0.6290  0.6754
 8676TIP3    H225993   3.657   2.692   1.220 -0.8900  2.1483 -0.4707
 8677TIP3   OH225994   0.530   3.684   2.942 -0.1336 -0.3568 -0.1082
 8677TIP3    H125995   0.452   3.714   2.989 -0.2359 -2.0333  0.8649
 8677TIP3    H225996   0.602   3.736   2.978 -0.4744 -0.4259  0.6804
 8678TIP3   OH225997   5.628   2.171   5.737  0.0109  0.0207 -0.0718
 8678TIP3    H125998   5.637   2.144   5.828  0.7549 -1.8695 -0.6605
 8678TIP3    H225999   5.534   2.165   5.720 -0.1047  0.1591  0.5010
 8679TIP3   OH226000   0.154   6.035   3.485 -0.3273 -0.2429 -0.4458
 8679TIP3    H126001   0.223   6.037   3.551  0.9675 -1.9706 -1.6335
 8679TIP3    H226002   0.186   6.092   3.415 -0.3566 -0.5774 -0.7395
 8680TIP3   OH226003   6.270   2.506   3.972  0.2904  0.5431  0.3516
 8680TIP3    H126004   6.284   2.601   3.969  1.1899  0.4611  1.4216
 8680TIP3    H226005   6.355   2.469   3.949 -0.1644 -0.0209 -0.4560
 8681TIP3   OH226006   0.874   3.240   3.005  0.6086  0.2785 -0.1542
 8681TIP3    H126007   0.881   3.238   3.100  1.6653  2.0662 -0.1490
 8681TIP3    H226008   0.937   3.174   2.975  0.9850  0.3850  0.3820
 8682TIP3   OH226009   6.061   4.144   2.554 -0.1111  0.2153 -0.0427
 8682TIP3    H126010   6.058   4.091   2.474 -0.3599  2.4967 -1.6558
 8682TIP3    H226011   5.969   4.155   2.578 -0.0349 -0.4815  0.5786
 8683TIP3   OH226012   1.395   2.564   1.408  0.0999 -0.2240  0.3482
 8683TIP3    H126013   1.336   2.562   1.483  1.7235  1.2656  1.7535
 8683TIP3    H226014   1.412   2.657   1.393  2.0531 -0.5894 -0.0018
 8684TIP3   OH226015   1.504   6.145   0.761  0.3406  0.1331 -0.4000
 8684TIP3    H126016   1.463   6.225   0.729 -0.6156  0.3827  1.3679
 8684TIP3    H226017   1.432   6.081   0.763  0.4594  0.0206  0.8228
 8685TIP3   OH226018   2.044   4.343   5.772 -0.1197 -0.6404 -0.1956
 8685TIP3    H126019   2.073   4.358   5.862 -1.3320  1.3954 -0.0958
 8685TIP3    H226020   1.989   4.418   5.751  1.4403 -0.1904 -3.2272
 8686TIP3   OH226021   6.604   1.053   1.023 -0.1367  0.5565  0.3909
 8686TIP3    H126022   6.520   1.074   1.063  0.3270  0.4403  1.4762
 8686TIP3    H226023   6.668   1.067   1.093  0.7159  0.3979 -0.3383
 8687TIP3   OH226024   0.568   2.125   3.099  0.0445 -0.0226 -0.4289
 8687TIP3    H126025   0.643   2.157   3.149  1.6049 -2.2219 -1.1787
 8687TIP3    H226026   0.495   2.125   3.161  1.6972 -1.8217  1.6612
 8688TIP3   OH226027   5.779   3.376   4.604 -0.1858  0.0893  0.0630
 8688TIP3    H126028   5.706   3.361   4.664 -0.5040  1.5753  0.0917
 8688TIP3    H226029   5.854   3.393   4.662  0.0391 -0.7573  0.0315
 8689TIP3   OH226030   2.694   6.168   5.172 -0.3333  0.2074 -0.1025
 8689TIP3    H126031   2.617   6.114   5.186 -0.2882 -0.3982 -1.8971
 8689TIP3    H226032   2.764   6.106   5.150  0.5777  0.7772  1.0378
 8690TIP3   OH226033   1.787   5.364   4.794  0.2992 -0.1999 -0.8980
 8690TIP3    H126034   1.873   5.364   4.752  0.5933  0.3238 -0.3215
 8690TIP3    H226035   1.742   5.439   4.756  0.8202  0.6994  0.1816
 8691TIP3   OH226036   6.728   4.546   5.694  0.0890  0.4765 -0.4668
 8691TIP3    H126037   6.720   4.456   5.725  1.3635  0.8436  1.0556
 8691TIP3    H226038   6.805   4.580   5.739 -0.9488  2.6350 -0.1979
 8692TIP3   OH226039   3.797   6.021   3.660 -0.6415  0.5124 -0.2527
 8692TIP3    H126040   3.822   6.055   3.746  1.0066 -1.2257  0.0332
 8692TIP3    H226041   3.790   6.098   3.604  0.7091  1.4926  0.8673
 8693TIP3   OH226042   4.396   4.992   4.566  0.5328 -0.5884 -0.1468
 8693TIP3    H126043   4.428   4.901   4.570 -0.1456 -0.8089  3.4852
 8693TIP3    H226044   4.419   5.029   4.651  0.7018  2.6977 -1.4953
 8694TIP3   OH226045   6.240   2.722   5.091 -0.2106  0.2535 -0.6932
 8694TIP3    H126046   6.287   2.698   5.171  0.4312 -1.3242 -1.4908
 8694TIP3    H226047   6.153   2.683   5.101 -0.4527  0.8566 -0.3828
 8695TIP3   OH226048   0.968   6.245   0.723  0.4328 -0.1650 -0.0575
 8695TIP3    H126049   1.033   6.189   0.764  0.3439 -0.5778 -0.4748
 8695TIP3    H226050   0.884   6.203   0.742  0.3739 -0.2314 -0.4649
 8696TIP3   OH226051   0.558   2.854   4.248 -0.2899  0.1446 -0.7429
 8696TIP3    H126052   0.635   2.798   4.254 -1.6763 -1.8054 -0.1231
 8696TIP3    H226053   0.558   2.905   4.330 -1.4133 -2.3242  0.8955
 8697TIP3   OH226054   0.373   5.241   0.870 -0.0454 -0.1015  0.4574
 8697TIP3    H126055   0.341   5.311   0.927  0.3237  0.7218 -0.3088
 8697TIP3    H226056   0.372   5.280   0.782  0.4599 -0.9637  0.0563
 8698TIP3   OH226057   1.632   1.338   4.286  0.0409 -0.3406  0.1247
 8698TIP3    H126058   1.716   1.379   4.269  0.0613  0.9980  2.9750
 8698TIP3    H226059   1.582   1.350   4.205  1.9962  0.2798 -1.0391
 8699TIP3   OH226060   1.233   5.894   4.975 -0.4006  0.3125 -0.6734
 8699TIP3    H126061   1.157   5.952   4.964 -0.6977  0.0328 -0.1581
 8699TIP3    H226062   1.300   5.950   5.015  0.2205  0.9762 -2.5573
 8700TIP3   OH226063   6.518   2.830   4.745 -0.3757 -0.0576  0.1503
 8700TIP3    H126064   6.570   2.784   4.812 -0.0256  2.7082  1.9394
 8700TIP3    H226065   6.581   2.890   4.704 -1.6997  2.1068  1.1398
 8701TIP3   OH226066   4.939   5.320   2.574  0.0394 -0.2564  0.0384
 8701TIP3    H126067   4.877   5.309   2.502 -0.2583 -0.3461  0.3090
 8701TIP3    H226068   5.025   5.321   2.532 -0.0774 -1.1708 -0.2323
 8702TIP3   OH226069   3.885   1.038   2.490 -0.2158  0.4764  0.0420
 8702TIP3    H126070   3.953   1.015   2.552 -0.5078  0.8311  0.5035
 8702TIP3    H226071   3.811   1.067   2.544 -0.7418  0.0793 -0.4455
 8703TIP3   OH226072   2.165   3.465   4.279  0.1526  0.1043 -0.1373
 8703TIP3    H126073   2.117   3.540   4.243  0.6474  0.5191  0.0480
 8703TIP3    H226074   2.232   3.446   4.212 -0.0118 -0.2083 -0.2113
 8704TIP3   OH226075   5.576   3.594   4.729 -0.1988  0.2990 -0.3313
 8704TIP3    H126076   5.573   3.614   4.635 -4.1548  0.5127 -0.3576
 8704TIP3    H226077   5.544   3.504   4.735  0.6511  0.0544  0.8040
 8705TIP3   OH226078   3.000   3.273   3.006 -0.8547  0.0064  0.1604
 8705TIP3    H126079   2.976   3.249   3.096 -1.6282 -1.6079 -0.4412
 8705TIP3    H226080   2.959   3.358   2.992 -0.2093  0.5705  1.5305
 8706TIP3   OH226081   5.762   4.985   4.628 -0.1362 -0.2744 -0.1535
 8706TIP3    H126082   5.681   4.942   4.601 -0.2254  1.0717 -2.2843
 8706TIP3    H226083   5.733   5.064   4.674 -0.0361 -0.1660 -0.2744
 8707TIP3   OH226084   1.193   4.689   0.448 -0.0705  0.0489  0.3450
 8707TIP3    H126085   1.178   4.751   0.376  2.5930 -1.2167 -1.4520
 8707TIP3    H226086   1.181   4.603   0.408  2.6418 -0.7237  1.0044
 8708TIP3   OH226087   6.883   6.041   5.331  0.1412  0.0329  0.5255
 8708TIP3    H126088   6.921   6.078   5.252  0.0259 -0.0192  0.4452
 8708TIP3    H226089   6.939   6.072   5.402  1.0122 -0.9480  0.3008
 8709TIP3   OH226090   4.413   3.425   0.730 -0.1181  0.2930  0.5027
 8709TIP3    H126091   4.418   3.503   0.675  0.3100 -0.0904 -0.0092
 8709TIP3    H226092   4.481   3.367   0.696 -1.2830 -0.8446  0.0370
 8710TIP3   OH226093   1.557   0.784   0.623  0.1651  0.3947  0.1194
 8710TIP3    H126094   1.556   0.874   0.592 -0.7105 -0.9352 -4.3233
 8710TIP3    H226095   1.650   0.762   0.627  0.3608  1.2229  0.4422
 8711TIP3   OH226096   6.192   2.368   1.731  0.3370 -0.2643 -0.2845
 8711TIP3    H126097   6.223   2.283   1.701  0.7113 -0.5509  0.8522
 8711TIP3    H226098   6.259   2.397   1.792 -0.2687  0.3991  0.0748
 8712TIP3   OH226099   3.418   4.953   1.416 -0.4925  0.3557  0.4918
 8712TIP3    H126100   3.476   5.028   1.428  0.2253  0.1449 -1.3322
 8712TIP3    H226101   3.367   4.948   1.497  0.6050  1.7924  1.3031
 8713TIP3   OH226102   0.602   4.326   0.953  0.1069  0.3873 -0.2100
 8713TIP3    H126103   0.640   4.407   0.988  2.0051 -0.0886 -1.0798
 8713TIP3    H226104   0.662   4.299   0.884  0.1525 -2.3595  0.7723
 8714TIP3   OH226105   6.367   2.686   0.629  0.0532 -0.0471 -0.1901
 8714TIP3    H126106   6.314   2.735   0.692  1.4001 -0.8065  1.6127
 8714TIP3    H226107   6.305   2.628   0.585 -1.0430  1.0689 -0.1681
 8715TIP3   OH226108   1.885   1.617   3.467 -0.6218 -0.5155  0.1562
 8715TIP3    H126109   1.870   1.701   3.509  1.3754  0.6359 -1.2657
 8715TIP3    H226110   1.814   1.561   3.499 -2.2172  1.7765  0.8901
 8716TIP3   OH226111   0.150   3.667   3.470 -0.5275  0.5083  0.0536
 8716TIP3    H126112   0.173   3.616   3.548 -0.3669 -1.6619 -1.3575
 8716TIP3    H226113   0.234   3.689   3.430 -0.6647 -0.2014 -0.6285
 8717TIP3   OH226114   7.210   4.651   5.336  0.2494  0.0451  0.1928
 8717TIP3    H126115   7.272   4.584   5.364  0.9903  0.6966  0.1614
 8717TIP3    H226116   7.126   4.606   5.330  0.7186 -0.8523  0.2420
 8718TIP3   OH226117   5.484   3.215   2.568  0.0917  0.0054  0.4987
 8718TIP3    H126118   5.567   3.169   2.576 -1.1828 -2.8621 -0.9933
 8718TIP3    H226119   5.434   3.187   2.645 -0.3628 -0.3633  0.0761
 8719TIP3   OH226120   0.321   2.133   5.029  0.5240  0.0905 -0.0425
 8719TIP3    H126121   0.404   2.088   5.048  0.1032  0.1141  2.0235
 8719TIP3    H226122   0.272   2.129   5.111 -1.5295  0.1137 -1.2000
 8720TIP3   OH226123   3.473   2.070   5.384  0.2878  0.6252  0.3382
 8720TIP3    H126124   3.514   2.155   5.397  1.0363  0.4278 -0.6018
 8720TIP3    H226125   3.545   2.007   5.389 -0.2239  0.0630  0.8040
 8721TIP3   OH226126   6.428   4.702   0.318 -0.2619 -0.6061  0.7724
 8721TIP3    H126127   6.391   4.728   0.234  0.1322 -0.7100  0.5667
 8721TIP3    H226128   6.522   4.714   0.308 -0.0835 -1.8771  0.7620
 8722TIP3   OH226129   6.266   6.604   4.320  0.0129 -0.2413  0.2146
 8722TIP3    H126130   6.266   6.555   4.238 -1.0076  0.0652  0.0159
 8722TIP3    H226131   6.354   6.591   4.355  0.2941 -0.8258 -0.6540
 8723TIP3   OH226132   1.644   4.519   0.964 -0.3341  0.1314  0.2269
 8723TIP3    H126133   1.635   4.453   0.895 -0.9549 -0.7372  1.1016
 8723TIP3    H226134   1.735   4.548   0.958 -0.2782 -0.2062 -0.7091
 8724TIP3   OH226135   5.872   6.402   5.491 -0.0338 -0.2846 -0.3436
 8724TIP3    H126136   5.786   6.382   5.528 -0.4405 -1.0280 -1.6318
 8724TIP3    H226137   5.856   6.416   5.398  1.0382  0.9907 -0.3708
 8725TIP3   OH226138   4.882   3.084   0.708  0.2527 -0.2366 -0.2857
 8725TIP3    H126139   4.933   3.161   0.735 -1.9773  1.5365 -0.8287
 8725TIP3    H226140   4.851   3.046   0.790 -0.2895  0.6673 -0.0606
 8726TIP3   OH226141   5.219   3.055   2.095  0.3552  0.5125  0.0291
 8726TIP3    H126142   5.156   2.984   2.097 -2.0140  2.4677 -0.2709
 8726TIP3    H226143   5.274   3.036   2.018  2.1564 -2.7035  1.8811
 8727TIP3   OH226144   5.242   1.487   0.958 -0.1594 -0.3599 -0.1789
 8727TIP3    H126145   5.291   1.408   0.936 -1.0539 -0.7068 -1.0055
 8727TIP3    H226146   5.160   1.455   0.995 -1.0478  0.1480 -1.6544
 8728TIP3   OH226147   0.628   3.859   2.336 -0.0921  0.2613 -0.4456
 8728TIP3    H126148   0.641   3.952   2.320  0.7033  0.2752  0.2470
 8728TIP3    H226149   0.677   3.840   2.416  1.1703 -1.0985 -1.4826
 8729TIP3   OH226150   0.720   4.026   1.869  0.0222  0.3460  0.2061
 8729TIP3    H126151   0.656   4.094   1.890 -0.6775  0.6217 -2.4638
 8729TIP3    H226152   0.731   4.033   1.774 -0.3616 -3.4946 -0.2557
 8730TIP3   OH226153   6.005   2.305   5.354 -0.4609  0.0900 -0.2823
 8730TIP3    H126154   5.968   2.218   5.364 -0.0699  0.0379  0.8885
 8730TIP3    H226155   5.990   2.327   5.262 -1.6628 -0.6991 -0.3016
 8731TIP3   OH226156   2.178   3.290   0.026  0.3020 -0.5377 -0.3807
 8731TIP3    H126157   2.088   3.275  -0.004  0.0370 -0.9769  0.5896
 8731TIP3    H226158   2.167   3.333   0.111  1.0293  0.7680 -0.9254
 8732TIP3   OH226159   0.719   3.779   5.754  0.3422  0.2581  0.3428
 8732TIP3    H126160   0.730   3.684   5.752 -1.0139  0.0841  0.3760
 8732TIP3    H226161   0.688   3.798   5.842 -2.4127  0.3356 -0.5618
 8733TIP3   OH226162   7.168   1.665   0.722  0.4017 -0.1098 -0.5293
 8733TIP3    H126163   7.243   1.607   0.732  1.3311  1.2903  1.0097
 8733TIP3    H226164   7.202   1.742   0.676 -0.1043  0.4841  0.0653
 8734TIP3   OH226165   1.484   1.570   1.603  0.3825 -0.1194  0.2963
 8734TIP3    H126166   1.475   1.577   1.508 -0.7510 -1.7782  0.2422
 8734TIP3    H226167   1.535   1.491   1.617 -0.2453 -0.3984  1.0861
 8735TIP3   OH226168   5.157   0.456   1.527  0.1498 -0.5752 -0.0362
 8735TIP3    H126169   5.231   0.474   1.468  1.3972  2.9303  2.2360
 8735TIP3    H226170   5.191   0.394   1.591  0.0304 -1.4602 -0.8192
 8736TIP3   OH226171   3.562   0.742   3.743  0.0582 -0.5191  0.0017
 8736TIP3    H126172   3.471   0.772   3.748  0.5548  1.0344  0.2998
 8736TIP3    H226173   3.614   0.821   3.759  1.4722 -1.2967 -0.5966
 8737TIP3   OH226174   3.923   4.081   3.860  0.2342 -0.1289 -0.1344
 8737TIP3    H126175   3.901   3.989   3.875 -1.9267  0.3942  0.3453
 8737TIP3    H226176   3.982   4.104   3.931 -3.3111  0.1092  3.0854
 8738TIP3   OH226177   7.126   4.608   0.335  0.7200 -0.0978 -0.6890
 8738TIP3    H126178   7.094   4.520   0.355 -0.1404  0.1507 -0.9168
 8738TIP3    H226179   7.088   4.664   0.402  1.0202  0.1450 -0.7188
 8739TIP3   OH226180   2.261   6.679   0.963 -0.3792 -0.0955  0.0392
 8739TIP3    H126181   2.344   6.707   1.002 -0.7617 -0.5096  1.1926
 8739TIP3    H226182   2.253   6.586   0.986  0.3112 -0.9280 -2.7283
 8740TIP3   OH226183   4.528   3.551   2.871 -0.3397 -0.2847  0.4209
 8740TIP3    H126184   4.537   3.589   2.959  0.9399  1.4684 -0.3982
 8740TIP3    H226185   4.615   3.516   2.851 -0.7153 -0.9878 -0.0344
 8741TIP3   OH226186   3.325   6.666   2.965  0.1739  0.0709  0.2438
 8741TIP3    H126187   3.310   6.605   2.893  1.3503 -0.8611  0.7634
 8741TIP3    H226188   3.286   6.624   3.042  1.0243 -0.0717  0.6117
 8742TIP3   OH226189   6.478   0.698   4.451 -0.4133 -0.2990  0.4924
 8742TIP3    H126190   6.418   0.704   4.526 -0.3854 -1.6490  0.6450
 8742TIP3    H226191   6.472   0.607   4.423 -1.6634  0.4830 -2.1888
 8743TIP3   OH226192   0.860   6.740   0.138  0.4378  0.2890 -0.1405
 8743TIP3    H126193   0.777   6.725   0.093  1.1295  0.5448 -1.5373
 8743TIP3    H226194   0.836   6.794   0.214 -0.8506 -0.7868  0.2525
 8744TIP3   OH226195   5.349   3.920   1.829 -0.1018 -0.0706  0.2514
 8744TIP3    H126196   5.374   3.858   1.761  0.8739 -0.1493  0.6698
 8744TIP3    H226197   5.309   3.865   1.897 -3.4925  0.2344 -1.2523
 8745TIP3   OH226198   1.409   3.198   5.761 -0.0080  0.3226  0.1883
 8745TIP3    H126199   1.469   3.140   5.807 -0.0133  0.4970  0.4185
 8745TIP3    H226200   1.396   3.157   5.676  0.7982  0.5238 -0.0388
 8746TIP3   OH226201   5.556   5.479   3.722 -0.1236  0.1484  0.4686
 8746TIP3    H126202   5.645   5.497   3.691 -0.5100  0.9186 -0.2465
 8746TIP3    H226203   5.508   5.561   3.707 -0.9661 -0.2696  0.7917
 8747TIP3   OH226204   0.667   4.545   1.608 -0.1502  0.1475  0.4871
 8747TIP3    H126205   0.687   4.614   1.544  1.0591  1.2606  1.9880
 8747TIP3    H226206   0.713   4.572   1.687 -1.0907 -1.5189  1.6567
 8748TIP3   OH226207   6.505   0.849   5.781 -0.5256 -0.3741  0.1354
 8748TIP3    H126208   6.419   0.850   5.822 -0.7641 -0.0290 -0.3523
 8748TIP3    H226209   6.487   0.868   5.688 -0.0497 -1.5563 -0.2142
 8749TIP3   OH226210   3.919   4.251   1.420  0.2471 -0.6725 -0.3803
 8749TIP3    H126211   3.936   4.181   1.357  0.4960  0.2045 -1.3145
 8749TIP3    H226212   3.903   4.328   1.366  1.0450  0.2359  0.6384
 8750TIP3   OH226213   1.557   0.419   1.039  0.3225 -0.6454 -0.5887
 8750TIP3    H126214   1.464   0.409   1.059  0.6921  0.2111  1.9506
 8750TIP3    H226215   1.567   0.386   0.950 -2.0632 -2.6176 -0.2169
 8751TIP3   OH226216   2.463   4.115   3.382  0.0038 -0.0977  0.5095
 8751TIP3    H126217   2.385   4.116   3.326  0.1381  0.4865  0.3286
 8751TIP3    H226218   2.437   4.062   3.458 -0.1900 -0.8682 -0.0879
 8752TIP3   OH226219   4.655   5.214   5.701  0.4491 -0.4238  0.7279
 8752TIP3    H126220   4.688   5.301   5.721 -0.6301 -0.0331  0.8537
 8752TIP3    H226221   4.566   5.228   5.668  0.9559 -1.3160 -1.1410
 8753TIP3   OH226222   3.925   6.548   4.901 -0.5029  0.4906 -0.0780
 8753TIP3    H126223   3.894   6.550   4.992 -0.0691  0.3847  0.0763
 8753TIP3    H226224   3.990   6.618   4.897  1.4237 -1.1667  0.4244
 8754TIP3   OH226225   3.655   0.198   3.515 -0.0557 -0.0470 -0.1237
 8754TIP3    H126226   3.706   0.272   3.482 -0.1917  1.3038  2.4662
 8754TIP3    H226227   3.646   0.215   3.608 -0.5461 -3.1124  0.4835
 8755TIP3   OH226228   7.103   4.271   5.306 -0.0648  0.3489  0.0991
 8755TIP3    H126229   7.074   4.362   5.296 -1.3372 -0.0798 -0.3858
 8755TIP3    H226230   7.157   4.271   5.385 -0.8418  1.3392  0.6531
 8756TIP3   OH226231   6.319   1.680   5.343 -0.0235  0.1930  0.7522
 8756TIP3    H126232   6.257   1.715   5.407 -1.0729 -0.4458  0.1218
 8756TIP3    H226233   6.289   1.590   5.329 -0.0272  0.4249 -0.8690
 8757TIP3   OH226234   6.416   2.736   4.260 -0.2680 -0.2596  0.1613
 8757TIP3    H126235   6.442   2.816   4.305 -0.5050 -0.1074  0.0332
 8757TIP3    H226236   6.342   2.702   4.311 -0.3280 -0.2617  0.0744
 8758TIP3   OH226237   4.038   4.071   4.914 -0.7707 -0.1896 -0.3417
 8758TIP3    H126238   3.954   4.046   4.953 -0.4608  0.5376  0.8524
 8758TIP3    H226239   4.091   4.101   4.988  0.7362 -1.1030 -0.9812
 8759TIP3   OH226240   5.962   4.438   3.381 -0.3661 -0.0903  0.0927
 8759TIP3    H126241   5.978   4.405   3.293 -1.1875  0.1305 -0.1458
 8759TIP3    H226242   5.947   4.359   3.434  1.4055 -0.3106  0.3324
 8760TIP3   OH226243   1.400   3.115   2.382  0.1500  0.2720  0.1269
 8760TIP3    H126244   1.377   3.189   2.438 -2.3322 -0.2091 -0.1208
 8760TIP3    H226245   1.355   3.132   2.299  1.3050 -0.4901 -0.6888
 8761TIP3   OH226246   0.497   1.924   0.617 -0.7714 -0.3552 -0.3717
 8761TIP3    H126247   0.441   2.000   0.599  0.0276  0.9078  2.0295
 8761TIP3    H226248   0.466   1.892   0.702  0.0692 -1.6274 -0.5230
 8762TIP3   OH226249   0.640   5.030   3.309  0.2486  0.4493 -0.3423
 8762TIP3    H126250   0.607   5.110   3.351  0.7235  0.3990  0.1370
 8762TIP3    H226251   0.667   4.974   3.382  0.0912 -0.0826 -0.6791
 8763TIP3   OH226252   5.209   3.297   4.794 -0.6747 -0.1309  0.3589
 8763TIP3    H126253   5.189   3.374   4.846 -2.0215 -0.4416  0.3446
 8763TIP3    H226254   5.280   3.253   4.840 -0.0264  1.0096  0.4625
 8764TIP3   OH226255   6.503   3.939   0.048  0.4695  0.7411  0.5383
 8764TIP3    H126256   6.429   3.957  -0.010  0.3968  0.4022  0.5246
 8764TIP3    H226257   6.561   3.884  -0.004  0.4786  0.5667  0.7317
 8765TIP3   OH226258   1.391   1.158   5.548  0.1120 -0.5947 -0.1749
 8765TIP3    H126259   1.344   1.075   5.558 -0.4577 -0.1941  0.5099
 8765TIP3    H226260   1.452   1.160   5.621 -0.2668 -0.1551  0.1342
 8766TIP3   OH226261   2.131   5.122   3.390  0.3606  0.3741  0.2808
 8766TIP3    H126262   2.059   5.171   3.351 -1.5451 -1.6697  1.0526
 8766TIP3    H226263   2.167   5.070   3.318  2.1244  2.4140 -0.4433
 8767TIP3   OH226264   3.167   0.914   2.834 -0.3391 -0.1608  0.5977
 8767TIP3    H126265   3.210   0.999   2.845  0.5707 -0.5401  0.0760
 8767TIP3    H226266   3.154   0.906   2.739 -0.3703 -0.6200  0.6385
 8768TIP3   OH226267   7.132   4.916   5.378  0.0564 -0.7182 -0.1049
 8768TIP3    H126268   7.153   4.999   5.421  0.2576 -0.1078 -1.3429
 8768TIP3    H226269   7.212   4.864   5.386  0.6478  0.0045 -1.1286
 8769TIP3   OH226270   4.319   3.039   2.871 -0.7881 -0.5081  0.1339
 8769TIP3    H126271   4.285   3.126   2.891 -1.5698 -0.8238  0.2061
 8769TIP3    H226272   4.312   2.991   2.953  1.5684 -0.0590  0.6741
 8770TIP3   OH226273   4.741   5.669   1.166  0.0309  0.1416  0.3246
 8770TIP3    H126274   4.730   5.693   1.074 -0.0514 -1.7366 -0.1841
 8770TIP3    H226275   4.753   5.574   1.166  1.1686  0.2245  2.1638
 8771TIP3   OH226276   1.837   4.318   4.724  0.5774  0.0919 -0.0630
 8771TIP3    H126277   1.875   4.260   4.791 -0.6409 -0.6001  0.0551
 8771TIP3    H226278   1.799   4.390   4.774 -0.3549 -0.4377  0.0186
 8772TIP3   OH226279   6.831   4.011   3.594 -0.0595  0.6628  0.0000
 8772TIP3    H126280   6.852   4.044   3.681  0.2419  0.2319  0.0986
 8772TIP3    H226281   6.908   4.033   3.541 -0.2381  0.9149 -0.1515
 8773TIP3   OH226282   5.873   3.523   2.243  0.5520  0.5170 -0.2813
 8773TIP3    H126283   5.814   3.460   2.202  0.8246 -0.7167  1.1219
 8773TIP3    H226284   5.847   3.607   2.206 -1.4732 -0.0914 -0.3991
 8774TIP3   OH226285   6.235   0.082   3.878 -0.1264 -0.3003 -0.2174
 8774TIP3    H126286   6.180   0.054   3.951 -0.3739 -0.2460 -0.3809
 8774TIP3    H226287   6.324   0.058   3.904  0.2949  2.7710  1.6367
 8775TIP3   OH226288   2.123   6.634   5.086  0.1696  0.3749  0.0902
 8775TIP3    H126289   2.202   6.601   5.128 -1.8659 -2.1441  2.2556
 8775TIP3    H226290   2.110   6.576   5.011 -1.3329 -1.4551  1.6793
 8776TIP3   OH226291   4.224   1.116   2.884  0.4385  0.1842  0.6262
 8776TIP3    H126292   4.147   1.169   2.860  0.2414  0.2346  1.3532
 8776TIP3    H226293   4.293   1.179   2.900  0.2145  0.2311  1.4531
 8777TIP3   OH226294   6.327   0.853   1.779 -0.3918 -0.2646  0.4457
 8777TIP3    H126295   6.354   0.817   1.694  2.9548  0.1883  1.1407
 8777TIP3    H226296   6.321   0.947   1.764  1.0489 -0.0855  0.8270
 8778TIP3   OH226297   5.403   1.530   2.835  0.4369 -0.8525 -0.1916
 8778TIP3    H126298   5.385   1.516   2.928  0.2433  0.1421 -0.0681
 8778TIP3    H226299   5.360   1.457   2.791 -0.7854 -0.5145  0.3895
 8779TIP3   OH226300   1.462   6.220   0.079  0.0613  0.0757 -0.2631
 8779TIP3    H126301   1.542   6.199   0.127 -1.3481  0.6613  2.4874
 8779TIP3    H226302   1.477   6.308   0.045  0.4860  0.2746  0.4192
 8780TIP3   OH226303   1.685   1.806   2.667  0.2269  0.5484  0.5295
 8780TIP3    H126304   1.659   1.877   2.609 -0.0250 -1.2468 -1.7023
 8780TIP3    H226305   1.689   1.845   2.754 -1.5889  2.8486 -0.3447
 8781TIP3   OH226306   2.444   4.827   2.572  0.0597 -0.2474  0.2484
 8781TIP3    H126307   2.439   4.917   2.602  1.5472  0.2202 -0.8156
 8781TIP3    H226308   2.371   4.817   2.511  0.6396  0.6431 -0.6174
 8782TIP3   OH226309   4.323   4.713   4.179 -0.0852 -0.2348 -0.6248
 8782TIP3    H126310   4.304   4.635   4.127 -0.1106 -0.9514  0.4215
 8782TIP3    H226311   4.320   4.683   4.270  0.1533  0.9347 -0.2039
 8783TIP3   OH226312   0.214   0.992   4.867  0.0490  0.1507 -1.0127
 8783TIP3    H126313   0.256   0.913   4.901 -1.8189 -1.4096 -2.1699
 8783TIP3    H226314   0.287   1.053   4.852  1.3757 -0.6916  1.3969
 8784TIP3   OH226315   5.594   5.529   4.580  0.1668  0.2524 -0.2052
 8784TIP3    H126316   5.577   5.509   4.672  0.6152 -0.9143 -0.3582
 8784TIP3    H226317   5.522   5.489   4.532  0.9301 -0.8233 -0.4963
 8785TIP3   OH226318   0.644   0.861   0.496  0.2534 -0.1941 -0.1129
 8785TIP3    H126319   0.735   0.832   0.500  0.4009  0.1813 -0.7084
 8785TIP3    H226320   0.593   0.783   0.519  0.7332 -0.3265  0.5135
 8786TIP3   OH226321   6.309   4.440   4.203  0.1966 -0.1082 -0.0745
 8786TIP3    H126322   6.246   4.381   4.245  0.0941 -0.5187 -0.7894
 8786TIP3    H226323   6.393   4.418   4.244  0.2529 -1.1419 -0.7096
 8787TIP3   OH226324   6.240   5.095   0.438  0.1752  0.4392 -0.0666
 8787TIP3    H126325   6.250   5.019   0.494 -0.0401  0.5833  0.1726
 8787TIP3    H226326   6.301   5.081   0.366  0.1640  0.0610 -0.0035
 8788TIP3   OH226327   3.453   0.872   3.298 -0.0496  0.5218  0.9633
 8788TIP3    H126328   3.527   0.819   3.268  0.7275  2.0969 -0.0449
 8788TIP3    H226329   3.407   0.816   3.361  1.9243 -0.5663  1.5270
 8789TIP3   OH226330   6.630   2.711   0.277  0.6396 -0.2084 -0.3441
 8789TIP3    H126331   6.662   2.651   0.344 -0.5904  0.8990  1.2903
 8789TIP3    H226332   6.636   2.798   0.317  1.1515  0.6676 -2.1770
 8790TIP3   OH226333   2.272   2.577   2.515 -0.4057  0.0256 -0.2045
 8790TIP3    H126334   2.309   2.660   2.542  0.0866 -0.7925  1.8168
 8790TIP3    H226335   2.313   2.512   2.573 -1.7831 -1.4546 -0.8051
 8791TIP3   OH226336   6.492   6.268   2.947  0.3607 -0.4151  0.4923
 8791TIP3    H126337   6.462   6.347   2.902 -1.6179  1.6017  4.7618
 8791TIP3    H226338   6.424   6.203   2.928  0.7321 -0.3740 -1.0993
 8792TIP3   OH226339   6.015   2.042   0.144 -0.3320 -0.2456  0.2275
 8792TIP3    H126340   6.044   1.984   0.073 -0.8495 -0.5382  0.2559
 8792TIP3    H226341   6.055   2.127   0.123 -0.8928 -0.1989 -0.6930
 8793TIP3   OH226342   4.750   0.268   3.947  0.1982  0.4336  0.3248
 8793TIP3    H126343   4.668   0.281   3.900 -1.0543  2.0909  2.7554
 8793TIP3    H226344   4.758   0.173   3.955 -2.6854  0.1977  1.8385
 8794TIP3   OH226345   2.696   0.931   0.055  0.0883  0.3702 -0.2070
 8794TIP3    H126346   2.742   0.847   0.043  4.3821  2.2071  1.4307
 8794TIP3    H226347   2.617   0.908   0.104  0.0547 -2.8804 -1.5362
 8795TIP3   OH226348   1.142   4.003   4.081 -0.1028  0.1733 -0.0635
 8795TIP3    H126349   1.138   3.981   3.988  0.3227  2.0081 -0.5609
 8795TIP3    H226350   1.136   3.919   4.126 -0.0188 -0.7804 -1.7498
 8796TIP3   OH226351   1.975   0.466   2.496  0.2901 -0.1407 -0.2932
 8796TIP3    H126352   2.022   0.519   2.560  1.0009 -0.9358 -0.1346
 8796TIP3    H226353   2.007   0.497   2.411 -0.4951  0.7671 -0.2778
 8797TIP3   OH226354   5.653   4.180   3.406 -0.2731  0.1265 -0.5629
 8797TIP3    H126355   5.749   4.189   3.412 -0.0126 -1.6682 -1.3040
 8797TIP3    H226356   5.627   4.148   3.492  0.0998 -1.2955 -0.9425
 8798TIP3   OH226357   4.718   3.054   3.723 -0.0007 -0.4416  0.0803
 8798TIP3    H126358   4.698   3.046   3.630 -0.2880 -0.5800  0.1520
 8798TIP3    H226359   4.801   3.006   3.734  0.3863  0.1511 -0.2195
 8799TIP3   OH226360   5.568   4.477   2.035 -0.4521  0.5001  0.2213
 8799TIP3    H126361   5.637   4.433   2.085 -0.9399  0.7741  1.1728
 8799TIP3    H226362   5.601   4.566   2.023  0.8351 -0.2186 -2.2892
 8800TIP3   OH226363   5.140   6.441   4.048  0.2508 -0.0529 -0.2910
 8800TIP3    H126364   5.210   6.378   4.063  0.6180  0.0348 -1.5071
 8800TIP3    H226365   5.179   6.526   4.065 -0.1286 -0.1083  0.9434
 8801TIP3   OH226366   0.377   5.694   4.208  0.3515 -0.1830 -0.1487
 8801TIP3    H126367   0.444   5.727   4.269  0.6388  0.1734 -0.6470
 8801TIP3    H226368   0.333   5.624   4.256 -1.0930  1.7043  1.4237
 8802TIP3   OH226369   4.037   3.384   4.739 -0.4897 -0.2802 -0.0055
 8802TIP3    H126370   4.032   3.313   4.803  0.1951 -0.3060  0.0279
 8802TIP3    H226371   4.112   3.436   4.767 -1.4366  0.8947  0.4118
 8803TIP3   OH226372   3.511   0.032   1.027 -0.1470 -0.7490  0.2784
 8803TIP3    H126373   3.435   0.021   1.084 -0.2924 -1.0112  0.0285
 8803TIP3    H226374   3.483   0.096   0.961  0.3074  0.2553  1.0155
 8804TIP3   OH226375   4.134   6.496   2.936  0.2350  0.4261 -0.7885
 8804TIP3    H126376   4.049   6.539   2.935 -0.4954 -0.7982  1.3419
 8804TIP3    H226377   4.190   6.554   2.987 -0.6369 -0.7784  1.7245
 8805TIP3   OH226378   5.508   5.523   3.989  0.3319 -0.4673 -0.1778
 8805TIP3    H126379   5.524   5.496   3.899 -0.1331  1.0265 -0.7412
 8805TIP3    H226380   5.417   5.553   3.991 -0.2768 -2.2402  1.2725
 8806TIP3   OH226381   6.680   5.103   5.249  0.0456  0.2378 -0.0816
 8806TIP3    H126382   6.606   5.043   5.240 -0.5464  1.2526 -2.9678
 8806TIP3    H226383   6.755   5.046   5.263 -1.0770 -0.8491  2.1197
 8807TIP3   OH226384   5.870   6.451   1.786  0.1700 -0.2037  0.1470
 8807TIP3    H126385   5.913   6.393   1.849 -0.8013 -0.6451  0.4267
 8807TIP3    H226386   5.941   6.490   1.736  0.8408 -2.1825 -0.5385
 8808TIP3   OH226387   2.229   4.765   2.391 -0.0061  0.3737  0.2070
 8808TIP3    H126388   2.170   4.814   2.450 -0.1281  1.2164 -0.5931
 8808TIP3    H226389   2.185   4.681   2.378  0.6581 -0.3900  2.3559
 8809TIP3   OH226390   5.840   6.738   2.158 -0.6369 -0.2612 -0.5499
 8809TIP3    H126391   5.812   6.819   2.200  0.1387 -0.2336 -0.0830
 8809TIP3    H226392   5.831   6.671   2.226  1.6918 -0.0310  0.0721
 8810TIP3   OH226393   7.023   1.473   3.063  0.3068 -0.8105  0.0753
 8810TIP3    H126394   7.052   1.462   3.154  2.7872  0.5980 -0.4654
 8810TIP3    H226395   6.934   1.506   3.070 -0.2356 -2.4743  1.9319
 8811TIP3   OH226396   5.888   2.553   5.566 -0.4365  0.1744 -0.0535
 8811TIP3    H126397   5.864   2.480   5.623 -1.0415  0.6939  0.3655
 8811TIP3    H226398   5.837   2.537   5.486  1.6669 -1.4793 -1.1700
 8812TIP3   OH226399   5.620   1.755   5.300 -0.1245  0.4354  0.5893
 8812TIP3    H126400   5.600   1.727   5.389 -0.1552  0.7401  0.6806
 8812TIP3    H226401   5.637   1.849   5.308  1.7216  0.1248  0.5700
 8813TIP3   OH226402   4.621   3.778   5.315  0.1782  0.2681 -0.1593
 8813TIP3    H126403   4.646   3.700   5.265 -1.6494 -0.2629 -0.3167
 8813TIP3    H226404   4.648   3.759   5.405  2.0727  0.5703 -0.6321
 8814TIP3   OH226405   3.890   1.113   1.597 -0.1864  0.6832  0.1723
 8814TIP3    H126406   3.960   1.106   1.531  0.2353 -1.4426  0.7483
 8814TIP3    H226407   3.937   1.114   1.681 -0.7302  3.1145  0.5140
 8815TIP3   OH226408   4.998   4.905   4.034  0.3148  0.3850 -0.1869
 8815TIP3    H126409   5.035   4.979   4.081 -1.0943  1.3389 -0.5296
 8815TIP3    H226410   4.943   4.860   4.098 -0.0060  0.5110 -0.3707
 8816TIP3   OH226411   3.193   2.241   2.545  0.1260  0.7121 -0.1688
 8816TIP3    H126412   3.163   2.331   2.561 -0.9176  0.0152  2.4808
 8816TIP3    H226413   3.115   2.195   2.514  0.5626  0.6033 -1.1452
 8817TIP3   OH226414   4.139   5.859   5.284 -0.3084 -0.7282  0.2638
 8817TIP3    H126415   4.093   5.918   5.344  0.4473  0.9716 -0.7698
 8817TIP3    H226416   4.119   5.892   5.197 -0.5109 -2.5129 -0.4080
 8818TIP3   OH226417   5.102   0.490   5.071 -0.4175 -0.2769  0.5391
 8818TIP3    H126418   5.190   0.526   5.078 -1.0191  0.9621  2.1283
 8818TIP3    H226419   5.115   0.395   5.065  1.0496 -0.0293 -0.4949
 8819TIP3   OH226420   3.738   5.823   3.183 -0.5511  0.0081 -0.3008
 8819TIP3    H126421   3.757   5.826   3.277  0.9637  2.3906 -0.6120
 8819TIP3    H226422   3.806   5.876   3.142 -1.7319 -0.1535 -2.6723
 8820TIP3   OH226423   1.868   5.681   3.083 -0.5947 -0.1704  1.2305
 8820TIP3    H126424   1.880   5.765   3.039  1.0222 -0.4173  1.1413
 8820TIP3    H226425   1.778   5.684   3.116 -0.9657  1.0911  0.1933
 8821TIP3   OH226426   0.298   3.732   2.362 -0.3261  0.4503 -0.1084
 8821TIP3    H126427   0.376   3.702   2.408 -2.0617 -0.8546  2.2085
 8821TIP3    H226428   0.310   3.827   2.353  1.9269  0.1488 -0.7711
 8822TIP3   OH226429   3.555   0.759   0.437 -0.1444  0.1565  0.5895
 8822TIP3    H126430   3.593   0.839   0.474 -1.2573  1.1953 -0.4601
 8822TIP3    H226431   3.468   0.784   0.408 -0.8706 -1.6687  1.0257
 8823TIP3   OH226432   1.002   0.126   4.892 -0.1396  0.1536  0.7587
 8823TIP3    H126433   0.950   0.090   4.820  1.9097 -1.9238  0.2038
 8823TIP3    H226434   1.039   0.049   4.935  1.6086  1.4977  1.7648
 8824TIP3   OH226435   2.347   0.332   5.118  0.1285 -0.2754  0.1931
 8824TIP3    H126436   2.423   0.282   5.149 -1.4104 -1.8836  1.6046
 8824TIP3    H226437   2.313   0.281   5.045  0.9288  0.9738 -1.0989
 8825TIP3   OH226438   2.160   4.561   3.917 -0.2930 -0.1634  0.0740
 8825TIP3    H126439   2.243   4.588   3.957 -0.0874  0.1084 -0.5200
 8825TIP3    H226440   2.164   4.596   3.828 -1.0787 -0.0872  0.0614
 8826TIP3   OH226441   3.353   6.430   0.213 -0.3463 -1.1354  0.4318
 8826TIP3    H126442   3.446   6.443   0.234 -0.1196 -1.0710 -0.5607
 8826TIP3    H226443   3.313   6.515   0.231  0.6521  0.3682 -3.4837
 8827TIP3   OH226444   0.844   0.229   1.791  0.1826 -0.2893 -0.1786
 8827TIP3    H126445   0.804   0.204   1.708 -0.6277 -1.0436  0.4215
 8827TIP3    H226446   0.836   0.151   1.846  2.1031 -0.3402  0.1198
 8828TIP3   OH226447   0.932   6.812   3.910  0.3041  0.6486 -0.4504
 8828TIP3    H126448   0.898   6.832   3.823 -0.1411 -0.5860 -0.5791
 8828TIP3    H226449   0.949   6.718   3.908 -0.6438  0.4095  1.1035
 8829TIP3   OH226450   4.002   5.821   5.687  0.0797 -0.2356  0.3515
 8829TIP3    H126451   3.947   5.762   5.634  2.4542 -1.2289 -1.1565
 8829TIP3    H226452   3.998   5.904   5.639 -1.7430  0.3612  1.4367
 8830TIP3   OH226453   6.723   1.286   2.782  0.4748  0.3881 -0.3139
 8830TIP3    H126454   6.804   1.269   2.830 -0.4540 -0.1880  1.1006
 8830TIP3    H226455   6.698   1.201   2.745  0.0563  0.3728 -0.0025
 8831TIP3   OH226456   4.455   5.641   5.465  0.4379  0.8666  0.7451
 8831TIP3    H126457   4.363   5.617   5.478  0.8865 -0.5264  1.5210
 8831TIP3    H226458   4.453   5.735   5.446 -1.0311  1.1747  2.2380
 8832TIP3   OH226459   0.468   5.493   4.722  0.3978  0.4102 -0.5991
 8832TIP3    H126460   0.496   5.456   4.637  0.0873  0.4004 -0.6973
 8832TIP3    H226461   0.500   5.429   4.786  0.0337  0.0674 -0.7557
 8833TIP3   OH226462   7.135   3.554   4.404  0.2393 -0.1747  0.0319
 8833TIP3    H126463   7.152   3.460   4.412  0.3246 -0.0454  1.7524
 8833TIP3    H226464   7.042   3.560   4.382  0.2642 -0.6630 -0.2206
 8834TIP3   OH226465   1.710   3.999   5.758 -0.6227  0.3341  0.3131
 8834TIP3    H126466   1.742   4.057   5.827  0.0013  0.6817 -0.2528
 8834TIP3    H226467   1.751   4.032   5.678 -0.0785 -1.0101  0.0096
 8835TIP3   OH226468   0.241   2.512   3.702 -0.4581  0.2423 -0.1916
 8835TIP3    H126469   0.205   2.472   3.781  0.6687 -2.3156 -0.8795
 8835TIP3    H226470   0.217   2.452   3.632  2.0129  0.3159 -1.1772
 8836TIP3   OH226471   2.807   4.215   1.578  0.2349  0.5443 -0.4493
 8836TIP3    H126472   2.864   4.138   1.573  0.5871  0.5516  2.0869
 8836TIP3    H226473   2.851   4.273   1.639 -0.2873  2.5881 -1.9237
 8837TIP3   OH226474   2.567   1.145   1.872 -0.4139  0.1880  0.0070
 8837TIP3    H126475   2.617   1.135   1.953 -1.0969 -0.3091  0.3737
 8837TIP3    H226476   2.633   1.143   1.803  0.0238 -1.1163  0.4362
 8838TIP3   OH226477   2.075   2.922   1.828  0.2722 -0.3592 -0.1753
 8838TIP3    H126478   2.164   2.900   1.856 -0.1786 -0.1917  1.5338
 8838TIP3    H226479   2.086   2.978   1.752  1.6612  0.1262  0.3564
 8839TIP3   OH226480   3.403   6.686   1.803 -0.1908  0.7600  0.6406
 8839TIP3    H126481   3.392   6.778   1.826 -3.1204  0.5031  0.6561
 8839TIP3    H226482   3.403   6.685   1.707 -0.8139  0.7375  0.6374
 8840TIP3   OH226483   0.109   2.405   5.205  0.3037 -0.4810  0.2068
 8840TIP3    H126484   0.154   2.445   5.279 -0.5327 -0.3667  0.6703
 8840TIP3    H226485   0.066   2.478   5.161  0.3842 -0.6171 -0.0973
 8841TIP3   OH226486   1.432   0.973   0.288  0.2314 -0.4945  0.2577
 8841TIP3    H126487   1.463   1.028   0.217  1.1598 -0.8833  0.3430
 8841TIP3    H226488   1.509   0.924   0.316 -0.3936 -1.2570  0.7060
 8842TIP3   OH226489   6.748   0.223   5.538 -0.6070 -0.2996 -0.0721
 8842TIP3    H126490   6.809   0.266   5.478 -0.3916 -0.0972  0.2906
 8842TIP3    H226491   6.732   0.288   5.606 -0.0128 -0.9107  0.6695
 8843TIP3   OH226492   2.165   2.093   3.052  0.2687  0.3804 -0.7159
 8843TIP3    H126493   2.138   2.035   2.981 -0.2352 -1.6101  0.9966
 8843TIP3    H226494   2.212   2.037   3.113  1.2173  2.1400  0.2600
 8844TIP3   OH226495   4.113   0.622  -0.013  0.0498  0.5000  0.0554
 8844TIP3    H126496   4.190   0.575   0.021  0.4656  1.9586  1.2589
 8844TIP3    H226497   4.039   0.582   0.033  0.0632 -0.8632 -1.0543
 8845TIP3   OH226498   4.211   5.156   1.474  0.0197 -0.1105 -0.3059
 8845TIP3    H126499   4.277   5.143   1.405  0.3571 -0.8561  0.1495
 8845TIP3    H226500   4.153   5.223   1.438  0.6483  0.0893 -0.9880
 8846TIP3   OH226501   3.851   0.721   3.899 -0.5636  0.5486 -0.4998
 8846TIP3    H126502   3.792   0.695   3.828 -2.8327 -0.2830  1.5751
 8846TIP3    H226503   3.809   0.690   3.979  2.1987  0.8771  1.2295
 8847TIP3   OH226504   2.998   2.333   3.659  0.1861  0.1834 -0.1988
 8847TIP3    H126505   2.943   2.256   3.676  0.9084 -0.2750  0.1437
 8847TIP3    H226506   2.958   2.403   3.711  2.2393 -1.1537  3.5719
 8848TIP3   OH226507   2.694   1.653   1.223  0.3763  0.4725  0.5695
 8848TIP3    H126508   2.722   1.624   1.310 -0.7474 -1.9734  0.2088
 8848TIP3    H226509   2.660   1.574   1.181  0.1344  1.7405 -1.8206
 8849TIP3   OH226510   2.636   4.342   3.106  0.1548  0.2934 -0.9222
 8849TIP3    H126511   2.681   4.258   3.093  0.8353  0.4684  0.1602
 8849TIP3    H226512   2.553   4.333   3.060 -1.0037 -1.9924  1.4290
 8850TIP3   OH226513   4.986   6.652   4.281 -0.4284 -0.2996  0.2468
 8850TIP3    H126514   4.925   6.725   4.275 -0.1739 -0.1177 -0.1611
 8850TIP3    H226515   4.965   6.597   4.205  1.7071  1.1642 -1.5270
 8851TIP3   OH226516   4.373   0.867   0.452  0.0660 -0.4307 -0.5106
 8851TIP3    H126517   4.448   0.847   0.509 -0.2979  1.5370  0.7783
 8851TIP3    H226518   4.413   0.897   0.370  0.7323  1.0186  0.3106
 8852TIP3   OH226519   4.420   1.773   1.160 -0.3664  0.2253  0.2563
 8852TIP3    H126520   4.495   1.822   1.195  0.0482 -0.9204  1.0425
 8852TIP3    H226521   4.361   1.763   1.235 -0.4921 -0.3760  0.0836
 8853TIP3   OH226522   2.467   5.973   4.794 -0.3874  0.0758 -0.2617
 8853TIP3    H126523   2.450   5.981   4.700 -1.0132  0.2351 -0.1392
 8853TIP3    H226524   2.467   5.879   4.810  1.6365 -0.0540 -0.7488
 8854TIP3   OH226525   1.379   6.610   0.170 -0.2919  0.3230  0.4619
 8854TIP3    H126526   1.437   6.593   0.096 -0.4542  1.4949  0.0559
 8854TIP3    H226527   1.293   6.625   0.131  0.0389  3.1887  0.6591
 8855TIP3   OH226528   0.346   5.326   3.305  0.8827  0.2308 -0.0992
 8855TIP3    H126529   0.429   5.310   3.349  1.2059  1.8630 -0.0512
 8855TIP3    H226530   0.328   5.245   3.257  1.8191 -0.6259  0.9539
 8856TIP3   OH226531   4.933   1.236   5.710 -0.7262  0.7722  0.3784
 8856TIP3    H126532   4.890   1.304   5.761  0.5832  1.2855  0.8453
 8856TIP3    H226533   5.024   1.265   5.702 -0.1421 -0.8752  0.5139
 8857TIP3   OH226534   6.097   0.197   1.797  0.2335 -0.3210 -0.6127
 8857TIP3    H126535   6.080   0.168   1.886  1.4472 -0.4826 -0.4093
 8857TIP3    H226536   6.110   0.292   1.805 -0.7196 -0.1704 -0.7942
 8858TIP3   OH226537   4.250   5.514   5.013  0.1722  0.3306  0.0278
 8858TIP3    H126538   4.201   5.592   4.985  0.3796  0.1241 -0.9554
 8858TIP3    H226539   4.328   5.514   4.959 -0.5178 -1.3403 -1.0591
 8859TIP3   OH226540   0.085   4.868   3.940  0.5548 -0.3406  0.7338
 8859TIP3    H126541   0.048   4.800   3.884  0.4554 -0.8783  1.4394
 8859TIP3    H226542   0.011   4.924   3.961  0.3141 -0.8925  1.3953
 8860TIP3   OH226543   6.225   0.376   2.994  0.2258  0.1584 -0.0695
 8860TIP3    H126544   6.141   0.387   2.949 -0.4284 -1.8930  0.5103
 8860TIP3    H226545   6.288   0.360   2.923 -0.4752 -1.3127 -0.4094
 8861TIP3   OH226546   0.728   1.157   0.009  0.0767  0.3729 -0.3145
 8861TIP3    H126547   0.786   1.130   0.081  0.6970 -0.4571 -1.1044
 8861TIP3    H226548   0.641   1.130   0.036  0.5898 -2.0387 -0.8282
 8862TIP3   OH226549   1.853   4.589   5.674 -0.0673 -0.0370  0.3615
 8862TIP3    H126550   1.892   4.633   5.599  1.7358 -1.8060  0.1734
 8862TIP3    H226551   1.775   4.546   5.639  0.8097 -0.9219 -0.5616
 8863TIP3   OH226552   0.126   4.811   5.019 -0.3917  0.1619  0.3567
 8863TIP3    H126553   0.181   4.740   5.053 -0.5489  0.5316  1.4137
 8863TIP3    H226554   0.042   4.799   5.063  0.2327  2.2931  2.3482
 8864TIP3   OH226555   5.371   3.166   4.957 -0.4548  0.1033 -0.1495
 8864TIP3    H126556   5.367   3.155   5.053  0.6120  1.2044  0.0307
 8864TIP3    H226557   5.385   3.077   4.924 -1.4162 -0.3782  0.6669
 8865TIP3   OH226558   1.915   5.093   0.152  0.1495  0.1835  0.0602
 8865TIP3    H126559   1.894   5.001   0.166  0.4458 -0.4965 -3.2335
 8865TIP3    H226560   1.933   5.127   0.240  0.5825 -3.0081  1.3345
 8866TIP3   OH226561   1.795   3.227   2.309  0.9777 -0.2354 -0.3820
 8866TIP3    H126562   1.738   3.158   2.343 -0.8545  1.6585  0.6207
 8866TIP3    H226563   1.766   3.239   2.219  2.7937 -2.1532 -1.3357
 8867TIP3   OH226564   4.503   5.488   3.746 -0.0051 -0.4420 -0.1795
 8867TIP3    H126565   4.522   5.458   3.657  0.1082  0.5688 -0.5024
 8867TIP3    H226566   4.427   5.437   3.773 -0.3053 -0.4431 -1.0125
 8868TIP3   OH226567   6.087   1.828   4.694 -0.1207 -0.2639  0.0622
 8868TIP3    H126568   6.027   1.889   4.651 -1.0261 -0.0716  1.5378
 8868TIP3    H226569   6.040   1.799   4.773  1.1653 -1.2026  0.5218
 8869TIP3   OH226570   5.712   5.721   2.723  0.3647  0.0403 -0.2253
 8869TIP3    H126571   5.775   5.772   2.672  0.7092 -1.0554 -0.9289
 8869TIP3    H226572   5.757   5.637   2.739 -0.1796 -0.0490  0.9152
 8870TIP3   OH226573   2.096   2.571   4.758 -0.0699 -0.5953  0.8758
 8870TIP3    H126574   2.164   2.539   4.816  1.3257  1.8423  0.7005
 8870TIP3    H226575   2.118   2.535   4.672  1.5277  0.8234  0.6542
 8871TIP3   OH226576   0.047   4.684   4.772 -0.5157  0.1268  0.4887
 8871TIP3    H126577   0.035   4.596   4.808  2.5201 -0.5476  0.1176
 8871TIP3    H226578   0.034   4.742   4.847 -0.9856 -0.7293  1.0919
 8872TIP3   OH226579   2.668   0.964   3.115  0.0606  0.1165 -0.6829
 8872TIP3    H126580   2.715   1.024   3.173  1.1258  0.8401 -2.2490
 8872TIP3    H226581   2.732   0.939   3.049 -1.4064  0.2020 -2.2076
 8873TIP3   OH226582   3.206   1.046   2.479  0.8710 -0.2510  0.7485
 8873TIP3    H126583   3.287   1.071   2.523  1.5956 -0.9335 -0.1673
 8873TIP3    H226584   3.229   0.969   2.428  0.6718  1.7868 -2.6950
 8874TIP3   OH226585   5.028   6.712   0.244  0.6627  0.6056  0.4026
 8874TIP3    H126586   5.007   6.801   0.271  0.3102  0.8550 -0.6250
 8874TIP3    H226587   4.943   6.670   0.233  0.8228  0.2073  0.6525
 8875TIP3   OH226588   1.570   1.092   3.372  0.5400  0.1610  0.1163
 8875TIP3    H126589   1.557   1.004   3.339  1.4870 -0.1631  0.5518
 8875TIP3    H226590   1.592   1.080   3.465 -0.3023  0.9205  0.4273
 8876TIP3   OH226591   0.994   1.682   1.637  0.0288  0.2361  0.2394
 8876TIP3    H126592   0.911   1.665   1.683 -0.9706  1.8795 -0.8680
 8876TIP3    H226593   1.048   1.606   1.658 -2.3985 -1.8581 -0.4625
 8877TIP3   OH226594   3.754   1.769   0.147  0.1369 -0.4608  0.2968
 8877TIP3    H126595   3.804   1.707   0.093  1.7639  1.7402 -0.9122
 8877TIP3    H226596   3.685   1.801   0.088  0.6243  0.4076  0.1848
 8878TIP3   OH226597   2.699   0.707   5.804 -0.0989 -0.1560  0.2221
 8878TIP3    H126598   2.651   0.762   5.742  0.3936  0.7109  0.6026
 8878TIP3    H226599   2.645   0.707   5.883 -0.1965 -0.3959  0.1585
 8879TIP3   OH226600   1.449   0.616   1.345  0.1911 -0.6301  0.7074
 8879TIP3    H126601   1.452   0.665   1.262 -2.6392  2.0791  2.0042
 8879TIP3    H226602   1.536   0.578   1.353  1.5023  1.3989 -2.1161
 8880TIP3   OH226603   6.912   2.376   5.866 -0.0389 -0.0865  0.2126
 8880TIP3    H126604   6.840   2.356   5.926 -0.2222 -0.8032 -0.2397
 8880TIP3    H226605   6.967   2.298   5.867  0.2583  0.1140 -0.1323
 8881TIP3   OH226606   2.634   2.990   0.341 -0.0288  0.2188 -0.0969
 8881TIP3    H126607   2.548   2.995   0.300 -0.1993  0.7668  0.3178
 8881TIP3    H226608   2.629   3.051   0.414  0.0557 -1.2243  1.1575
 8882TIP3   OH226609   1.828   5.584   0.089 -0.4114 -0.6114 -0.1989
 8882TIP3    H126610   1.838   5.635   0.009  1.9036  0.7188  0.8609
 8882TIP3    H226611   1.812   5.494   0.058  0.0829 -0.0801 -2.1377
 8883TIP3   OH226612   5.191   1.292   5.682  0.7603 -0.4993  0.3731
 8883TIP3    H126613   5.210   1.386   5.678 -2.1767  0.1692 -0.8532
 8883TIP3    H226614   5.226   1.257   5.600 -1.4964  0.3688 -1.0530
 8884TIP3   OH226615   6.463   5.964   4.039  0.2939 -0.1845  0.8142
 8884TIP3    H126616   6.537   6.015   4.007  0.8011  0.1654  2.4697
 8884TIP3    H226617   6.402   6.029   4.074 -0.9659 -0.4426 -0.7566
 8885TIP3   OH226618   4.171   4.917   1.218 -0.0254  0.2128 -0.1901
 8885TIP3    H126619   4.202   4.913   1.309  0.8282 -0.4915 -0.4931
 8885TIP3    H226620   4.076   4.923   1.225 -0.0325 -0.6384  0.7486
 8886TIP3   OH226621   0.193   0.225  -0.012  0.1603 -0.0366  0.2513
 8886TIP3    H126622   0.261   0.269   0.038  1.9067 -3.0223  0.7240
 8886TIP3    H226623   0.187   0.138   0.027 -3.7145 -0.0972 -0.0294
 8887TIP3   OH226624   5.491   0.019   4.104  0.0229 -0.3309  0.9246
 8887TIP3    H126625   5.521  -0.061   4.062 -0.0144  1.2769 -2.4606
 8887TIP3    H226626   5.411   0.043   4.056  0.6190  2.2793  1.0914
 8888TIP3   OH226627   5.935   2.312   1.916 -0.3921  0.4248 -0.0402
 8888TIP3    H126628   6.027   2.292   1.901 -0.6243 -0.5551 -0.2123
 8888TIP3    H226629   5.890   2.280   1.838 -0.9434  0.3848  0.2848
 8889TIP3   OH226630   1.330   5.263   0.383 -0.0365  0.4108  0.0716
 8889TIP3    H126631   1.414   5.304   0.362  0.6349 -0.5300  0.7839
 8889TIP3    H226632   1.353   5.173   0.406 -1.2899  0.0436 -0.0293
 8890TIP3   OH226633   4.325   6.200   2.309 -0.7509 -0.0036 -0.0412
 8890TIP3    H126634   4.318   6.295   2.320 -0.1035  0.1878 -1.1188
 8890TIP3    H226635   4.249   6.164   2.355 -1.6704  1.1161 -0.6551
 8891TIP3   OH226636   6.292   1.520   0.121  0.2881 -0.2342  0.4802
 8891TIP3    H126637   6.371   1.534   0.069 -0.8631  1.8197 -0.8285
 8891TIP3    H226638   6.238   1.461   0.067  1.2190 -2.4012  1.7827
 8892TIP3   OH226639   6.091   0.302   5.404  0.4187  0.3140 -0.0017
 8892TIP3    H126640   6.023   0.354   5.447  0.4769  0.8490 -0.5419
 8892TIP3    H226641   6.130   0.251   5.475 -1.3555 -0.9479  0.1450
 8893TIP3   OH226642   0.362   4.298   0.347 -0.4243  0.2860  0.0458
 8893TIP3    H126643   0.455   4.280   0.361 -0.4225  1.0301  1.1414
 8893TIP3    H226644   0.317   4.248   0.415 -0.9226 -0.7934 -1.0339
 8894TIP3   OH226645   5.181   3.200   3.336  0.2351  0.0928  0.6471
 8894TIP3    H126646   5.253   3.179   3.395  1.6265  0.6693 -0.7468
 8894TIP3    H226647   5.174   3.295   3.340  1.2483  0.2842 -1.0212
 8895TIP3   OH226648   6.177   5.111   3.835 -0.1648 -0.3216 -0.4618
 8895TIP3    H126649   6.229   5.118   3.755  0.4601  2.7765  0.0712
 8895TIP3    H226650   6.242   5.100   3.905 -0.3560  1.0246 -0.0399
 8896TIP3   OH226651   3.530   0.452   2.911 -0.4285  0.2611 -0.1726
 8896TIP3    H126652   3.493   0.540   2.903  0.1309  0.4514 -0.7964
 8896TIP3    H226653   3.568   0.450   2.999  0.1726  0.9018 -0.4054
 8897TIP3   OH226654   2.097   2.597   3.491 -0.2756  0.1881  0.0159
 8897TIP3    H126655   2.159   2.608   3.563  1.3642  1.2285 -1.4660
 8897TIP3    H226656   2.112   2.674   3.435 -1.7088 -0.4251 -1.2702
 8898TIP3   OH226657   3.918   0.699   1.762 -0.3042  0.3284 -0.4325
 8898TIP3    H126658   3.960   0.664   1.684 -1.7272 -0.0519 -1.0628
 8898TIP3    H226659   3.989   0.740   1.812  0.4955  1.4070 -2.3642
 8899TIP3   OH226660   2.138   5.633   2.843 -0.2801  0.3459  0.4471
 8899TIP3    H126661   2.134   5.645   2.748 -0.5381 -0.0841  0.3995
 8899TIP3    H226662   2.218   5.679   2.870  1.2874 -1.6878 -0.3495
 8900TIP3   OH226663   7.141   0.350   5.390 -0.1076 -0.7780 -0.4319
 8900TIP3    H126664   7.147   0.445   5.387 -0.7079 -0.7604 -1.7855
 8900TIP3    H226665   7.054   0.330   5.355 -1.0810 -1.7323  2.2603
 8901TIP3   OH226666   6.753   1.998   2.441  0.3827 -0.6843 -0.1563
 8901TIP3    H126667   6.689   2.027   2.376 -0.5543 -2.8419 -0.2824
 8901TIP3    H226668   6.836   1.992   2.393 -0.2256 -1.9131 -1.1124
 8902TIP3   OH226669   4.099   4.371   4.664  0.4415 -0.9358 -0.3573
 8902TIP3    H126670   4.018   4.339   4.703 -1.0442  1.0977 -1.5806
 8902TIP3    H226671   4.088   4.353   4.570 -0.2588  2.4474 -1.0394
 8903TIP3   OH226672   4.721   0.280   4.538  0.1221 -0.1037 -0.6231
 8903TIP3    H126673   4.684   0.324   4.461  2.1964 -0.2542 -1.7718
 8903TIP3    H226674   4.760   0.351   4.589 -0.9469 -0.0486  0.1483
 8904TIP3   OH226675   4.152   1.853   2.702 -0.7317 -0.1105 -0.2218
 8904TIP3    H126676   4.216   1.909   2.658  2.3253 -1.2376  2.4278
 8904TIP3    H226677   4.072   1.907   2.705  1.0856  2.8270 -0.6283
 8905TIP3   OH226678   7.194   6.238   4.775 -0.3663 -0.8942  0.2925
 8905TIP3    H126679   7.145   6.188   4.840 -0.5053 -1.0968  0.0367
 8905TIP3    H226680   7.181   6.189   4.693  0.2380 -0.9258  0.2164
 8906TIP3   OH226681   2.986   5.841   2.345  0.1292  0.9399 -0.1538
 8906TIP3    H126682   2.946   5.851   2.431 -2.2080 -3.6725 -0.4087
 8906TIP3    H226683   3.020   5.752   2.344  0.3847  0.8984 -3.8724
 8907TIP3   OH226684   1.433   6.055   5.124 -1.1551 -0.2065  0.0618
 8907TIP3    H126685   1.350   6.060   5.172  0.7099 -0.8189  3.7316
 8907TIP3    H226686   1.482   5.986   5.168  1.8760  1.0944 -0.9813
 8908TIP3   OH226687   3.737   1.416   5.526  0.3565  0.0700 -0.0711
 8908TIP3    H126688   3.659   1.415   5.471 -0.0974 -1.7102  0.5300
 8908TIP3    H226689   3.810   1.401   5.466 -0.0302 -0.8362 -0.3239
 8909TIP3   OH226690   5.239   4.271   4.295  0.0980 -0.6786 -0.6390
 8909TIP3    H126691   5.228   4.277   4.390 -3.0079  1.1012 -0.9720
 8909TIP3    H226692   5.304   4.339   4.275 -0.3519 -0.0031  0.1004
 8910TIP3   OH226693   4.775   4.597   3.671  0.0428  0.3061  0.1705
 8910TIP3    H126694   4.826   4.664   3.715 -0.0571  2.3429 -2.5650
 8910TIP3    H226695   4.824   4.578   3.591 -0.2557 -2.4905  0.5635
 8911TIP3   OH226696   5.621   6.187   1.944  0.3989  0.3868 -0.7394
 8911TIP3    H126697   5.592   6.252   1.880  1.3724  0.7844 -0.7934
 8911TIP3    H226698   5.554   6.119   1.941 -0.3860  1.1540 -1.0357
 8912TIP3   OH226699   6.606   5.762   2.604  0.3717  0.3958  0.4361
 8912TIP3    H126700   6.546   5.759   2.679  0.0818 -1.9894  0.1730
 8912TIP3    H226701   6.554   5.798   2.533  0.0407  0.7641  0.8603
 8913TIP3   OH226702   2.840   4.770   4.368 -0.4691  0.1140  0.5499
 8913TIP3    H126703   2.832   4.790   4.275  2.2310  1.1708  0.4634
 8913TIP3    H226704   2.896   4.838   4.403 -0.9047 -0.6128  2.8638
 8914TIP3   OH226705   1.477   4.727   0.841  0.1152  0.4722 -0.0259
 8914TIP3    H126706   1.381   4.726   0.838  0.1211 -0.3122 -0.3576
 8914TIP3    H226707   1.499   4.692   0.928  0.0909 -1.3728 -0.7033
 8915TIP3   OH226708   5.430   1.021   1.348 -0.2010  0.3670  0.0600
 8915TIP3    H126709   5.365   1.032   1.417  1.1687  2.6895  1.1334
 8915TIP3    H226710   5.431   0.928   1.329 -0.9306 -0.3069  2.9233
 8916TIP3   OH226711   1.534   2.942   4.548 -0.2856 -0.0116  0.6336
 8916TIP3    H126712   1.463   2.986   4.595 -1.6503 -1.1143 -0.2957
 8916TIP3    H226713   1.533   2.853   4.583 -0.9316 -0.6804 -1.0102
 8917TIP3   OH226714   2.262   6.145   1.682 -0.3317 -0.0006  0.2200
 8917TIP3    H126715   2.235   6.228   1.720  0.4230  0.6507 -0.6187
 8917TIP3    H226716   2.183   6.110   1.641 -0.6094  0.4021  0.4116
 8918TIP3   OH226717   1.017   4.507   4.999  0.1823 -0.1404 -0.1504
 8918TIP3    H126718   0.968   4.568   4.945  0.1052  0.7700  0.9135
 8918TIP3    H226719   0.950   4.464   5.053  0.5042  1.1635  1.3652
 8919TIP3   OH226720   5.771   6.416   5.051  0.1185  0.3554  0.1213
 8919TIP3    H126721   5.720   6.421   4.970  0.3909  0.5461 -0.0414
 8919TIP3    H226722   5.717   6.364   5.111  0.3144 -0.5877 -0.4889
 8920TIP3   OH226723   1.884   5.796   0.252 -0.4649 -0.1728 -0.2387
 8920TIP3    H126724   1.973   5.764   0.241 -0.9689 -1.3417 -1.2168
 8920TIP3    H226725   1.830   5.732   0.205 -1.6406  1.4956 -1.2723
 8921TIP3   OH226726   3.557   1.277   4.503 -0.1251 -0.3032  0.4446
 8921TIP3    H126727   3.500   1.202   4.484 -0.0440  0.0187 -1.2060
 8921TIP3    H226728   3.644   1.239   4.517  0.3869 -0.4242 -2.5427
 8922TIP3   OH226729   0.330   1.431   3.185 -0.2973  0.3413 -0.5304
 8922TIP3    H126730   0.285   1.507   3.149  0.2888  0.6738 -0.5626
 8922TIP3    H226731   0.364   1.461   3.269 -0.8677 -0.1635 -0.1053
 8923TIP3   OH226732   3.166   4.427   4.806  0.1939  0.6751  0.1172
 8923TIP3    H126733   3.258   4.453   4.808  0.3214  0.2996 -0.6914
 8923TIP3    H226734   3.142   4.433   4.714  0.1388 -1.7605 -0.0758
 8924TIP3   OH226735   4.065   0.285   5.038 -0.2490 -0.0875  0.1262
 8924TIP3    H126736   4.004   0.228   4.992  1.7813 -1.9371 -0.4605
 8924TIP3    H226737   4.074   0.245   5.125 -0.2007  0.4263  0.3637
 8925TIP3   OH226738   6.849   0.195   1.080  0.2458 -0.0359  0.2101
 8925TIP3    H126739   6.797   0.260   1.032 -0.8355 -0.8766  0.2078
 8925TIP3    H226740   6.815   0.198   1.169 -0.1655 -0.9454  0.0945
 8926TIP3   OH226741   1.450   0.168   0.732  0.2698  0.5414  0.4740
 8926TIP3    H126742   1.521   0.112   0.764  1.0209  1.7074  0.8965
 8926TIP3    H226743   1.473   0.184   0.641 -0.0433  0.0351  0.2995
 8927TIP3   OH226744   3.339   6.386   4.516  0.5614 -0.4661 -0.3531
 8927TIP3    H126745   3.390   6.370   4.437 -0.2576  1.0052 -1.2170
 8927TIP3    H226746   3.362   6.476   4.542 -1.1624  0.0424 -0.4758
 8928TIP3   OH226747   6.828   4.919   1.343 -0.2097 -0.0591 -0.3101
 8928TIP3    H126748   6.855   4.840   1.295 -0.2613  0.1992 -0.7717
 8928TIP3    H226749   6.739   4.936   1.311  0.2075  0.8153 -1.0420
 8929TIP3   OH226750   5.282   5.651   5.025 -0.0583  0.1980  0.3214
 8929TIP3    H126751   5.359   5.704   5.044 -1.1252  1.4947  1.2599
 8929TIP3    H226752   5.290   5.574   5.081  0.2975  0.5659  0.7723
 8930TIP3   OH226753   0.334   2.176   3.267 -0.4010  0.0247  0.0005
 8930TIP3    H126754   0.343   2.270   3.281  1.0345 -0.1769  0.5724
 8930TIP3    H226755   0.320   2.140   3.354  0.4811 -0.4240 -0.0304
 8931TIP3   OH226756   6.514   6.265   1.956  0.3779 -0.6561  0.2843
 8931TIP3    H126757   6.482   6.355   1.968  1.2383 -0.3863  0.5942
 8931TIP3    H226758   6.574   6.271   1.882  1.2358 -0.7701  0.9580
 8932TIP3   OH226759   0.378   0.338   0.161  0.3732  0.4444 -0.3810
 8932TIP3    H126760   0.457   0.284   0.166  0.0774  0.0322 -0.1634
 8932TIP3    H226761   0.351   0.351   0.252 -0.8753 -0.9990 -0.5075
 8933TIP3   OH226762   1.071   1.198   5.105 -0.4377  0.5866 -0.2024
 8933TIP3    H126763   1.149   1.156   5.069  0.3985  0.6942  1.3590
 8933TIP3    H226764   1.019   1.127   5.142 -1.1101  0.5142 -1.2468
 8934TIP3   OH226765   4.333   2.370   2.738 -0.2810  0.2402 -0.1980
 8934TIP3    H126766   4.258   2.315   2.714 -0.0865 -0.7335  1.2238
 8934TIP3    H226767   4.327   2.446   2.681 -1.1028 -0.8341 -1.6054
 8935TIP3   OH226768   1.499   4.670   5.321  0.2412 -0.4504 -0.3008
 8935TIP3    H126769   1.457   4.604   5.376 -0.0077 -0.6934 -0.7759
 8935TIP3    H226770   1.546   4.726   5.383 -0.4347 -0.4209  0.1990
 8936TIP3   OH226771   2.711   6.521   2.160 -0.1545 -0.2121  0.1533
 8936TIP3    H126772   2.735   6.513   2.067  0.8100  0.2870  0.3495
 8936TIP3    H226773   2.748   6.443   2.201 -0.6903 -0.4965  0.1079
 8937TIP3   OH226774   1.807   2.486   0.580 -0.5692 -0.0182 -0.0802
 8937TIP3    H126775   1.839   2.527   0.660  1.4774  0.3394 -1.0202
 8937TIP3    H226776   1.852   2.533   0.509 -0.6333 -1.7511 -1.3338
 8938TIP3   OH226777   3.211   1.028   1.523 -0.0131 -0.1586  0.2500
 8938TIP3    H126778   3.207   1.074   1.440 -1.3674 -1.5865 -0.5412
 8938TIP3    H226779   3.123   0.992   1.535  0.0900  0.1639  2.4063
 8939TIP3   OH226780   2.916   1.566   4.214 -0.1005 -0.2151  0.6529
 8939TIP3    H126781   2.878   1.653   4.226 -0.9053 -0.2510 -1.3659
 8939TIP3    H226782   2.949   1.542   4.301 -0.5320  1.7758  1.4072
 8940TIP3   OH226783   6.296   5.328   0.897 -0.1156 -0.8158 -0.2122
 8940TIP3    H126784   6.269   5.333   0.805  0.0333 -0.4725 -0.2381
 8940TIP3    H226785   6.300   5.419   0.926  0.6517 -0.8737 -0.1071
 8941TIP3   OH226786   5.550   2.715   2.190  0.4028  0.8195 -0.2454
 8941TIP3    H126787   5.530   2.763   2.271 -0.7864  0.5773 -0.3747
 8941TIP3    H226788   5.557   2.624   2.217  2.2249  0.9709 -0.0741
 8942TIP3   OH226789   1.839   0.194   1.695 -0.4057 -0.3288 -0.0353
 8942TIP3    H126790   1.879   0.109   1.676 -1.0064 -0.7921  0.6591
 8942TIP3    H226791   1.878   0.254   1.632  1.3896 -0.7322  0.6264
 8943TIP3   OH226792   4.403   2.580   1.745  0.1898  0.2908  0.1213
 8943TIP3    H126793   4.455   2.592   1.825 -0.4310  1.3583  0.3809
 8943TIP3    H226794   4.340   2.511   1.768  0.5851 -0.0285  0.2596
 8944TIP3   OH226795   5.985   2.715   3.306 -0.1523  0.4124  0.0261
 8944TIP3    H126796   5.902   2.697   3.348  0.5547 -1.3362  0.7628
 8944TIP3    H226797   5.975   2.684   3.216 -0.5341  0.9459 -0.1207
 8945TIP3   OH226798   3.328   6.210   2.363 -0.1725 -0.2685 -0.2555
 8945TIP3    H126799   3.287   6.207   2.450 -0.4477  0.6312 -0.3462
 8945TIP3    H226800   3.269   6.263   2.310 -0.5134 -1.6406 -1.2944
 8946TIP3   OH226801   7.121   3.841   3.940 -0.0232 -0.0504 -0.8400
 8946TIP3    H126802   7.116   3.888   3.857  2.0134  1.8560  0.0291
 8946TIP3    H226803   7.166   3.901   3.999  1.4702 -2.5486  0.7538
 8947TIP3   OH226804   6.660   3.388   1.405  0.2156  0.1975  0.6464
 8947TIP3    H126805   6.638   3.396   1.313  0.5975 -1.5858  0.3736
 8947TIP3    H226806   6.575   3.384   1.450 -0.2728 -4.6597 -0.2175
 8948TIP3   OH226807   4.407   4.747   2.683 -0.8525 -0.4292 -0.1862
 8948TIP3    H126808   4.359   4.664   2.675  1.7138 -2.1991  1.1583
 8948TIP3    H226809   4.420   4.758   2.777  0.0625  0.7440 -0.4296
 8949TIP3   OH226810   6.276   5.504   2.627 -0.4076 -0.3020  0.0199
 8949TIP3    H126811   6.233   5.515   2.542 -0.1076 -2.0602 -0.4053
 8949TIP3    H226812   6.205   5.509   2.691 -1.2970 -2.7135 -0.6356
 8950TIP3   OH226813   1.428   4.127   4.277 -0.0406  0.3685 -0.0363
 8950TIP3    H126814   1.340   4.142   4.311 -0.4514  0.2904 -1.0360
 8950TIP3    H226815   1.450   4.207   4.229 -0.5869 -0.5296 -1.8906
 8951TIP3   OH226816   5.216   2.928   1.558  0.1717  0.1957 -0.2211
 8951TIP3    H126817   5.238   2.850   1.608  1.7377  1.0590  0.5172
 8951TIP3    H226818   5.156   2.977   1.614  0.5984  0.3576  0.1007
 8952TIP3   OH226819   2.847   6.277   2.300 -0.2373 -0.2578 -0.7087
 8952TIP3    H126820   2.874   6.206   2.241 -0.0551 -0.9361  0.1780
 8952TIP3    H226821   2.782   6.237   2.357 -1.5409  0.7846 -1.3865
 8953TIP3   OH226822   2.763   3.794   2.464  0.1734  0.5515 -0.1249
 8953TIP3    H126823   2.702   3.844   2.519 -1.8204 -2.2416  0.4000
 8953TIP3    H226824   2.761   3.839   2.380  0.0020  2.4599  0.8329
 8954TIP3   OH226825   7.000   5.406   4.649  0.1452 -0.0056  0.2079
 8954TIP3    H126826   6.949   5.330   4.678 -0.4706  0.8232  1.4555
 8954TIP3    H226827   7.002   5.399   4.554 -0.7887 -1.0267  0.2358
 8955TIP3   OH226828   2.750   4.504   2.514 -0.0147  0.1395  0.2325
 8955TIP3    H126829   2.796   4.421   2.526  0.1469  0.3600  1.1962
 8955TIP3    H226830   2.808   4.556   2.458 -0.2146 -0.4637 -0.5497
 8956TIP3   OH226831   4.470   2.958   2.608 -0.2849  0.0586 -0.1534
 8956TIP3    H126832   4.435   2.912   2.684 -1.2537 -0.4008 -0.8596
 8956TIP3    H226833   4.544   2.903   2.579  1.0174  0.9711  1.2686
 8957TIP3   OH226834   0.055   3.629   1.317  0.2072 -0.3460  0.0299
 8957TIP3    H126835   0.090   3.544   1.344  0.5384  0.5385  2.7531
 8957TIP3    H226836   0.104   3.692   1.370 -2.0606  1.2954  0.3178
 8958TIP3   OH226837   0.813   2.680   2.390 -0.0808  0.1800 -0.1619
 8958TIP3    H126838   0.756   2.742   2.436 -1.6245 -1.2186 -0.1274
 8958TIP3    H226839   0.871   2.646   2.457 -1.0736 -0.4413  0.4062
 8959TIP3   OH226840   0.941   3.301   5.797  0.4800 -0.4722  0.5990
 8959TIP3    H126841   0.910   3.331   5.712  0.5771 -0.6716  0.4922
 8959TIP3    H226842   0.891   3.221   5.813  0.4377 -0.4172  0.7446
 8960TIP3   OH226843   0.751   5.168   3.925 -0.1077 -0.2279  0.1546
 8960TIP3    H126844   0.826   5.215   3.890  0.2815 -0.3460  0.8222
 8960TIP3    H226845   0.784   5.079   3.941  0.6873  0.5881  3.8338
 8961TIP3   OH226846   0.355   3.591   1.518  0.2257  0.8445 -0.1236
 8961TIP3    H126847   0.377   3.543   1.598  2.0696  0.1606 -0.9845
 8961TIP3    H226848   0.344   3.682   1.548  0.7924  0.5919  0.9329
 8962TIP3   OH226849   3.705   3.723   5.225 -0.3889  0.3442 -0.0805
 8962TIP3    H126850   3.761   3.653   5.258  0.5732  0.8717 -0.5672
 8962TIP3    H226851   3.649   3.679   5.160  0.6603  0.1381 -0.8714
 8963TIP3   OH226852   3.512   6.271   2.746 -0.0891 -0.3609 -0.1471
 8963TIP3    H126853   3.480   6.295   2.833 -1.0489  0.7291 -0.7711
 8963TIP3    H226854   3.444   6.215   2.710  0.0624 -0.3818 -0.4025
 8964TIP3   OH226855   6.680   3.730   2.372 -0.2684 -0.0437  0.1035
 8964TIP3    H126856   6.749   3.783   2.412 -0.1453 -0.2761  0.2006
 8964TIP3    H226857   6.720   3.695   2.292 -0.0684 -0.6850  0.4809
 8965TIP3   OH226858   4.685   0.650   4.480  0.0346 -0.0304  0.6109
 8965TIP3    H126859   4.654   0.642   4.390 -0.8281 -0.5870  0.9452
 8965TIP3    H226860   4.605   0.643   4.533  0.4631  0.8225  1.3965
 8966TIP3   OH226861   0.844   1.793   0.249  0.4315  0.1700 -0.6074
 8966TIP3    H126862   0.798   1.774   0.331  0.2483  0.2716 -0.6842
 8966TIP3    H226863   0.931   1.821   0.276  0.5375 -0.2924 -0.4740
 8967TIP3   OH226864   5.928   1.460   5.294  0.5984 -0.3428 -0.0451
 8967TIP3    H126865   5.994   1.403   5.255 -1.0015 -2.3601  0.0296
 8967TIP3    H226866   5.965   1.483   5.380  2.1532  0.4553 -0.8811
 8968TIP3   OH226867   3.201   0.737   1.232 -0.3219 -0.1349 -0.1217
 8968TIP3    H126868   3.280   0.775   1.271  0.0073 -0.3038 -0.6176
 8968TIP3    H226869   3.189   0.785   1.150 -1.0322  0.2417  0.1879
 8969TIP3   OH226870   7.055   1.206   4.276  0.1886  0.2799 -0.5584
 8969TIP3    H126871   7.030   1.288   4.319 -0.3871 -0.0656 -0.2167
 8969TIP3    H226872   7.087   1.233   4.190  1.7017  1.0124  0.2083
 8970TIP3   OH226873   7.166   3.839   4.380  0.0329  0.2905 -0.0123
 8970TIP3    H126874   7.143   3.747   4.366 -0.5716  0.3495  0.5301
 8970TIP3    H226875   7.081   3.883   4.389  0.3256  0.8518  0.0075
 8971TIP3   OH226876   1.399   0.272   1.613  0.5571  0.3105 -0.3086
 8971TIP3    H126877   1.344   0.349   1.626  1.4534  0.9742 -0.3683
 8971TIP3    H226878   1.428   0.278   1.522 -0.7263 -1.0227 -0.8462
 8972TIP3   OH226879   6.173   2.477   5.462 -0.2047 -0.2657  0.3887
 8972TIP3    H126880   6.190   2.449   5.552  1.4799 -0.8758 -0.0800
 8972TIP3    H226881   6.112   2.412   5.428  0.5430 -1.0847  0.5695
 8973TIP3   OH226882   5.535   4.132   0.906 -0.4322  0.1581  0.3150
 8973TIP3    H126883   5.544   4.190   0.982 -0.1891 -0.4004  0.7216
 8973TIP3    H226884   5.498   4.188   0.837 -1.7934  0.3813  1.1999
 8974TIP3   OH226885   6.816   1.209   0.049  0.2269 -0.0014 -0.0911
 8974TIP3    H126886   6.900   1.226   0.007  0.1024 -1.6596 -1.1076
 8974TIP3    H226887   6.751   1.226  -0.019 -0.5106  3.4523  1.3133
 8975TIP3   OH226888   5.117   0.533   1.897 -0.0039  0.4010 -0.4859
 8975TIP3    H126889   5.146   0.594   1.965 -1.1933  0.5345 -0.0591
 8975TIP3    H226890   5.177   0.547   1.824  2.5195 -1.0831  1.1633
 8976TIP3   OH226891   2.249   3.318   4.503  0.2548  0.0706  0.1936
 8976TIP3    H126892   2.337   3.332   4.469 -0.0365  1.5890 -0.0235
 8976TIP3    H226893   2.191   3.331   4.428 -0.1369 -2.0532  0.0628
 8977TIP3   OH226894   2.030   1.423   3.342  0.0379  0.3639  0.3974
 8977TIP3    H126895   2.069   1.387   3.422 -1.2900 -0.3839  0.7256
 8977TIP3    H226896   1.988   1.504   3.370 -0.4942  0.0619  0.4721
 8978TIP3   OH226897   3.809   5.643   4.854 -0.0954 -0.2549  0.0577
 8978TIP3    H126898   3.747   5.662   4.924  0.5715  1.8241  0.1387
 8978TIP3    H226899   3.783   5.556   4.822 -1.2547 -0.6496  1.9443
 8979TIP3   OH226900   5.581   4.962   1.618  0.0600 -0.0902  0.1039
 8979TIP3    H126901   5.579   5.040   1.673 -1.0572  0.4328 -0.6285
 8979TIP3    H226902   5.555   4.891   1.676 -0.3915  0.3361  0.4384
 8980TIP3   OH226903   3.714   3.928   5.731 -0.5334 -0.1119 -0.0089
 8980TIP3    H126904   3.764   3.985   5.789 -0.8179  1.2017 -1.0242
 8980TIP3    H226905   3.635   3.907   5.781  0.6115 -1.5810  1.2951
 8981TIP3   OH226906   6.528   3.650   1.776  0.3881 -0.5802  0.2444
 8981TIP3    H126907   6.461   3.663   1.709  0.5499 -1.4959 -0.1065
 8981TIP3    H226908   6.602   3.705   1.747 -0.0128  0.0407  0.3715
 8982TIP3   OH226909   1.752   2.583   4.038  0.2259 -0.2319 -0.1992
 8982TIP3    H126910   1.839   2.545   4.054 -0.2869 -2.0551 -1.5162
 8982TIP3    H226911   1.693   2.529   4.090 -0.1271  1.2455  1.0001
 8983TIP3   OH226912   4.168   4.109   4.022  0.0936 -0.9458 -0.2256
 8983TIP3    H126913   4.232   4.128   3.954  0.0175  0.6866  0.0987
 8983TIP3    H226914   4.171   4.187   4.079 -1.8001 -1.0532  0.0784
 8984TIP3   OH226915   3.776   4.218   0.698  0.5746 -0.1072 -0.0708
 8984TIP3    H126916   3.780   4.243   0.790  1.9234 -0.1330 -0.1054
 8984TIP3    H226917   3.841   4.149   0.689 -0.6956 -1.2655 -0.7111
 8985TIP3   OH226918   5.041   2.912   0.958  0.3054 -0.0113  0.4918
 8985TIP3    H126919   4.957   2.870   0.943 -1.0962  2.8196 -0.4119
 8985TIP3    H226920   5.062   2.893   1.050  0.3215 -3.2956 -0.0692
 8986TIP3   OH226921   6.309   1.351   4.473 -0.0216  0.7631 -0.4133
 8986TIP3    H126922   6.322   1.368   4.380  1.2696  0.4284 -0.3039
 8986TIP3    H226923   6.358   1.420   4.518  1.9403 -0.8130  0.0017
 8987TIP3   OH226924   0.041   0.059   2.333 -0.0288 -0.1017  0.4955
 8987TIP3    H126925  -0.043   0.040   2.293 -0.2454 -0.4601  1.1112
 8987TIP3    H226926   0.058  -0.016   2.391  0.1721  0.5101  1.2381
 8988TIP3   OH226927   3.954   2.954   5.072  0.0947  0.5012  0.4162
 8988TIP3    H126928   3.979   2.865   5.047 -0.0188  0.7732 -0.7063
 8988TIP3    H226929   3.901   2.942   5.152  2.4948 -0.1802  2.0142
 8989TIP3   OH226930   0.808   0.930   2.860 -0.3777  0.4676 -0.1058
 8989TIP3    H126931   0.722   0.953   2.824 -0.3504  0.1091 -0.4083
 8989TIP3    H226932   0.795   0.928   2.955 -0.3783  1.7409 -0.0538
 8990TIP3   OH226933   3.486   5.284   4.983  0.3087 -0.3716  0.3493
 8990TIP3    H126934   3.524   5.309   4.898 -0.8862 -0.3324 -0.1868
 8990TIP3    H226935   3.562   5.276   5.041  0.9206  3.6657  0.3750
 8991TIP3   OH226936   4.982   0.040   4.359 -0.4831  0.2326  0.1900
 8991TIP3    H126937   4.951   0.019   4.447  0.6418 -0.0415  0.5316
 8991TIP3    H226938   5.067  -0.003   4.352  0.3282  1.8253 -0.3230
 8992TIP3   OH226939   5.752   5.448   2.731  0.2559  0.0323 -0.2246
 8992TIP3    H126940   5.800   5.367   2.750 -1.7115 -1.1689 -0.1347
 8992TIP3    H226941   5.694   5.425   2.658 -1.7756  0.7493  1.0899
 8993TIP3   OH226942   2.401   4.720   1.650 -0.5908 -0.5885 -0.0916
 8993TIP3    H126943   2.483   4.766   1.633 -0.8807  0.0789  0.3075
 8993TIP3    H226944   2.418   4.671   1.730 -1.2611  1.2688  1.2487
 8994TIP3   OH226945   0.684   0.529   0.720 -0.3307 -0.1554  0.5418
 8994TIP3    H126946   0.706   0.450   0.669 -0.2139  0.4776 -0.4182
 8994TIP3    H226947   0.765   0.581   0.719 -1.2417  1.3759 -1.4889
 8995TIP3   OH226948   6.764   1.614   1.345  0.2731 -0.2717  0.4848
 8995TIP3    H126949   6.692   1.591   1.404  0.0268  0.6435  0.5492
 8995TIP3    H226950   6.777   1.536   1.291 -0.4030 -0.6304  0.8354
 8996TIP3   OH226951   5.862   0.581   1.330 -0.5141 -0.0924 -0.2972
 8996TIP3    H126952   5.900   0.577   1.242 -1.1022 -2.8145 -0.5153
 8996TIP3    H226953   5.937   0.581   1.389 -0.1195  1.4646 -0.7424
 8997TIP3   OH226954   6.167   4.563   0.947  0.3628 -0.0518 -0.2581
 8997TIP3    H126955   6.093   4.522   0.902  0.7818 -0.6739 -0.3987
 8997TIP3    H226956   6.190   4.638   0.892  0.1030 -0.1059 -0.4420
 8998TIP3   OH226957   0.395   3.226   5.419 -0.5067 -0.8045  0.5555
 8998TIP3    H126958   0.473   3.262   5.378 -0.5550 -0.8583  0.4172
 8998TIP3    H226959   0.418   3.218   5.512  0.3808 -2.7679  0.2088
 8999TIP3   OH226960   6.083   2.081   0.898 -0.0665  0.1239  0.1743
 8999TIP3    H126961   6.064   2.035   0.816 -0.7428  1.8918 -0.7082
 8999TIP3    H226962   6.059   2.172   0.881 -0.0995  0.5688  2.3057
 9000TIP3   OH226963   0.283   4.902   5.458  0.3759 -0.4907  0.3662
 9000TIP3    H126964   0.354   4.965   5.448 -0.1301  0.0173 -0.0418
 9000TIP3    H226965   0.300   4.836   5.391  0.2790 -0.2003  0.0587
 9001TIP3   OH226966   5.444   6.285   2.706  0.1351 -0.2438 -0.1836
 9001TIP3    H126967   5.369   6.344   2.712 -0.3189 -0.8975  0.8372
 9001TIP3    H226968   5.440   6.250   2.617 -1.1008 -0.6722  0.0177
 9002TIP3   OH226969   1.357   6.412   2.050  0.2340  0.3779  0.0621
 9002TIP3    H126970   1.438   6.452   2.082  1.3963  0.6077 -2.8662
 9002TIP3    H226971   1.383   6.368   1.969 -2.1722 -1.4307  0.1874
 9003TIP3   OH226972   3.253   1.625   5.553 -0.2175 -0.3537  0.8010
 9003TIP3    H126973   3.333   1.677   5.554  0.0406 -0.4829 -2.4867
 9003TIP3    H226974   3.279   1.541   5.590  1.4381 -0.6495 -0.8809
 9004TIP3   OH226975   2.301   0.662   1.633 -0.1594  0.0296  0.0754
 9004TIP3    H126976   2.325   0.746   1.670  0.0933 -1.0324  2.4894
 9004TIP3    H226977   2.266   0.612   1.707  1.0186 -2.4837 -0.9592
 9005TIP3   OH226978   2.746   5.406   0.445 -0.1597  0.7492  0.2131
 9005TIP3    H126979   2.690   5.481   0.464  0.3978  1.1707  0.2130
 9005TIP3    H226980   2.785   5.426   0.360 -1.7702 -0.6050 -0.9068
 9006TIP3   OH226981   3.891   2.269   0.913  0.2435  0.0172  0.3562
 9006TIP3    H126982   3.984   2.267   0.937 -0.2166  0.9278  2.4504
 9006TIP3    H226983   3.846   2.236   0.991 -1.3013  1.6034  0.1757
 9007TIP3   OH226984   4.099   2.748   5.620  0.1135  0.1535  0.5444
 9007TIP3    H126985   4.071   2.835   5.647 -1.3313  0.3466 -1.4026
 9007TIP3    H226986   4.188   2.740   5.654 -0.2800  1.7605  2.0727
 9008TIP3   OH226987   4.949   5.118   4.471  0.0757  0.1524  0.1111
 9008TIP3    H126988   4.998   5.097   4.551  1.7124 -1.3036 -1.2010
 9008TIP3    H226989   4.865   5.073   4.483 -0.6487  1.8449  1.9568
 9009TIP3   OH226990   1.764   6.056   3.933  0.0078 -0.3599  0.3630
 9009TIP3    H126991   1.669   6.063   3.927 -0.1078 -1.1641  1.0572
 9009TIP3    H226992   1.796   6.142   3.907 -0.8753 -0.2755 -0.5180
 9010TIP3   OH226993   3.237   1.199   1.749 -0.1111  0.0328  0.2294
 9010TIP3    H126994   3.247   1.131   1.682  0.4980  0.0867  0.2582
 9010TIP3    H226995   3.308   1.182   1.811  0.2116  0.8452  0.0966
 9011TIP3   OH226996   5.626   4.543   1.278  0.3473  0.1298 -0.2368
 9011TIP3    H126997   5.593   4.551   1.367 -1.3347  0.7977 -0.8685
 9011TIP3    H226998   5.699   4.605   1.274  1.9154 -1.5247  1.2617
 9012TIP3   OH226999   3.866   2.042   0.237 -0.3072 -0.0346 -0.5024
 9012TIP3    H127000   3.791   2.051   0.178  0.2058  0.9933 -1.0255
 9012TIP3    H227001   3.884   1.949   0.238 -1.4852 -0.2799 -0.5039
 9013TIP3   OH227002   5.916   6.594   2.671  0.1874 -0.5560 -0.1779
 9013TIP3    H127003   5.970   6.520   2.645  2.2332  0.1692  1.7514
 9013TIP3    H227004   5.955   6.626   2.752 -2.0947  1.1503  0.3646
 9014TIP3   OH227005   3.268   4.144   1.377 -0.3742 -0.3776  0.4276
 9014TIP3    H127006   3.312   4.169   1.296  0.3331 -0.6040  0.7285
 9014TIP3    H227007   3.323   4.073   1.413 -2.1016 -2.1194 -0.2144
 9015TIP3   OH227008   5.179   3.808   0.871 -0.7597 -0.3605 -0.0979
 9015TIP3    H127009   5.201   3.877   0.808 -1.8204 -1.2564 -1.5197
 9015TIP3    H227010   5.264   3.778   0.904 -0.0738 -0.6020 -1.9560
 9016TIP3   OH227011   1.100   6.477   0.655 -0.2662  0.0874 -0.0344
 9016TIP3    H127012   1.062   6.396   0.689 -0.2075  0.2213  0.3565
 9016TIP3    H227013   1.075   6.478   0.562  1.3634 -1.3469 -0.5421
 9017TIP3   OH227014   4.561   5.693   1.913 -0.2030 -0.0275 -0.3070
 9017TIP3    H127015   4.533   5.607   1.942 -0.1466  0.2495  0.6017
 9017TIP3    H227016   4.480   5.743   1.902 -0.2296 -0.1600 -0.7389
 9018TIP3   OH227017   1.286   3.667   4.427 -0.1651  0.0083  0.0080
 9018TIP3    H127018   1.362   3.722   4.446 -2.0477  3.1012 -0.7389
 9018TIP3    H227019   1.303   3.631   4.340 -0.1427  1.8921 -0.8078
 9019TIP3   OH227020   6.442   4.987   3.573  0.6760 -0.1924  0.1393
 9019TIP3    H127021   6.388   5.065   3.586  0.3012 -0.6804  1.7373
 9019TIP3    H227022   6.503   4.988   3.647 -0.0106 -1.9506  0.7696
 9020TIP3   OH227023   3.662   1.651   2.012  0.6687  0.0079 -0.2956
 9020TIP3    H127024   3.735   1.632   1.953  0.8018 -0.4821  0.0228
 9020TIP3    H227025   3.659   1.576   2.072  0.1728  0.2261 -0.0399
 9021TIP3   OH227026   2.299   2.330   1.621 -0.2886 -0.4458 -0.2812
 9021TIP3    H127027   2.236   2.328   1.549  0.4184 -0.0440 -0.9238
 9021TIP3    H227028   2.373   2.278   1.589  0.1296 -0.0714  0.0680
 9022TIP3   OH227029   2.945   4.209   2.968 -0.4178 -0.7249 -0.1226
 9022TIP3    H127030   3.016   4.175   3.022  0.3598 -0.6485 -1.0575
 9022TIP3    H227031   2.865   4.185   3.015  0.2260 -0.2150  1.3044
 9023TIP3   OH227032   0.463   4.468   2.567  0.5731 -0.0475  0.7686
 9023TIP3    H127033   0.466   4.563   2.572  0.4211  0.1048 -1.1754
 9023TIP3    H227034   0.550   4.443   2.535 -0.5100 -0.1717 -2.4483
 9024TIP3   OH227035   5.117   5.814   0.260 -0.6048  0.2825  0.2893
 9024TIP3    H127036   5.095   5.761   0.184 -0.2086  1.7062 -0.8634
 9024TIP3    H227037   5.213   5.818   0.259 -0.4110 -1.7349  2.3573
 9025TIP3   OH227038   4.059   5.333   1.334 -0.2407  0.1240  0.1141
 9025TIP3    H127039   4.048   5.427   1.322  0.9011  0.6375  2.5693
 9025TIP3    H227040   4.042   5.296   1.247 -1.7707  2.4634 -0.6844
 9026TIP3   OH227041   3.708   2.877   2.148 -0.0677 -0.0128 -0.2848
 9026TIP3    H127042   3.675   2.861   2.059 -0.6153 -0.2799 -0.0371
 9026TIP3    H227043   3.760   2.957   2.140 -1.4919  0.9236 -0.5226
 9027TIP3   OH227044   4.539   2.874   0.268  0.3237 -0.6670  0.7803
 9027TIP3    H127045   4.451   2.897   0.298  0.2626  0.4839 -0.2048
 9027TIP3    H227046   4.597   2.933   0.316  0.5599 -1.2988  1.2908
 9028TIP3   OH227047   3.723   4.944   2.871 -0.1773 -0.0819 -0.5654
 9028TIP3    H127048   3.802   4.912   2.914 -2.3029 -2.6322  1.8591
 9028TIP3    H227049   3.684   5.004   2.934 -0.8144  0.1356 -1.1548
 9029TIP3   OH227050   3.044   0.834   5.755 -0.4495 -0.2011 -0.0513
 9029TIP3    H127051   3.094   0.891   5.813 -0.7257 -1.8221  1.8834
 9029TIP3    H227052   2.961   0.879   5.742 -0.0404  0.6034  0.0313
 9030TIP3   OH227053   6.797   6.412   3.387 -0.0531  0.3479 -0.1146
 9030TIP3    H127054   6.730   6.372   3.332  1.6549 -1.5545 -0.9810
 9030TIP3    H227055   6.771   6.390   3.476 -2.1202  2.2593 -0.1782
 9031TIP3   OH227056   2.402   1.007   1.407  0.1947 -0.4588 -0.2635
 9031TIP3    H127057   2.458   0.978   1.335  0.5646  0.4397 -0.3498
 9031TIP3    H227058   2.359   1.086   1.374 -0.8723 -0.9364 -0.0723
 9032TIP3   OH227059   0.065   6.215   1.066 -0.2509  0.0635 -0.2159
 9032TIP3    H127060  -0.008   6.237   1.125 -0.1568 -1.6823  0.6159
 9032TIP3    H227061   0.036   6.136   1.021  0.5960  0.1202 -0.8751
 9033TIP3   OH227062   2.732   5.351   4.239 -0.3087  0.5588  0.0386
 9033TIP3    H127063   2.753   5.317   4.152 -2.4836  2.4312 -1.3244
 9033TIP3    H227064   2.683   5.280   4.282  0.0093 -0.0528 -0.5902
 9034TIP3   OH227065   4.480   0.283   1.882  0.0283 -0.6941 -0.1235
 9034TIP3    H127066   4.574   0.301   1.895  0.0066 -0.3594 -0.4060
 9034TIP3    H227067   4.462   0.314   1.793 -0.0099 -2.1832 -0.6569
 9035TIP3   OH227068   3.371   5.603   2.802  0.5039  0.0277  0.2321
 9035TIP3    H127069   3.435   5.630   2.736  0.0090 -0.6641 -0.5558
 9035TIP3    H227070   3.296   5.572   2.751  0.8513 -2.3983  1.0538
 9036TIP3   OH227071   2.297   4.976   5.068 -0.8748  0.1081  0.2086
 9036TIP3    H127072   2.383   4.945   5.037  0.0896  0.3632  2.4645
 9036TIP3    H227073   2.241   4.898   5.066 -0.3500 -0.2613 -0.4540
 9037TIP3   OH227074   3.757   2.596   1.702 -0.4240 -0.1974 -0.4614
 9037TIP3    H127075   3.791   2.582   1.791 -3.2325 -2.1725  0.4293
 9037TIP3    H227076   3.730   2.688   1.701  0.7674  0.1864  0.2810
 9038TIP3   OH227077   6.730   3.014   0.725  0.6147 -0.2647  0.0966
 9038TIP3    H127078   6.710   2.932   0.770 -0.4160  0.1141  0.3420
 9038TIP3    H227079   6.646   3.044   0.690  0.7319  1.3527  1.1102
 9039TIP3   OH227080   4.442   1.874   5.613 -0.0608 -0.3039  0.1673
 9039TIP3    H127081   4.433   1.843   5.704  0.2282 -0.2465  0.2145
 9039TIP3    H227082   4.355   1.910   5.592  0.1066  0.4307  0.7024
 9040TIP3   OH227083   5.770   5.984   1.762  0.0068 -0.1062  0.9533
 9040TIP3    H127084   5.802   6.004   1.674 -2.3390 -0.0015  0.0776
 9040TIP3    H227085   5.811   6.051   1.817 -0.6875  1.6257 -0.5199
 9041TIP3   OH227086   0.652   1.728   1.608  0.2706 -0.0211  0.1469
 9041TIP3    H127087   0.609   1.664   1.551 -0.7313 -0.0332  0.8932
 9041TIP3    H227088   0.619   1.813   1.578  0.0527 -0.0007  0.4373
 9042TIP3   OH227089   1.040   1.418   0.615 -0.5715 -0.3205 -0.6662
 9042TIP3    H127090   1.127   1.378   0.617 -0.1467  0.5923 -0.3940
 9042TIP3    H227091   0.981   1.348   0.645  0.0877 -0.8865 -0.6587
 9043TIP3   OH227092   6.945   3.677   2.243  0.4817 -0.1895 -0.3109
 9043TIP3    H127093   6.949   3.734   2.167  2.0556 -0.7170 -0.6577
 9043TIP3    H227094   6.981   3.729   2.315  1.4777 -0.5603 -0.5252
 9044TIP3   OH227095   2.708   5.041   2.939 -0.1907  0.3011 -0.6595
 9044TIP3    H127096   2.628   4.988   2.933 -0.5672  0.7002  0.5421
 9044TIP3    H227097   2.745   5.040   2.851 -2.2514  1.2425 -1.5885
 9045TIP3   OH227098   4.859   1.741   2.449 -0.1908 -0.3090 -0.0364
 9045TIP3    H127099   4.924   1.682   2.486  0.2178 -0.8903 -1.6270
 9045TIP3    H227100   4.786   1.684   2.425 -2.2513  0.5187  3.4574
 9046TIP3   OH227101   6.058   0.637   5.355 -0.0976 -0.2250  0.5000
 9046TIP3    H127102   5.969   0.634   5.390 -0.7644  0.2868 -1.0544
 9046TIP3    H227103   6.049   0.609   5.264  1.0318  1.5784 -0.2201
 9047TIP3   OH227104   1.266   2.089   0.487  0.2266  0.4009  0.6821
 9047TIP3    H127105   1.351   2.123   0.518  1.3778 -0.9413 -0.8136
 9047TIP3    H227106   1.214   2.077   0.566  1.1973  1.8434  1.5889
 9048TIP3   OH227107   3.582   5.990   4.404 -0.6412 -0.2863  0.2971
 9048TIP3    H127108   3.545   6.039   4.476  0.5302  0.5181  0.3836
 9048TIP3    H227109   3.600   5.903   4.440 -1.6972 -0.4471  0.4553
 9049TIP3   OH227110   4.056   5.554   0.186 -0.1156 -0.3465 -0.2194
 9049TIP3    H127111   3.964   5.551   0.209 -0.1011 -0.9142 -0.2223
 9049TIP3    H227112   4.102   5.567   0.269 -0.1883 -0.2306 -0.1976
 9050TIP3   OH227113   1.344   6.768   2.781 -0.4824  0.0670 -0.6408
 9050TIP3    H127114   1.302   6.726   2.705 -0.0426 -1.0796 -0.2748
 9050TIP3    H227115   1.356   6.697   2.844 -1.0563  1.0499  0.6163
 9051TIP3   OH227116   1.254   3.147   1.658 -0.1763 -0.0056  0.0760
 9051TIP3    H127117   1.206   3.194   1.727 -1.4837  2.2872 -2.2020
 9051TIP3    H227118   1.221   3.057   1.663 -1.5960  0.5260  1.2722
 9052TIP3   OH227119   5.061   2.618   1.047 -0.0016 -0.5273  0.0421
 9052TIP3    H127120   5.006   2.545   1.020 -1.5386  0.2272  0.9906
 9052TIP3    H227121   5.123   2.579   1.110  0.5429 -1.3691 -0.9900
 9053TIP3   OH227122   3.260   2.066   2.010  0.9695 -0.3114  0.4692
 9053TIP3    H127123   3.313   2.005   1.959  0.6099 -1.1672  1.0777
 9053TIP3    H227124   3.272   2.151   1.968  1.6614 -0.7648 -0.2672
 9054TIP3   OH227125   0.872   0.252   2.589  0.1085 -0.1556 -0.2295
 9054TIP3    H127126   0.956   0.208   2.603  0.2643  0.5132  1.1015
 9054TIP3    H227127   0.812   0.182   2.564  0.7780 -0.8515  0.0775
 9055TIP3   OH227128   4.504   5.563   4.150  0.1980 -0.2854 -0.2367
 9055TIP3    H127129   4.543   5.593   4.232  1.1055 -1.1329 -0.3355
 9055TIP3    H227130   4.472   5.475   4.169 -1.7622  0.3849 -0.1539
 9056TIP3   OH227131   3.209   2.133   0.978  0.0823 -0.8734 -0.0079
 9056TIP3    H127132   3.261   2.169   1.050  1.5059 -2.4364 -0.1863
 9056TIP3    H227133   3.262   2.147   0.900 -0.7902 -0.5171 -0.5583
 9057TIP3   OH227134   1.373   3.063   2.095  0.2401 -0.4303 -0.2157
 9057TIP3    H127135   1.338   3.056   2.006  3.4061 -2.1490 -1.4745
 9057TIP3    H227136   1.335   2.988   2.141 -1.1384  0.2672 -0.1504
 9058TIP3   OH227137   2.859   2.326   1.342 -0.1445  0.0441 -0.1619
 9058TIP3    H127138   2.840   2.403   1.288 -1.0841 -0.6136 -0.7892
 9058TIP3    H227139   2.791   2.263   1.319  0.1383 -0.6865  0.9380
 9059TIP3   OH227140   2.364   1.782   2.332  0.7152 -0.0951 -0.2037
 9059TIP3    H127141   2.269   1.779   2.348  0.6232  1.3892 -0.2743
 9059TIP3    H227142   2.384   1.876   2.331  1.8718 -0.3230 -2.0238
 9060TIP3   OH227143   2.874   2.136   3.766  0.4640 -0.1134 -0.3184
 9060TIP3    H127144   2.926   2.066   3.728 -2.1267 -1.3354 -1.8724
 9060TIP3    H227145   2.875   2.119   3.860  0.8270 -1.5446 -0.5622
 9061TIP3   OH227146   0.628   4.270   2.941 -0.2171 -0.2335 -0.1060
 9061TIP3    H127147   0.619   4.363   2.960  1.1047  0.3236 -1.8807
 9061TIP3    H227148   0.546   4.245   2.899 -0.7364  0.0029  0.7409
 9062TIP3   OH227149   1.505   3.233   5.142  0.0680 -0.2609  0.5831
 9062TIP3    H127150   1.510   3.280   5.059  0.7641  0.0106  0.7747
 9062TIP3    H227151   1.422   3.186   5.138 -1.2066  1.8294  0.8207
 9063TIP3   OH227152   1.726   2.888   1.999 -0.3712 -0.2270 -0.5741
 9063TIP3    H127153   1.783   2.846   1.935  0.6127  0.9685 -0.5054
 9063TIP3    H227154   1.640   2.892   1.956 -0.3489 -1.7186 -0.8116
 9064TIP3   OH227155   2.798   2.399   0.709  0.2035  0.0095  0.6939
 9064TIP3    H127156   2.880   2.409   0.757  0.1819 -1.4136  1.0742
 9064TIP3    H227157   2.821   2.344   0.633  0.2605  2.2777 -1.0369
 9065TIP3   OH227158   3.475   5.049   3.468 -0.3341 -0.1308  0.1979
 9065TIP3    H127159   3.486   5.139   3.438  0.8296 -0.2766  0.1090
 9065TIP3    H227160   3.502   4.995   3.393  0.5378 -0.5141  0.7609
 9066TIP3   OH227161   2.276   2.306   0.281 -0.0948 -0.0238  0.2273
 9066TIP3    H127162   2.336   2.372   0.247  1.0918 -0.8299  0.6705
 9066TIP3    H227163   2.302   2.295   0.373 -0.2731 -1.0832  0.1647
 9067TIP3   OH227164   1.079   4.900   2.548 -0.5805  0.0771 -0.0276
 9067TIP3    H127165   1.068   4.993   2.565  0.1351  0.6042 -2.1579
 9067TIP3    H227166   1.036   4.857   2.622 -0.7563  2.0729  1.1079
 9068TIP3   OH227167   3.140   3.880   3.804 -0.6588  0.1311  0.0357
 9068TIP3    H127168   3.100   3.798   3.834  0.4144 -0.4501 -0.0667
 9068TIP3    H227169   3.119   3.884   3.711  0.4656 -0.7737 -0.2844
 9069TIP3   OH227170   4.346   0.442   1.644 -0.5000 -0.3559  0.0412
 9069TIP3    H127171   4.338   0.537   1.641 -0.8057 -0.3377  1.1149
 9069TIP3    H227172   4.258   0.411   1.667 -0.7983 -1.0042 -1.8056
 9070TIP3   OH227173   3.924   5.341   2.570 -0.8358  0.3132 -0.3097
 9070TIP3    H127174   3.941   5.350   2.664  0.1192 -1.3453 -0.2807
 9070TIP3    H227175   3.856   5.274   2.564 -1.1400  0.6599 -0.7947
 9071TIP3   OH227176   0.686   5.968   2.722 -0.5242  0.6918  0.6975
 9071TIP3    H127177   0.765   6.022   2.727  0.9257 -1.3503  0.7174
 9071TIP3    H227178   0.658   5.958   2.813 -0.9305  1.5508  0.6776
 9072TIP3   OH227179   2.747   4.144   3.349  0.0389  0.4290  0.4932
 9072TIP3    H127180   2.757   4.140   3.254  4.5548  0.2196  0.7985
 9072TIP3    H227181   2.653   4.130   3.364 -0.7710  0.0387 -3.8510
 9073TIP3   OH227182   1.250   5.236   4.050 -0.2633  0.5722 -0.0839
 9073TIP3    H127183   1.174   5.294   4.045 -0.7278 -0.0885 -1.0231
 9073TIP3    H227184   1.260   5.218   4.143 -0.8198  1.2393  0.1154
 9074TIP3   OH227185   4.092   6.530   3.822 -0.0987 -0.1160 -0.1569
 9074TIP3    H127186   4.043   6.477   3.759 -0.0253  1.3366 -1.5271
 9074TIP3    H227187   4.027   6.593   3.854  0.0790 -0.3030  0.5724
 9075TIP3   OH227188   1.436   0.848   3.324  0.5325 -0.4450  0.0540
 9075TIP3    H127189   1.365   0.875   3.382  2.2524  0.8114  1.6877
 9075TIP3    H227190   1.397   0.778   3.271 -2.4946  1.4843 -0.5431
 9076TIP3   OH227191   4.125   6.023   2.335  0.1997  0.5148 -0.1871
 9076TIP3    H127192   4.068   5.946   2.330  0.4799  0.3070 -0.2194
 9076TIP3    H227193   4.142   6.046   2.244  1.1087 -0.1303 -0.1902
 9077TIP3   OH227194   3.264   3.546   1.468 -0.0407 -0.3403 -0.2102
 9077TIP3    H127195   3.265   3.453   1.446  0.7875  0.0671 -2.0831
 9077TIP3    H227196   3.251   3.548   1.563  0.8192 -2.3794  0.0037
 9078TIP3   OH227197   3.659   5.435   3.941 -0.9522  0.0530  0.0696
 9078TIP3    H127198   3.616   5.350   3.952  2.5278 -1.7994  0.5779
 9078TIP3    H227199   3.701   5.429   3.855  1.1819  0.2802  1.0474
 9079TIP3   OH227200   6.182   5.294   0.645 -0.3828 -0.0989  0.3674
 9079TIP3    H127201   6.255   5.349   0.614  0.5761 -0.7355  1.3962
 9079TIP3    H227202   6.172   5.227   0.578  0.7904 -0.6927  0.7503
 9080TIP3   OH227203   6.780   6.061   3.545 -0.1556 -0.2940 -0.4647
 9080TIP3    H127204   6.760   6.037   3.455  1.0305  2.0621 -1.4549
 9080TIP3    H227205   6.876   6.068   3.546 -0.1375 -0.4799  1.0593
 9081TIP3   OH227206   1.006   0.400   1.983 -0.8056 -0.0274 -0.4906
 9081TIP3    H127207   1.099   0.407   1.963 -0.4397 -2.2010  0.1884
 9081TIP3    H227208   0.966   0.367   1.902 -0.7841 -0.2966 -0.3910
 9082TIP3   OH227209   2.384   5.075   3.546  0.0870  0.6342  0.4274
 9082TIP3    H127210   2.298   5.096   3.509 -0.1496 -0.2169  0.4775
 9082TIP3    H227211   2.445   5.130   3.497 -0.4047  0.6967 -0.1297
 9083TIP3   OH227212   6.975   5.260   2.458  0.0285  0.3842  0.4476
 9083TIP3    H127213   6.987   5.352   2.434 -0.8038  0.2659 -0.4791
 9083TIP3    H227214   6.884   5.240   2.436  0.8055 -1.2972 -1.6577
 9084TIP3   OH227215   0.386   6.246   5.849  0.4049  0.0691 -1.1677
 9084TIP3    H127216   0.428   6.238   5.763  1.7398 -0.9352 -0.4688
 9084TIP3    H227217   0.337   6.164   5.859 -0.5853  0.6220 -1.3730
 9085TIP3   OH227218   7.203   0.462   3.664  0.0257 -0.2542 -0.2931
 9085TIP3    H127219   7.115   0.444   3.698  0.8402  1.1458  3.0802
 9085TIP3    H227220   7.244   0.376   3.656 -1.2141 -0.8377 -0.5964
 9086TIP3   OH227221   5.916   4.362   4.013  0.1719  0.4135  0.0727
 9086TIP3    H127222   5.851   4.416   4.058 -1.7438 -0.9026 -1.0030
 9086TIP3    H227223   5.967   4.424   3.961 -2.6528  1.2041 -1.9695
 9087TIP3   OH227224   2.734   5.030   2.150 -0.0269 -0.1674 -0.0122
 9087TIP3    H127225   2.725   5.020   2.055 -1.9820 -0.0357  0.1310
 9087TIP3    H227226   2.775   5.116   2.161 -0.3739  0.0981 -0.7347
 9088TIP3   OH227227   5.552   5.875   3.855  0.0954  0.1428 -0.1212
 9088TIP3    H127228   5.503   5.829   3.787  0.3360  1.8870 -1.5594
 9088TIP3    H227229   5.485   5.924   3.903  0.0770 -0.0431  0.0444
 9089TIP3   OH227230   3.221   0.538   2.042 -0.2749 -0.2075 -0.2367
 9089TIP3    H127231   3.308   0.576   2.039 -0.7569  1.0952  1.0082
 9089TIP3    H227232   3.186   0.565   2.127 -2.2462  0.1295 -1.0889
 9090TIP3   OH227233   2.784   5.061   1.586 -0.3641  0.0219 -0.8322
 9090TIP3    H127234   2.795   4.966   1.585  1.3780 -0.1963  4.5482
 9090TIP3    H227235   2.873   5.096   1.579 -0.7674  1.1487 -0.6493
 9091TIP3   OH227236   2.763   3.354   2.040  0.0073  0.1306  0.1557
 9091TIP3    H127237   2.681   3.334   1.994  0.2526 -2.2674  0.6622
 9091TIP3    H227238   2.748   3.324   2.129  1.0929  0.6486  0.5247
 9092TIP3   OH227239   5.073   3.719   3.392  0.5346 -0.0748  0.5638
 9092TIP3    H127240   5.136   3.789   3.372 -0.4745  0.4101 -1.1688
 9092TIP3    H227241   5.016   3.757   3.459  1.9650 -0.4828  2.0747
 9093TIP3   OH227242   0.334   4.528   5.688 -0.1200 -0.2967  0.6867
 9093TIP3    H127243   0.245   4.558   5.670  0.1273  0.3294  0.5058
 9093TIP3    H227244   0.389   4.576   5.627  0.3174 -0.8921  0.6016
 9094TIP3   OH227245   1.938   3.305   0.872  0.1700 -0.4192  0.5987
 9094TIP3    H127246   1.978   3.379   0.827  0.8397 -0.9803  0.2485
 9094TIP3    H227247   1.844   3.318   0.862  0.2552  0.8733  1.3566
 9095TIP3   OH227248   0.368   6.202   1.418  0.2454 -0.1698  0.3451
 9095TIP3    H127249   0.454   6.163   1.406  0.3455  0.0708  0.2676
 9095TIP3    H227250   0.386   6.294   1.439 -0.0204  0.1971 -0.9420
 9096TIP3   OH227251   5.886   5.001   5.685 -0.3108 -0.6333 -0.8176
 9096TIP3    H127252   5.791   5.005   5.694 -0.2236 -1.4642  0.7327
 9096TIP3    H227253   5.911   4.921   5.731  1.2606  0.2702 -0.0203
 9097TIP3   OH227254   4.147   0.298   5.817 -0.1352  0.3604 -0.0245
 9097TIP3    H127255   4.105   0.276   5.734 -1.5306  1.0818  0.4570
 9097TIP3    H227256   4.077   0.294   5.881  1.0589 -0.9125  1.2840
 9098TIP3   OH227257   0.662   6.041   0.182 -0.4960  0.1960 -0.7782
 9098TIP3    H127258   0.691   5.971   0.241 -0.5340  0.9199  0.1299
 9098TIP3    H227259   0.693   6.122   0.224 -0.2929  0.7120 -1.9030
 9099TIP3   OH227260   2.858   0.171   4.506  0.1507  0.0184  0.1549
 9099TIP3    H127261   2.934   0.123   4.472 -1.0159 -2.2340  0.5109
 9099TIP3    H227262   2.888   0.204   4.591  1.9232  2.6165 -1.3294
 9100TIP3   OH227263   3.885   5.802   3.972 -0.0002 -0.0899 -0.0921
 9100TIP3    H127264   3.975   5.773   3.985 -0.0997 -0.5568 -0.4382
 9100TIP3    H227265   3.849   5.808   4.060  0.5781  0.7897  0.0977
 9101TIP3   OH227266   3.372   2.263   1.177 -0.2505 -0.2290  0.0369
 9101TIP3    H127267   3.442   2.258   1.242 -0.9851 -1.1029  0.7994
 9101TIP3    H227268   3.338   2.353   1.185 -1.1821 -0.6855  1.8241
 9102TIP3   OH227269   6.877   3.265   4.246 -0.0555 -0.2429 -0.5161
 9102TIP3    H127270   6.804   3.314   4.284  0.3554 -0.4430  0.5609
 9102TIP3    H227271   6.955   3.311   4.277  0.3608 -1.9343  1.0867
 9103TIP3   OH227272   2.916   5.404   0.986  0.2022  0.0368  0.1407
 9103TIP3    H127273   2.862   5.450   1.050 -1.3058  0.5882 -1.4381
 9103TIP3    H227274   2.888   5.312   0.993  0.0941  0.0840  0.3213
 9104TIP3   OH227275   2.394   6.465   5.203  0.9377 -0.4150  0.4191
 9104TIP3    H127276   2.479   6.445   5.164  0.4870  2.1953 -2.3004
 9104TIP3    H227277   2.330   6.432   5.140 -0.0119 -0.4070  1.3455
 9105TIP3   OH227278   4.325   1.052   1.864  0.1923  0.2975 -0.2569
 9105TIP3    H127279   4.348   1.110   1.937 -1.9209  2.1774 -0.9693
 9105TIP3    H227280   4.375   1.085   1.790  1.0460 -0.5564 -0.0895
 9106TIP3   OH227281   4.879   2.351   3.553 -0.2440  0.3812 -0.4458
 9106TIP3    H127282   4.861   2.370   3.461 -1.3698 -0.7219 -0.4898
 9106TIP3    H227283   4.843   2.263   3.566  1.6318 -0.2841  0.5601
 9107TIP3   OH227284   3.681   3.772   4.543  0.3515  0.9222  0.0155
 9107TIP3    H127285   3.733   3.712   4.595  1.7489  3.0324  1.2220
 9107TIP3    H227286   3.625   3.716   4.489 -0.3457 -1.3940  2.9115
 9108TIP3   OH227287   4.124   6.353   4.166  0.6617  0.5675 -0.0002
 9108TIP3    H127288   4.162   6.266   4.149 -1.3028 -0.4228  0.3113
 9108TIP3    H227289   4.041   6.351   4.119  0.2474  2.0194  0.6433
 9109TIP3   OH227290   1.878   1.828   0.157 -0.1272  0.0890  0.0936
 9109TIP3    H127291   1.883   1.796   0.247 -0.1970  0.5069  0.2472
 9109TIP3    H227292   1.969   1.847   0.133 -0.0354 -0.6437 -0.1528
 9110TIP3   OH227293   4.295   6.676   0.309  0.3694 -0.7173  0.0958
 9110TIP3    H127294   4.257   6.652   0.224 -0.7603 -1.1231  0.6964
 9110TIP3    H227295   4.313   6.592   0.351 -1.8916 -0.5840  1.4645
 9111TIP3   OH227296   7.053   2.346   3.091  0.2617  0.1795  0.1354
 9111TIP3    H127297   6.979   2.395   3.126  0.2561  0.0562  0.2981
 9111TIP3    H227298   7.045   2.354   2.996 -0.5865 -0.7547  0.1206
 9112TIP3   OH227299   5.083   4.646   2.073 -0.3955 -0.0997 -0.1865
 9112TIP3    H127300   5.040   4.594   2.005 -0.2682 -0.0035 -0.3421
 9112TIP3    H227301   5.153   4.692   2.026  0.4540 -0.9355  0.2245
 9113TIP3   OH227302   5.686   0.957   4.982  0.3019 -0.1357 -0.0034
 9113TIP3    H127303   5.708   0.892   4.915  0.2922  0.6033 -0.7398
 9113TIP3    H227304   5.727   0.923   5.062 -0.3834 -1.4518 -0.1791
 9114TIP3   OH227305   0.853   5.299   5.046 -0.1041  0.4446  0.0097
 9114TIP3    H127306   0.896   5.316   5.131 -0.2601 -0.2952  0.2384
 9114TIP3    H227307   0.922   5.316   4.981  1.0551 -2.2244  0.4312
 9115TIP3   OH227308   7.138   5.293   5.606 -0.1439  0.2448  0.0788
 9115TIP3    H127309   7.179   5.210   5.627  1.0832  0.5297 -1.0375
 9115TIP3    H227310   7.151   5.347   5.685  0.6430 -0.0554  0.1685
 9116TIP3   OH227311   1.192   6.108   4.790 -0.1212 -0.8171 -0.2573
 9116TIP3    H127312   1.116   6.132   4.843  1.1413  0.9665  0.8608
 9116TIP3    H227313   1.226   6.192   4.758  0.7069 -1.6687 -1.7239
 9117TIP3   OH227314   0.476   0.740   4.007 -0.7581  0.6773 -0.5929
 9117TIP3    H127315   0.535   0.737   4.083 -1.8224  1.1296  0.2621
 9117TIP3    H227316   0.535   0.738   3.931  0.3502  0.9908  0.2435
 9118TIP3   OH227317   5.188   2.015   0.888 -0.3208  0.0941 -0.6021
 9118TIP3    H127318   5.158   2.024   0.798  0.0095 -1.0650 -0.8437
 9118TIP3    H227319   5.248   1.940   0.887  0.0615  0.3550  0.4892
 9119TIP3   OH227320   0.239   2.315   2.156  0.0902 -0.4600  0.0429
 9119TIP3    H127321   0.309   2.253   2.176 -0.6093 -1.0497  0.7690
 9119TIP3    H227322   0.206   2.341   2.242 -1.6235 -1.4276 -0.2645
 9120TIP3   OH227323   2.010   0.557   4.404  0.0300  0.7747 -0.4232
 9120TIP3    H127324   1.924   0.585   4.438  0.3018  0.8910  0.1863
 9120TIP3    H227325   1.995   0.543   4.311 -0.4299  1.6961 -0.5019
 9121TIP3   OH227326   6.051   6.402   1.409 -0.2338 -0.3077  0.0490
 9121TIP3    H127327   6.030   6.476   1.353 -0.1750  0.5846  1.1688
 9121TIP3    H227328   6.127   6.361   1.367  1.5655  1.9624  0.8493
 9122TIP3   OH227329   0.713   1.522   5.355  0.5476  1.0302  0.2501
 9122TIP3    H127330   0.776   1.587   5.326  1.7560 -0.2240 -0.0189
 9122TIP3    H227331   0.761   1.439   5.353 -0.8536  0.1686  0.8801
 9123TIP3   OH227332   3.459   0.266   0.336  0.4814  0.3039  0.7017
 9123TIP3    H127333   3.475   0.174   0.356  1.4939  0.0211 -1.2799
 9123TIP3    H227334   3.495   0.313   0.412  0.5149 -0.8882  1.4495
 9124TIP3   OH227335   4.744   5.815   5.887 -0.3151 -0.3227  0.1052
 9124TIP3    H127336   4.682   5.779   5.823  0.3778 -0.4174 -0.5263
 9124TIP3    H227337   4.830   5.789   5.854  0.0581 -0.3573  1.0729
 9125TIP3   OH227338   6.863   4.858   3.232  0.1686 -0.2360 -0.6902
 9125TIP3    H127339   6.896   4.905   3.155 -1.5113  1.2233 -0.5904
 9125TIP3    H227340   6.768   4.863   3.225 -0.0423  0.0351  1.5123
 9126TIP3   OH227341   2.893   2.517   2.405  0.1181  0.0285 -0.3998
 9126TIP3    H127342   2.863   2.607   2.402 -0.4281 -0.1512 -0.5098
 9126TIP3    H227343   2.839   2.471   2.340  0.7816 -0.2618 -0.7588
 9127TIP3   OH227344   3.422   3.702   1.317 -0.2566 -0.4318 -0.0035
 9127TIP3    H127345   3.443   3.787   1.356 -2.3471  0.4365 -0.6829
 9127TIP3    H227346   3.380   3.653   1.388  0.4137 -0.7097  0.2145
 9128TIP3   OH227347   7.159   4.993   1.230  0.6026  0.1509  0.1000
 9128TIP3    H127348   7.228   4.972   1.167  0.2798 -2.2963  0.4737
 9128TIP3    H227349   7.095   5.044   1.179  0.0092 -2.3262 -1.8405
 9129TIP3   OH227350   7.114   2.201   1.474 -0.0825  0.0828  0.3070
 9129TIP3    H127351   7.029   2.179   1.510  0.0269  1.8410  1.7480
 9129TIP3    H227352   7.159   2.117   1.465 -1.4626 -0.7353  0.8059
 9130TIP3   OH227353   1.372   0.420   5.832 -0.1239 -0.6969 -0.4857
 9130TIP3    H127354   1.442   0.480   5.858 -0.5826 -0.8399  1.2330
 9130TIP3    H227355   1.412   0.364   5.765  2.1706 -2.1604  1.8615
 9131TIP3   OH227356   5.318   5.610   2.077 -0.4740  0.3930  0.1396
 9131TIP3    H127357   5.403   5.642   2.107 -0.7031  0.1775  1.0308
 9131TIP3    H227358   5.288   5.678   2.016  1.3453 -0.6075 -2.0457
 9132TIP3   OH227359   2.404   3.748   1.001  0.2891 -0.2018 -0.3810
 9132TIP3    H127360   2.375   3.718   1.087 -0.0161  1.0861 -0.0137
 9132TIP3    H227361   2.410   3.843   1.010 -0.5776  0.0418 -2.0240
 9133TIP3   OH227362   4.496   0.403   5.502 -0.5377  0.0004 -0.1413
 9133TIP3    H127363   4.475   0.424   5.593  1.6569  2.1168  0.0001
 9133TIP3    H227364   4.550   0.477   5.473 -0.7548 -0.8636 -3.0229
 9134TIP3   OH227365   6.443   0.663   1.061  0.1838 -0.0157  0.0028
 9134TIP3    H127366   6.353   0.649   1.030  0.4768 -1.3354 -0.3065
 9134TIP3    H227367   6.498   0.639   0.987  0.8864 -2.9643  1.3159
 9135TIP3   OH227368   0.026   3.850   2.261 -0.2720 -0.0075 -0.4616
 9135TIP3    H127369   0.089   3.778   2.263  0.3018  0.4934 -0.2266
 9135TIP3    H227370  -0.022   3.837   2.179 -3.0250 -3.0413  1.4161
 9136TIP3   OH227371   6.904   2.179   1.829 -0.3745  0.5931 -0.2379
 9136TIP3    H127372   6.970   2.118   1.862  1.2812  0.9320 -2.6104
 9136TIP3    H227373   6.825   2.158   1.878  1.4072  0.0464  2.6313
 9137TIP3   OH227374   5.003   6.215   4.898  0.0343  0.5123  0.2963
 9137TIP3    H127375   4.910   6.234   4.914 -0.3840 -0.2496 -1.0446
 9137TIP3    H227376   5.017   6.128   4.937 -0.0742  0.2159 -0.3081
 9138TIP3   OH227377   1.218   6.047   5.823 -0.2665 -0.0021  0.1987
 9138TIP3    H127378   1.198   5.960   5.858  0.9991 -0.2157  0.4235
 9138TIP3    H227379   1.134   6.093   5.825 -0.6753 -0.7467  1.4288
 9139TIP3   OH227380   5.035   3.676   1.459  0.2678 -0.5712  0.7627
 9139TIP3    H127381   5.011   3.587   1.484 -1.0419 -1.0227 -1.7163
 9139TIP3    H227382   5.123   3.668   1.423 -0.5667 -1.3701 -1.3145
 9140TIP3   OH227383   4.961   1.511   2.845  0.0651 -0.4816 -0.8049
 9140TIP3    H127384   4.881   1.508   2.897 -0.1809 -1.0879 -1.2064
 9140TIP3    H227385   5.002   1.425   2.858  0.4006 -0.3536 -0.9879
 9141TIP3   OH227386   3.969   0.010   5.510  0.0389  0.1823 -0.0818
 9141TIP3    H127387   3.900   0.051   5.458  1.3864  0.4320 -1.7270
 9141TIP3    H227388   4.021  -0.040   5.447  1.2855 -0.1109  1.1316
 9142TIP3   OH227389   0.059   6.562   3.832  0.4518 -0.3061  0.6788
 9142TIP3    H127390   0.097   6.580   3.746 -1.7951  0.9436 -0.1176
 9142TIP3    H227391  -0.032   6.541   3.814  0.5923 -2.9738  2.5442
 9143TIP3   OH227392   5.956   1.100   1.243  0.4861  0.2771  0.5182
 9143TIP3    H127393   5.863   1.099   1.266  0.6240 -1.6813  1.1532
 9143TIP3    H227394   5.966   1.178   1.188 -1.2325  1.3065  1.5696
 9144TIP3   OH227395   1.627   6.494   2.106  0.8792  0.5798 -0.1048
 9144TIP3    H127396   1.665   6.474   2.191 -1.5739  0.4911  1.0570
 9144TIP3    H227397   1.626   6.590   2.102  1.1809  0.5838 -0.1517
 9145TIP3   OH227398   6.380   5.249   5.416  0.5471  0.1859 -0.0824
 9145TIP3    H127399   6.392   5.158   5.389 -2.5251 -0.6993  1.0734
 9145TIP3    H227400   6.331   5.244   5.498 -1.2751  2.8637 -0.8672
 9146TIP3   OH227401   0.907   1.479   4.044 -0.3031 -0.2455  0.4409
 9146TIP3    H127402   0.850   1.541   4.089 -1.2376  0.3876 -1.5082
 9146TIP3    H227403   0.850   1.407   4.018  0.4850 -1.2564  1.3706
 9147TIP3   OH227404   4.251   2.937   5.134  0.1221  0.0462  0.8630
 9147TIP3    H127405   4.169   2.979   5.109  0.3490  0.0262  0.0279
 9147TIP3    H227406   4.294   2.918   5.050 -0.8667 -3.7086  1.0408
 9148TIP3   OH227407   4.568   6.208   3.540 -0.5583 -0.0842  0.3325
 9148TIP3    H127408   4.656   6.170   3.550  0.0227  0.8334 -1.0961
 9148TIP3    H227409   4.522   6.146   3.483 -0.4006  0.1153 -0.0129
 9149TIP3   OH227410   1.411   6.654   4.194  0.4862 -0.1112 -0.2698
 9149TIP3    H127411   1.457   6.625   4.115  2.1400 -0.6337  0.8317
 9149TIP3    H227412   1.468   6.720   4.233 -0.6898  0.7337  0.0972
 9150TIP3   OH227413   0.919   4.814   1.235 -0.5487  0.5957  0.1111
 9150TIP3    H127414   0.951   4.895   1.276 -0.2165  0.8426 -0.6010
 9150TIP3    H227415   0.864   4.845   1.162 -0.6708  0.1761  0.0241
 9151TIP3   OH227416   5.857   4.016   3.808  0.5515 -0.1870 -0.0166
 9151TIP3    H127417   5.919   4.039   3.877 -0.7008  2.1264  0.4507
 9151TIP3    H227418   5.793   3.959   3.852  0.9914 -0.5585  0.1416
 9152TIP3   OH227419   4.800   1.354   3.889  0.3297  0.1045 -0.1945
 9152TIP3    H127420   4.888   1.388   3.904 -0.5407  1.7255  1.6090
 9152TIP3    H227421   4.784   1.369   3.796  1.7919  0.1750 -0.4518
 9153TIP3   OH227422   2.059   1.276   4.506  0.1848  0.4648 -0.2223
 9153TIP3    H127423   2.071   1.257   4.600 -1.0690 -0.5468 -0.2446
 9153TIP3    H227424   2.141   1.317   4.480  0.6184  0.6375  1.2906
 9154TIP3   OH227425   0.758   6.546   1.495 -0.4757  0.1127 -0.1072
 9154TIP3    H127426   0.809   6.579   1.569 -0.5906 -2.0357  0.9994
 9154TIP3    H227427   0.743   6.623   1.440  0.8183  1.4952  1.3825
 9155TIP3   OH227428   1.008   2.267   0.569  0.0947 -0.4583  0.2389
 9155TIP3    H127429   1.023   2.328   0.641  0.9418  0.4076 -0.6415
 9155TIP3    H227430   1.027   2.180   0.605  0.1317 -0.0724  1.1512
 9156TIP3   OH227431   1.892   5.605   1.770 -0.1024  0.5069 -0.4956
 9156TIP3    H127432   1.884   5.512   1.746  0.3492  1.2798 -4.1037
 9156TIP3    H227433   1.814   5.646   1.733  1.6600  2.1494 -2.5943
 9157TIP3   OH227434   5.637   4.184   3.881  0.0226 -0.1642  0.3751
 9157TIP3    H127435   5.576   4.252   3.910  0.2565  0.3469 -0.3223
 9157TIP3    H227436   5.666   4.142   3.963  1.6144  2.0625  1.0361
 9158TIP3   OH227437   6.939   3.432   2.929  0.2347 -0.6098  0.1311
 9158TIP3    H127438   6.856   3.452   2.973  0.5305 -0.1907  0.5064
 9158TIP3    H227439   6.951   3.338   2.942 -1.2425 -1.1462 -1.7673
 9159TIP3   OH227440   5.822   3.981   0.865  0.3149 -0.1881 -0.0817
 9159TIP3    H127441   5.745   4.030   0.892  0.9489  0.4002  0.7037
 9159TIP3    H227442   5.863   4.035   0.797  1.1186  0.5008  0.9188
 9160TIP3   OH227443   0.693   4.075   2.767  0.1307 -0.1210  0.2381
 9160TIP3    H127444   0.680   4.160   2.810 -2.2326  0.9965 -2.3696
 9160TIP3    H227445   0.694   4.012   2.839 -1.1936  1.8424  2.1094
 9161TIP3   OH227446   0.428   2.429   4.421 -0.7619  0.3798 -0.1974
 9161TIP3    H127447   0.407   2.347   4.466 -2.6129  2.0249  2.1786
 9161TIP3    H227448   0.350   2.448   4.368 -1.0480  1.4115  0.5711
 9162TIP3   OH227449   5.602   5.318   2.520 -0.4378 -0.8959  0.0776
 9162TIP3    H127450   5.561   5.355   2.442 -1.6850 -0.5530  0.8631
 9162TIP3    H227451   5.529   5.289   2.574  0.4050 -1.2487  1.0690
 9163TIP3   OH227452   7.026   3.601   3.187 -0.4166  0.4622 -0.3948
 9163TIP3    H127453   7.049   3.570   3.275 -4.0234 -0.5636  0.3554
 9163TIP3    H227454   7.048   3.527   3.130 -1.4016 -0.3259  0.2128
 9164TIP3   OH227455   6.913   2.641   0.604 -0.4053  0.4971  0.6154
 9164TIP3    H127456   6.834   2.616   0.555  0.3711 -0.0970 -0.3870
 9164TIP3    H227457   6.912   2.737   0.604 -1.3620  0.4998  1.0318
 9165TIP3   OH227458   5.300   1.759   2.719  0.0855 -0.1356  0.5837
 9165TIP3    H127459   5.322   1.694   2.787 -1.4027  0.0323  1.2698
 9165TIP3    H227460   5.299   1.709   2.638  1.8522 -0.3549  0.6602
 9166TIP3   OH227461   5.396   5.738   2.426  0.5401  0.4051 -0.2166
 9166TIP3    H127462   5.400   5.688   2.344 -0.8224  0.9434 -0.6296
 9166TIP3    H227463   5.319   5.705   2.471  0.0952  1.5490 -0.1063
 9167TIP3   OH227464   1.515   5.699   2.198 -0.4352  0.2442  0.5126
 9167TIP3    H127465   1.436   5.662   2.238  0.0315 -0.5704  0.6887
 9167TIP3    H227466   1.585   5.639   2.221 -0.0142  0.1540 -0.8686
 9168TIP3   OH227467   2.924   2.084   5.445 -0.0120  0.2588  0.0223
 9168TIP3    H127468   3.018   2.095   5.458  0.0077  0.1333 -0.0176
 9168TIP3    H227469   2.905   2.135   5.366  0.0707  0.0488 -0.1324
 9169TIP3   OH227470   6.702   4.518   1.294 -0.1527 -0.3040  0.1538
 9169TIP3    H127471   6.763   4.586   1.267 -2.2629  0.9223 -1.7538
 9169TIP3    H227472   6.726   4.500   1.385  0.2445  3.2644  0.8800
 9170TIP3   OH227473   2.728   4.608   1.752  0.0142 -0.9391 -0.6661
 9170TIP3    H127474   2.786   4.534   1.770  0.6460 -0.0948  1.0583
 9170TIP3    H227475   2.647   4.587   1.799  0.0839 -0.7081 -0.4340
 9171TIP3   OH227476   7.148   6.593   5.099  0.2993 -0.3330  0.1775
 9171TIP3    H127477   7.065   6.553   5.122  1.6246 -2.8909  0.8537
 9171TIP3    H227478   7.205   6.576   5.174  1.2100  2.2508  0.1843
 9172TIP3   OH227479   1.463   5.602   3.745 -0.5178  0.3912 -0.0229
 9172TIP3    H127480   1.447   5.640   3.659  2.9829  1.1124 -0.5368
 9172TIP3    H227481   1.428   5.513   3.739 -1.4512  0.8289 -1.7429
 9173TIP3   OH227482   5.466   2.063   3.907 -0.2356 -0.1768  0.2198
 9173TIP3    H127483   5.371   2.077   3.902 -0.4297 -1.3018  0.5179
 9173TIP3    H227484   5.494   2.114   3.983 -0.8308 -0.9233  0.9586
 9174TIP3   OH227485   3.108   1.817   4.343  0.6996 -0.4209  0.2700
 9174TIP3    H127486   3.153   1.814   4.258 -0.2714  0.2395 -0.2876
 9174TIP3    H227487   3.122   1.731   4.381 -1.2782 -1.7902 -1.8379
 9175TIP3   OH227488   6.617   1.947   1.036 -0.1809 -0.8010  0.7045
 9175TIP3    H127489   6.571   1.915   0.959  0.2944 -1.5661  0.7205
 9175TIP3    H227490   6.605   2.042   1.034 -0.1660 -0.8091 -0.3056
 9176TIP3   OH227491   5.434   2.927   0.090 -0.3730 -0.7960  0.5420
 9176TIP3    H127492   5.344   2.896   0.082 -0.5327 -0.3075  0.3584
 9176TIP3    H227493   5.450   2.974   0.008  0.4875 -1.9595  0.0240
 9177TIP3   OH227494   1.447   5.385   1.445 -0.1787 -0.0443 -0.2796
 9177TIP3    H127495   1.356   5.412   1.450  0.3921  1.9131  0.4453
 9177TIP3    H227496   1.459   5.323   1.517 -1.4849 -2.2971 -1.8802
 9178TIP3   OH227497   1.757   6.780   4.658  0.4123  0.3859 -0.1197
 9178TIP3    H127498   1.815   6.812   4.589  1.1002 -0.6735 -0.0648
 9178TIP3    H227499   1.802   6.804   4.740  1.6544 -1.8262 -0.0695
 9179TIP3   OH227500   1.000   0.790   5.320 -0.3454 -0.1273 -0.2689
 9179TIP3    H127501   0.942   0.801   5.395 -1.2611  0.9573 -1.0866
 9179TIP3    H227502   1.013   0.696   5.313  1.0875 -0.1938  2.1810
 9180TIP3   OH227503   3.718   5.965   2.558 -0.2533  0.1246  0.7329
 9180TIP3    H127504   3.749   5.879   2.587 -1.4144  0.2410  2.5017
 9180TIP3    H227505   3.700   5.954   2.465  1.6775 -0.9076  0.4376
 9181TIP3   OH227506   3.049   2.708   5.151  0.3286 -0.2736 -0.3998
 9181TIP3    H127507   2.996   2.786   5.167 -0.6719 -0.9183 -0.4852
 9181TIP3    H227508   2.992   2.650   5.101  1.0145 -1.1024 -0.2436
 9182TIP3   OH227509   6.158   2.618   5.785  0.3811  0.4389  0.0581
 9182TIP3    H127510   6.215   2.651   5.854  2.0724 -0.3215 -0.9125
 9182TIP3    H227511   6.204   2.542   5.750 -0.6971  0.4662 -1.5242
 9183TIP3   OH227512   1.718   6.648   5.312  0.4357  0.0905 -0.1063
 9183TIP3    H127513   1.734   6.567   5.263  0.2949  0.4354 -0.7346
 9183TIP3    H227514   1.805   6.678   5.338  0.7610  1.1659 -2.2159
 9184TIP3   OH227515   6.999   6.338   1.637  0.0032 -0.3199 -0.6147
 9184TIP3    H127516   7.027   6.343   1.546 -0.2612 -0.3344 -0.6982
 9184TIP3    H227517   7.073   6.374   1.687  0.6163 -1.3591 -0.7373
 9185TIP3   OH227518   5.385   3.202   3.517  0.1594  0.1419  0.4356
 9185TIP3    H127519   5.340   3.149   3.582 -0.0485  1.8007  1.7159
 9185TIP3    H227520   5.478   3.193   3.538  0.0267  2.4706  2.5813
 9186TIP3   OH227521   7.229   5.493   5.082 -0.7510  0.4454 -0.1967
 9186TIP3    H127522   7.215   5.425   5.015 -1.0202 -0.2267  0.5243
 9186TIP3    H227523   7.140   5.520   5.107 -0.6616  0.3019  0.2770
 9187TIP3   OH227524   5.004   5.728   4.444  0.0835 -0.1151 -0.6818
 9187TIP3    H127525   5.023   5.813   4.484 -1.3162 -0.8481  1.7875
 9187TIP3    H227526   5.065   5.667   4.488  1.2441 -0.4161 -2.5933
 9188TIP3   OH227527   5.259   5.831   1.925 -0.1035  0.2899 -0.0261
 9188TIP3    H127528   5.260   5.892   1.852 -1.9207 -0.1865 -0.4992
 9188TIP3    H227529   5.316   5.871   1.991  1.5144  0.7654 -1.6396
 9189TIP3   OH227530   0.331   2.874   1.533  0.1609  0.0720  0.1374
 9189TIP3    H127531   0.264   2.902   1.470  0.2422  0.8955  0.4019
 9189TIP3    H227532   0.392   2.948   1.537  0.7130 -0.3927  0.4208
 9190TIP3   OH227533   1.145   2.678   2.738  0.2872  0.5140 -0.3436
 9190TIP3    H127534   1.181   2.608   2.793  1.9531  0.3940 -1.5068
 9190TIP3    H227535   1.215   2.742   2.731 -0.6646  1.5650 -0.5856
 9191TIP3   OH227536   4.106   6.702   2.517  0.1129  0.0953 -0.2979
 9191TIP3    H127537   4.049   6.645   2.569  2.1155 -0.1653  1.7868
 9191TIP3    H227538   4.073   6.790   2.532  1.1100  0.1235  2.2398
 9192TIP3   OH227539   2.094   3.512   3.032 -0.1786 -0.2497  0.4690
 9192TIP3    H127540   2.107   3.602   3.002  0.0615  0.0815  1.4958
 9192TIP3    H227541   2.174   3.491   3.081 -0.1003 -1.1396 -0.0246
 9193TIP3   OH227542   5.964   2.009   1.538 -0.4513 -0.2099  0.3390
 9193TIP3    H127543   5.894   1.944   1.532 -1.3320  0.8374 -2.8652
 9193TIP3    H227544   5.927   2.081   1.587 -1.0302 -0.3678  0.1414
 9194TIP3   OH227545   6.078   5.826   4.689 -0.5008  0.6322  0.4090
 9194TIP3    H127546   6.047   5.735   4.697  0.3895  0.2153 -0.6122
 9194TIP3    H227547   6.141   5.836   4.760  0.7469 -0.1502 -0.5616
 9195TIP3   OH227548   0.818   6.222   5.117  0.2319  0.0292 -0.5157
 9195TIP3    H127549   0.857   6.234   5.204 -2.5502 -0.5147  0.9277
 9195TIP3    H227550   0.786   6.309   5.093 -3.0876 -0.5599  1.2409
 9196TIP3   OH227551   2.525   2.221   2.613 -0.0411  0.0867 -0.2530
 9196TIP3    H127552   2.541   2.315   2.615  0.2408  0.0263  0.5671
 9196TIP3    H227553   2.456   2.206   2.677  1.7845 -0.5791  1.6717
 9197TIP3   OH227554   0.180   4.627   1.556  0.5118 -0.4321 -0.2599
 9197TIP3    H127555   0.214   4.711   1.526  2.3344 -1.3310 -0.8387
 9197TIP3    H227556   0.244   4.595   1.619 -0.7119 -0.9244  0.7871
 9198TIP3   OH227557   1.110   4.375   3.462  0.2217 -0.2989 -0.1596
 9198TIP3    H127558   1.154   4.321   3.396  0.3776  0.4927 -0.7323
 9198TIP3    H227559   1.176   4.440   3.486  0.3205 -0.8545  1.1375
 9199TIP3   OH227560   0.587   1.967   1.492 -0.1270 -0.0773  0.1748
 9199TIP3    H127561   0.503   1.999   1.459 -0.7012 -0.8911  0.8046
 9199TIP3    H227562   0.649   2.038   1.473 -0.9066  0.4421 -0.4938
 9200TIP3   OH227563   1.056   4.818   3.051 -0.4303  0.0215 -0.2511
 9200TIP3    H127564   0.996   4.744   3.048 -0.0265 -0.2893 -0.8711
 9200TIP3    H227565   1.000   4.894   3.063 -1.0956 -0.1155 -2.1205
 9201TIP3   OH227566   3.565   2.674   5.613 -0.5602  0.0543  0.4010
 9201TIP3    H127567   3.523   2.727   5.546 -0.6353 -1.0974 -0.4918
 9201TIP3    H227568   3.493   2.642   5.667 -0.4927  1.0523  1.1097
 9202TIP3   OH227569   3.865   4.178   2.628  0.2309  0.5070 -0.1400
 9202TIP3    H127570   3.850   4.118   2.701 -0.8841  1.2268  0.2465
 9202TIP3    H227571   3.812   4.143   2.557  0.7277  0.2287 -0.3796
 9203TIP3   OH227572   5.313   5.238   4.896 -0.2633  0.3615  0.3176
 9203TIP3    H127573   5.305   5.144   4.908 -3.5287  0.7169  2.1078
 9203TIP3    H227574   5.305   5.275   4.984  0.2964  2.3562 -0.4017
 9204TIP3   OH227575   1.030   4.641   0.961 -0.1091 -0.3975  0.6323
 9204TIP3    H127576   1.062   4.571   0.904  0.7315  1.1940 -0.9305
 9204TIP3    H227577   1.104   4.660   1.018  0.1757  0.1845  0.0789
 9205TIP3   OH227578   2.686   5.899   3.730  0.3511 -0.2151  0.0164
 9205TIP3    H127579   2.610   5.957   3.736 -0.6300 -0.9099 -3.3712
 9205TIP3    H227580   2.666   5.827   3.790 -1.6021 -0.2423 -0.5929
 9206TIP3   OH227581   5.127   2.970   5.629  0.2175  0.2553 -0.2991
 9206TIP3    H127582   5.126   3.063   5.607  3.4138  0.1622 -1.2133
 9206TIP3    H227583   5.204   2.958   5.685 -0.1773 -1.8488 -0.0945
 9207TIP3   OH227584   5.063   2.264   1.547  0.0496  0.2259 -0.2371
 9207TIP3    H127585   5.115   2.333   1.506  2.0335 -0.5026  0.9270
 9207TIP3    H227586   5.097   2.183   1.509 -0.7071 -0.2273  0.0393
 9208TIP3   OH227587   1.463   5.546   1.846  0.4643  0.2311 -0.5398
 9208TIP3    H127588   1.505   5.461   1.864 -1.0251 -0.2518  1.0081
 9208TIP3    H227589   1.534   5.610   1.855  1.0547 -0.5972  1.3410
 9209TIP3   OH227590   2.039   5.548   3.518 -0.3676 -0.4668 -0.1148
 9209TIP3    H127591   1.945   5.566   3.527 -0.7395 -1.7189 -1.1782
 9209TIP3    H227592   2.063   5.585   3.434 -0.2245 -1.3006 -0.4505
 9210TIP3   OH227593   2.216   5.104   3.988 -0.4613  0.9835 -0.2939
 9210TIP3    H127594   2.221   5.010   4.006  0.1628  0.6423 -1.9979
 9210TIP3    H227595   2.307   5.131   3.975 -0.6909  1.6543 -0.5500
 9211TIP3   OH227596   2.449   3.271   5.481 -0.3396  0.1848 -0.5618
 9211TIP3    H127597   2.534   3.314   5.484 -0.2983  0.0981 -0.4995
 9211TIP3    H227598   2.389   3.333   5.521  0.0623 -0.6549  1.4615
 9212TIP3   OH227599   3.746   0.686   0.656  0.3360  0.1822 -0.2127
 9212TIP3    H127600   3.803   0.749   0.611 -0.5952  1.2191  0.0140
 9212TIP3    H227601   3.686   0.655   0.589  1.2397 -1.0357 -0.4887
 9213TIP3   OH227602   4.099   4.927   1.544 -0.1276 -0.2633  0.0064
 9213TIP3    H127603   4.095   4.928   1.640  0.4869 -1.1262  0.0496
 9213TIP3    H227604   4.135   5.013   1.522  3.0268 -1.2480  0.7639
 9214TIP3   OH227605   3.894   4.410   5.465 -0.2771  0.5174  0.2902
 9214TIP3    H127606   3.865   4.412   5.556 -0.6651  1.1680  0.1650
 9214TIP3    H227607   3.925   4.320   5.451 -1.6712 -0.0467  0.6255
 9215TIP3   OH227608   7.049   3.018   1.449  0.0789  0.1628  0.0541
 9215TIP3    H127609   7.027   2.935   1.407 -0.0805 -0.1268  0.6854
 9215TIP3    H227610   7.011   3.085   1.393 -0.8665 -0.2529  0.1753
 9216TIP3   OH227611   2.071   3.496   5.668 -0.3767  0.0028  0.0546
 9216TIP3    H127612   2.010   3.551   5.716  1.0925  0.6914  1.2227
 9216TIP3    H227613   2.074   3.414   5.718  0.1398  0.2175  0.3808
 9217TIP3   OH227614   3.087   1.603   5.316  0.2224 -0.6715 -0.3075
 9217TIP3    H127615   3.066   1.693   5.293 -1.3767 -0.5103  1.4852
 9217TIP3    H227616   3.160   1.611   5.378 -0.8329 -0.4624  0.9446
 9218TIP3   OH227617   3.979   1.367   1.251  0.4265 -0.4970 -0.1791
 9218TIP3    H127618   4.040   1.310   1.299 -0.4043 -0.2132  1.2889
 9218TIP3    H227619   4.035   1.433   1.211  1.1827 -0.8090  0.3395
 9219TIP3   OH227620   7.109   2.728   0.799  0.1687  0.3604 -0.3531
 9219TIP3    H127621   7.052   2.652   0.815  0.9115  0.1157  1.4152
 9219TIP3    H227622   7.124   2.765   0.886  0.8823  1.7808 -1.0403
 9220TIP3   OH227623   3.060   4.332   2.015  0.5015 -0.4590 -0.3647
 9220TIP3    H127624   3.131   4.352   1.954  0.1477 -1.0482 -0.9776
 9220TIP3    H227625   3.065   4.401   2.081  3.0307 -1.6105  0.8159
 9221TIP3   OH227626   0.451   3.987   0.062  0.3677  0.6363 -0.3506
 9221TIP3    H127627   0.378   3.957   0.007 -1.1519  0.5632  1.5883
 9221TIP3    H227628   0.452   4.082   0.050  0.7720  0.5171 -1.3273
 9222TIP3   OH227629   2.890   4.504   4.394  0.1088 -0.4330 -0.1048
 9222TIP3    H127630   2.980   4.491   4.427  1.5248  1.7940 -2.6721
 9222TIP3    H227631   2.871   4.596   4.413 -0.3961 -0.0554 -2.1922
 9223TIP3   OH227632   0.658   0.526   3.267  0.5208 -0.2535 -0.1007
 9223TIP3    H127633   0.679   0.477   3.188  2.1594  0.8421 -0.3911
 9223TIP3    H227634   0.600   0.597   3.236  0.0216 -0.6379 -0.0628
 9224TIP3   OH227635   7.146   0.981   0.090  0.1267  0.5051 -0.0931
 9224TIP3    H127636   7.077   0.975   0.156 -0.0151 -1.2449 -0.3703
 9224TIP3    H227637   7.193   1.062   0.112 -1.8139  1.6098  0.2649
 9225TIP3   OH227638   1.909   0.134   0.601 -0.0660 -0.1938  0.5232
 9225TIP3    H127639   1.993   0.088   0.601  0.6220  0.9925 -1.0630
 9225TIP3    H227640   1.873   0.118   0.514 -1.4386 -0.5601  1.1362
 9226TIP3   OH227641   5.684   4.123   1.177  0.0809 -0.1635  0.3469
 9226TIP3    H127642   5.654   4.044   1.134  0.0099  0.6535 -1.1707
 9226TIP3    H227643   5.779   4.113   1.183  0.2146  0.1695 -0.9985
 9227TIP3   OH227644   6.058   2.163   5.603  0.2218  0.1406  0.7588
 9227TIP3    H127645   6.006   2.084   5.589  0.4042 -0.1141  1.4772
 9227TIP3    H227646   6.084   2.191   5.515 -1.5646  0.5841  0.3400
 9228TIP3   OH227647   6.406   5.128   4.005  0.2043 -0.3190 -0.0185
 9228TIP3    H127648   6.411   5.166   4.093 -1.0459  0.8405 -0.4186
 9228TIP3    H227649   6.487   5.079   3.996  0.8288  0.3880  1.4089
 9229TIP3   OH227650   5.651   6.582   1.931  0.0383  0.0782  0.1570
 9229TIP3    H127651   5.663   6.519   2.003 -0.0853 -0.5090 -0.3328
 9229TIP3    H227652   5.732   6.575   1.880  0.5314  1.1701  0.7359
 9230TIP3   OH227653   2.032   0.158   1.332 -0.2052 -0.5932  0.1052
 9230TIP3    H127654   2.023   0.243   1.289  0.6139 -1.0527 -1.0154
 9230TIP3    H227655   1.942   0.132   1.354 -0.4876  0.4088  0.1675
 9231TIP3   OH227656   1.563   6.756   2.118 -0.3195  0.2322 -0.0528
 9231TIP3    H127657   1.469   6.751   2.138 -0.9693  0.4809 -2.6470
 9231TIP3    H227658   1.579   6.850   2.103  0.4383  0.2346  0.7174
 9232TIP3   OH227659   2.352   2.193   4.588 -0.7564 -0.5135 -0.1676
 9232TIP3    H127660   2.366   2.116   4.533 -2.1401 -0.8495 -0.0889
 9232TIP3    H227661   2.420   2.187   4.656 -0.3518 -1.2226 -0.6235
 9233TIP3   OH227662   3.480   2.686   3.800 -0.0641 -0.1061 -0.3231
 9233TIP3    H127663   3.550   2.621   3.803  0.9158  0.9065 -0.9636
 9233TIP3    H227664   3.420   2.653   3.733  0.2693 -0.4975 -0.4352
 9234TIP3   OH227665   2.248   6.423   1.105  0.3612 -0.0472 -0.3707
 9234TIP3    H127666   2.268   6.339   1.147 -0.3995 -0.8299 -1.5164
 9234TIP3    H227667   2.192   6.469   1.169  3.0901  0.8843  1.5262
 9235TIP3   OH227668   4.951   0.573   1.223 -0.2368 -0.5381 -0.2622
 9235TIP3    H127669   5.031   0.562   1.172 -1.0150 -0.6230 -1.5222
 9235TIP3    H227670   4.914   0.485   1.229 -0.0030 -0.5757  0.7323
 9236TIP3   OH227671   4.421   0.200   5.151  0.0692 -0.2252 -0.2099
 9236TIP3    H127672   4.441   0.294   5.153  0.7421 -0.2729  4.3791
 9236TIP3    H227673   4.337   0.192   5.195  0.1207 -1.8304 -0.3453
 9237TIP3   OH227674   5.371   2.035   3.463  0.1039 -0.0928  0.4604
 9237TIP3    H127675   5.294   2.061   3.513 -0.0808  3.5778 -1.3879
 9237TIP3    H227676   5.445   2.066   3.516  0.1404 -0.4100  0.5959
 9238TIP3   OH227677   5.632   1.863   3.872  0.0135  0.3203 -0.1552
 9238TIP3    H127678   5.583   1.803   3.927 -0.6288  1.1636  0.2120
 9238TIP3    H227679   5.581   1.944   3.872  0.0045  0.3437 -1.9999
 9239TIP3   OH227680   4.521   1.790   1.951  0.1619 -0.3985  0.1684
 9239TIP3    H127681   4.437   1.756   1.921 -0.1100  0.0244  0.4341
 9239TIP3    H227682   4.526   1.764   2.043 -1.2673  2.4489  1.1792
 9240TIP3   OH227683   3.851   5.056   3.340 -0.0568  0.0030  0.6911
 9240TIP3    H127684   3.802   5.134   3.316 -0.4313 -0.2180  0.7242
 9240TIP3    H227685   3.859   5.061   3.435  1.6207  0.9941  0.5454
 9241TIP3   OH227686   4.492   0.628   5.688  0.0844  0.0085  0.0462
 9241TIP3    H127687   4.493   0.540   5.727 -0.1308  0.5185  1.2389
 9241TIP3    H227688   4.513   0.687   5.760  1.0290  0.8898 -0.9117
 9242TIP3   OH227689   0.959   1.243   1.554 -0.3188  0.2497  0.4166
 9242TIP3    H127690   0.918   1.171   1.601  0.5137 -0.0858  0.6604
 9242TIP3    H227691   0.887   1.289   1.512 -0.7444 -1.7646 -1.2091
 9243TIP3   OH227692   3.411   4.964   4.825 -0.3358  0.3438  0.3164
 9243TIP3    H127693   3.454   4.898   4.769 -2.2275 -0.9052  0.2233
 9243TIP3    H227694   3.441   4.944   4.913 -1.0236 -0.8095  0.3101
 9244TIP3   OH227695   3.003   1.212   3.537  0.3348 -0.2712 -0.0354
 9244TIP3    H127696   3.053   1.216   3.619  0.3361  0.6436 -0.0613
 9244TIP3    H227697   2.922   1.260   3.556  0.6076  0.4994 -0.7323
 9245TIP3   OH227698   5.824   5.057   0.829  0.5614 -0.0065 -0.6977
 9245TIP3    H127699   5.843   5.088   0.740  1.5402  1.1517 -0.1100
 9245TIP3    H227700   5.783   5.132   0.872  1.2321 -0.1327  0.1946
 9246TIP3   OH227701   5.728   6.672   4.135 -0.1130 -0.0411  0.0630
 9246TIP3    H127702   5.666   6.637   4.072  0.3147 -0.2927 -0.2225
 9246TIP3    H227703   5.810   6.627   4.115 -0.5185 -2.0445  2.3944
 9247TIP3   OH227704   3.014   4.985   1.839  0.3492 -0.8938  0.2795
 9247TIP3    H127705   3.027   4.999   1.745  0.1822  0.8802  0.4782
 9247TIP3    H227706   3.053   5.062   1.880  0.9404 -1.9142  1.7282
 9248TIP3   OH227707   0.051   3.210   0.185  0.3910 -0.0139  0.1633
 9248TIP3    H127708   0.081   3.268   0.255  0.3138  0.3851 -0.1311
 9248TIP3    H227709  -0.044   3.219   0.186  0.3234 -0.7331  0.6285
 9249TIP3   OH227710   0.289   6.155   4.729 -0.1643 -0.6048 -0.0766
 9249TIP3    H127711   0.206   6.194   4.756 -1.3829 -1.7229 -1.9366
 9249TIP3    H227712   0.286   6.066   4.764  1.1225 -0.1087  1.3952
 9250TIP3   OH227713   4.569   6.449   5.085 -0.0090 -0.3013 -0.5223
 9250TIP3    H127714   4.488   6.398   5.086 -0.4159  0.3225 -0.9266
 9250TIP3    H227715   4.574   6.489   5.171  1.3194 -2.5350  0.5275
 9251TIP3   OH227716   1.145   0.073   4.229  0.2604  0.5595 -0.0878
 9251TIP3    H127717   1.173   0.042   4.143  0.2066  1.6943 -0.5339
 9251TIP3    H227718   1.193   0.155   4.241 -0.7533  1.1069  0.3628
 9252TIP3   OH227719   1.460   1.892   3.141 -0.2370  0.0024 -0.5555
 9252TIP3    H127720   1.520   1.967   3.138 -1.3686  1.0947  1.6186
 9252TIP3    H227721   1.491   1.840   3.215 -0.7479 -0.5265 -0.7124
 9253TIP3   OH227722   4.927   0.106   3.467 -0.3371  0.0316 -0.6013
 9253TIP3    H127723   4.846   0.067   3.501  0.4542  0.6453  2.2120
 9253TIP3    H227724   4.898   0.187   3.424 -1.2390  0.1909  0.2664
 9254TIP3   OH227725   5.723   1.613   1.751 -0.3146 -0.1467  0.1169
 9254TIP3    H127726   5.693   1.692   1.706  0.0020  0.7302  1.4116
 9254TIP3    H227727   5.727   1.547   1.682 -0.5251  0.9733 -1.0052
 9255TIP3   OH227728   5.564   1.283   3.803 -0.0437 -0.4828 -0.2098
 9255TIP3    H127729   5.595   1.228   3.731  1.0461 -0.5055  0.2514
 9255TIP3    H227730   5.503   1.228   3.852 -0.5300 -0.5795 -0.9137
 9256TIP3   OH227731   5.195   6.320   0.899 -0.7653  0.1590 -0.0078
 9256TIP3    H127732   5.161   6.387   0.841 -0.1598 -0.8416 -1.5743
 9256TIP3    H227733   5.279   6.355   0.931 -0.9034  0.5402 -0.0641
 9257TIP3   OH227734   4.176   4.041   4.635  0.3304 -0.1892  0.1535
 9257TIP3    H127735   4.112   4.064   4.703  0.7262  1.1172  0.1201
 9257TIP3    H227736   4.237   3.981   4.679  0.1996  0.1119  0.7636
 9258TIP3   OH227737   3.484   2.484   0.950  0.3679  0.0455  0.2932
 9258TIP3    H127738   3.508   2.400   0.913  1.0922  0.4300 -0.1293
 9258TIP3    H227739   3.406   2.511   0.901 -1.7588 -1.7239  2.4249
 9259TIP3   OH227740   3.562   1.182   1.912 -0.3219  0.1758 -0.0094
 9259TIP3    H127741   3.633   1.124   1.939  0.1185 -0.5729 -2.5488
 9259TIP3    H227742   3.597   1.230   1.837 -1.6294  1.7328  0.3235
 9260TIP3   OH227743   5.731   2.357   1.078 -0.1655 -0.5932 -0.6001
 9260TIP3    H127744   5.808   2.362   1.135 -1.2320 -1.2878  0.9657
 9260TIP3    H227745   5.734   2.438   1.027  0.6156  0.2741  0.7589
 9261TIP3   OH227746   4.955   6.553   5.816  0.1622 -0.2840 -0.1920
 9261TIP3    H127747   4.974   6.574   5.724 -0.8267 -2.0568 -0.8635
 9261TIP3    H227748   4.934   6.637   5.856  0.1985  0.4847 -1.7002
 9262TIP3   OH227749   0.288   5.401   0.653  0.5412  0.2063 -0.1644
 9262TIP3    H127750   0.380   5.384   0.632  0.8091  0.6352  0.6100
 9262TIP3    H227751   0.279   5.496   0.646 -0.5247 -0.0152 -2.8361
 9263TIP3   OH227752   4.088   0.565   3.910 -0.4541  0.2492  0.1096
 9263TIP3    H127753   4.107   0.602   3.996  0.2147  0.7608 -0.2530
 9263TIP3    H227754   4.016   0.619   3.876 -0.9679 -0.1840  0.4907
 9264TIP3   OH227755   7.125   3.203   3.399  0.2916  0.2262  0.5950
 9264TIP3    H127756   7.055   3.139   3.411  1.7265 -1.1708  2.0925
 9264TIP3    H227757   7.114   3.264   3.472 -0.1782  0.8364  0.0247
 9265TIP3   OH227758   4.175   5.977   4.082  0.0289  0.2615 -0.2978
 9265TIP3    H127759   4.197   5.892   4.119  1.7613  1.0336  0.5227
 9265TIP3    H227760   4.156   5.959   3.990 -0.2314 -1.0757 -0.0010
 9266TIP3   OH227761   4.324   3.575   5.467 -0.1966 -0.1917 -0.0920
 9266TIP3    H127762   4.277   3.640   5.415 -2.2043 -2.8382 -1.9105
 9266TIP3    H227763   4.276   3.572   5.550  1.3179  2.1056  0.9620
 9267TIP3   OH227764   4.470   4.794   3.872  0.0212 -0.4198 -0.0442
 9267TIP3    H127765   4.442   4.799   3.964  1.9389  0.6008  0.5336
 9267TIP3    H227766   4.431   4.871   3.831 -1.5353 -1.3109 -0.3583
 9268TIP3   OH227767   6.038   0.349   2.357 -0.0169 -0.5569  0.0047
 9268TIP3    H127768   6.045   0.257   2.382  0.6913  0.1090  2.4937
 9268TIP3    H227769   6.116   0.391   2.394 -0.5641  1.1365 -0.6543
 9269TIP3   OH227770   0.080   3.556   3.081  0.4620  0.2297 -0.0668
 9269TIP3    H127771   0.007   3.619   3.084 -0.7069 -0.9949 -1.4298
 9269TIP3    H227772   0.044   3.477   3.121  1.7191  0.1912  1.0543
 9270TIP3   OH227773   3.944   2.551   2.430 -0.0080  0.6345  0.5258
 9270TIP3    H127774   3.958   2.640   2.397 -0.2999  0.9039  1.1053
 9270TIP3    H227775   4.032   2.513   2.434  0.0910  0.7991  0.0145
 9271TIP3   OH227776   0.043   4.746   2.772 -0.1832  0.2972  0.7484
 9271TIP3    H127777   0.016   4.690   2.844  0.1795 -0.7665  0.0795
 9271TIP3    H227778  -0.031   4.804   2.756 -0.6101 -0.0776  1.3673
 9272TIP3   OH227779   2.690   4.159   5.406  0.5272  0.1205  0.1696
 9272TIP3    H127780   2.745   4.233   5.379  0.4382 -0.1035 -0.6333
 9272TIP3    H227781   2.747   4.083   5.399  0.5708  0.0815  0.8452
 9273TIP3   OH227782   4.857   1.628   2.132  0.1081  0.0785 -0.4255
 9273TIP3    H127783   4.853   1.683   2.053  1.6740  1.8224  0.6377
 9273TIP3    H227784   4.950   1.615   2.148 -0.2034 -1.8397  0.1464
 9274TIP3   OH227785   5.113   6.159   3.204 -0.2309  0.3118  0.0246
 9274TIP3    H127786   5.053   6.146   3.131 -0.9333  0.2723  0.5910
 9274TIP3    H227787   5.157   6.074   3.214  0.6254  0.6209 -0.9935
 9275TIP3   OH227788   5.001   1.241   2.673 -0.1304 -0.1268 -0.7704
 9275TIP3    H127789   5.037   1.174   2.616 -0.8521 -0.1348 -1.2269
 9275TIP3    H227790   5.048   1.230   2.756 -0.1480 -1.1152 -0.8781
 9276TIP3   OH227791   2.863   2.386   2.689 -0.8018  0.0991 -0.1747
 9276TIP3    H127792   2.936   2.376   2.751  0.1436 -0.8985 -1.3975
 9276TIP3    H227793   2.901   2.431   2.614 -1.7279  0.5535 -0.3781
 9277TIP3   OH227794   6.536   3.047   2.446 -0.5005 -0.0331  0.4328
 9277TIP3    H127795   6.586   2.970   2.418  2.6294  0.5196  3.8187
 9277TIP3    H227796   6.579   3.120   2.402 -0.5787  0.1633  0.6848
 9278TIP3   OH227797   7.024   5.447   1.428 -0.4292  0.0997  0.1588
 9278TIP3    H127798   6.930   5.433   1.435 -0.1260 -1.6014  1.7145
 9278TIP3    H227799   7.060   5.361   1.404  0.7154  0.7944 -0.7442
 9279TIP3   OH227800   2.322   4.088   2.054  0.3843 -0.6718 -0.5518
 9279TIP3    H127801   2.311   4.009   2.106 -1.8755 -1.2374 -1.7055
 9279TIP3    H227802   2.348   4.056   1.967  1.6470  0.0521 -0.4613
 9280TIP3   OH227803   6.418   3.258   0.099 -0.1460 -0.8435 -0.1586
 9280TIP3    H127804   6.390   3.320   0.032  0.8373 -1.1720 -0.8882
 9280TIP3    H227805   6.508   3.285   0.121 -0.7932 -0.1083  1.7716
 9281TIP3   OH227806   5.090   4.604   1.797  0.5914  0.5049  0.4160
 9281TIP3    H127807   5.024   4.586   1.729  1.3143  2.9938 -1.0776
 9281TIP3    H227808   5.129   4.519   1.815 -1.9270 -0.8001  0.2087
 9282TIP3   OH227809   4.761   6.573   3.460 -0.0866 -0.0973 -0.2948
 9282TIP3    H127810   4.689   6.631   3.486 -0.0651 -0.6939  1.1407
 9282TIP3    H227811   4.767   6.585   3.365  0.0398  2.3910 -0.0569
 9283TIP3   OH227812   4.437   3.105   1.258  0.0498  0.1608  0.1547
 9283TIP3    H127813   4.446   3.154   1.341  0.7624  1.1326 -0.4759
 9283TIP3    H227814   4.394   3.023   1.283  1.5635 -0.2089  1.7238
 9284TIP3   OH227815   3.869   5.128   3.612 -0.3790  0.2314 -0.8650
 9284TIP3    H127816   3.926   5.143   3.688 -1.4947 -0.6000  0.1752
 9284TIP3    H227817   3.809   5.202   3.612 -0.5019  0.1318 -0.8201
 9285TIP3   OH227818   5.024   1.978   4.795 -0.0621  0.0064 -0.6851
 9285TIP3    H127819   5.107   2.004   4.835  0.1168  0.8862 -1.5951
 9285TIP3    H227820   4.998   1.899   4.843 -0.7152  1.9091  2.3464
 9286TIP3   OH227821   4.942   4.946   4.848 -0.1849 -0.8983 -0.9206
 9286TIP3    H127822   4.931   4.907   4.761 -1.7298 -0.2620 -1.0519
 9286TIP3    H227823   4.933   4.872   4.908  0.8176 -1.3293 -1.2832
 9287TIP3   OH227824   3.629   0.274   3.775  0.7830 -0.0284  0.2223
 9287TIP3    H127825   3.557   0.278   3.837 -0.0815  2.0802 -0.8404
 9287TIP3    H227826   3.699   0.326   3.815  0.1961  1.4017 -0.5484
 9288TIP3   OH227827   2.865   5.250   3.291 -0.1612 -0.1152 -0.2652
 9288TIP3    H127828   2.952   5.236   3.328 -0.6665  0.7440  1.3449
 9288TIP3    H227829   2.879   5.312   3.219  0.4887  0.5843  0.4389
 9289TIP3   OH227830   2.090   2.015   5.527 -0.2032  0.5166  0.0184
 9289TIP3    H127831   2.019   1.991   5.587  2.1946 -2.9778  1.8474
 9289TIP3    H227832   2.080   1.954   5.453  0.3962  0.5754 -0.1111
 9290TIP3   OH227833   4.705   0.173   2.926 -0.5371 -0.0144 -0.0903
 9290TIP3    H127834   4.624   0.167   2.874  0.8049  1.4603 -2.5693
 9290TIP3    H227835   4.679   0.222   3.004 -1.9228  1.1657 -1.2163
 9291TIP3   OH227836   3.007   5.361   4.827  0.0319 -0.2366  0.2882
 9291TIP3    H127837   3.058   5.367   4.746  1.0815  1.9107  1.0350
 9291TIP3    H227838   2.942   5.431   4.819 -1.1900 -1.3185  0.4577
 9292TIP3   OH227839   3.615   2.131   1.486  0.0243 -0.4538  0.1241
 9292TIP3    H127840   3.666   2.111   1.565  0.3061  0.4497  0.1883
 9292TIP3    H227841   3.539   2.180   1.519 -0.6175 -1.3248 -0.0272
 9293TIP3   OH227842   1.536   4.306   4.043 -0.0752 -0.0084  0.1033
 9293TIP3    H127843   1.515   4.267   3.959  2.3834  0.0491 -0.6255
 9293TIP3    H227844   1.631   4.313   4.043 -0.1093  1.5123  2.2202
 9294TIP3   OH227845   7.038   5.103   1.646 -0.4721 -0.0740 -0.2646
 9294TIP3    H127846   6.979   5.129   1.716  0.3978  0.6867  0.2193
 9294TIP3    H227847   6.996   5.027   1.605 -1.2050 -0.2599  0.7956
 9295TIP3   OH227848   1.662   3.321   4.719  0.5384 -0.1308  0.5878
 9295TIP3    H127849   1.745   3.285   4.686  0.2588 -1.9747  1.7385
 9295TIP3    H227850   1.615   3.348   4.641  1.3341 -1.0847 -0.2566
 9296TIP3   OH227851   4.396   2.222   3.124  0.3376  0.5348 -0.7094
 9296TIP3    H127852   4.390   2.229   3.220  1.1331 -0.0317 -0.6067
 9296TIP3    H227853   4.310   2.187   3.098  0.0749  0.7985 -0.2181
 9297TIP3   OH227854   2.679   0.354   1.558  0.0129 -0.1733  0.0950
 9297TIP3    H127855   2.680   0.438   1.605 -0.7812  1.0358 -1.8982
 9297TIP3    H227856   2.769   0.321   1.568  0.5434  1.2348  0.3861
 9298TIP3   OH227857   3.535   4.544   5.826  0.5438 -0.1014 -0.0447
 9298TIP3    H127858   3.543   4.630   5.785 -0.3101 -0.4589 -1.0135
 9298TIP3    H227859   3.566   4.557   5.915 -1.1338  1.6189  0.3493
 9299TIP3   OH227860   2.836   1.796   1.493  0.3895 -0.2894  0.1488
 9299TIP3    H127861   2.800   1.708   1.496 -0.4482  0.0316 -0.3967
 9299TIP3    H227862   2.893   1.801   1.570  0.4405 -1.2991  0.1839
 9300TIP3   OH227863   4.496   3.224   5.023 -0.4190  0.3072 -0.5356
 9300TIP3    H127864   4.477   3.146   5.076 -0.9694  0.0256 -1.1337
 9300TIP3    H227865   4.591   3.229   5.021 -0.3337  1.3821  2.0293
 9301TIP3   OH227866   2.820   3.268   1.260 -0.2634  0.7418  0.6815
 9301TIP3    H127867   2.730   3.237   1.251  0.3048 -0.6907 -0.5290
 9301TIP3    H227868   2.869   3.192   1.293  0.6388  1.2667  0.6017
 9302TIP3   OH227869   6.361   2.892   0.449 -0.2558  0.2843  0.3539
 9302TIP3    H127870   6.391   2.828   0.513  0.6263  1.1382  0.8189
 9302TIP3    H227871   6.311   2.841   0.386 -2.5605 -0.3682  2.5501
 9303TIP3   OH227872   1.132   1.549   1.266  0.2369 -0.0905 -0.2520
 9303TIP3    H127873   1.122   1.620   1.330 -0.2804 -0.4517  0.0699
 9303TIP3    H227874   1.049   1.547   1.219  1.2325  1.3682 -2.1970
 9304TIP3   OH227875   0.815   2.213   0.988 -0.7799 -0.1034 -0.5314
 9304TIP3    H127876   0.844   2.298   1.020  1.6822 -0.9849 -0.1878
 9304TIP3    H227877   0.895   2.160   0.985 -1.6980 -1.5610 -3.4923
 9305TIP3   OH227878   5.469   5.493   5.393 -0.1483 -0.3279  0.1063
 9305TIP3    H127879   5.552   5.513   5.437  0.3029  0.0655 -0.8926
 9305TIP3    H227880   5.451   5.402   5.418  0.6019 -0.4280  0.3274
 9306TIP3   OH227881   4.221   0.751   3.683 -0.4031 -0.3193 -0.2352
 9306TIP3    H127882   4.286   0.704   3.735  1.1234  0.9561 -0.9294
 9306TIP3    H227883   4.253   0.747   3.593 -1.9316 -0.6931 -0.8037
 9307TIP3   OH227884   4.813   6.320   4.484  0.3994 -0.1302  0.5999
 9307TIP3    H127885   4.858   6.387   4.535 -0.3298  0.5700  0.3251
 9307TIP3    H227886   4.816   6.242   4.540 -0.5416  0.6611  1.8072
 9308TIP3   OH227887   6.395   4.177   0.680 -0.2553 -0.2241 -0.0223
 9308TIP3    H127888   6.357   4.214   0.760  3.3128 -0.0069  1.7441
 9308TIP3    H227889   6.394   4.083   0.694  0.4273 -0.1830  0.3509
 9309TIP3   OH227890   0.601   5.200   0.396  0.2077 -0.1585 -0.7613
 9309TIP3    H127891   0.510   5.170   0.403 -0.2257  0.0632 -3.8700
 9309TIP3    H227892   0.599   5.290   0.431 -0.5748 -0.4056 -0.1176
 9310TIP3   OH227893   3.952   1.436   1.810 -0.3305  0.3388 -0.5481
 9310TIP3    H127894   3.923   1.346   1.819  0.9230 -0.1096 -0.7327
 9310TIP3    H227895   3.950   1.452   1.715 -2.0597  1.0537 -0.4232
 9311TIP3   OH227896   5.993   6.619   1.244  0.6431 -0.0560  0.2015
 9311TIP3    H127897   6.072   6.672   1.231  0.6300  0.0131  0.4010
 9311TIP3    H227898   5.935   6.644   1.172 -0.6041  2.4726  1.9182
 9312TIP3   OH227899   0.164   1.121   3.722  0.0464 -0.2722  0.1000
 9312TIP3    H127900   0.224   1.052   3.750 -0.4007 -0.2747  1.1106
 9312TIP3    H227901   0.077   1.083   3.734 -0.1775 -0.0253 -0.6914
 9313TIP3   OH227902   6.458   0.577   5.657  0.9999  0.2933  0.0945
 9313TIP3    H127903   6.366   0.590   5.634  1.3440  0.4933 -1.2272
 9313TIP3    H227904   6.487   0.662   5.690  0.2920 -0.2004  2.1840
 9314TIP3   OH227905   0.456   6.016   0.923 -0.2163  0.4593  0.3035
 9314TIP3    H127906   0.513   6.007   0.999  2.1363 -1.7315 -1.5568
 9314TIP3    H227907   0.391   5.946   0.932  2.3265 -2.3506 -1.3457
 9315TIP3   OH227908   4.773   4.029   1.730 -0.8974  0.1484  0.6111
 9315TIP3    H127909   4.722   3.974   1.671 -0.3201  0.6283 -0.3581
 9315TIP3    H227910   4.710   4.089   1.768 -0.8950  1.6773 -1.6440
 9316TIP3   OH227911   2.477   5.565   1.892 -0.2912 -0.0020  0.8960
 9316TIP3    H127912   2.572   5.577   1.884 -0.2607  0.0514  1.3471
 9316TIP3    H227913   2.465   5.528   1.979 -0.7982  1.1759  1.3297
 9317TIP3   OH227914   0.563   2.161   5.269  0.0277 -0.5013 -0.0916
 9317TIP3    H127915   0.640   2.172   5.324  0.3239 -1.6495 -0.2595
 9317TIP3    H227916   0.531   2.073   5.289 -0.3176 -0.6439 -1.1861
 9318TIP3   OH227917   5.025   2.879   2.155  0.0164 -0.4568 -0.5886
 9318TIP3    H127918   4.946   2.930   2.173 -1.0416 -1.5806 -1.8210
 9318TIP3    H227919   5.043   2.833   2.237 -0.1112  0.4146 -0.0500
 9319TIP3   OH227920   5.042   2.861   2.807  0.0230 -1.0158  0.9842
 9319TIP3    H127921   5.026   2.775   2.847 -1.1011 -1.8802 -1.1754
 9319TIP3    H227922   4.976   2.868   2.738  2.1633  0.1289 -1.0894
 9320TIP3   OH227923   2.367   0.916   1.895 -0.2663  0.6627 -0.0261
 9320TIP3    H127924   2.418   0.854   1.947 -1.6518  0.1255  0.7267
 9320TIP3    H227925   2.425   0.939   1.822  0.8312 -0.3599  0.4914
 9321TIP3   OH227926   0.956   5.049   1.345  0.1363  0.2979  0.2591
 9321TIP3    H127927   0.990   5.125   1.298 -0.6924 -0.5375 -1.8164
 9321TIP3    H227928   0.863   5.067   1.356  0.3420  0.5589  1.8213
 9322TIP3   OH227929   1.945   1.346   0.104  0.3775  0.0758  0.2314
 9322TIP3    H127930   1.985   1.315   0.023  1.1116 -0.5864  0.8237
 9322TIP3    H227931   1.892   1.420   0.078  0.1377 -0.4883 -0.9425
 9323TIP3   OH227932   0.716   1.008   5.755  0.7119  0.0922 -0.4258
 9323TIP3    H127933   0.739   1.099   5.771 -1.8697  0.6673  0.5115
 9323TIP3    H227934   0.622   1.003   5.775  0.8381 -2.8387 -0.1265
 9324TIP3   OH227935   4.677   4.932   5.138  0.3161  0.0487 -0.0303
 9324TIP3    H127936   4.768   4.954   5.158  0.4121  0.0864 -0.4877
 9324TIP3    H227937   4.626   4.982   5.201  0.5113  1.9969 -1.3419
 9325TIP3   OH227938   5.741   6.189   2.382  0.0718 -0.3168 -0.3901
 9325TIP3    H127939   5.714   6.205   2.472  0.4560 -1.6861 -0.0004
 9325TIP3    H227940   5.817   6.131   2.390 -0.3137 -1.0227 -1.6025
 9326TIP3   OH227941   6.580   1.209   3.470  0.0635 -0.4291  0.2809
 9326TIP3    H127942   6.507   1.165   3.427  0.4984  1.2107 -2.3828
 9326TIP3    H227943   6.542   1.251   3.547 -1.0098 -2.4978  0.9546
 9327TIP3   OH227944   0.385   2.420   2.553 -0.0420 -0.2110  0.4379
 9327TIP3    H127945   0.325   2.425   2.628  1.0936  0.6495  1.3213
 9327TIP3    H227946   0.330   2.440   2.477 -0.7349  1.4626  1.3147
 9328TIP3   OH227947   5.380   6.369   4.356  0.1617 -0.3771 -0.5469
 9328TIP3    H127948   5.427   6.447   4.385 -0.6121  0.3446 -1.1974
 9328TIP3    H227949   5.289   6.385   4.379  0.3615 -2.4419  2.1784
 9329TIP3   OH227950   1.367   3.669   3.779  0.5215 -0.4339 -0.4601
 9329TIP3    H127951   1.386   3.604   3.847 -0.6039  0.1460  0.4428
 9329TIP3    H227952   1.401   3.751   3.813  1.7395 -0.4777 -1.5009
 9330TIP3   OH227953   3.934   1.833   2.287 -0.2207 -0.1913  0.2985
 9330TIP3    H127954   3.868   1.868   2.347  1.5450  2.2391  0.9793
 9330TIP3    H227955   3.981   1.768   2.340 -0.5609 -0.2311  0.5572
 9331TIP3   OH227956   0.667   0.928   4.980  0.3783  0.1756 -0.3854
 9331TIP3    H127957   0.599   0.865   4.956 -0.3577  0.5881  0.5385
 9331TIP3    H227958   0.693   0.968   4.897 -0.6049  0.0962 -0.7497
 9332TIP3   OH227959   4.869   5.132   2.235  0.3905  0.1068 -0.7039
 9332TIP3    H127960   4.805   5.194   2.270  1.0923  1.4411 -1.6795
 9332TIP3    H227961   4.954   5.172   2.254  0.8593 -0.4934 -1.4765
 9333TIP3   OH227962   6.386   2.533   5.267 -0.2170  0.2602 -0.2071
 9333TIP3    H127963   6.318   2.516   5.334 -0.9571  0.5837 -0.8603
 9333TIP3    H227964   6.374   2.461   5.204 -0.9763  1.1514 -1.1131
 9334TIP3   OH227965   2.769   2.622   1.241 -0.0576  0.1578 -0.0983
 9334TIP3    H127966   2.715   2.581   1.309 -0.4994  0.7700 -0.0708
 9334TIP3    H227967   2.709   2.636   1.168  0.6068 -1.2458 -0.9459
 9335TIP3   OH227968   0.727   1.953   0.070  0.0217 -0.2851  0.0686
 9335TIP3    H127969   0.795   1.931   0.133  1.6479 -0.1926 -1.5719
 9335TIP3    H227970   0.670   1.876   0.069  0.6229 -0.7557  0.7960
 9336TIP3   OH227971   1.473   1.290   4.029  0.4908  0.3735 -0.6645
 9336TIP3    H127972   1.404   1.278   3.965 -0.1316  0.7301 -0.0768
 9336TIP3    H227973   1.544   1.334   3.982 -1.2228  3.7424 -0.3840
 9337TIP3   OH227974   5.384   2.241   2.682 -1.1374 -0.0793 -0.3840
 9337TIP3    H127975   5.318   2.196   2.736 -0.1218 -0.9616  0.1600
 9337TIP3    H227976   5.436   2.170   2.644 -0.0337  0.6129 -0.1988
 9338TIP3   OH227977   0.739   0.593   5.115 -0.3716  0.8488  0.0401
 9338TIP3    H127978   0.755   0.569   5.024  0.9850  1.1860  0.1655
 9338TIP3    H227979   0.825   0.588   5.156 -0.3005  4.0338  0.5003
 9339TIP3   OH227980   2.373   3.805   3.778  0.7705  0.0146  0.5237
 9339TIP3    H127981   2.360   3.722   3.732  1.8365  0.7206 -1.1342
 9339TIP3    H227982   2.355   3.784   3.870 -0.2063 -1.7438 -0.0154
 9340TIP3   OH227983   2.169   0.035   3.081  0.0688 -0.1034  0.2307
 9340TIP3    H127984   2.201   0.002   3.165  0.4820  0.8585  0.4594
 9340TIP3    H227985   2.246   0.036   3.024 -0.2831 -1.1229 -0.2991
 9341TIP3   OH227986   2.162   4.674   5.047  0.3000  0.0923 -0.0748
 9341TIP3    H127987   2.105   4.618   4.993 -1.3191 -0.4011  2.0061
 9341TIP3    H227988   2.250   4.643   5.029  0.3946  2.2759 -5.1079
 9342TIP3   OH227989   2.975   2.371   4.168 -0.2383 -0.8066  0.1521
 9342TIP3    H127990   3.017   2.286   4.178 -0.7407 -1.1587 -0.6107
 9342TIP3    H227991   2.942   2.393   4.255  3.5638  0.6186  1.4518
 9343TIP3   OH227992   1.296   6.630   2.229 -0.0292  0.4836 -0.3951
 9343TIP3    H127993   1.255   6.566   2.171  1.0631  0.9700 -1.7439
 9343TIP3    H227994   1.278   6.715   2.189 -0.0966  0.9142  0.5166
 9344TIP3   OH227995   1.744   4.555   3.154 -0.4595 -0.4311  0.0431
 9344TIP3    H127996   1.749   4.474   3.103 -1.1397 -0.8638  0.6405
 9344TIP3    H227997   1.834   4.586   3.159  0.2093 -2.4171  1.8073
 9345TIP3   OH227998   3.311   4.171   0.436  0.0055  0.2635 -0.0075
 9345TIP3    H127999   3.331   4.204   0.524 -0.3621  0.7020 -0.0854
 9345TIP3    H228000   3.326   4.077   0.442  1.9188  0.5385 -0.0214
 9346TIP3   OH228001   6.053   2.747   5.450 -0.0517 -0.7923  0.3398
 9346TIP3    H128002   5.990   2.695   5.500 -0.4871 -1.8462 -1.2205
 9346TIP3    H228003   6.124   2.686   5.431 -0.1867 -0.6047 -0.8264
 9347TIP3   OH228004   5.371   2.347   1.666  0.6929  0.0543 -0.0408
 9347TIP3    H128005   5.459   2.380   1.683  1.2337  0.2813 -2.8284
 9347TIP3    H228006   5.347   2.383   1.581 -1.7556 -0.7388  0.2175
 9348TIP3   OH228007   2.661   3.493   2.504 -0.5244 -0.6299 -0.2647
 9348TIP3    H128008   2.681   3.504   2.597 -0.1341  0.1233 -0.4342
 9348TIP3    H228009   2.661   3.581   2.468 -1.4062 -0.8452 -0.8436
 9349TIP3   OH228010   1.219   0.539   5.580 -0.3739  0.2842 -0.3960
 9349TIP3    H128011   1.189   0.458   5.538 -0.6862  1.0139 -1.6615
 9349TIP3    H228012   1.307   0.519   5.611 -1.1209 -1.0761  0.9391
 9350TIP3   OH228013   5.893   4.807   0.814 -0.1716  0.0500  0.7503
 9350TIP3    H128014   5.816   4.758   0.844  0.5566 -0.7158  1.4176
 9350TIP3    H228015   5.865   4.898   0.814 -0.9983 -0.1950  1.2290
 9351TIP3   OH228016   7.097   0.306   4.692 -0.3107  0.0579 -0.3461
 9351TIP3    H128017   7.104   0.308   4.788 -0.3129  0.4848 -0.3564
 9351TIP3    H228018   7.104   0.397   4.665  0.7608 -0.1613 -0.8324
 9352TIP3   OH228019   4.560   1.126   0.829 -0.2193  0.0290 -0.0928
 9352TIP3    H128020   4.594   1.056   0.885 -1.1916 -0.7854 -0.4982
 9352TIP3    H228021   4.469   1.102   0.813 -0.9303  2.0498  0.7675
 9353TIP3   OH228022   3.939   5.540   5.201  0.0417  0.0397 -0.6204
 9353TIP3    H128023   3.925   5.446   5.213  1.3885  0.0459  1.7529
 9353TIP3    H228024   4.031   5.548   5.178 -0.0749  0.7849 -0.8615
 9354TIP3   OH228025   3.819   3.470   4.396  0.3123 -0.0343  0.2708
 9354TIP3    H128026   3.841   3.541   4.456  0.7349  0.2230 -0.1833
 9354TIP3    H228027   3.726   3.454   4.412 -0.3626  2.0500 -1.0472
 9355TIP3   OH228028   4.507   3.181   0.089 -0.4301 -0.6671 -0.1028
 9355TIP3    H128029   4.500   3.093   0.053  0.2945 -0.9535  0.4316
 9355TIP3    H228030   4.417   3.206   0.109 -0.5430 -1.7812  0.8977
 9356TIP3   OH228031   1.518   0.303   3.253  0.0364  0.6603 -0.4468
 9356TIP3    H128032   1.595   0.360   3.245  0.1277  0.7506  0.8432
 9356TIP3    H228033   1.444   0.362   3.240  0.1587  0.6743 -1.1466
 9357TIP3   OH228034   0.120   6.449   2.283 -0.1505 -0.2059  0.1446
 9357TIP3    H128035   0.211   6.463   2.309  0.3545  0.9543 -2.0482
 9357TIP3    H228036   0.108   6.354   2.291  1.4026 -0.4400  0.0048
 9358TIP3   OH228037   3.188   0.670   5.127 -0.2870  0.7276 -0.5574
 9358TIP3    H128038   3.150   0.724   5.058 -1.4213 -0.3994 -0.8307
 9358TIP3    H228039   3.282   0.672   5.109 -0.5279  0.7862 -1.8753
 9359TIP3   OH228040   0.804   4.565   0.138 -0.0008  0.4063  0.2274
 9359TIP3    H128041   0.790   4.550   0.045  2.9397 -0.9964 -0.1067
 9359TIP3    H228042   0.744   4.505   0.182  1.3724 -1.9233 -0.9115
 9360TIP3   OH228043   6.654   3.159   1.010  0.5279 -0.3462  0.0975
 9360TIP3    H128044   6.676   3.163   0.917  1.2475  2.4075  0.3275
 9360TIP3    H228045   6.568   3.116   1.012  1.3848 -2.2908 -1.6184
 9361TIP3   OH228046   0.356   2.002   2.406  0.0418 -0.0940 -0.6250
 9361TIP3    H128047   0.302   2.027   2.332  0.6373 -0.0914 -1.0680
 9361TIP3    H228048   0.295   1.966   2.470 -0.5736  0.6488 -0.7883
 9362TIP3   OH228049   6.786   0.402   2.417  0.1196 -0.2451 -0.3351
 9362TIP3    H128050   6.798   0.362   2.331  2.3091 -1.7262  0.5728
 9362TIP3    H228051   6.826   0.489   2.410 -2.9390  1.1930 -1.7594
 9363TIP3   OH228052   0.421   1.108   5.402  0.3351 -0.4421  0.2050
 9363TIP3    H128053   0.399   1.060   5.323  0.4316  2.3648 -1.6860
 9363TIP3    H228054   0.490   1.169   5.375 -0.1820  1.1740  2.2260
 9364TIP3   OH228055   4.818   3.828   1.430 -0.3884 -0.5736  0.0237
 9364TIP3    H128056   4.744   3.791   1.381 -0.2422 -0.9649  0.0947
 9364TIP3    H228057   4.890   3.767   1.414 -0.2687 -0.5624  0.5063
 9365TIP3   OH228058   0.399   6.724   2.953 -0.4647 -0.3193  0.2100
 9365TIP3    H128059   0.312   6.716   2.993 -1.1418  0.6394 -0.9600
 9365TIP3    H228060   0.381   6.754   2.864  1.0867  0.0103 -0.0242
 9366TIP3   OH228061   4.673   2.397   2.536  0.6311  0.4130  0.1034
 9366TIP3    H128062   4.685   2.437   2.621  1.0815  0.8187 -0.1463
 9366TIP3    H228063   4.677   2.470   2.474 -0.1450  0.1823 -0.2308
 9367TIP3   OH228064   1.645   0.450   1.672 -0.2456  0.1794 -0.5115
 9367TIP3    H128065   1.673   0.446   1.581  1.2593 -1.4888 -0.0295
 9367TIP3    H228066   1.565   0.397   1.676  1.5050 -2.6013 -0.3124
 9368TIP3   OH228067   6.734   5.146   0.129  0.3463 -0.2420  0.6924
 9368TIP3    H128068   6.804   5.117   0.070  0.6814 -0.1245  1.0221
 9368TIP3    H228069   6.781   5.181   0.205 -0.0531 -2.0902  1.8669
 9369TIP3   OH228070   3.667   4.099   2.455 -0.4512  0.3476  0.2351
 9369TIP3    H128071   3.572   4.099   2.450 -0.4856 -3.1221 -2.4272
 9369TIP3    H228072   3.691   4.007   2.470  2.5254  1.1829  1.4452
 9370TIP3   OH228073   0.024   0.009   4.647  0.3297  0.0314 -0.0948
 9370TIP3    H128074   0.061   0.058   4.720  1.1760 -1.1086  0.2646
 9370TIP3    H228075  -0.067  -0.007   4.672  0.8781 -1.2538  1.2336
 9371TIP3   OH228076   0.934   5.496   0.384  0.6468 -0.1506  0.4095
 9371TIP3    H128077   0.965   5.585   0.402  0.8344 -0.5578  2.2616
 9371TIP3    H228078   0.893   5.467   0.466 -2.8479 -0.4242 -1.2353
 9372TIP3   OH228079   2.770   4.806   5.202  0.1746 -0.4086  0.6174
 9372TIP3    H128080   2.688   4.816   5.250 -0.1553 -0.4667  0.0824
 9372TIP3    H228081   2.766   4.717   5.166  0.2220 -0.2172  0.1334
 9373TIP3   OH228082   5.221   6.049   2.811 -0.1530 -0.5720  0.6259
 9373TIP3    H128083   5.157   6.086   2.750  0.7264  0.4279  0.2877
 9373TIP3    H228084   5.207   5.954   2.805 -0.5974 -0.4473 -0.5577
 9374TIP3   OH228085   5.284   5.386   5.154 -0.6256  1.4394  0.1688
 9374TIP3    H128086   5.240   5.318   5.205  0.9588 -0.1863 -0.5180
 9374TIP3    H228087   5.369   5.395   5.196 -0.0238  1.4552 -1.0147
 9375TIP3   OH228088   3.742   4.812   3.333  0.0228 -0.4116  0.6160
 9375TIP3    H128089   3.759   4.784   3.423  1.0329  0.3946  0.7025
 9375TIP3    H228090   3.795   4.891   3.323 -0.6459 -0.0797 -0.4609
 9376TIP3   OH228091   5.603   1.156   2.899  0.8831 -0.2697 -0.5140
 9376TIP3    H128092   5.658   1.077   2.899  1.9814  0.4544  0.4670
 9376TIP3    H228093   5.664   1.227   2.917  0.0556  0.9451 -2.2024
 9377TIP3   OH228094   4.094   5.533   1.785 -0.0412 -0.2159  0.2100
 9377TIP3    H128095   4.185   5.551   1.764 -0.1714 -0.8086 -0.9539
 9377TIP3    H228096   4.097   5.490   1.871  0.8647 -1.0154 -0.1977
 9378TIP3   OH228097   0.654   0.267   3.386 -0.3146 -0.1646 -0.6172
 9378TIP3    H128098   0.599   0.191   3.370 -0.6477 -0.7632  2.6307
 9378TIP3    H228099   0.669   0.305   3.300 -1.2039 -3.1452 -2.2235
 9379TIP3   OH228100   1.655   2.383   5.886 -0.2468 -0.3805 -0.7309
 9379TIP3    H128101   1.725   2.390   5.820  1.1111  0.9027  0.7710
 9379TIP3    H228102   1.661   2.293   5.918  1.8742  0.1515  0.5355
 9380TIP3   OH228103   2.615   0.995   4.364  0.1171  0.5737  0.0529
 9380TIP3    H128104   2.697   1.044   4.373  1.1938 -1.4395  2.4428
 9380TIP3    H228105   2.621   0.955   4.277  1.0997  1.3755 -0.2751
 9381TIP3   OH228106   2.185   1.257   5.858 -0.5213 -0.0828 -0.3753
 9381TIP3    H128107   2.240   1.179   5.864  0.3869  0.5508 -0.3180
 9381TIP3    H228108   2.182   1.277   5.765 -0.4794  0.0064 -0.3574
 9382TIP3   OH228109   4.288   3.752   5.250 -0.5196 -0.5931  0.1621
 9382TIP3    H128110   4.353   3.713   5.193 -0.9662  0.4899 -1.1628
 9382TIP3    H228111   4.204   3.716   5.219 -0.5964 -1.9824  1.8498
 9383TIP3   OH228112   5.116   3.008   3.130 -0.2451 -0.6428 -0.1677
 9383TIP3    H128113   5.121   3.063   3.208 -0.8641 -1.4585  0.4730
 9383TIP3    H228114   5.048   3.048   3.076  0.1471 -0.1071 -0.2676
 9384TIP3   OH228115   3.180   1.785   3.586 -0.4366 -0.4292 -0.1652
 9384TIP3    H128116   3.088   1.790   3.611 -0.1701 -1.2279  1.0881
 9384TIP3    H228117   3.183   1.725   3.512 -0.7769 -1.5346  0.7002
 9385TIP3   OH228118   3.888   5.775   1.765  0.1959  0.3214  0.3026
 9385TIP3    H128119   3.955   5.709   1.749  0.9603  0.9242  0.9718
 9385TIP3    H228120   3.826   5.732   1.824  0.2608 -0.0618  0.0970
 9386TIP3   OH228121   4.926   5.298   3.918  0.3814  0.3064 -0.3094
 9386TIP3    H128122   4.974   5.360   3.974  0.1903 -1.1635  1.6071
 9386TIP3    H228123   4.834   5.308   3.943  0.2777 -0.2929 -0.4216
 9387TIP3   OH228124   6.996   6.098   2.629 -0.0901  0.1543  0.6074
 9387TIP3    H128125   6.976   6.119   2.538  1.6520 -0.9570 -0.0930
 9387TIP3    H228126   6.950   6.016   2.646 -0.5598  0.4542  0.7915
 9388TIP3   OH228127   3.928   6.353   3.646  0.2362 -0.3135 -0.6525
 9388TIP3    H128128   3.836   6.380   3.642  0.5922  0.9691 -0.8696
 9388TIP3    H228129   3.933   6.276   3.590 -1.1355 -1.7885  1.1189
 9389TIP3   OH228130   6.931   0.481   5.047  0.4726  0.5079  0.1192
 9389TIP3    H128131   7.010   0.505   4.998 -0.2117  1.1880 -0.6868
 9389TIP3    H228132   6.875   0.438   4.981 -1.1803  2.9532 -0.1894
 9390TIP3   OH228133   4.894   1.860   0.294 -0.4582 -0.6068  0.1892
 9390TIP3    H128134   4.974   1.860   0.243 -0.4932  1.4306  0.0346
 9390TIP3    H228135   4.900   1.783   0.350  0.3967 -1.8971 -1.6108
 9391TIP3   OH228136   2.449   1.378   3.464 -0.5816  0.2415  0.4005
 9391TIP3    H128137   2.379   1.411   3.520 -1.3096  1.9766 -1.4282
 9391TIP3    H228138   2.415   1.296   3.429 -0.4770 -0.3987  1.7162
 9392TIP3   OH228139   3.079   1.459   2.368  0.0534  0.0039  0.1447
 9392TIP3    H128140   3.088   1.442   2.274 -0.1152 -0.3471  0.1939
 9392TIP3    H228141   3.148   1.523   2.387  1.2216 -1.2096  0.1291
 9393TIP3   OH228142   0.784   1.677   2.813  0.1779 -0.0748  0.2123
 9393TIP3    H128143   0.861   1.642   2.858  0.4524  0.1159 -0.1159
 9393TIP3    H228144   0.741   1.732   2.879  1.3827  1.4019 -0.2083
 9394TIP3   OH228145   0.334   5.115   0.390  0.0689 -0.0385 -0.2905
 9394TIP3    H128146   0.294   5.194   0.353 -0.2128  1.2648  2.5766
 9394TIP3    H228147   0.263   5.051   0.392 -0.7867  0.9103  0.8861
 9395TIP3   OH228148   3.246   4.205   4.561  0.4644 -0.1675 -0.0180
 9395TIP3    H128149   3.196   4.199   4.643  0.0728  1.4814 -0.0878
 9395TIP3    H228150   3.200   4.147   4.501  1.0199 -1.7464  1.0413
 9396TIP3   OH228151   2.098   6.208   2.934  0.1194  0.4560 -0.4693
 9396TIP3    H128152   2.085   6.166   2.849 -1.2950  1.3137 -0.7011
 9396TIP3    H228153   2.155   6.282   2.916 -1.9333  1.9509 -1.1275
 9397TIP3   OH228154   6.217   4.095   5.179  0.4768  0.3283  0.4377
 9397TIP3    H128155   6.252   4.042   5.251  2.0155 -0.7793 -1.0618
 9397TIP3    H228156   6.122   4.088   5.189  0.6256 -1.7985  0.9848
 9398TIP3   OH228157   1.740   6.223   1.090 -0.3817  0.4460 -0.1676
 9398TIP3    H128158   1.817   6.262   1.050  0.8270  0.0902  1.6740
 9398TIP3    H228159   1.715   6.152   1.031  0.7053  0.5559 -0.7877
 9399TIP3   OH228160   0.533   0.122   1.895  0.4796 -0.0764 -0.4378
 9399TIP3    H128161   0.571   0.058   1.835 -0.4479 -1.0608 -0.0011
 9399TIP3    H228162   0.594   0.125   1.970 -1.0717 -2.9521  1.0767
 9400TIP3   OH228163   1.078  -0.022   1.036  0.3547  0.3681  0.2275
 9400TIP3    H128164   1.066   0.072   1.050  3.1135  0.7736  0.4115
 9400TIP3    H228165   1.107  -0.030   0.946  1.1844 -0.1858  0.5349
 9401TIP3   OH228166   4.513   0.734   2.256  0.6057  0.0985 -0.1196
 9401TIP3    H128167   4.447   0.692   2.200  1.6721 -0.1933 -1.1892
 9401TIP3    H228168   4.519   0.823   2.223  0.9182  0.0574 -0.1737
 9402TIP3   OH228169   1.083   4.588   1.239 -0.1896 -0.3612 -0.4740
 9402TIP3    H128170   1.053   4.560   1.325  0.0996 -0.8146 -0.5128
 9402TIP3    H228171   1.037   4.670   1.222  0.8184  0.5114  0.7428
 9403TIP3   OH228172   1.229   1.205   3.922 -1.1868  0.4626 -0.0900
 9403TIP3    H128173   1.187   1.172   4.001 -0.8940  2.3821  0.9227
 9403TIP3    H228174   1.167   1.185   3.852 -2.2410  0.2481  0.8733
 9404TIP3   OH228175   0.791   5.184   2.775 -0.6091  0.2256  0.0096
 9404TIP3    H128176   0.801   5.275   2.803  0.2154 -0.2773  1.4372
 9404TIP3    H228177   0.873   5.163   2.731 -1.1718  0.4368 -1.1860
 9405TIP3   OH228178   5.840   0.378   0.377  1.0137 -0.2028 -0.3025
 9405TIP3    H128179   5.881   0.293   0.391  0.7298 -0.3154 -0.1363
 9405TIP3    H228180   5.811   0.377   0.286 -0.5028 -0.9561  0.1556
 9406TIP3   OH228181   5.885   3.054   3.285  0.1207  0.0304  0.3033
 9406TIP3    H128182   5.921   3.050   3.374  2.9246 -0.0564 -0.7284
 9406TIP3    H228183   5.796   3.086   3.297  0.8568  1.3929  3.0498
 9407TIP3   OH228184   3.778   1.686   4.942 -0.1339 -0.2771  0.2038
 9407TIP3    H128185   3.874   1.683   4.941 -0.0864  0.8094  0.2768
 9407TIP3    H228186   3.755   1.699   5.034 -0.3161  0.1797  0.0973
 9408TIP3   OH228187   2.175   6.480   3.077 -0.2778  0.0068 -0.4440
 9408TIP3    H128188   2.122   6.543   3.125  0.3899 -1.1213  1.9556
 9408TIP3    H228189   2.163   6.397   3.124 -0.2972 -1.4527 -2.8348
 9409TIP3   OH228190   1.887   4.857   3.277  0.4416  0.2968  0.0447
 9409TIP3    H128191   1.793   4.863   3.259  0.5221  0.7768 -0.2508
 9409TIP3    H228192   1.900   4.911   3.355  0.1659 -1.4061  1.3128
 9410TIP3   OH228193   6.722   5.582   3.577  0.6172  0.3316 -0.2404
 9410TIP3    H128194   6.698   5.491   3.597 -1.2527 -0.2457 -4.1186
 9410TIP3    H228195   6.647   5.633   3.607  0.5002  0.2432 -0.3791
 9411TIP3   OH228196   4.330   3.840   5.819 -1.1343  0.5975 -0.3287
 9411TIP3    H128197   4.364   3.759   5.782  0.3566  0.6027  0.9300
 9411TIP3    H228198   4.252   3.859   5.768 -0.6476 -0.8028 -1.6551
 9412TIP3   OH228199   4.070   4.330   5.202  0.2642  0.1226  0.0347
 9412TIP3    H128200   4.157   4.297   5.225  0.1865 -0.4411 -0.4701
 9412TIP3    H228201   4.011   4.280   5.258 -0.0012 -1.8749 -1.9133
 9413TIP3   OH228202   4.770   3.080   1.568 -0.1288  0.5210  0.0825
 9413TIP3    H128203   4.717   3.016   1.521  1.1072 -0.1938 -0.3656
 9413TIP3    H228204   4.709   3.120   1.630 -1.1471 -0.3897 -0.3004
 9414TIP3   OH228205   3.644   4.891   4.518 -0.4339  0.4921 -0.0980
 9414TIP3    H128206   3.708   4.874   4.448 -0.0017 -0.4632  0.5070
 9414TIP3    H228207   3.695   4.929   4.589 -0.9584  1.9368 -0.4605
 9415TIP3   OH228208   5.647   1.872   4.458 -0.1359  0.0444 -0.4549
 9415TIP3    H128209   5.656   1.803   4.523  1.1079  0.3396 -0.2860
 9415TIP3    H228210   5.735   1.882   4.421 -0.5163  0.8488 -1.1827
 9416TIP3   OH228211   0.611   3.182   3.148 -0.1746  0.7667  0.5462
 9416TIP3    H128212   0.653   3.240   3.211 -1.6653  1.0610  1.3101
 9416TIP3    H228213   0.597   3.236   3.071 -0.8474  1.2152  0.9753
 9417TIP3   OH228214   4.525   2.584   1.149  0.0847 -0.1972 -0.7669
 9417TIP3    H128215   4.446   2.581   1.095 -1.2223  1.6860  0.8956
 9417TIP3    H228216   4.549   2.676   1.152 -0.9049  0.1182  3.0899
 9418TIP3   OH228217   4.299   2.549   5.009  0.2733 -0.1837  0.5229
 9418TIP3    H128218   4.262   2.579   4.925  4.6891  0.1660 -1.6164
 9418TIP3    H228219   4.232   2.572   5.074 -3.1969  0.0525 -2.7605
 9419TIP3   OH228220   2.583   3.859   2.716  0.7752  0.0848 -0.0470
 9419TIP3    H128221   2.584   3.896   2.804  1.0281 -3.7294  1.7576
 9419TIP3    H228222   2.497   3.817   2.709  0.7769  0.2943 -1.6038
 9420TIP3   OH228223   5.735   1.894   0.716  0.2706  0.5536  0.3005
 9420TIP3    H128224   5.824   1.889   0.680  0.8291 -1.4106  1.7985
 9420TIP3    H228225   5.678   1.877   0.640  1.1377  1.6505 -0.6411
 9421TIP3   OH228226   1.097   5.539   3.129  0.0640  0.0747  0.4125
 9421TIP3    H128227   1.081   5.619   3.079 -0.8261  1.2753  2.4914
 9421TIP3    H228228   1.010   5.505   3.149  0.4083 -0.7007  0.6454
 9422TIP3   OH228229   5.842   0.843   0.955 -1.3216 -0.1636 -0.2400
 9422TIP3    H128230   5.845   0.939   0.949 -3.2185 -0.0882 -0.4915
 9422TIP3    H228231   5.822   0.814   0.867 -1.4248 -0.7528 -0.0233
 9423TIP3   OH228232   2.978   1.793   1.760 -0.2440  0.1923 -0.0440
 9423TIP3    H128233   2.949   1.875   1.800 -0.9763  1.1799 -2.4310
 9423TIP3    H228234   3.048   1.819   1.699 -1.1214 -0.7793 -1.5272
 9424TIP3   OH228235   5.956   5.720   3.886 -0.0761 -0.1847 -0.5277
 9424TIP3    H128236   6.035   5.678   3.920 -0.6674 -0.8309  0.0679
 9424TIP3    H228237   5.904   5.739   3.964 -0.8508 -0.4484 -0.9765
 9425TIP3   OH228238   7.076   6.274   1.939 -0.5915  0.3669  0.1021
 9425TIP3    H128239   7.132   6.343   1.903 -0.0951 -0.1546 -0.1559
 9425TIP3    H228240   7.004   6.320   1.980 -0.4825  1.0255 -0.4277
 9426TIP3   OH228241   4.097   4.396   4.369  0.3476 -0.1610 -0.3653
 9426TIP3    H128242   4.159   4.324   4.361  0.0389 -1.0133  3.2601
 9426TIP3    H228243   4.149   4.470   4.399  0.1062  0.0541 -0.4716
 9427TIP3   OH228244   0.950   0.300   3.166 -0.1807 -0.3913  0.6684
 9427TIP3    H128245   1.005   0.280   3.090  0.0760  0.5956  0.5768
 9427TIP3    H228246   0.860   0.295   3.133 -0.5313 -5.3019  1.5374
 9428TIP3   OH228247   3.635   1.244   0.348  0.1728 -0.0772  0.0993
 9428TIP3    H128248   3.628   1.264   0.441  1.2942  1.5846 -0.1223
 9428TIP3    H228249   3.559   1.286   0.308 -0.1606 -0.5570  0.2227
 9429TIP3   OH228250   1.751   6.276   1.573  0.3813  0.1516 -0.4831
 9429TIP3    H128251   1.701   6.354   1.596 -1.1295 -1.0515  0.4656
 9429TIP3    H228252   1.834   6.287   1.619  0.4533  1.4749 -0.8812
 9430TIP3   OH228253   0.939   5.021   5.557  0.1717  0.2623  0.2921
 9430TIP3    H128254   0.959   5.071   5.479 -0.7646  0.8733  0.4231
 9430TIP3    H228255   1.007   5.046   5.620  0.5809  0.2140 -0.1245
 9431TIP3   OH228256   1.990   0.550   4.753 -0.3622 -0.5836 -0.6918
 9431TIP3    H128257   1.976   0.505   4.837  0.1997 -1.9432 -1.2965
 9431TIP3    H228258   1.990   0.480   4.688  2.0112  0.0910 -1.5294
 9432TIP3   OH228259   2.348   0.338   5.495 -0.1298 -0.3027 -0.3448
 9432TIP3    H128260   2.443   0.343   5.486 -0.1311  0.0948 -0.1981
 9432TIP3    H228261   2.321   0.429   5.510 -0.5550 -0.3845 -0.6006
 9433TIP3   OH228262   5.184   6.646   3.333 -0.3886  0.4611 -0.0408
 9433TIP3    H128263   5.189   6.555   3.305  1.8584  0.6321 -0.3938
 9433TIP3    H228264   5.173   6.696   3.252 -0.4343  0.5532  0.0223
 9434TIP3   OH228265   4.371   1.451   1.607 -0.1833  0.1760 -0.3770
 9434TIP3    H128266   4.326   1.464   1.523  0.8935  0.2670 -0.9530
 9434TIP3    H228267   4.390   1.539   1.638 -0.5341  0.1407 -0.0529
 9435TIP3   OH228268   2.922   4.769   5.619  0.8632 -0.2476  0.1619
 9435TIP3    H128269   3.011   4.803   5.618  2.2507 -3.2216  3.1190
 9435TIP3    H228270   2.932   4.675   5.605 -2.1924 -0.3667 -2.2260
 9436TIP3   OH228271   5.055   0.538   3.476 -0.0333  0.5140 -0.3456
 9436TIP3    H128272   5.110   0.584   3.413 -1.8510  2.3658 -0.6915
 9436TIP3    H228273   5.008   0.473   3.424  1.0900 -0.4215 -0.2175
 9437TIP3   OH228274   1.934   0.686   5.377 -0.3604  0.7005 -0.1793
 9437TIP3    H128275   1.888   0.766   5.352 -1.3526  0.6373  1.3357
 9437TIP3    H228276   1.865   0.626   5.404  0.5655  0.4725  1.8087
 9438TIP3   OH228277   4.318   0.930   3.055  0.1407  0.1571 -0.0646
 9438TIP3    H128278   4.289   1.012   3.015 -0.1196  0.5156  0.8536
 9438TIP3    H228279   4.327   0.870   2.981 -1.3774  0.5074 -0.5641
 9439TIP3   OH228280   7.090   2.369   4.739  0.2175  0.2489  0.3714
 9439TIP3    H128281   7.167   2.385   4.794 -0.0686 -1.1695  1.2512
 9439TIP3    H228282   7.026   2.330   4.798  0.0293 -1.7023 -1.0141
 9440TIP3   OH228283   0.732   4.871   5.550 -0.1985 -0.4289 -0.1881
 9440TIP3    H128284   0.788   4.948   5.560 -0.3563 -0.5215  2.1707
 9440TIP3    H228285   0.747   4.841   5.461  1.2129  1.2974 -0.5878
 9441TIP3   OH228286   5.497   2.473   1.156 -0.2811 -0.2190 -0.0205
 9441TIP3    H128287   5.430   2.405   1.152 -0.4481 -0.2231  2.0818
 9441TIP3    H228288   5.575   2.431   1.121 -0.8791 -0.8250 -0.6772
 9442TIP3   OH228289   1.820   6.569   3.798 -0.7533 -0.1603  0.5720
 9442TIP3    H128290   1.888   6.628   3.765 -1.1609  0.2441  0.4392
 9442TIP3    H228291   1.764   6.553   3.723 -1.7842  0.8971  1.0780
 9443TIP3   OH228292   1.054   0.747   2.897  0.2925 -0.1407 -0.4421
 9443TIP3    H128293   1.042   0.652   2.886  1.8802 -0.2894 -1.2162
 9443TIP3    H228294   1.080   0.778   2.810 -2.0929  1.3719 -0.6939
 9444TIP3   OH228295   4.474   2.568   4.039  0.9162 -0.2795 -0.0786
 9444TIP3    H128296   4.447   2.640   3.982 -0.1658 -0.6125 -0.0104
 9444TIP3    H228297   4.570   2.573   4.041  0.8965  0.5797 -0.8154
 9445TIP3   OH228298   5.322   2.687   2.815  0.6180 -0.2682 -0.3532
 9445TIP3    H128299   5.298   2.596   2.798 -0.7499 -0.0982  0.4683
 9445TIP3    H228300   5.377   2.683   2.893  1.0283 -0.4356 -0.6487
 9446TIP3   OH228301   6.935   3.874   2.452 -0.0946  0.9155 -0.4024
 9446TIP3    H128302   6.972   3.936   2.515 -0.3340  1.9017 -1.1855
 9446TIP3    H228303   6.894   3.930   2.386  1.2103 -0.0107 -2.0953
 9447TIP3   OH228304   4.589   6.257   0.864 -0.0965 -0.5749 -0.1799
 9447TIP3    H128305   4.498   6.239   0.840  0.0430  0.7335 -1.8915
 9447TIP3    H228306   4.600   6.215   0.949 -3.0252  1.2564  1.2911
 9448TIP3   OH228307   1.263   3.146   0.648  0.4276 -0.3482 -0.1902
 9448TIP3    H128308   1.292   3.212   0.710 -0.7367 -1.3496  1.4779
 9448TIP3    H228309   1.314   3.068   0.671 -1.7077 -1.4361  1.2069
 9449TIP3   OH228310   6.068   4.685   3.127 -0.2431 -0.0049 -0.5155
 9449TIP3    H128311   6.084   4.735   3.208  1.7829  1.9181 -1.9823
 9449TIP3    H228312   6.118   4.604   3.138 -1.3148 -0.5268  0.7767
 9450TIP3   OH228313   6.302   5.230   3.592 -0.6271 -0.1910 -0.4197
 9450TIP3    H128314   6.214   5.241   3.556 -0.4021  1.9837 -0.4281
 9450TIP3    H228315   6.359   5.279   3.532  0.2013  0.6665  1.0032
 9451TIP3   OH228316   3.686   0.742   1.209  0.4968 -0.4170  0.0530
 9451TIP3    H128317   3.755   0.682   1.182  0.1473 -0.9045  0.2387
 9451TIP3    H228318   3.606   0.708   1.168  0.0121 -0.9820  1.3961
 9452TIP3   OH228319   2.847   0.298   1.264 -0.4434 -0.9699 -0.0637
 9452TIP3    H128320   2.897   0.320   1.343 -0.8954 -0.1895  0.0140
 9452TIP3    H228321   2.804   0.215   1.286 -2.2852  0.2770  1.3590
 9453TIP3   OH228322   1.978   6.385   4.124 -0.1143  0.0937 -0.3311
 9453TIP3    H128323   2.066   6.400   4.091 -0.0845  0.4036 -0.1134
 9453TIP3    H228324   1.983   6.303   4.172  0.5058  1.0166  1.2724
 9454TIP3   OH228325   2.525   1.475   1.912 -0.2027 -0.4651  0.3960
 9454TIP3    H128326   2.550   1.440   1.997 -1.5167 -1.0901  0.5549
 9454TIP3    H228327   2.467   1.549   1.932 -0.0286 -0.2272  0.0406
 9455TIP3   OH228328   2.631   4.475   2.148 -0.2027 -0.1112  0.5709
 9455TIP3    H128329   2.617   4.569   2.136  0.7525  0.2508  2.0730
 9455TIP3    H228330   2.545   4.436   2.134 -1.0204  1.1940  1.7289
 9456TIP3   OH228331   4.386   2.967   1.812 -0.1046  0.0683  0.2086
 9456TIP3    H128332   4.298   2.929   1.808 -0.2828  0.5344 -0.3805
 9456TIP3    H228333   4.375   3.057   1.782  0.5828  0.1120  0.0718
 9457TIP3   OH228334   0.581   1.862   5.367 -0.4085 -0.6066  0.1794
 9457TIP3    H128335   0.530   1.788   5.398 -0.6843 -1.0408 -1.2459
 9457TIP3    H228336   0.566   1.864   5.272 -1.1796  1.8583  0.2874
 9458TIP3   OH228337   2.649   1.877   4.857  0.6492 -0.5084  0.6346
 9458TIP3    H128338   2.588   1.805   4.845  0.7559 -0.5335  0.2112
 9458TIP3    H228339   2.716   1.843   4.916  0.1694 -0.4242  1.2371
 9459TIP3   OH228340   3.001   5.408   4.352  0.4486  0.5575  0.3671
 9459TIP3    H128341   3.034   5.446   4.271  0.5639  1.7828  0.9798
 9459TIP3    H228342   2.912   5.378   4.329  1.8297 -2.7636 -1.2831
 9460TIP3   OH228343   3.196   0.237   3.484  0.6539  0.1373 -0.1064
 9460TIP3    H128344   3.105   0.269   3.477  0.5634 -0.2511 -0.7643
 9460TIP3    H228345   3.245   0.294   3.425  0.5561 -0.6812 -0.9948
 9461TIP3   OH228346   4.615   4.275   1.373  0.3151  0.4019 -0.8106
 9461TIP3    H128347   4.676   4.202   1.368  1.8533  1.5676  0.0701
 9461TIP3    H228348   4.670   4.353   1.359 -1.0067  1.4870 -0.1746
 9462TIP3   OH228349   4.176   0.387   4.299 -0.0219 -0.1607  0.1690
 9462TIP3    H128350   4.094   0.418   4.260  0.0510 -0.3346 -0.1270
 9462TIP3    H228351   4.191   0.445   4.374  0.0663  0.4591 -0.3250
 9463TIP3   OH228352   4.819   1.025   5.549  0.3462  0.1852  0.3162
 9463TIP3    H128353   4.754   1.057   5.486  0.1431 -2.1449 -0.7588
 9463TIP3    H228354   4.860   1.105   5.583  0.2337  1.5999 -2.5250
 9464TIP3   OH228355   2.445   6.016   0.337 -0.2066  0.1662 -0.0228
 9464TIP3    H128356   2.518   6.048   0.390 -0.2718  1.1014 -0.4674
 9464TIP3    H228357   2.483   6.005   0.249 -0.4493  0.0423 -0.1118
 9465TIP3   OH228358   6.173   0.684   1.264  0.3276 -0.3273 -0.0068
 9465TIP3    H128359   6.131   0.708   1.347  1.5892 -0.1372  0.6110
 9465TIP3    H228360   6.228   0.608   1.287 -0.9124 -1.6126 -1.1520
 9466TIP3   OH228361   5.711   2.397   4.774  0.4990  0.1587 -0.1936
 9466TIP3    H128362   5.767   2.455   4.722  0.5824  0.3982  0.1622
 9466TIP3    H228363   5.655   2.456   4.824  2.5091  0.0871  2.3829
 9467TIP3   OH228364   1.251   1.125   0.426 -0.8720 -0.3186  0.2448
 9467TIP3    H128365   1.302   1.189   0.475 -1.5286 -0.9644  1.8351
 9467TIP3    H228366   1.315   1.058   0.401 -0.4756  0.1625 -0.0420
 9468TIP3   OH228367   0.757   0.969   1.869 -0.1728 -0.5436 -0.2010
 9468TIP3    H128368   0.823   0.901   1.882  0.1085 -0.3818 -0.7728
 9468TIP3    H228369   0.703   0.965   1.949 -0.1380 -1.4013 -0.2109
 9469TIP3   OH228370   7.047   1.202   5.624  0.1142  0.8253  0.2189
 9469TIP3    H128371   7.102   1.192   5.702  1.8690  0.6307 -1.0064
 9469TIP3    H228372   7.098   1.256   5.564 -1.7654  2.1200 -0.3299
 9470TIP3   OH228373   6.576   6.028   1.078 -0.2208  0.3040 -0.2569
 9470TIP3    H128374   6.661   6.014   1.036  0.4178  2.2842  0.2636
 9470TIP3    H228375   6.598   6.043   1.170 -1.1529  0.7547 -0.0998
 9471TIP3   OH228376   4.562   4.097   3.450  0.0071 -0.0236  0.0363
 9471TIP3    H128377   4.482   4.150   3.451 -0.7186 -1.0646 -0.8405
 9471TIP3    H228378   4.633   4.161   3.444 -0.6418  1.0091  2.1079
 9472TIP3   OH228379   7.030   5.674   0.941 -0.2937 -0.0329  0.3665
 9472TIP3    H128380   6.945   5.648   0.906 -0.8578  1.5802  0.4551
 9472TIP3    H228381   7.094   5.642   0.877 -1.0474 -0.2669 -0.2767
 9473TIP3   OH228382   2.995   6.656   2.165  0.4323 -0.0173 -0.1646
 9473TIP3    H128383   2.920   6.686   2.218  0.9437  1.2437 -0.1322
 9473TIP3    H228384   3.070   6.663   2.224  1.0557  1.6480 -1.0782
 9474TIP3   OH228385   4.323   0.715   5.464 -0.3684  0.1640 -0.9113
 9474TIP3    H128386   4.231   0.703   5.488 -1.1974  5.5050 -0.0592
 9474TIP3    H228387   4.371   0.703   5.545 -0.1564 -2.5886 -1.3480
 9475TIP3   OH228388   0.324   4.000   1.208 -0.1702 -0.2503  0.0635
 9475TIP3    H128389   0.370   3.971   1.129 -1.5225  1.4843 -1.4500
 9475TIP3    H228390   0.378   4.071   1.243 -0.1974 -0.1764 -0.0418
 9476TIP3   OH228391   1.301   6.651   2.507  0.2239 -0.8230 -0.0037
 9476TIP3    H128392   1.304   6.644   2.411  0.2803 -0.8009 -0.0036
 9476TIP3    H228393   1.392   6.644   2.535  0.1338 -1.6622  0.1061
 9477TIP3   OH228394   0.998   5.245   3.246  0.3909 -0.0627  0.0863
 9477TIP3    H128395   1.021   5.251   3.339 -0.5679  0.2259  0.3109
 9477TIP3    H228396   1.081   5.225   3.203  1.0842  0.9959  0.8752
 9478TIP3   OH228397   5.235   2.922   0.713  0.1500 -0.1320  0.1404
 9478TIP3    H128398   5.147   2.899   0.686 -0.4271  0.0302  1.7783
 9478TIP3    H228399   5.223   2.976   0.792  1.6249  1.6379 -0.7651
 9479TIP3   OH228400   0.381   5.616   5.710 -0.0488  0.5589  0.8868
 9479TIP3    H128401   0.419   5.697   5.677 -0.2680 -0.0221 -0.9549
 9479TIP3    H228402   0.291   5.616   5.677 -0.4525  0.1475  1.9386
 9480TIP3   OH228403   0.740   5.745   3.542  0.4529 -0.1700  0.5160
 9480TIP3    H128404   0.731   5.756   3.447 -0.1938  0.9832  0.6948
 9480TIP3    H228405   0.746   5.650   3.554 -3.2152 -0.6660 -0.4063
 9481TIP3   OH228406   6.498   6.240   4.112  0.1412 -0.0647 -0.0705
 9481TIP3    H128407   6.454   6.275   4.034  1.0457  0.1860 -0.4756
 9481TIP3    H228408   6.573   6.192   4.079  1.2272  1.0455  0.6799
 9482TIP3   OH228409   5.480   4.378   3.510 -0.4401  0.3000 -0.2161
 9482TIP3    H128410   5.479   4.469   3.482 -1.4064  0.5356  0.5484
 9482TIP3    H228411   5.545   4.337   3.453 -0.9679  1.1673 -1.5012
 9483TIP3   OH228412   5.887   0.821   1.629  0.1117 -0.4494  0.4539
 9483TIP3    H128413   5.946   0.845   1.558  1.7317 -0.6719  1.6854
 9483TIP3    H228414   5.808   0.874   1.613  1.0087  0.6092 -0.6566
 9484TIP3   OH228415   5.482   2.158   2.367  0.1634  0.9710 -0.7601
 9484TIP3    H128416   5.453   2.249   2.366 -0.3846  0.8332  0.9113
 9484TIP3    H228417   5.577   2.163   2.372  0.1896  1.4354 -1.5784
 9485TIP3   OH228418   0.201   0.818   5.629  0.1177 -0.5018  0.0361
 9485TIP3    H128419   0.235   0.879   5.695 -1.8469  1.2502 -0.4679
 9485TIP3    H228420   0.272   0.809   5.566  0.8652  0.3696  0.7241
 9486TIP3   OH228421   2.961   2.829   0.095 -0.6437 -0.1139  0.2657
 9486TIP3    H128422   2.939   2.740   0.067  0.3447 -0.6354  1.0950
 9486TIP3    H228423   3.033   2.855   0.037 -0.6605 -0.0101  0.2916
 9487TIP3   OH228424   1.736   5.146   4.610  0.0739  0.6918  0.1890
 9487TIP3    H128425   1.750   5.208   4.682 -0.4375  1.3720 -0.2945
 9487TIP3    H228426   1.810   5.161   4.551  0.6884 -0.1116  0.7229
 9488TIP3   OH228427   0.501   1.338   0.557  0.3749  0.2567 -0.2535
 9488TIP3    H128428   0.548   1.261   0.591  1.8996  1.6961  1.0539
 9488TIP3    H228429   0.432   1.354   0.622  0.7831  0.6447  0.0947
 9489TIP3   OH228430   0.388   1.671   5.420 -0.5692  0.3424 -0.4062
 9489TIP3    H128431   0.328   1.641   5.488 -3.0298  1.4350 -1.9467
 9489TIP3    H228432   0.388   1.601   5.355  2.9224 -1.3782  1.1871
 9490TIP3   OH228433   0.745   5.828   0.361  0.4043 -0.1630 -0.3227
 9490TIP3    H128434   0.800   5.782   0.298  1.7924  0.2961  0.5118
 9490TIP3    H228435   0.802   5.844   0.436 -1.4253 -1.5135  1.4774
 9491TIP3   OH228436   3.326  -0.003   5.286 -0.1663  0.2694 -0.3373
 9491TIP3    H128437   3.306   0.067   5.223 -1.5188  0.4615  0.2610
 9491TIP3    H228438   3.242  -0.049   5.297  0.4857 -0.8710 -0.0181
 9492TIP3   OH228439   5.438   2.540   0.589 -0.6788 -0.3289  0.2858
 9492TIP3    H128440   5.519   2.536   0.538 -0.6511  1.1473  0.1690
 9492TIP3    H228441   5.465   2.514   0.678 -0.3780 -1.2283 -0.0587
 9493TIP3   OH228442   0.154   2.926   2.966 -0.0438  0.2636 -0.0576
 9493TIP3    H128443   0.174   3.013   2.932  0.1997 -0.0871 -0.8255
 9493TIP3    H228444   0.238   2.879   2.963 -0.3498 -0.2686 -0.4635
 9494TIP3   OH228445   3.370   6.032   2.159 -0.2125 -0.8720 -0.0141
 9494TIP3    H128446   3.375   6.097   2.089  3.6681 -0.7289  0.2307
 9494TIP3    H228447   3.344   6.082   2.236  0.2888 -0.0667 -0.3500
 9495TIP3   OH228448   4.831   2.196   5.505  0.1031 -0.5655 -0.6994
 9495TIP3    H128449   4.920   2.200   5.470  0.0239 -0.1381 -0.8618
 9495TIP3    H228450   4.835   2.128   5.571  0.9642  0.5293  0.4384
 9496TIP3   OH228451   2.670   0.061   2.735 -0.2300 -0.1454 -0.0261
 9496TIP3    H128452   2.695  -0.009   2.674 -0.2324 -0.1807  0.0134
 9496TIP3    H228453   2.689   0.142   2.688 -0.5766 -0.1727 -0.2130
 9497TIP3   OH228454   2.549   6.029   0.772  0.1661 -0.0673 -0.1387
 9497TIP3    H128455   2.616   6.052   0.707  0.1931 -0.1993 -0.1591
 9497TIP3    H228456   2.548   5.933   0.772 -2.7727 -0.2116 -2.9952
 9498TIP3   OH228457   3.302   0.329   1.731  0.0691 -0.1081  0.0336
 9498TIP3    H128458   3.283   0.266   1.661 -0.0089  0.2528 -0.2726
 9498TIP3    H228459   3.297   0.414   1.688 -1.0167  0.1835  0.7030
 9499TIP3   OH228460   1.336   4.264   5.597  0.6123 -0.6744  0.2606
 9499TIP3    H128461   1.265   4.327   5.606  1.1667 -0.1740  1.2898
 9499TIP3    H228462   1.295   4.188   5.557 -0.0238  0.4020 -1.2436
 9500TIP3   OH228463   2.281   3.984   5.467 -0.2108  0.1082  0.3591
 9500TIP3    H128464   2.316   4.064   5.428  1.7371 -1.7550 -2.0450
 9500TIP3    H228465   2.353   3.947   5.517 -0.2687 -1.2785 -0.5143
 9501TIP3   OH228466   6.688   6.161   1.295  0.2216  0.1167  0.1695
 9501TIP3    H128467   6.677   6.236   1.354  2.1893  1.2458 -0.8238
 9501TIP3    H228468   6.756   6.108   1.336 -0.2370 -0.4588  0.1998
 9502TIP3   OH228469   1.861   4.828   1.587 -0.0680 -0.7919  0.8043
 9502TIP3    H128470   1.914   4.829   1.667  0.6783 -0.1472  0.3201
 9502TIP3    H228471   1.921   4.801   1.518  0.6812  3.2158 -0.3848
 9503TIP3   OH228472   5.152   6.371   2.103 -0.3382  0.0063  0.0272
 9503TIP3    H128473   5.201   6.450   2.123 -1.9244  0.9992  0.2313
 9503TIP3    H228474   5.187   6.340   2.020 -0.0822  1.2772 -0.3556
 9504TIP3   OH228475   6.553   1.796   0.303 -0.5622  0.1621 -0.2302
 9504TIP3    H128476   6.545   1.891   0.299  0.6957  0.2587 -0.6636
 9504TIP3    H228477   6.532   1.775   0.394 -1.7360  0.7435 -0.3428
 9505TIP3   OH228478   0.677   1.655   4.603 -0.4521  0.0559 -0.5208
 9505TIP3    H128479   0.740   1.628   4.536 -1.5547 -0.2136 -1.4840
 9505TIP3    H228480   0.674   1.581   4.664 -1.1282 -0.7042 -1.4419
 9506TIP3   OH228481   3.612   6.661   2.337 -0.3470 -0.3045 -0.0746
 9506TIP3    H128482   3.611   6.573   2.374  0.3003 -0.7963 -1.1829
 9506TIP3    H228483   3.704   6.679   2.319 -0.6617 -0.4311 -2.1636
 9507TIP3   OH228484   2.770   0.148   2.065 -0.0456  0.1312 -0.1245
 9507TIP3    H128485   2.683   0.114   2.088  0.2805 -0.9052 -0.3430
 9507TIP3    H228486   2.792   0.102   1.983 -0.2376  2.0474 -1.3221
 9508TIP3   OH228487   2.747   3.756   5.642 -0.4214  0.8077  0.3252
 9508TIP3    H128488   2.780   3.677   5.600 -0.6339  1.0423 -0.3082
 9508TIP3    H228489   2.704   3.725   5.722 -0.8132  0.2407 -0.0949
 9509TIP3   OH228490   1.561   4.898   3.943  0.4966 -0.2663  0.0210
 9509TIP3    H128491   1.627   4.829   3.933  0.2185 -0.2894 -2.2294
 9509TIP3    H228492   1.612   4.978   3.956  0.8887 -0.5745  0.4354
 9510TIP3   OH228493   4.770   4.281   5.666 -0.6971  0.9202  0.3529
 9510TIP3    H128494   4.759   4.232   5.748 -0.2311  1.2444  0.6088
 9510TIP3    H228495   4.803   4.216   5.603 -0.1147  0.8962  0.6816
 9511TIP3   OH228496   5.845   1.793   2.515  0.2879  0.3610  0.1743
 9511TIP3    H128497   5.889   1.776   2.432  0.0991  1.1811 -0.1039
 9511TIP3    H228498   5.897   1.746   2.580  1.0659  0.5930 -0.2648
 9512TIP3   OH228499   5.710   2.219   5.079  0.3140 -0.2619 -0.4415
 9512TIP3    H128500   5.705   2.180   5.166  0.4179 -1.9758 -1.1585
 9512TIP3    H228501   5.649   2.167   5.026  2.1959 -0.9994 -1.9927
 9513TIP3   OH228502   0.615   5.247   1.009  0.2176 -0.2812  0.2274
 9513TIP3    H128503   0.670   5.232   0.933 -0.4957  0.0859 -0.3780
 9513TIP3    H228504   0.537   5.194   0.994 -0.8972  1.4558 -0.3869
 9514TIP3   OH228505   5.265   5.330   2.082  0.1372 -0.0825  0.8601
 9514TIP3    H128506   5.286   5.424   2.082  1.2764 -0.3279  0.3948
 9514TIP3    H228507   5.192   5.322   2.021  2.8334 -0.0534 -2.7238
 9515TIP3   OH228508   3.194   4.820   5.655  0.2335 -0.2878  0.4324
 9515TIP3    H128509   3.245   4.812   5.736 -0.5314  0.2170  0.9711
 9515TIP3    H228510   3.237   4.891   5.608  0.4672 -0.3475  0.5498
 9516TIP3   OH228511   3.426   1.995   3.771  0.0113  0.2903  0.7083
 9516TIP3    H128512   3.362   2.066   3.777  0.4137  0.8326 -0.9295
 9516TIP3    H228513   3.468   1.992   3.856 -0.6577  1.4074  1.0908
 9517TIP3   OH228514   4.629   0.442   5.104 -0.4290 -0.6273  0.2327
 9517TIP3    H128515   4.640   0.393   5.185 -0.8036  1.2829  1.4791
 9517TIP3    H228516   4.716   0.442   5.064 -0.1989 -1.3889  0.7161
 9518TIP3   OH228517   6.419   3.575   3.101 -0.1025 -0.0118  0.0938
 9518TIP3    H128518   6.393   3.650   3.048  0.8665  0.2714 -0.0067
 9518TIP3    H228519   6.377   3.589   3.186 -3.2954 -1.4588 -1.1059
 9519TIP3   OH228520   0.088   2.018   0.828  0.8448  0.3773 -0.3041
 9519TIP3    H128521   0.183   2.017   0.815  0.6853  2.8570 -2.3304
 9519TIP3    H228522   0.053   1.976   0.750  0.2191 -0.0985  0.2196
 9520TIP3   OH228523   0.821   4.547   1.848  0.2934 -0.1364  0.1273
 9520TIP3    H128524   0.817   4.495   1.928  0.6152 -0.0422  0.2060
 9520TIP3    H228525   0.789   4.633   1.873 -1.3621 -0.5926 -0.2657
 9521TIP3   OH228526   3.865   6.122   5.162  0.1937  0.3065 -0.7769
 9521TIP3    H128527   3.799   6.184   5.132 -0.6081 -0.0406  0.2126
 9521TIP3    H228528   3.817   6.040   5.173 -0.2453  0.9050  3.7407
 9522TIP3   OH228529   5.557   1.835   1.601  0.0547  0.3715  0.3456
 9522TIP3    H128530   5.497   1.896   1.643 -0.3956  0.4066 -0.3187
 9522TIP3    H228531   5.513   1.813   1.518 -0.3403 -1.7372  1.0717
 9523TIP3   OH228532   4.397   5.279   3.898  0.0454  0.3371 -0.7471
 9523TIP3    H128533   4.333   5.294   3.967  0.2705 -2.3486  0.1518
 9523TIP3    H228534   4.482   5.287   3.941  0.1898 -1.2021 -0.6985
 9524TIP3   OH228535   2.821   1.925   3.235  0.1101 -0.3979  0.2567
 9524TIP3    H128536   2.799   1.993   3.299  0.5534 -0.4216  0.4422
 9524TIP3    H228537   2.791   1.960   3.152  2.2105  1.0027  0.0038
 9525TIP3   OH228538   1.094   4.831   4.677 -0.2639  0.3877  0.3282
 9525TIP3    H128539   1.105   4.761   4.612  0.5648 -1.0660  1.9670
 9525TIP3    H228540   1.138   4.907   4.637 -0.3607 -0.2589 -1.0830
 9526TIP3   OH228541   6.582   3.531   5.489 -0.0650  0.4440 -0.1439
 9526TIP3    H128542   6.524   3.604   5.511 -0.6591 -0.3459  1.0123
 9526TIP3    H228543   6.632   3.515   5.569 -0.8787 -1.2441  0.0662
 9527TIP3   OH228544   2.990   5.042   0.619 -0.4114  0.0838 -0.5156
 9527TIP3    H128545   2.928   5.048   0.692  0.5466 -0.7061  0.3986
 9527TIP3    H228546   3.058   5.105   0.642  0.3342 -0.7930 -0.2677
 9528TIP3   OH228547   1.304   1.364   3.484  0.3473 -0.0057 -0.1706
 9528TIP3    H128548   1.345   1.328   3.406  1.3815  0.1861  0.2662
 9528TIP3    H228549   1.252   1.438   3.452  0.3397 -0.2489 -0.7362
 9529TIP3   OH228550   5.599   5.931   0.682 -0.0043 -0.0731  0.3465
 9529TIP3    H128551   5.601   6.018   0.642 -2.3407  1.4664  3.1669
 9529TIP3    H228552   5.505   5.912   0.693  0.4248 -3.0483 -0.1960
 9530TIP3   OH228553   0.623   0.082   2.997 -0.8215 -0.0501  0.3994
 9530TIP3    H128554   0.543   0.062   3.046 -1.6899  2.9503  0.3595
 9530TIP3    H228555   0.610   0.040   2.912 -1.5283 -1.0625  0.9763
 9531TIP3   OH228556   3.397   4.006   0.832 -0.1787 -0.3388  0.7992
 9531TIP3    H128557   3.427   4.002   0.922 -1.2183  0.2569  1.1866
 9531TIP3    H228558   3.406   3.917   0.799  0.2908 -0.5373  1.4547
 9532TIP3   OH228559   3.107   6.563   4.291  0.4307  0.0916 -0.5244
 9532TIP3    H128560   3.080   6.523   4.208 -0.1987 -0.1013 -0.2382
 9532TIP3    H228561   3.024   6.592   4.331  0.7996  0.9095 -0.3364
 9533TIP3   OH228562   1.544   0.076   4.250  0.2261 -0.3842  0.3076
 9533TIP3    H128563   1.482   0.144   4.225  0.2616 -0.2831  0.4922
 9533TIP3    H228564   1.492  -0.005   4.251 -0.0410 -0.2145  1.0286
 9534TIP3   OH228565   5.290   0.513   0.665  0.2646 -0.8251  0.0252
 9534TIP3    H128566   5.226   0.566   0.617  0.4542  0.1739  0.8526
 9534TIP3    H228567   5.240   0.438   0.697 -0.4123 -0.2310  0.3665
 9535TIP3   OH228568   0.586   3.830   3.718 -0.1252  0.1041 -0.4909
 9535TIP3    H128569   0.553   3.906   3.670  0.1563  0.3135 -0.3575
 9535TIP3    H228570   0.671   3.859   3.752 -0.8905  0.4215  1.2483
 9536TIP3   OH228571   2.129   2.345   3.408 -0.2374 -0.2446 -0.3932
 9536TIP3    H128572   2.100   2.434   3.429 -1.5000 -0.6876 -0.1093
 9536TIP3    H228573   2.222   2.345   3.428 -0.2328  0.9827 -0.2991
 9537TIP3   OH228574   6.382   3.767   2.379  0.0456  0.0523 -0.2812
 9537TIP3    H128575   6.476   3.759   2.362 -0.0596 -1.4113 -0.2978
 9537TIP3    H228576   6.364   3.702   2.446 -0.7448  1.2482  0.7256
 9538TIP3   OH228577   4.878   3.818   3.603  0.1742 -0.5567  0.2997
 9538TIP3    H128578   4.806   3.879   3.583  2.4172  1.3686 -2.8971
 9538TIP3    H228579   4.928   3.862   3.672  0.1796 -0.1878  0.0637
 9539TIP3   OH228580   4.349   3.466   5.067 -0.1951  0.4641 -0.1553
 9539TIP3    H128581   4.371   3.375   5.047 -0.5943  0.7253 -1.9116
 9539TIP3    H228582   4.434   3.509   5.078  0.0292  0.1592 -0.6625
 9540TIP3   OH228583   2.844   1.927   2.204 -0.3239  0.0261 -0.0556
 9540TIP3    H128584   2.790   1.970   2.137  2.2486  1.7938 -1.1478
 9540TIP3    H228585   2.874   1.999   2.260  0.2682 -1.0083  1.0013
 9541TIP3   OH228586   6.260   4.967   1.912 -0.1624 -0.2063  0.6311
 9541TIP3    H128587   6.304   4.918   1.982 -0.0870  0.5874  1.1423
 9541TIP3    H228588   6.332   5.002   1.859 -0.1935 -2.7214 -1.2445
 9542TIP3   OH228589   7.016   5.529   2.377  0.0188  0.1546  0.1544
 9542TIP3    H128590   6.921   5.543   2.378  0.1910  1.7781 -1.4040
 9542TIP3    H228591   7.053   5.615   2.358  1.8801 -0.2698  1.5402
 9543TIP3   OH228592   2.613   4.153   5.806  0.4180  0.3068  0.0349
 9543TIP3    H128593   2.629   4.073   5.756 -1.6123 -0.0976 -0.0265
 9543TIP3    H228594   2.518   4.163   5.807  0.6014  2.5099  0.3962
 9544TIP3   OH228595   2.834   6.021   2.182 -0.2000 -0.4908  0.3238
 9544TIP3    H128596   2.889   5.959   2.230 -0.2842 -1.3868 -0.7131
 9544TIP3    H228597   2.864   6.016   2.092 -0.0409  1.1891  0.2566
 9545TIP3   OH228598   7.135   4.441   4.865  0.1701 -0.3227  0.5181
 9545TIP3    H128599   7.052   4.487   4.872  0.8060  0.6524  2.3236
 9545TIP3    H228600   7.136   4.381   4.940  0.5822 -1.2069 -0.1757
 9546TIP3   OH228601   5.439   5.551   2.868  0.1880 -0.0158  0.4086
 9546TIP3    H128602   5.434   5.504   2.785 -0.8380 -1.2546  1.1266
 9546TIP3    H228603   5.458   5.641   2.844  0.2896 -0.4246 -1.1395
 9547TIP3   OH228604   4.782   0.294   0.542  0.2636  0.1965  0.4607
 9547TIP3    H128605   4.815   0.246   0.618 -1.5712 -1.2024  0.4437
 9547TIP3    H228606   4.695   0.323   0.568  0.8397  2.5568  0.0081
 9548TIP3   OH228607   1.413   0.730   0.858 -0.5423  0.1460  0.3319
 9548TIP3    H128608   1.461   0.740   0.775 -1.8878  0.5643 -0.4241
 9548TIP3    H228609   1.481   0.713   0.923  0.4296 -2.4452 -1.2009
 9549TIP3   OH228610   5.632   5.826   5.560 -0.4566  0.0381 -0.0522
 9549TIP3    H128611   5.574   5.894   5.525  1.2391  1.9777  0.7263
 9549TIP3    H228612   5.660   5.860   5.645  1.3635 -1.0887 -0.1599
 9550TIP3   OH228613   3.966   2.356   2.989 -0.4330 -0.3987  0.0641
 9550TIP3    H128614   3.962   2.409   2.909 -1.8696 -2.6454 -1.4566
 9550TIP3    H228615   3.885   2.375   3.035  0.3443  0.8103  1.0076
 9551TIP3   OH228616   0.541   4.803   0.127  0.1832  0.0367  0.7631
 9551TIP3    H128617   0.609   4.866   0.102  2.1534 -1.3841  2.2215
 9551TIP3    H228618   0.532   4.814   0.222 -3.1539  1.5467  0.3886
 9552TIP3   OH228619   1.843   5.960   5.720  0.0562  0.3211  0.0440
 9552TIP3    H128620   1.842   6.033   5.781 -0.8667 -0.4528  0.9946
 9552TIP3    H228621   1.801   5.994   5.641  0.2917  1.0192  0.2112
 9553TIP3   OH228622   1.286   0.735   1.784 -0.3083  1.0505 -0.4125
 9553TIP3    H128623   1.267   0.792   1.710 -0.4330  0.9361 -0.4688
 9553TIP3    H228624   1.258   0.786   1.861  1.7554  2.0378 -0.2598
 9554TIP3   OH228625   6.735   4.267   5.704  1.1517 -0.0142 -0.3225
 9554TIP3    H128626   6.684   4.195   5.669  0.3542  0.4813 -0.2213
 9554TIP3    H228627   6.825   4.249   5.678  1.0768 -1.3862  0.2745
 9555TIP3   OH228628   6.045   6.002   3.957 -0.0081 -0.5690  0.4452
 9555TIP3    H128629   5.961   5.984   3.915 -0.1957 -0.1302  0.6284
 9555TIP3    H228630   6.045   5.945   4.035  0.4395 -1.5565 -0.2477
 9556TIP3   OH228631   6.378   3.597   2.600 -0.1665  0.6836 -0.4808
 9556TIP3    H128632   6.303   3.579   2.656  0.5346  0.0304  0.2676
 9556TIP3    H228633   6.444   3.632   2.659  0.6576 -0.1998 -0.8508
 9557TIP3   OH228634   5.808   4.577   5.831  0.3481  0.7550  0.5609
 9557TIP3    H128635   5.788   4.504   5.771 -0.8856  0.4561  1.2962
 9557TIP3    H228636   5.733   4.636   5.822 -0.2345  0.3479  2.3239
 9558TIP3   OH228637   4.197   1.707   2.161 -0.1542  0.0483  0.4949
 9558TIP3    H128638   4.234   1.621   2.142 -2.5508 -0.7248 -1.1165
 9558TIP3    H228639   4.116   1.689   2.208 -0.6653  1.4155  0.1907
 9559TIP3   OH228640   4.012   6.756   1.033 -0.2689  0.1743 -0.1012
 9559TIP3    H128641   4.048   6.801   0.957 -2.5483  2.3671 -0.0445
 9559TIP3    H228642   3.946   6.697   0.996 -0.7508  0.5933  0.0613
 9560TIP3   OH228643   6.278   3.628   0.068  0.9368 -0.4364  0.3705
 9560TIP3    H128644   6.186   3.651   0.072  0.5881  0.5491 -5.0801
 9560TIP3    H228645   6.280   3.545   0.020  2.8675 -0.1973 -0.0689
 9561TIP3   OH228646   6.215   5.857   3.471 -0.0951  0.4712 -0.0871
 9561TIP3    H128647   6.150   5.837   3.539  1.1112 -1.0436  0.6821
 9561TIP3    H228648   6.164   5.896   3.400 -1.7208  0.1031  0.8207
 9562TIP3   OH228649   6.102   4.830   2.656 -0.4199 -0.7088  0.4289
 9562TIP3    H128650   6.033   4.896   2.644 -0.2636 -0.6519 -0.2260
 9562TIP3    H228651   6.170   4.876   2.705  0.5497  0.2728 -1.6908
 9563TIP3   OH228652   2.472   1.184   5.771  0.2267  0.0530  0.1595
 9563TIP3    H128653   2.551   1.177   5.718  0.0955 -0.8132  0.0646
 9563TIP3    H228654   2.444   1.093   5.785 -1.4187  0.3498 -0.8349
 9564TIP3   OH228655   2.947   4.943   4.652  0.3968  0.0462 -0.2551
 9564TIP3    H128656   2.952   4.872   4.716  1.9879  0.1145 -0.2669
 9564TIP3    H228657   3.031   4.988   4.659 -0.2929  1.4812 -0.7781
 9565TIP3   OH228658   4.209   2.796   0.352 -0.4567  0.3151 -0.3570
 9565TIP3    H128659   4.253   2.763   0.431 -0.0242 -0.5013 -0.9185
 9565TIP3    H228660   4.161   2.873   0.381 -3.3992 -1.9965  1.5729
 9566TIP3   OH228661   0.263   3.589   0.566  0.2553  0.0862 -0.4386
 9566TIP3    H128662   0.172   3.595   0.537  0.5963  0.3024 -1.4869
 9566TIP3    H228663   0.257   3.557   0.656 -0.9780  2.1744  0.3034
 9567TIP3   OH228664   2.199   4.830   4.083  0.6397 -0.6760  0.0897
 9567TIP3    H128665   2.247   4.763   4.131  1.5012 -0.3774 -0.3394
 9567TIP3    H228666   2.107   4.801   4.087  1.0720 -2.2770 -0.7367
 9568TIP3   OH228667   5.479   1.320   0.553 -0.1970 -0.7091  0.4917
 9568TIP3    H128668   5.482   1.253   0.622 -0.9368 -0.7643  0.4888
 9568TIP3    H228669   5.513   1.276   0.475  1.0734 -0.5081  0.9200
 9569TIP3   OH228670   6.421   5.692   0.584  0.4258  0.5663  0.2366
 9569TIP3    H128671   6.460   5.608   0.608 -1.5468  0.0913  2.1691
 9569TIP3    H228672   6.340   5.668   0.538  0.5224  1.4419 -0.4086
 9570TIP3   OH228673   3.437   0.673   1.069  0.0531 -0.1321 -0.0112
 9570TIP3    H128674   3.412   0.736   1.001 -0.0136 -0.0110  0.1257
 9570TIP3    H228675   3.370   0.605   1.065  0.5269 -0.5824 -0.6631
 9571TIP3   OH228676   6.829   5.288   2.207  0.0741 -0.0550 -0.5696
 9571TIP3    H128677   6.767   5.234   2.157  0.4689 -0.9974 -0.0805
 9571TIP3    H228678   6.793   5.376   2.202 -0.8783 -0.4408 -0.9665
 9572TIP3   OH228679   5.930   6.773   0.739 -0.0563  0.7503  0.3451
 9572TIP3    H128680   5.882   6.732   0.667 -0.0592 -0.7781  1.1861
 9572TIP3    H228681   5.928   6.866   0.718  0.2827  0.3366 -1.8514
 9573TIP3   OH228682   6.530   2.443   3.955 -0.2195  0.4436  0.0861
 9573TIP3    H128683   6.561   2.463   3.867 -0.2293 -0.8364 -0.2367
 9573TIP3    H228684   6.582   2.499   4.012  0.1815  0.8913 -0.6968
 9574TIP3   OH228685   4.727   5.831   0.075  0.3956 -0.4970  0.5778
 9574TIP3    H128686   4.695   5.839  -0.015 -0.0846  1.2729  0.8698
 9574TIP3    H228687   4.668   5.767   0.115  0.3480 -0.9787 -0.2277
 9575TIP3   OH228688   4.284   0.544   1.942  0.1567 -0.1204  0.5114
 9575TIP3    H128689   4.349   0.492   1.989 -0.1598 -0.5937  0.4288
 9575TIP3    H228690   4.230   0.479   1.897  1.2618  0.3338 -1.6112
 9576TIP3   OH228691   0.236   1.692   3.176  0.4074 -0.0173  0.4187
 9576TIP3    H128692   0.206   1.707   3.087  0.8843 -0.3353  0.1973
 9576TIP3    H228693   0.157   1.692   3.229  0.2119  1.2864  0.1554
 9577TIP3   OH228694   0.833   5.396   3.509  0.4703 -0.2604  0.1787
 9577TIP3    H128695   0.917   5.350   3.510 -0.3068 -1.7309 -0.2998
 9577TIP3    H228696   0.820   5.425   3.599  1.3236 -0.3079  0.3288
 9578TIP3   OH228697   3.167   5.757   4.881 -0.2646 -0.1578  0.2490
 9578TIP3    H128698   3.122   5.802   4.810 -1.8819  0.1059  1.3911
 9578TIP3    H228699   3.188   5.826   4.944 -0.2758 -0.6079  0.7529
 9579TIP3   OH228700   0.123   2.925   2.609  0.6101 -0.0432  0.3107
 9579TIP3    H128701   0.039   2.969   2.614 -0.2874 -1.6940  0.3496
 9579TIP3    H228702   0.187   2.995   2.625 -0.7384  1.1942  0.5541
 9580TIP3   OH228703   4.677   3.584   5.097  0.3875 -0.2567 -0.1044
 9580TIP3    H128704   4.751   3.632   5.059 -1.3051  1.9345 -0.7870
 9580TIP3    H228705   4.600   3.622   5.057 -1.1412 -3.9851 -1.1240
 9581TIP3   OH228706   1.186   2.139   1.415  0.0261 -0.3806  0.2804
 9581TIP3    H128707   1.280   2.134   1.432  0.0107  0.2552  0.5863
 9581TIP3    H228708   1.149   2.174   1.496 -0.3512  0.2930 -0.1712
 9582TIP3   OH228709   3.450   4.799   0.677 -0.3142  0.0269 -0.0612
 9582TIP3    H128710   3.379   4.853   0.712  0.0496  1.0518 -0.8407
 9582TIP3    H228711   3.409   4.715   0.657 -1.2102  0.4594 -0.0937
 9583TIP3   OH228712   6.208   1.996   5.367 -0.2337  0.1123  0.2201
 9583TIP3    H128713   6.289   2.043   5.388  1.0905 -1.6666 -0.6622
 9583TIP3    H228714   6.203   1.927   5.433 -1.4634  0.6400  0.7076
 9584TIP3   OH228715   0.340   3.256   2.413  0.1270  0.1162 -0.4783
 9584TIP3    H128716   0.295   3.274   2.331 -0.0807 -1.6665 -0.7990
 9584TIP3    H228717   0.278   3.282   2.481 -1.1760 -1.6865 -0.9142
 9585TIP3   OH228718   3.935   5.731   2.863 -0.2090 -0.3664 -0.0466
 9585TIP3    H128719   3.998   5.697   2.926 -0.9152  0.2943  1.0432
 9585TIP3    H228720   3.969   5.703   2.778  1.8129  0.3540  0.4630
 9586TIP3   OH228721   6.467   6.395   2.450  0.1567  0.0371 -0.2469
 9586TIP3    H128722   6.378   6.365   2.434  0.4535 -0.1943 -1.6275
 9586TIP3    H228723   6.470   6.484   2.415  1.1471 -0.9038 -2.7970
 9587TIP3   OH228724   6.292   6.549   3.588 -0.0624 -0.0619 -0.6091
 9587TIP3    H128725   6.310   6.496   3.666  1.7162 -0.2498 -1.0911
 9587TIP3    H228726   6.257   6.487   3.524  1.2786 -0.5462 -0.9117
 9588TIP3   OH228727   1.280   5.716   5.342  0.0439  0.5370 -0.2130
 9588TIP3    H128728   1.261   5.634   5.388 -0.9603  0.3499 -0.9173
 9588TIP3    H228729   1.269   5.784   5.409  0.3169  0.1502  0.2360
 9589TIP3   OH228730   6.672   5.298   4.433 -0.2356 -0.2104  0.0899
 9589TIP3    H128731   6.687   5.391   4.450 -1.6421  0.1950 -0.7288
 9589TIP3    H228732   6.717   5.253   4.504  0.5094  1.0961  0.4719
 9590TIP3   OH228733   4.990   1.414   0.768  0.0007 -0.3305 -0.4883
 9590TIP3    H128734   5.047   1.356   0.719  1.4498 -0.1730  0.9461
 9590TIP3    H228735   4.902   1.398   0.733  0.8337 -0.9905 -2.3309
 9591TIP3   OH228736   6.737   2.822   2.391  0.5811 -0.4690 -0.3500
 9591TIP3    H128737   6.759   2.859   2.306  0.0972  0.5049 -0.0637
 9591TIP3    H228738   6.698   2.737   2.371 -0.3708  0.1435 -1.1674
 9592TIP3   OH228739   0.875   0.431   4.540 -0.1621 -0.1305  0.2062
 9592TIP3    H128740   0.829   0.478   4.471 -0.5919  0.0076  0.5799
 9592TIP3    H228741   0.807   0.376   4.581  0.3230 -1.0618 -0.2044
 9593TIP3   OH228742   4.173   2.010   1.901  0.6027  0.1839  0.4783
 9593TIP3    H128743   4.146   2.099   1.923 -0.9131 -0.1771  0.2056
 9593TIP3    H228744   4.096   1.956   1.919  1.3983 -1.0404  0.3689
 9594TIP3   OH228745   4.684   5.334   4.936  0.4293  0.0772  0.1798
 9594TIP3    H128746   4.776   5.318   4.959  0.1654 -1.2185  0.4491
 9594TIP3    H228747   4.672   5.286   4.854  0.2228  1.0267 -0.3589
 9595TIP3   OH228748   1.891   5.289   3.528 -0.0702  0.1960 -0.1351
 9595TIP3    H128749   1.799   5.308   3.546 -0.2111 -0.2596 -0.3645
 9595TIP3    H228750   1.915   5.352   3.460 -0.5031 -0.3480 -0.8056
 9596TIP3   OH228751   5.587   4.112   0.320 -0.3231 -0.6349 -0.6060
 9596TIP3    H128752   5.675   4.127   0.286 -0.6919  0.4041 -1.1649
 9596TIP3    H228753   5.596   4.038   0.379  1.4890  1.0477  1.4232
 9597TIP3   OH228754   4.011   1.413   3.641  0.3615 -0.3567 -0.0348
 9597TIP3    H128755   3.967   1.497   3.626 -1.1792 -0.8044  1.6791
 9597TIP3    H228756   3.962   1.351   3.587  1.0002 -0.3272 -0.6739
 9598TIP3   OH228757   5.794   0.783   4.803  0.1144  0.2851 -0.0247
 9598TIP3    H128758   5.849   0.844   4.754  0.0345  0.7079  0.4052
 9598TIP3    H228759   5.830   0.696   4.784 -0.5952  0.3241 -1.7198
 9599TIP3   OH228760   3.782   5.698   5.548 -0.5115  0.0262 -0.4006
 9599TIP3    H128761   3.824   5.612   5.554 -2.3954 -0.8616  2.1718
 9599TIP3    H228762   3.694   5.679   5.515 -1.4181  0.7128  1.5007
 9600TIP3   OH228763   1.725   6.089   2.663  0.0200  0.5314  0.6500
 9600TIP3    H128764   1.746   6.181   2.673  0.7369  0.2387  2.1036
 9600TIP3    H228765   1.649   6.075   2.721 -0.2184  0.2442  0.2790
 9601TIP3   OH228766   6.862   3.558   3.960  0.3300 -0.0666  0.3417
 9601TIP3    H128767   6.872   3.487   4.025 -1.4056 -0.3784  0.3005
 9601TIP3    H228768   6.879   3.638   4.010 -2.0952 -0.2098  1.5205
 9602TIP3   OH228769   3.854   5.442   4.163  0.7175 -0.3207 -0.6574
 9602TIP3    H128770   3.777   5.457   4.108  2.3009  1.0754 -2.6529
 9602TIP3    H228771   3.822   5.453   4.252 -1.4238  0.0011 -1.3989
 9603TIP3   OH228772   6.009   6.144   5.271  0.2549  0.5985  0.4013
 9603TIP3    H128773   6.072   6.150   5.343  0.3798 -0.2214  0.3677
 9603TIP3    H228774   6.008   6.052   5.247 -0.7673  0.6359  0.2253
 9604TIP3   OH228775   5.551   5.932   3.101  0.0769 -0.2032 -0.1530
 9604TIP3    H128776   5.630   5.951   3.051 -0.7023 -0.0618 -1.3574
 9604TIP3    H228777   5.487   5.996   3.071 -1.2010 -1.7928 -0.9359
 9605TIP3   OH228778   2.270   0.499   2.291 -0.0875  0.2062  0.5656
 9605TIP3    H128779   2.185   0.532   2.319 -0.3629 -0.0972  0.0819
 9605TIP3    H228780   2.288   0.426   2.351 -0.9736 -0.8599 -0.4318
 9606TIP3   OH228781   6.237   6.060   4.232  0.2324 -0.4800  0.5286
 9606TIP3    H128782   6.163   6.002   4.244 -0.6368  0.7018  1.0844
 9606TIP3    H228783   6.302   6.030   4.296 -0.6719 -0.1069  1.6373
 9607TIP3   OH228784   6.805   5.230   3.451  0.5952 -0.5539 -0.1088
 9607TIP3    H128785   6.739   5.174   3.411  0.0517  0.3934 -0.5806
 9607TIP3    H228786   6.760   5.272   3.524  1.4290 -1.8611  1.2007
 9608TIP3   OH228787   2.537   0.300   0.234 -0.1305 -0.1647  0.1611
 9608TIP3    H128788   2.577   0.368   0.288  0.7263 -1.2453  0.9405
 9608TIP3    H228789   2.543   0.221   0.288 -2.4064 -0.6033 -0.1022
 9609TIP3   OH228790   7.060   0.881   1.513 -0.2217 -0.0620 -0.1271
 9609TIP3    H128791   6.980   0.893   1.461 -0.8912 -2.1872  0.3365
 9609TIP3    H228792   7.063   0.958   1.569 -1.4061  0.5472 -0.8424
 9610TIP3   OH228793   3.816   3.830   3.724  0.1105  0.0699  0.0821
 9610TIP3    H128794   3.754   3.768   3.763  0.6819  0.2697  1.3590
 9610TIP3    H228795   3.768   3.871   3.653 -0.0502 -2.4277 -1.3840
 9611TIP3   OH228796   5.648   1.511   1.451  0.3413 -0.3451 -0.2217
 9611TIP3    H128797   5.624   1.484   1.362  0.5985 -1.4078  0.0106
 9611TIP3    H228798   5.566   1.512   1.499  0.0414  1.2718 -0.7020
 9612TIP3   OH228799   1.848   5.351   4.337 -0.5490  0.5415  0.1386
 9612TIP3    H128800   1.916   5.313   4.281  0.8150  1.6740  0.9357
 9612TIP3    H228801   1.887   5.351   4.425 -0.9147  2.6459  0.3689
 9613TIP3   OH228802   3.935   3.196   0.638  0.3006  0.4181 -0.0303
 9613TIP3    H128803   3.987   3.263   0.594 -0.4019  0.5225 -0.7145
 9613TIP3    H228804   3.980   3.182   0.722  0.4669  1.7271  0.1127
 9614TIP3   OH228805   1.289   2.872   1.341 -0.0046  0.7848 -0.3489
 9614TIP3    H128806   1.275   2.818   1.263 -0.7747  0.4017  0.0442
 9614TIP3    H228807   1.265   2.961   1.314 -0.8058  0.5585 -0.3968
 9615TIP3   OH228808   3.926   4.450   3.482 -0.3749 -0.5146 -0.5043
 9615TIP3    H128809   3.862   4.379   3.476 -0.6273 -0.4116  0.7904
 9615TIP3    H228810   3.990   4.430   3.413 -1.8662 -0.5140 -1.9496
 9616TIP3   OH228811   5.554   3.556   0.302 -0.1101  0.0466  0.0455
 9616TIP3    H128812   5.506   3.555   0.219 -1.2663 -1.3788  0.6896
 9616TIP3    H228813   5.612   3.632   0.294  2.0306 -1.6793 -3.3046
 9617TIP3   OH228814   7.219   3.513   0.449 -0.1917  0.8373 -0.0829
 9617TIP3    H128815   7.163   3.583   0.484 -1.2985  0.0428 -0.2090
 9617TIP3    H228816   7.245   3.543   0.363 -2.2899  0.2925 -0.9749
 9618TIP3   OH228817   1.229   4.711   0.718  0.0212  0.2409  0.0405
 9618TIP3    H128818   1.185   4.633   0.752 -2.1915  2.0188  1.5538
 9618TIP3    H228819   1.228   4.699   0.623  0.2714 -1.8108  0.2466
 9619TIP3   OH228820   2.187   3.765   1.779 -0.0570 -0.5625  0.1791
 9619TIP3    H128821   2.228   3.679   1.776 -0.7722 -0.8922 -0.4934
 9619TIP3    H228822   2.105   3.755   1.730 -0.3421  0.3966  0.4243
 9620TIP3   OH228823   4.439   6.077   2.866 -0.1879  0.2467 -0.2676
 9620TIP3    H128824   4.513   6.116   2.914  0.1062 -0.1865 -0.3671
 9620TIP3    H228825   4.362   6.110   2.911  0.0175  1.7613 -0.9593
 9621TIP3   OH228826   3.011   3.329   0.437 -0.2192 -0.0076 -0.1829
 9621TIP3    H128827   3.017   3.391   0.364  0.9606 -0.2272 -0.2949
 9621TIP3    H228828   3.011   3.384   0.515  0.6669  0.1619 -0.2880
 9622TIP3   OH228829   6.165   4.484   0.120 -0.0299 -0.1216  0.1208
 9622TIP3    H128830   6.108   4.521   0.052 -0.0580  1.1688  0.8018
 9622TIP3    H228831   6.244   4.457   0.074  0.2987  1.5113 -0.3545
 9623TIP3   OH228832   4.710   3.173   4.246 -0.1223 -1.0550 -0.3381
 9623TIP3    H128833   4.640   3.203   4.303  1.2194 -1.2670  1.4872
 9623TIP3    H228834   4.709   3.078   4.253  0.2094 -1.0718 -0.4696
 9624TIP3   OH228835   1.957   2.952   2.128  0.2031  0.3231  0.5109
 9624TIP3    H128836   1.985   2.955   2.037  1.8798 -0.6456  0.9539
 9624TIP3    H228837   1.866   2.921   2.124  0.1260  0.6567 -0.8279
 9625TIP3   OH228838   5.063   0.751   1.487  0.1978 -0.3217  0.0480
 9625TIP3    H128839   5.111   0.772   1.407  0.5280 -0.7702  0.1293
 9625TIP3    H228840   5.097   0.666   1.514 -0.9300 -0.8509 -0.1257
 9626TIP3   OH228841   3.507   5.029   5.666  0.6976  0.2470  0.5497
 9626TIP3    H128842   3.539   4.952   5.713 -0.6372  0.2644  1.5334
 9626TIP3    H228843   3.442   4.995   5.604  1.8517  0.3262 -0.7699
 9627TIP3   OH228844   4.574   0.532   0.339 -0.4251  0.1335 -0.5027
 9627TIP3    H128845   4.650   0.584   0.367  0.8643 -2.1161  0.3856
 9627TIP3    H228846   4.504   0.557   0.399  0.6893 -0.4214  1.0849
 9628TIP3   OH228847   1.094   3.719   5.000 -0.0613 -0.2710 -0.2495
 9628TIP3    H128848   1.066   3.628   5.009 -1.6780  0.0258 -1.7082
 9628TIP3    H228849   1.166   3.728   5.062 -0.2628 -2.3668  0.3755
 9629TIP3   OH228850   1.803   4.161   3.351  0.1312  0.1781 -0.0985
 9629TIP3    H128851   1.743   4.190   3.283  0.2971 -1.7579 -1.1289
 9629TIP3    H228852   1.818   4.068   3.333  3.0680  0.4507  0.3951
 9630TIP3   OH228853   0.275   2.578   4.858 -0.3138 -0.0362 -0.0297
 9630TIP3    H128854   0.362   2.583   4.820 -0.4828  2.2615 -0.2617
 9630TIP3    H228855   0.286   2.609   4.948 -0.5749 -1.7004  0.6006
 9631TIP3   OH228856   5.632   1.022   2.540  0.2860 -0.3216  0.6871
 9631TIP3    H128857   5.709   1.077   2.523 -0.0507  0.3286  1.2008
 9631TIP3    H228858   5.643   0.993   2.630  0.4081 -1.0301  0.4513
 9632TIP3   OH228859   4.936   0.971   3.880  0.3165  0.1930  0.1677
 9632TIP3    H128860   4.995   0.981   3.805  0.6216  0.0002  0.3806
 9632TIP3    H228861   4.854   0.940   3.841  0.6240 -0.3829 -0.0379
 9633TIP3   OH228862   3.624   1.932   2.707 -0.4080  0.2709 -0.6184
 9633TIP3    H128863   3.646   1.959   2.796  2.4168 -0.2830 -1.0638
 9633TIP3    H228864   3.539   1.973   2.690 -1.0492  0.3762  2.2999
 9634TIP3   OH228865   0.561   0.803   2.571  0.1830  1.0108  0.4762
 9634TIP3    H128866   0.642   0.758   2.593 -0.4249 -0.6126 -0.4127
 9634TIP3    H228867   0.528   0.835   2.655 -0.1652 -1.7025  1.4842
 9635TIP3   OH228868   6.087   0.883   3.981  0.2353 -0.5068 -0.2739
 9635TIP3    H128869   6.152   0.842   4.038  0.6428 -0.9880 -1.0512
 9635TIP3    H228870   6.073   0.818   3.911  0.7744  0.6038 -1.4549
 9636TIP3   OH228871   5.813   4.863   4.348 -0.4681 -0.5237 -0.3261
 9636TIP3    H128872   5.777   4.850   4.260 -2.8916  0.3758  0.4500
 9636TIP3    H228873   5.817   4.958   4.359  0.8106 -0.6109  0.2015
 9637TIP3   OH228874   5.024   5.235   1.121 -0.2757  0.1538  0.2061
 9637TIP3    H128875   5.109   5.280   1.114 -0.2089  0.1861  1.1088
 9637TIP3    H228876   4.959   5.304   1.109 -0.1760  0.2690  0.3262
 9638TIP3   OH228877   4.002   3.699   0.491 -0.1645 -0.0356  0.2091
 9638TIP3    H128878   4.081   3.648   0.506  0.6324  1.2279  0.4556
 9638TIP3    H228879   3.968   3.667   0.408  0.7394 -0.4339 -0.0191
 9639TIP3   OH228880   2.323   0.617   5.453  0.0739 -0.3363  0.2902
 9639TIP3    H128881   2.287   0.606   5.365  0.7181  0.2256 -0.0478
 9639TIP3    H228882   2.403   0.668   5.441 -1.0964  1.9497  1.4323
 9640TIP3   OH228883   0.853   2.518   4.102  0.1391 -0.1287 -0.2496
 9640TIP3    H128884   0.815   2.502   4.189  0.7129  0.2273  0.0757
 9640TIP3    H228885   0.833   2.439   4.052  2.9465 -1.9912  1.3176
 9641TIP3   OH228886   1.393   4.386   0.844 -0.6413  0.3488  0.1381
 9641TIP3    H128887   1.447   4.428   0.910 -2.0585  0.5347  1.2097
 9641TIP3    H228888   1.387   4.295   0.872 -0.4938  0.2187 -0.2437
 9642TIP3   OH228889   3.968   3.278   2.523 -0.4368 -0.3092  0.4339
 9642TIP3    H128890   3.902   3.295   2.591  0.6673  1.1467  1.1973
 9642TIP3    H228891   3.928   3.313   2.443 -1.0574 -0.4979  0.6534
 9643TIP3   OH228892   4.087   5.986   2.048 -0.2211  0.1672 -0.0754
 9643TIP3    H128893   4.009   5.942   2.084 -0.5201 -1.3752 -2.4233
 9643TIP3    H228894   4.148   5.915   2.031  0.4268  0.9958 -1.3053
 9644TIP3   OH228895   0.719   5.585   1.535  0.2810 -0.0825  0.3673
 9644TIP3    H128896   0.766   5.537   1.467 -0.3872 -0.4332  0.1453
 9644TIP3    H228897   0.785   5.643   1.573  1.3187 -1.6763  1.1397
 9645TIP3   OH228898   0.354   1.507   2.633  0.0222 -0.8241 -0.1959
 9645TIP3    H128899   0.274   1.559   2.624  1.4389  1.3780 -0.7004
 9645TIP3    H228900   0.368   1.469   2.546  1.3769  1.7555 -1.2201
 9646TIP3   OH228901   4.646   1.261   0.400 -0.0032  0.9131 -0.0059
 9646TIP3    H128902   4.591   1.225   0.330 -2.2811  0.9489  1.6721
 9646TIP3    H228903   4.691   1.335   0.359 -0.1438  0.0750 -1.7862
 9647TIP3   OH228904   2.450   5.140   1.318 -0.3922 -0.1788  0.3911
 9647TIP3    H128905   2.505   5.156   1.395  1.8616 -0.3966 -1.1000
 9647TIP3    H228906   2.477   5.053   1.287 -2.0875 -0.5958 -0.0143
 9648TIP3   OH228907   1.210   3.425   4.731 -0.1818 -0.7100 -0.6252
 9648TIP3    H128908   1.297   3.423   4.772 -0.5015  1.1485  0.2322
 9648TIP3    H228909   1.165   3.349   4.769  0.1951 -0.1644  1.0123
 9649TIP3   OH228910   6.171   2.381   1.431  0.8048  0.3427 -0.2666
 9649TIP3    H128911   6.266   2.385   1.420  0.7875  0.5025 -0.3557
 9649TIP3    H228912   6.150   2.288   1.419  0.7450  0.5506 -2.0314
 9650TIP3   OH228913   4.739   6.273   4.969  0.2613  0.1136 -0.1884
 9650TIP3    H128914   4.674   6.327   5.014  0.5939 -0.7629  1.4300
 9650TIP3    H228915   4.703   6.185   4.970  0.7179 -0.0871 -0.7983
 9651TIP3   OH228916   5.909   2.570   4.627 -0.0841  0.1658  0.6446
 9651TIP3    H128917   5.959   2.630   4.571  0.0739 -0.4470  0.1224
 9651TIP3    H228918   5.873   2.626   4.696  0.1807  0.8374  0.2440
 9652TIP3   OH228919   2.094   4.602   4.267 -0.0708  0.2714  0.0645
 9652TIP3    H128920   2.119   4.539   4.336 -0.7870  0.2154  0.2852
 9652TIP3    H228921   2.019   4.561   4.224 -2.0753  1.9586  1.7143
 9653TIP3   OH228922   1.492   1.755   4.198  0.1831  0.5521  0.0169
 9653TIP3    H128923   1.581   1.778   4.223  0.3335  0.9006 -0.8281
 9653TIP3    H228924   1.480   1.794   4.112 -1.1415  1.3776  0.5466
 9654TIP3   OH228925   0.310   6.006   3.719 -0.0027  0.7351 -0.1859
 9654TIP3    H128926   0.303   6.090   3.764  0.4230  0.3308  0.6562
 9654TIP3    H228927   0.399   5.977   3.736 -0.8995 -1.1121  1.7962
 9655TIP3   OH228928   4.254   2.132   3.770  0.1983 -0.0651  0.7298
 9655TIP3    H128929   4.260   2.194   3.842  0.3802  0.6182  0.1466
 9655TIP3    H228930   4.163   2.103   3.770  0.0145  0.4925  0.7885
 9656TIP3   OH228931   1.891   2.155   4.268  0.0212 -0.2888  0.8227
 9656TIP3    H128932   1.932   2.162   4.354  0.2661  1.3263  0.5982
 9656TIP3    H228933   1.964   2.138   4.208 -0.2426 -2.2555  1.0037
 9657TIP3   OH228934   6.663   0.944   2.675  0.2569  0.6764 -0.0811
 9657TIP3    H128935   6.571   0.945   2.700 -0.1031 -0.0311 -1.3157
 9657TIP3    H228936   6.698   0.865   2.715  0.0605  0.3678 -0.5170
 9658TIP3   OH228937   3.591   0.805   2.377 -0.0881 -0.5792  0.0617
 9658TIP3    H128938   3.667   0.851   2.343 -0.0677  1.0331  2.0898
 9658TIP3    H228939   3.624   0.719   2.403  0.4728 -0.7988 -1.3264
 9659TIP3   OH228940   6.639   5.843   0.592 -0.1430  0.1935  0.1145
 9659TIP3    H128941   6.628   5.893   0.511 -0.9562 -0.0671  0.0632
 9659TIP3    H228942   6.559   5.792   0.600  0.3956 -0.6027  0.5166
 9660TIP3   OH228943   0.991   2.119   3.945  0.4039  0.3606 -0.0829
 9660TIP3    H128944   1.039   2.042   3.977 -0.0575 -0.2565 -0.8324
 9660TIP3    H228945   1.028   2.137   3.859 -1.4033 -0.8286 -1.1903
 9661TIP3   OH228946   2.994   0.344   2.297  0.3522  0.1415 -0.2268
 9661TIP3    H128947   2.945   0.423   2.275 -0.4228  0.2745  1.7454
 9661TIP3    H228948   3.081   0.358   2.259  0.6663  2.5693  1.1966
 9662TIP3   OH228949   5.533   0.606   0.397  1.0108  0.0642  0.1724
 9662TIP3    H128950   5.454   0.659   0.389  0.8374 -0.3847 -1.3812
 9662TIP3    H228951   5.573   0.635   0.479  0.8345  2.4777 -0.5072
 9663TIP3   OH228952   2.570   2.640   5.130 -0.2367  0.1200  0.4661
 9663TIP3    H128953   2.520   2.664   5.052  1.3857  1.9974 -0.0880
 9663TIP3    H228954   2.638   2.581   5.099  0.5748  1.0756  0.3552
 9664TIP3   OH228955   4.488   0.137   2.788 -0.0074 -1.0054 -0.1646
 9664TIP3    H128956   4.507   0.185   2.708  1.7203 -2.2395 -0.5429
 9664TIP3    H228957   4.395   0.156   2.806  0.4332  2.0237 -0.5445
 9665TIP3   OH228958   1.808   1.253   3.563 -0.2739  0.1122  0.4966
 9665TIP3    H128959   1.768   1.166   3.573  1.3245 -0.6480  0.7710
 9665TIP3    H228960   1.818   1.285   3.653  0.0040  0.1457  0.4557
 9666TIP3   OH228961   3.082   3.777   1.488  0.7153  0.2126  0.5933
 9666TIP3    H128962   3.039   3.789   1.403  0.6764 -0.2746  0.5462
 9666TIP3    H228963   3.131   3.696   1.479  1.1038  0.4158  0.8773
 9667TIP3   OH228964   5.555   2.373   2.173  0.1217  0.0062  0.5797
 9667TIP3    H128965   5.644   2.356   2.145  0.0969  2.1050 -1.0035
 9667TIP3    H228966   5.501   2.352   2.097 -0.6060  0.0104  1.0779
 9668TIP3   OH228967   1.436   3.618   4.711 -0.3093  0.8229  0.6463
 9668TIP3    H128968   1.443   3.713   4.721  0.2277  0.7831  0.7182
 9668TIP3    H228969   1.433   3.604   4.616 -0.4647  0.9170  0.6372
 9669TIP3   OH228970   4.073   0.867   4.401 -0.0801 -0.2131  0.3943
 9669TIP3    H128971   4.033   0.864   4.489 -0.2398 -0.2128  0.3227
 9669TIP3    H228972   4.106   0.956   4.393 -0.0121 -0.2305  0.4781
 9670TIP3   OH228973   2.464   0.989   2.424  0.1200 -0.2639  0.2242
 9670TIP3    H128974   2.428   1.005   2.511 -1.1443  0.0416 -0.3332
 9670TIP3    H228975   2.504   1.073   2.400  2.7669 -1.0461  1.4956
 9671TIP3   OH228976   4.933   2.278   0.615 -0.3487 -0.0405  0.2642
 9671TIP3    H128977   5.005   2.306   0.558  1.2342 -2.4506  0.9461
 9671TIP3    H228978   4.880   2.220   0.560 -0.5116 -0.0328  0.4118
 9672TIP3   OH228979   4.217   0.130   0.984  0.0221 -0.0828 -0.2102
 9672TIP3    H128980   4.277   0.105   0.914  1.6659  0.9964  0.7433
 9672TIP3    H228981   4.151   0.185   0.942 -0.7699 -1.8652 -1.4085
 9673TIP3   OH228982   2.748   2.679   3.442 -0.4382 -0.0937  0.7413
 9673TIP3    H128983   2.793   2.722   3.515 -0.6083  0.7705  0.3505
 9673TIP3    H228984   2.719   2.751   3.386  0.4139 -0.7664 -0.6171
 9674TIP3   OH228985   0.466   2.972   0.437 -0.1384  0.0666 -0.1413
 9674TIP3    H128986   0.549   3.016   0.418 -0.2686  0.5130  0.2976
 9674TIP3    H228987   0.486   2.879   0.428  0.5605  0.1400  0.4893
 9675TIP3   OH228988   2.434   4.791   4.917  0.1666 -0.3948 -0.1499
 9675TIP3    H128989   2.436   4.704   4.957 -0.8314 -0.4596 -0.1939
 9675TIP3    H228990   2.397   4.777   4.830  0.4963  0.0074 -0.3597
 9676TIP3   OH228991   2.756   4.510   2.900  0.0773 -0.2802  0.5158
 9676TIP3    H128992   2.849   4.520   2.881  0.0449  0.4996  0.7188
 9676TIP3    H228993   2.742   4.415   2.905  1.0114 -0.3989  1.2144
 9677TIP3   OH228994   1.482   3.401   4.902  0.7537  0.7745 -0.0464
 9677TIP3    H128995   1.508   3.383   4.812 -0.2631  0.4866 -0.2893
 9677TIP3    H228996   1.464   3.495   4.903  2.3609  1.1115  0.2831
 9678TIP3   OH228997   0.964   2.220   3.527  0.4174 -0.2434  0.1079
 9678TIP3    H128998   0.934   2.309   3.512 -0.5301 -0.3668  1.1187
 9678TIP3    H228999   1.058   2.222   3.511  0.1635  0.5746 -1.4025
 9679TIP3   OH229000   0.716   2.402   4.862  0.0260 -0.2199 -0.2300
 9679TIP3    H129001   0.721   2.343   4.937  0.1219  0.8004  0.5963
 9679TIP3    H229002   0.771   2.476   4.886 -0.6283  0.5244 -0.9415
 9680TIP3   OH229003   0.325   5.268   5.039 -0.3956 -0.3268  0.1552
 9680TIP3    H129004   0.380   5.233   4.969  1.0691 -0.1331  1.1563
 9680TIP3    H229005   0.247   5.214   5.038 -0.9056  0.3324 -2.2966
 9681TIP3   OH229006   4.178   1.410   5.236  0.2315 -0.4318 -0.4192
 9681TIP3    H129007   4.253   1.374   5.189  0.0802 -1.4702  0.1100
 9681TIP3    H229008   4.167   1.352   5.311  1.3514  1.9363  1.7349
 9682TIP3   OH229009   2.355   3.838   2.169  0.4316 -0.3070  0.1463
 9682TIP3    H129010   2.398   3.753   2.161  0.7230 -0.2681  1.1324
 9682TIP3    H229011   2.262   3.819   2.158  0.6021 -0.5620 -0.8696
 9683TIP3   OH229012   4.191   5.232   4.870 -0.3845 -0.2576 -0.5364
 9683TIP3    H129013   4.143   5.305   4.831  1.2655 -0.4830 -3.2260
 9683TIP3    H229014   4.247   5.272   4.936 -0.9549  0.6049 -0.5619
 9684TIP3   OH229015   0.106   0.960   3.177  0.0286  0.1961 -0.0939
 9684TIP3    H129016   0.157   1.022   3.126 -1.3132  0.8147 -0.7392
 9684TIP3    H229017   0.153   0.953   3.260  0.3163  1.9738 -0.0606
 9685TIP3   OH229018   0.341   1.625   3.726 -0.1440 -0.2303 -0.6030
 9685TIP3    H129019   0.377   1.693   3.783 -0.9491 -1.3987  1.3998
 9685TIP3    H229020   0.270   1.586   3.777 -0.0466 -2.2121 -1.8676
 9686TIP3   OH229021   1.292   4.584   2.095  0.6736  0.7172 -0.4716
 9686TIP3    H129022   1.311   4.517   2.161 -0.4903  0.7567 -0.0817
 9686TIP3    H229023   1.298   4.537   2.012 -0.9107 -0.0973 -0.1681
 9687TIP3   OH229024   2.176   6.438   1.564 -0.1097  0.3851  0.0404
 9687TIP3    H129025   2.262   6.479   1.562 -0.3999  1.0535  0.9169
 9687TIP3    H229026   2.134   6.466   1.483  0.8789 -0.8415 -0.9452
 9688TIP3   OH229027   1.728   6.165   5.189 -0.7631  0.0503  0.4542
 9688TIP3    H129028   1.772   6.140   5.108  0.2444 -1.0751  1.3100
 9688TIP3    H229029   1.788   6.137   5.259 -2.1456 -0.1395  1.6244
 9689TIP3   OH229030   0.287   1.589   0.541 -0.6988 -0.2374 -0.5551
 9689TIP3    H129031   0.252   1.630   0.462  0.6426  0.3429 -0.8847
 9689TIP3    H229032   0.371   1.552   0.514  0.6792  1.5707  0.9654
 9690TIP3   OH229033   0.625   1.206   1.789  0.2434 -0.5093 -0.2197
 9690TIP3    H129034   0.547   1.186   1.841 -0.7245 -1.4306 -1.9371
 9690TIP3    H229035   0.684   1.132   1.806  0.1120 -0.5910 -0.1171
 9691TIP3   OH229036   3.186   0.110   0.315 -0.4958 -0.0173 -0.4440
 9691TIP3    H129037   3.218   0.196   0.289 -0.3437  0.0329 -0.0866
 9691TIP3    H229038   3.140   0.125   0.397 -1.0436 -0.1667 -0.7125
 9692TIP3   OH229039   0.072   6.802   0.660 -0.4768 -0.4812 -0.2818
 9692TIP3    H129040   0.088   6.804   0.754  1.0860  0.1305 -0.5300
 9692TIP3    H229041   0.063   6.708   0.639 -2.4635 -0.5539  0.6801
 9693TIP3   OH229042   0.039   3.624   2.460 -0.0560  0.2658 -0.1578
 9693TIP3    H129043   0.011   3.678   2.534  0.7713 -3.1745  2.9186
 9693TIP3    H229044   0.129   3.650   2.444 -0.0256  0.5819  0.5042
 9694TIP3   OH229045   1.749   1.773   1.771  0.0343  0.4364 -0.2930
 9694TIP3    H129046   1.785   1.855   1.804  2.8794 -0.6554 -0.3687
 9694TIP3    H229047   1.753   1.713   1.845  1.1672 -0.5088 -1.0781
 9695TIP3   OH229048   5.540   0.413   5.521 -0.0249 -0.2068 -0.0366
 9695TIP3    H129049   5.565   0.321   5.512  0.3130 -0.2034  0.7675
 9695TIP3    H229050   5.480   0.414   5.596 -0.4873  0.1525 -0.4005
 9696TIP3   OH229051   1.002   1.985   4.896  0.4919 -0.5724 -0.3681
 9696TIP3    H129052   1.072   1.976   4.831 -0.2509  0.9192 -1.4481
 9696TIP3    H229053   0.923   2.005   4.844  0.2475  2.7711  0.9798
 9697TIP3   OH229054   0.752   4.938   2.892  0.2360 -0.3604 -0.5587
 9697TIP3    H129055   0.816   4.942   2.963  0.7432  1.1696 -1.0688
 9697TIP3    H229056   0.759   5.023   2.849 -1.3249 -0.6020 -1.3478
 9698TIP3   OH229057   6.128   6.334   5.592  0.3886 -0.0447 -0.2230
 9698TIP3    H129058   6.123   6.249   5.548 -0.5916 -0.1168  0.0091
 9698TIP3    H229059   6.040   6.369   5.586  0.6776  0.7609  0.0925
 9699TIP3   OH229060   0.071   3.423   5.226  0.5103 -0.1389  0.2262
 9699TIP3    H129061   0.086   3.404   5.319 -0.2747 -1.7123  0.0656
 9699TIP3    H229062   0.153   3.400   5.183  0.7421  0.2150  0.4726
 9700TIP3   OH229063   3.480   4.062   4.480 -0.3701 -0.6382 -0.4233
 9700TIP3    H129064   3.531   4.097   4.407 -0.0465 -0.3649 -0.0732
 9700TIP3    H229065   3.523   4.098   4.558 -0.4096 -1.3179 -0.0789
 9701TIP3   OH229066   5.570   6.346   5.809  0.1797  0.5406  0.0142
 9701TIP3    H129067   5.535   6.337   5.720  0.7385  1.1925 -0.2701
 9701TIP3    H229068   5.550   6.436   5.833 -0.0742  0.3317  0.6046
 9702TIP3   OH229069   5.896   0.166   5.240  0.9674 -0.0687  0.0049
 9702TIP3    H129070   5.968   0.206   5.289  0.7615  0.4883 -0.1373
 9702TIP3    H229071   5.906   0.072   5.254  1.0227  0.0680  0.9647
 9703TIP3   OH229072   1.208   0.974   3.623 -0.0706  0.1305  0.2849
 9703TIP3    H129073   1.156   0.983   3.543 -1.6682 -0.7226  1.1718
 9703TIP3    H229074   1.242   0.885   3.620 -0.2891  0.0320  0.6348
 9704TIP3   OH229075   2.614   5.523   2.899  0.0673  0.4550  0.0734
 9704TIP3    H129076   2.626   5.465   2.975  0.4674 -0.2501 -0.5099
 9704TIP3    H229077   2.629   5.611   2.934  0.7394  0.1047  0.7148
 9705TIP3   OH229078   4.853   5.845   1.333 -0.6949  0.0124  0.0061
 9705TIP3    H129079   4.919   5.803   1.387 -0.9582  0.3311  0.5958
 9705TIP3    H229080   4.821   5.777   1.274  1.6456  0.3536 -1.7788
 9706TIP3   OH229081   0.834   0.074   4.352  0.1689  0.1208  0.5089
 9706TIP3    H129082   0.835   0.165   4.324  0.0271  0.5043  1.7174
 9706TIP3    H229083   0.909   0.035   4.307  1.8898  1.4899  2.0430
 9707TIP3   OH229084   0.698   4.353   2.461  0.1926 -0.0467  0.5203
 9707TIP3    H129085   0.683   4.283   2.398 -0.8606  0.0350  0.6558
 9707TIP3    H229086   0.743   4.422   2.412  0.6200 -0.5380  0.2177
 9708TIP3   OH229087   1.838   1.751   5.686 -0.0122  0.6305 -0.1628
 9708TIP3    H129088   1.772   1.706   5.739  0.0053  1.0404  0.2121
 9708TIP3    H229089   1.897   1.791   5.749 -0.2220  1.4619 -0.4820
 9709TIP3   OH229090   1.586   1.981   2.879  0.1059  0.6605  0.1169
 9709TIP3    H129091   1.515   1.952   2.937 -0.0064  1.1903  0.2517
 9709TIP3    H229092   1.649   2.022   2.937 -0.0137  1.2084 -0.1401
 9710TIP3   OH229093   1.233   3.114   4.132 -0.2814 -0.6988 -0.0434
 9710TIP3    H129094   1.300   3.147   4.072  0.2802  0.9075  1.3713
 9710TIP3    H229095   1.268   3.031   4.163  0.4493 -0.4976 -0.2964
 9711TIP3   OH229096   6.555   1.572   5.490 -0.1864  0.6459 -0.3178
 9711TIP3    H129097   6.489   1.627   5.447  0.0545  1.6742  0.5965
 9711TIP3    H229098   6.514   1.545   5.572  0.9711  2.3889  0.8891
 9712TIP3   OH229099   2.822   1.342   5.778 -0.8081 -0.3358  0.5053
 9712TIP3    H129100   2.743   1.396   5.779 -0.2002  0.5900  0.8085
 9712TIP3    H229101   2.882   1.390   5.719  0.0824 -0.1665  1.5182
 9713TIP3   OH229102   0.937   1.410   3.392  0.1161 -0.3430  0.7883
 9713TIP3    H129103   0.952   1.416   3.298 -0.0613 -0.9696  0.7155
 9713TIP3    H229104   0.875   1.480   3.412  0.7609  0.2999  0.5778
 9714TIP3   OH229105   2.167   2.101   3.578  0.1707  0.0745 -0.5590
 9714TIP3    H129106   2.171   2.175   3.518 -0.7110  1.1508  0.6499
 9714TIP3    H229107   2.076   2.072   3.576 -0.0361  0.5475  0.6903
 9715TIP3   OH229108   3.267   1.595   4.149 -0.1090 -0.1597 -0.2868
 9715TIP3    H129109   3.251   1.512   4.104  0.0786  0.1445 -0.9278
 9715TIP3    H229110   3.323   1.571   4.224 -0.3023 -0.6481 -0.2936
 9716TIP3   OH229111   0.234   1.812   1.298  0.3204 -0.3666 -1.1473
 9716TIP3    H129112   0.174   1.838   1.228  0.2577 -0.4348 -1.1176
 9716TIP3    H229113   0.267   1.895   1.332  0.2370 -0.3294 -1.1570
 9717TIP3   OH229114   3.054   0.555   0.637 -0.4653  0.1353  0.3680
 9717TIP3    H129115   2.979   0.592   0.591 -0.6369 -0.2798  0.3096
 9717TIP3    H229116   3.027   0.466   0.659 -0.2342  0.1914  0.9137
 9718TIP3   OH229117   4.951   4.454   2.258 -0.0945 -0.5622 -0.4936
 9718TIP3    H129118   5.011   4.514   2.214  0.7010 -0.2539  0.9194
 9718TIP3    H229119   5.001   4.374   2.271 -0.1921 -0.5285  0.1328
 9719TIP3   OH229120   6.046   3.531   2.460 -0.3705 -0.2223 -0.1674
 9719TIP3    H129121   5.993   3.501   2.386  0.0444  0.0701 -0.5891
 9719TIP3    H229122   6.012   3.619   2.479 -2.5617 -1.4116  1.9893
 9720TIP3   OH229123   2.664   0.818   1.901 -0.2871 -0.5767  0.0830
 9720TIP3    H129124   2.695   0.886   1.841  1.9721 -0.0150  1.7521
 9720TIP3    H229125   2.735   0.754   1.903 -1.5731 -2.0597 -0.0123
 9721TIP3   OH229126   1.114   1.366   5.784 -0.1839  0.0801 -0.0583
 9721TIP3    H129127   1.070   1.388   5.866 -0.1397 -3.2801  1.0225
 9721TIP3    H229128   1.201   1.403   5.793 -0.5020  0.6094  0.9837
 9722TIP3   OH229129   1.006   6.568   4.540  0.7421  0.2142  0.5250
 9722TIP3    H129130   1.077   6.505   4.549 -0.2475 -0.9593  0.3888
 9722TIP3    H229131   0.973   6.555   4.451  0.5424  0.9574  0.4799
 9723TIP3   OH229132   5.405   4.759   1.293 -0.1483  0.2359 -0.7175
 9723TIP3    H129133   5.382   4.670   1.321 -1.8632  0.1532 -2.2496
 9723TIP3    H229134   5.494   4.772   1.327  0.5079 -2.3993 -1.1890
 9724TIP3   OH229135   2.194   2.344   0.973  0.4112 -0.3796 -0.1697
 9724TIP3    H129136   2.169   2.375   1.060  1.9894 -0.0008  0.1829
 9724TIP3    H229137   2.290   2.347   0.973  0.4326  0.2927 -2.1640
 9725TIP3   OH229138   3.108   5.128   1.291 -0.2929  0.6185 -0.2264
 9725TIP3    H129139   3.014   5.111   1.292 -0.1465 -0.2088 -0.3177
 9725TIP3    H229140   3.130   5.149   1.381 -0.0001 -2.4199  0.4991
 9726TIP3   OH229141   1.747   2.724   2.487 -0.3725  0.1946  0.1542
 9726TIP3    H129142   1.731   2.796   2.426 -1.0208  0.1407  0.2515
 9726TIP3    H229143   1.841   2.707   2.480 -0.2080  1.0655  0.1560
 9727TIP3   OH229144   4.801   0.946   2.257 -0.0584 -0.0218 -0.2463
 9727TIP3    H129145   4.810   0.921   2.349 -0.4273 -1.0092 -0.4602
 9727TIP3    H229146   4.828   1.037   2.254 -0.6968  0.2322  0.9657
 9728TIP3   OH229147   3.690   0.683   3.514  0.0679 -0.1346  0.1445
 9728TIP3    H129148   3.761   0.746   3.503 -1.9982  1.9241 -3.2859
 9728TIP3    H229149   3.645   0.710   3.594  1.4073  0.4000  0.7310
 9729TIP3   OH229150   5.457   1.518   4.755  0.0933 -0.2377  0.0083
 9729TIP3    H129151   5.492   1.457   4.819 -1.3946 -0.7077  0.4040
 9729TIP3    H229152   5.369   1.485   4.734  0.3810  0.1067 -1.9941
 9730TIP3   OH229153   2.876   3.166   2.678  0.0881  0.2893  0.0415
 9730TIP3    H129154   2.793   3.210   2.697 -0.7645 -1.4143  0.4197
 9730TIP3    H229155   2.902   3.127   2.762  1.1174  0.5130 -0.1539
 9731TIP3   OH229156   5.584   2.424   1.823  0.1416 -0.1627 -0.4251
 9731TIP3    H129157   5.669   2.468   1.818  0.0983  0.2990  1.8079
 9731TIP3    H229158   5.531   2.481   1.878 -1.1845 -1.1169 -0.6725
 9732TIP3   OH229159   1.765   3.312   2.612 -0.1353  0.1865 -0.2646
 9732TIP3    H129160   1.780   3.300   2.518 -0.9549 -3.1971 -0.1069
 9732TIP3    H229161   1.850   3.337   2.647  0.7821 -0.8817 -1.6139
 9733TIP3   OH229162   5.422   2.296   0.440  0.1450  0.3398 -0.2113
 9733TIP3    H129163   5.457   2.384   0.449 -0.6037  0.4354  3.0502
 9733TIP3    H229164   5.482   2.240   0.490 -0.1692 -0.7764 -1.0284
 9734TIP3   OH229165   6.333   2.446   2.764 -0.0351 -0.1752  0.3849
 9734TIP3    H129166   6.428   2.457   2.775 -0.2694  0.8812  1.4441
 9734TIP3    H229167   6.298   2.448   2.852 -1.0823 -0.2812 -0.0176
 9735TIP3   OH229168   6.804   0.780   4.915  0.9239  0.4201  0.2303
 9735TIP3    H129169   6.728   0.725   4.935  0.1357  1.1518 -0.6550
 9735TIP3    H229170   6.852   0.731   4.848  0.5368  0.5338 -0.1348
 9736TIP3   OH229171   3.833   3.654   1.814 -0.1255 -0.4397  0.4086
 9736TIP3    H129172   3.922   3.667   1.780  0.2706 -0.4119  1.4165
 9736TIP3    H229173   3.798   3.742   1.823 -0.4354 -0.4711 -0.4327
 9737TIP3   OH229174   0.163   2.187   5.808 -0.2066 -0.3154 -0.3193
 9737TIP3    H129175   0.230   2.138   5.857 -0.6982  0.2908  1.0134
 9737TIP3    H229176   0.185   2.173   5.716  2.1263  0.3464  0.0687
 9738TIP3   OH229177   1.526   2.712   5.784  0.0994 -0.0066 -0.4988
 9738TIP3    H129178   1.475   2.773   5.838  1.4897  0.1002  0.7544
 9738TIP3    H229179   1.485   2.627   5.799  0.1432  0.1098  0.2920
 9739TIP3   OH229180   7.160   6.343   0.255 -0.4635  0.2471  0.5107
 9739TIP3    H129181   7.224   6.276   0.232  1.5843  2.2469 -0.0495
 9739TIP3    H229182   7.084   6.324   0.200 -0.3520 -2.1351  1.0881
 9740TIP3   OH229183   4.869   5.432   1.529 -0.6699  0.0149  0.0841
 9740TIP3    H129184   4.934   5.374   1.568  0.2353  0.5926 -0.5249
 9740TIP3    H229185   4.812   5.456   1.602 -0.1173 -0.3838  0.6641
 9741TIP3   OH229186   3.850   1.452   4.480 -0.5031 -0.0156  0.3403
 9741TIP3    H129187   3.756   1.470   4.475 -0.3886  0.4047 -0.3983
 9741TIP3    H229188   3.890   1.539   4.477 -0.0056 -0.2719 -1.5772
 9742TIP3   OH229189   4.144   0.404   5.364 -0.2060  0.5258 -0.0735
 9742TIP3    H129190   4.069   0.461   5.346 -0.0241  0.7438 -0.1462
 9742TIP3    H229191   4.217   0.445   5.318 -0.1057  0.1461 -0.2540
 9743TIP3   OH229192   6.409   3.734   3.623  0.5609 -0.4318  0.5397
 9743TIP3    H129193   6.474   3.694   3.680 -0.3343 -0.6598  1.4501
 9743TIP3    H229194   6.330   3.681   3.636 -0.4157  1.0776  1.1302
 9744TIP3   OH229195   4.860   1.530   1.821  0.3123  0.2853 -0.0512
 9744TIP3    H129196   4.895   1.568   1.741  0.2545  1.3028  0.3932
 9744TIP3    H229197   4.771   1.562   1.826  0.8825  1.7750  1.3571
 9745TIP3   OH229198   3.725   5.981   1.701 -0.4343  0.0704  0.1883
 9745TIP3    H129199   3.759   6.070   1.714 -0.9132  0.3215 -0.2610
 9745TIP3    H229200   3.801   5.924   1.714 -0.1027  0.5522  0.3765
 9746TIP3   OH229201   5.781   0.491   0.886 -0.0238 -0.2808  0.2650
 9746TIP3    H129202   5.850   0.482   0.820 -0.0039 -1.4062  0.4266
 9746TIP3    H229203   5.829   0.505   0.968 -0.0409  0.7582  0.1072
 9747TIP3   OH229204   3.522   2.750   0.700 -0.7225 -0.5716 -0.3525
 9747TIP3    H129205   3.478   2.716   0.622 -1.0931  0.6573 -0.7083
 9747TIP3    H229206   3.589   2.809   0.665  0.1041 -1.1445  0.2367
 9748TIP3   OH229207   6.229   2.123   4.530 -0.2568 -0.1850 -0.5307
 9748TIP3    H129208   6.147   2.074   4.534 -0.1587 -0.2813  2.4349
 9748TIP3    H229209   6.206   2.211   4.559  0.4117  0.2407 -1.2574
 9749TIP3   OH229210   2.860   3.971   5.754  0.4812 -0.3489 -0.5385
 9749TIP3    H129211   2.892   3.940   5.838 -2.7156 -0.2362  0.8387
 9749TIP3    H229212   2.813   3.896   5.717 -0.7639  0.5059 -0.7479
   7.21181   6.79936   5.88841   0.00000   0.00000  -2.40394   0.00000  -2.40394  -3.39968
