Title t= 214.00000 step= 107000
19942
    1ASP      N    1   1.204   2.254   3.740
    1ASP    HT1    2   1.178   2.279   3.838
    1ASP    HT2    3   1.120   2.220   3.690
    1ASP    HT3    4   1.225   2.346   3.695
    1ASP     CA    5   1.325   2.172   3.742
    1ASP     HA    6   1.406   2.236   3.775
    1ASP     CB    7   1.293   2.064   3.847
    1ASP    HB1    8   1.226   1.986   3.804
    1ASP    HB2    9   1.243   2.117   3.931
    1ASP     CG   10   1.419   2.006   3.906
    1ASP    OD1   11   1.420   1.888   3.950
    1ASP    OD2   12   1.511   2.083   3.935
    1ASP      C   13   1.364   2.114   3.609
    1ASP      O   14   1.436   2.174   3.539
    2ALA      N   15   1.319   1.996   3.570
    2ALA     HN   16   1.254   1.948   3.628
    2ALA     CA   17   1.361   1.932   3.453
    2ALA     HA   18   1.464   1.959   3.435
    2ALA     CB   19   1.354   1.777   3.489
    2ALA    HB1   20   1.426   1.745   3.568
    2ALA    HB2   21   1.372   1.711   3.402
    2ALA    HB3   22   1.251   1.750   3.520
    2ALA      C   23   1.270   1.961   3.331
    2ALA      O   24   1.158   2.007   3.340
    3ASP      N   25   1.332   1.949   3.214
    3ASP     HN   26   1.426   1.919   3.204
    3ASP     CA   27   1.268   1.985   3.089
    3ASP     HA   28   1.224   2.083   3.097
    3ASP     CB   29   1.363   1.981   2.969
    3ASP    HB1   30   1.310   1.998   2.872
    3ASP    HB2   31   1.424   1.888   2.965
    3ASP     CG   32   1.464   2.090   2.992
    3ASP    OD1   33   1.577   2.057   3.025
    3ASP    OD2   34   1.422   2.208   3.002
    3ASP      C   35   1.147   1.893   3.049
    3ASP      O   36   1.143   1.773   3.077
    4GLY      N   37   1.044   1.957   2.993
    4GLY     HN   38   1.056   2.054   2.976
    4GLY     CA   39   0.925   1.896   2.939
    4GLY    HA1   40   0.870   1.975   2.890
    4GLY    HA2   41   0.872   1.854   3.023
    4GLY      C   42   0.944   1.794   2.824
    4GLY      O   43   1.051   1.807   2.757
    5PRO      N   44   0.853   1.700   2.796
    5PRO     CD   45   0.753   1.653   2.889
    5PRO    HD1   46   0.671   1.728   2.889
    5PRO    HD2   47   0.801   1.639   2.988
    5PRO     CA   48   0.866   1.605   2.682
    5PRO     HA   49   0.945   1.536   2.709
    5PRO     CB   50   0.728   1.545   2.673
    5PRO    HB1   51   0.737   1.450   2.616
    5PRO    HB2   52   0.649   1.610   2.630
    5PRO     CG   53   0.699   1.529   2.823
    5PRO    HG1   54   0.590   1.512   2.839
    5PRO    HG2   55   0.739   1.434   2.864
    5PRO      C   56   0.917   1.669   2.552
    5PRO      O   57   0.879   1.782   2.514
    6GLY      N   58   1.010   1.605   2.480
    6GLY     HN   59   1.056   1.537   2.536
    6GLY     CA   60   1.066   1.639   2.350
    6GLY    HA1   61   1.163   1.592   2.346
    6GLY    HA2   62   1.067   1.747   2.345
    6GLY      C   63   0.977   1.577   2.241
    6GLY      O   64   0.857   1.557   2.255
    7ASP      N   65   1.032   1.544   2.126
    7ASP     HN   66   1.121   1.585   2.107
    7ASP     CA   67   0.950   1.490   2.016
    7ASP     HA   68   0.874   1.564   1.994
    7ASP     CB   69   1.045   1.486   1.889
    7ASP    HB1   70   1.134   1.430   1.924
    7ASP    HB2   71   1.075   1.592   1.873
    7ASP     CG   72   0.997   1.420   1.769
    7ASP    OD1   73   0.874   1.402   1.750
    7ASP    OD2   74   1.079   1.407   1.675
    7ASP      C   75   0.872   1.356   2.045
    7ASP      O   76   0.944   1.265   2.080
    8PRO      N   77   0.742   1.335   2.031
    8PRO     CD   78   0.646   1.445   2.024
    8PRO    HD1   79   0.629   1.463   1.916
    8PRO    HD2   80   0.689   1.536   2.071
    8PRO     CA   81   0.685   1.207   2.062
    8PRO     HA   82   0.716   1.179   2.162
    8PRO     CB   83   0.539   1.236   2.062
    8PRO    HB1   84   0.483   1.172   2.133
    8PRO    HB2   85   0.486   1.210   1.967
    8PRO     CG   86   0.525   1.388   2.081
    8PRO    HG1   87   0.432   1.431   2.039
    8PRO    HG2   88   0.517   1.404   2.190
    8PRO      C   89   0.719   1.089   1.977
    8PRO      O   90   0.682   0.979   2.014
    9ASP      N   91   0.782   1.112   1.861
    9ASP     HN   92   0.790   1.206   1.829
    9ASP     CA   93   0.849   1.011   1.783
    9ASP     HA   94   0.776   0.934   1.763
    9ASP     CB   95   0.896   1.061   1.641
    9ASP    HB1   96   0.956   0.979   1.597
    9ASP    HB2   97   0.960   1.152   1.649
    9ASP     CG   98   0.790   1.096   1.542
    9ASP    OD1   99   0.823   1.156   1.438
    9ASP    OD2  100   0.674   1.058   1.555
    9ASP      C  101   0.965   0.941   1.857
    9ASP      O  102   0.986   0.819   1.860
   10ALA      N  103   1.050   1.016   1.929
   10ALA     HN  104   1.037   1.115   1.930
   10ALA     CA  105   1.164   0.977   2.013
   10ALA     HA  106   1.224   0.923   1.941
   10ALA     CB  107   1.255   1.101   2.038
   10ALA    HB1  108   1.254   1.168   1.949
   10ALA    HB2  109   1.361   1.073   2.059
   10ALA    HB3  110   1.209   1.142   2.131
   10ALA      C  111   1.129   0.874   2.124
   10ALA      O  112   1.022   0.887   2.188
   11GLY      N  113   1.212   0.769   2.146
   11GLY     HN  114   1.295   0.767   2.091
   11GLY     CA  115   1.199   0.669   2.245
   11GLY    HA1  116   1.194   0.579   2.185
   11GLY    HA2  117   1.116   0.684   2.312
   11GLY      C  118   1.327   0.653   2.330
   11GLY    OT1  119   1.318   0.685   2.452
   11GLY    OT2  120   1.436   0.616   2.281
   12LIT    LIT  121   4.295   4.208   1.906
   13LIT    LIT  122   1.736   2.786   1.768
   14LIT    LIT  123   0.817   4.773   4.123
   15LIT    LIT  124   6.003   0.382   4.797
   16LIT    LIT  125   0.116   1.123   3.723
   17LIT    LIT  126   3.579   5.375   3.411
   18LIT    LIT  127   1.868   3.296   2.726
   19LIT    LIT  128   0.436   0.936   1.113
   20LIT    LIT  129   2.334   1.538   3.554
   21LIT    LIT  130   0.572   5.889   4.759
   22LIT    LIT  131   6.020   3.548   2.136
   23LIT    LIT  132   6.125   0.870   2.448
   24LIT    LIT  133   3.895   2.224   0.136
   25LIT    LIT  134   1.454   4.414   1.718
   26LIT    LIT  135   2.699   1.458   5.071
   27LIT    LIT  136   0.061   5.911   3.478
   28LIT    LIT  137   1.616   1.912   3.984
   29LIT    LIT  138   2.311   5.150   1.484
   30LIT    LIT  139   2.242   0.514   3.990
   31LIT    LIT  140   4.286   3.644   2.839
   32LIT    LIT  141   0.854   0.217   2.200
   33LIT    LIT  142   3.582   1.564   0.363
   34CLA    CLA  143   2.098   2.634   1.168
   35CLA    CLA  144   5.777   0.976   3.276
   36CLA    CLA  145   4.449   2.753   3.498
   37CLA    CLA  146   5.873   1.455   4.591
   38CLA    CLA  147   2.533   2.278   4.514
   39CLA    CLA  148   2.336   0.023   3.076
   40CLA    CLA  149   0.778   1.163   4.750
   41CLA    CLA  150   1.352   2.408   0.687
   42CLA    CLA  151   4.211   5.108   1.571
   43CLA    CLA  152   1.005   1.807   5.120
   44CLA    CLA  153   4.354   0.167   1.402
   45CLA    CLA  154   2.268   0.921   4.191
   46CLA    CLA  155   3.389   1.901   3.752
   47CLA    CLA  156   2.837   1.284   5.100
   48CLA    CLA  157   3.320   0.249   4.304
   49CLA    CLA  158   6.088   1.308   2.117
   50CLA    CLA  159   1.418   2.291   0.035
   51CLA    CLA  160   2.369   5.665   1.914
   52TIP3   OH2  161   1.476   0.939   4.550
   52TIP3    H1  162   1.429   1.022   4.564
   52TIP3    H2  163   1.410   0.880   4.514
   53TIP3   OH2  164   1.645   4.651   3.055
   53TIP3    H1  165   1.626   4.557   3.059
   53TIP3    H2  166   1.564   4.693   3.083
   54TIP3   OH2  167   1.973   0.573   3.314
   54TIP3    H1  168   2.027   0.579   3.234
   54TIP3    H2  169   1.994   0.652   3.363
   55TIP3   OH2  170   4.185   5.361   1.375
   55TIP3    H1  171   4.148   5.290   1.427
   55TIP3    H2  172   4.149   5.348   1.287
   56TIP3   OH2  173   0.952   5.800   0.262
   56TIP3    H1  174   0.885   5.864   0.239
   56TIP3    H2  175   0.904   5.724   0.292
   57TIP3   OH2  176   0.346   3.674   4.935
   57TIP3    H1  177   0.317   3.582   4.939
   57TIP3    H2  178   0.264   3.724   4.932
   58TIP3   OH2  179   5.413   4.231   5.032
   58TIP3    H1  180   5.480   4.235   4.964
   58TIP3    H2  181   5.339   4.280   4.995
   59TIP3   OH2  182   4.075   2.951   4.972
   59TIP3    H1  183   4.051   3.026   5.027
   59TIP3    H2  184   4.012   2.952   4.900
   60TIP3   OH2  185   1.585   1.089   4.806
   60TIP3    H1  186   1.531   1.093   4.727
   60TIP3    H2  187   1.664   1.043   4.779
   61TIP3   OH2  188   6.202   5.786   0.246
   61TIP3    H1  189   6.145   5.753   0.177
   61TIP3    H2  190   6.269   5.836   0.199
   62TIP3   OH2  191   5.276   3.101   2.596
   62TIP3    H1  192   5.228   3.162   2.651
   62TIP3    H2  193   5.220   3.023   2.590
   63TIP3   OH2  194   4.434   5.917   1.048
   63TIP3    H1  195   4.385   5.910   1.130
   63TIP3    H2  196   4.481   5.834   1.041
   64TIP3   OH2  197   1.610   5.250   2.017
   64TIP3    H1  198   1.549   5.323   2.025
   64TIP3    H2  199   1.696   5.289   2.032
   65TIP3   OH2  200   4.823   1.452   1.809
   65TIP3    H1  201   4.758   1.521   1.802
   65TIP3    H2  202   4.902   1.489   1.770
   66TIP3   OH2  203   1.991   5.943   4.342
   66TIP3    H1  204   1.995   6.037   4.327
   66TIP3    H2  205   1.898   5.921   4.335
   67TIP3   OH2  206   2.518   0.576   3.694
   67TIP3    H1  207   2.602   0.558   3.736
   67TIP3    H2  208   2.539   0.634   3.621
   68TIP3   OH2  209   3.094   2.816   2.561
   68TIP3    H1  210   3.097   2.825   2.656
   68TIP3    H2  211   3.005   2.842   2.538
   69TIP3   OH2  212   1.654   3.184   0.633
   69TIP3    H1  213   1.709   3.159   0.708
   69TIP3    H2  214   1.604   3.106   0.613
   70TIP3   OH2  215   3.788   5.824   4.269
   70TIP3    H1  216   3.768   5.774   4.190
   70TIP3    H2  217   3.796   5.758   4.338
   71TIP3   OH2  218   5.578   1.398   1.849
   71TIP3    H1  219   5.531   1.362   1.774
   71TIP3    H2  220   5.651   1.337   1.862
   72TIP3   OH2  221   5.193   4.502   2.541
   72TIP3    H1  222   5.171   4.413   2.514
   72TIP3    H2  223   5.265   4.528   2.483
   73TIP3   OH2  224   0.119   3.395   4.455
   73TIP3    H1  225   0.054   3.331   4.427
   73TIP3    H2  226   0.111   3.398   4.550
   74TIP3   OH2  227   5.688   1.935   2.697
   74TIP3    H1  228   5.667   1.976   2.781
   74TIP3    H2  229   5.651   1.847   2.704
   75TIP3   OH2  230   6.151   1.432   0.988
   75TIP3    H1  231   6.194   1.514   0.966
   75TIP3    H2  232   6.203   1.395   1.060
   76TIP3   OH2  233   2.074   4.839   4.062
   76TIP3    H1  234   2.099   4.768   4.121
   76TIP3    H2  235   2.151   4.895   4.056
   77TIP3   OH2  236   1.907   3.677   2.113
   77TIP3    H1  237   1.934   3.764   2.144
   77TIP3    H2  238   1.980   3.646   2.060
   78TIP3   OH2  239   4.383   2.368   3.259
   78TIP3    H1  240   4.474   2.390   3.281
   78TIP3    H2  241   4.391   2.303   3.189
   79TIP3   OH2  242   3.822   0.879   1.038
   79TIP3    H1  243   3.852   0.959   1.081
   79TIP3    H2  244   3.728   0.894   1.022
   80TIP3   OH2  245   5.207   4.827   0.762
   80TIP3    H1  246   5.134   4.878   0.728
   80TIP3    H2  247   5.285   4.870   0.726
   81TIP3   OH2  248   1.228   3.395   3.640
   81TIP3    H1  249   1.232   3.464   3.707
   81TIP3    H2  250   1.135   3.378   3.628
   82TIP3   OH2  251   0.126   2.450   3.845
   82TIP3    H1  252   0.181   2.383   3.886
   82TIP3    H2  253   0.059   2.469   3.910
   83TIP3   OH2  254   5.009   3.771   3.008
   83TIP3    H1  255   4.981   3.823   3.083
   83TIP3    H2  256   4.932   3.720   2.983
   84TIP3   OH2  257   0.319   3.168   2.605
   84TIP3    H1  258   0.352   3.079   2.593
   84TIP3    H2  259   0.398   3.220   2.621
   85TIP3   OH2  260   6.173   2.208   5.012
   85TIP3    H1  261   6.106   2.268   4.979
   85TIP3    H2  262   6.146   2.122   4.981
   86TIP3   OH2  263   3.365   3.586   1.704
   86TIP3    H1  264   3.271   3.569   1.710
   86TIP3    H2  265   3.399   3.518   1.647
   87TIP3   OH2  266   0.523   3.291   2.934
   87TIP3    H1  267   0.559   3.272   2.848
   87TIP3    H2  268   0.431   3.313   2.917
   88TIP3   OH2  269   1.713   1.380   3.001
   88TIP3    H1  270   1.618   1.372   2.995
   88TIP3    H2  271   1.746   1.340   2.921
   89TIP3   OH2  272   2.340   0.082   0.298
   89TIP3    H1  273   2.311   0.120   0.381
   89TIP3    H2  274   2.333  -0.013   0.311
   90TIP3   OH2  275   6.032   5.768   2.055
   90TIP3    H1  276   5.979   5.777   2.135
   90TIP3    H2  277   6.111   5.723   2.084
   91TIP3   OH2  278   1.831   1.312   4.524
   91TIP3    H1  279   1.875   1.330   4.441
   91TIP3    H2  280   1.865   1.227   4.552
   92TIP3   OH2  281   2.929   0.625   4.652
   92TIP3    H1  282   3.014   0.582   4.662
   92TIP3    H2  283   2.897   0.637   4.741
   93TIP3   OH2  284   4.677   4.381   3.305
   93TIP3    H1  285   4.689   4.362   3.398
   93TIP3    H2  286   4.584   4.404   3.297
   94TIP3   OH2  287   5.137   4.250   1.990
   94TIP3    H1  288   5.069   4.311   1.960
   94TIP3    H2  289   5.198   4.304   2.039
   95TIP3   OH2  290   3.475   3.718   3.430
   95TIP3    H1  291   3.514   3.647   3.482
   95TIP3    H2  292   3.397   3.743   3.478
   96TIP3   OH2  293   1.123   5.643   1.421
   96TIP3    H1  294   1.106   5.725   1.374
   96TIP3    H2  295   1.107   5.663   1.513
   97TIP3   OH2  296   0.416   1.180   4.892
   97TIP3    H1  297   0.390   1.148   4.978
   97TIP3    H2  298   0.467   1.109   4.854
   98TIP3   OH2  299   0.941   1.639   3.924
   98TIP3    H1  300   0.903   1.664   4.008
   98TIP3    H2  301   1.028   1.607   3.946
   99TIP3   OH2  302   1.258   1.734   1.997
   99TIP3    H1  303   1.213   1.803   2.047
   99TIP3    H2  304   1.261   1.769   1.908
  100TIP3   OH2  305   6.069   3.530   4.079
  100TIP3    H1  306   6.051   3.624   4.087
  100TIP3    H2  307   6.010   3.500   4.010
  101TIP3   OH2  308   1.100   1.161   3.380
  101TIP3    H1  309   1.077   1.213   3.302
  101TIP3    H2  310   1.193   1.181   3.395
  102TIP3   OH2  311   1.237   4.447   0.543
  102TIP3    H1  312   1.280   4.453   0.458
  102TIP3    H2  313   1.148   4.480   0.527
  103TIP3   OH2  314   1.944   4.715   3.866
  103TIP3    H1  315   2.000   4.769   3.922
  103TIP3    H2  316   1.929   4.769   3.789
  104TIP3   OH2  317   4.134   0.591   1.032
  104TIP3    H1  318   4.152   0.509   0.986
  104TIP3    H2  319   4.086   0.564   1.111
  105TIP3   OH2  320   2.515   5.687   4.030
  105TIP3    H1  321   2.450   5.756   4.016
  105TIP3    H2  322   2.497   5.655   4.119
  106TIP3   OH2  323   6.202   2.778   3.276
  106TIP3    H1  324   6.165   2.804   3.360
  106TIP3    H2  325   6.297   2.790   3.286
  107TIP3   OH2  326   1.288   0.336   2.745
  107TIP3    H1  327   1.332   0.345   2.830
  107TIP3    H2  328   1.294   0.243   2.725
  108TIP3   OH2  329   0.662   2.594   3.534
  108TIP3    H1  330   0.646   2.620   3.625
  108TIP3    H2  331   0.702   2.671   3.494
  109TIP3   OH2  332   4.739   1.295   2.043
  109TIP3    H1  333   4.737   1.329   1.954
  109TIP3    H2  334   4.686   1.356   2.094
  110TIP3   OH2  335   3.987   0.660   3.321
  110TIP3    H1  336   4.073   0.649   3.280
  110TIP3    H2  337   3.925   0.640   3.251
  111TIP3   OH2  338   5.763   4.685   3.248
  111TIP3    H1  339   5.761   4.599   3.289
  111TIP3    H2  340   5.848   4.689   3.205
  112TIP3   OH2  341   5.536   3.790   1.627
  112TIP3    H1  342   5.614   3.778   1.681
  112TIP3    H2  343   5.490   3.706   1.632
  113TIP3   OH2  344   5.963   4.572   2.030
  113TIP3    H1  345   5.869   4.555   2.033
  113TIP3    H2  346   6.000   4.497   1.983
  114TIP3   OH2  347   5.640   1.311   4.348
  114TIP3    H1  348   5.659   1.354   4.431
  114TIP3    H2  349   5.544   1.306   4.346
  115TIP3   OH2  350   4.387   1.979   2.824
  115TIP3    H1  351   4.320   2.039   2.858
  115TIP3    H2  352   4.419   1.934   2.902
  116TIP3   OH2  353   3.628   2.747   1.700
  116TIP3    H1  354   3.600   2.839   1.703
  116TIP3    H2  355   3.578   2.705   1.770
  117TIP3   OH2  356   0.539   0.351   1.161
  117TIP3    H1  357   0.474   0.386   1.101
  117TIP3    H2  358   0.508   0.263   1.182
  118TIP3   OH2  359   3.482   5.309   3.888
  118TIP3    H1  360   3.393   5.304   3.924
  118TIP3    H2  361   3.478   5.256   3.809
  119TIP3   OH2  362   1.926   4.132   1.061
  119TIP3    H1  363   1.849   4.100   1.109
  119TIP3    H2  364   1.937   4.070   0.989
  120TIP3   OH2  365   5.196   2.424   4.965
  120TIP3    H1  366   5.224   2.496   4.909
  120TIP3    H2  367   5.151   2.465   5.038
  121TIP3   OH2  368   4.937   0.645   2.721
  121TIP3    H1  369   4.975   0.704   2.656
  121TIP3    H2  370   4.937   0.696   2.802
  122TIP3   OH2  371   0.154   4.310   4.333
  122TIP3    H1  372   0.077   4.253   4.330
  122TIP3    H2  373   0.224   4.259   4.291
  123TIP3   OH2  374   4.598   2.228   4.407
  123TIP3    H1  375   4.505   2.239   4.387
  123TIP3    H2  376   4.600   2.177   4.487
  124TIP3   OH2  377   3.705   5.579   2.171
  124TIP3    H1  378   3.686   5.530   2.091
  124TIP3    H2  379   3.801   5.583   2.176
  125TIP3   OH2  380   4.289   4.050   1.438
  125TIP3    H1  381   4.331   4.002   1.510
  125TIP3    H2  382   4.332   4.136   1.438
  126TIP3   OH2  383   6.088   4.215   2.399
  126TIP3    H1  384   6.159   4.167   2.441
  126TIP3    H2  385   6.053   4.155   2.334
  127TIP3   OH2  386   1.612   0.185   1.151
  127TIP3    H1  387   1.684   0.132   1.186
  127TIP3    H2  388   1.649   0.273   1.142
  128TIP3   OH2  389   3.018   5.384   2.319
  128TIP3    H1  390   3.040   5.371   2.411
  128TIP3    H2  391   3.099   5.368   2.271
  129TIP3   OH2  392   4.167   1.651   1.211
  129TIP3    H1  393   4.111   1.638   1.135
  129TIP3    H2  394   4.111   1.632   1.286
  130TIP3   OH2  395   5.285   3.311   5.157
  130TIP3    H1  396   5.265   3.227   5.116
  130TIP3    H2  397   5.332   3.287   5.237
  131TIP3   OH2  398   2.047   1.446   4.765
  131TIP3    H1  399   2.129   1.427   4.812
  131TIP3    H2  400   1.993   1.368   4.779
  132TIP3   OH2  401   4.554   2.222   0.549
  132TIP3    H1  402   4.511   2.303   0.522
  132TIP3    H2  403   4.648   2.242   0.542
  133TIP3   OH2  404   3.449   1.655   2.612
  133TIP3    H1  405   3.374   1.705   2.645
  133TIP3    H2  406   3.413   1.601   2.542
  134TIP3   OH2  407   2.962   1.813   4.373
  134TIP3    H1  408   3.013   1.812   4.292
  134TIP3    H2  409   3.004   1.747   4.428
  135TIP3   OH2  410   5.116   2.189   1.054
  135TIP3    H1  411   5.117   2.249   0.979
  135TIP3    H2  412   5.036   2.211   1.101
  136TIP3   OH2  413   5.506   2.486   4.742
  136TIP3    H1  414   5.578   2.438   4.701
  136TIP3    H2  415   5.462   2.420   4.797
  137TIP3   OH2  416   0.090   1.312   0.243
  137TIP3    H1  417   0.116   1.398   0.277
  137TIP3    H2  418   0.138   1.303   0.161
  138TIP3   OH2  419   3.727   4.884   4.840
  138TIP3    H1  420   3.819   4.907   4.828
  138TIP3    H2  421   3.722   4.850   4.929
  139TIP3   OH2  422   5.862   0.725   1.453
  139TIP3    H1  423   5.877   0.695   1.543
  139TIP3    H2  424   5.815   0.808   1.463
  140TIP3   OH2  425   5.593   2.524   3.411
  140TIP3    H1  426   5.535   2.588   3.368
  140TIP3    H2  427   5.651   2.578   3.465
  141TIP3   OH2  428   4.812   0.285   3.156
  141TIP3    H1  429   4.764   0.306   3.236
  141TIP3    H2  430   4.778   0.348   3.091
  142TIP3   OH2  431   4.910   4.646   3.410
  142TIP3    H1  432   4.935   4.575   3.350
  142TIP3    H2  433   4.980   4.710   3.402
  143TIP3   OH2  434   0.101   1.925   2.046
  143TIP3    H1  435   0.021   1.970   2.073
  143TIP3    H2  436   0.132   1.974   1.970
  144TIP3   OH2  437   1.509   6.032   2.871
  144TIP3    H1  438   1.600   6.001   2.872
  144TIP3    H2  439   1.492   6.049   2.778
  145TIP3   OH2  440   5.724   4.374   1.315
  145TIP3    H1  441   5.773   4.396   1.395
  145TIP3    H2  442   5.790   4.335   1.257
  146TIP3   OH2  443   2.866   4.309   4.999
  146TIP3    H1  444   2.908   4.228   5.027
  146TIP3    H2  445   2.935   4.375   5.005
  147TIP3   OH2  446   4.914   2.937   2.283
  147TIP3    H1  447   4.837   2.896   2.245
  147TIP3    H2  448   4.973   2.864   2.304
  148TIP3   OH2  449   0.580   2.984   1.630
  148TIP3    H1  450   0.501   2.936   1.658
  148TIP3    H2  451   0.576   3.066   1.679
  149TIP3   OH2  452   2.226   2.637   3.448
  149TIP3    H1  453   2.133   2.660   3.438
  149TIP3    H2  454   2.264   2.654   3.362
  150TIP3   OH2  455   6.214   0.779   2.962
  150TIP3    H1  456   6.299   0.819   2.943
  150TIP3    H2  457   6.150   0.847   2.941
  151TIP3   OH2  458   4.891   1.566   2.141
  151TIP3    H1  459   4.950   1.499   2.108
  151TIP3    H2  460   4.882   1.629   2.069
  152TIP3   OH2  461   0.894   1.323   0.150
  152TIP3    H1  462   0.944   1.403   0.136
  152TIP3    H2  463   0.954   1.265   0.196
  153TIP3   OH2  464   1.097   0.959   3.767
  153TIP3    H1  465   1.038   0.887   3.789
  153TIP3    H2  466   1.163   0.919   3.710
  154TIP3   OH2  467   0.283   4.291   2.839
  154TIP3    H1  468   0.293   4.359   2.906
  154TIP3    H2  469   0.271   4.210   2.890
  155TIP3   OH2  470   2.562   2.995   0.460
  155TIP3    H1  471   2.540   3.069   0.404
  155TIP3    H2  472   2.480   2.976   0.506
  156TIP3   OH2  473   0.627   2.225   3.898
  156TIP3    H1  474   0.568   2.180   3.958
  156TIP3    H2  475   0.704   2.246   3.951
  157TIP3   OH2  476   1.934   3.245   0.782
  157TIP3    H1  477   1.952   3.264   0.690
  157TIP3    H2  478   1.893   3.324   0.816
  158TIP3   OH2  479   0.798   2.994   0.342
  158TIP3    H1  480   0.843   3.078   0.332
  158TIP3    H2  481   0.799   2.955   0.255
  159TIP3   OH2  482   5.583   2.586   3.988
  159TIP3    H1  483   5.554   2.499   4.016
  159TIP3    H2  484   5.679   2.579   3.984
  160TIP3   OH2  485   5.442   5.421   0.977
  160TIP3    H1  486   5.508   5.399   0.912
  160TIP3    H2  487   5.487   5.411   1.061
  161TIP3   OH2  488   4.665   0.771   2.221
  161TIP3    H1  489   4.708   0.849   2.184
  161TIP3    H2  490   4.716   0.752   2.300
  162TIP3   OH2  491   1.732   3.775   2.497
  162TIP3    H1  492   1.714   3.813   2.583
  162TIP3    H2  493   1.707   3.843   2.435
  163TIP3   OH2  494   2.382   0.460   2.366
  163TIP3    H1  495   2.362   0.374   2.402
  163TIP3    H2  496   2.358   0.453   2.273
  164TIP3   OH2  497   4.937   0.878   2.025
  164TIP3    H1  498   4.910   0.918   1.942
  164TIP3    H2  499   4.893   0.930   2.092
  165TIP3   OH2  500   3.284   2.129  -0.004
  165TIP3    H1  501   3.332   2.202   0.035
  165TIP3    H2  502   3.350   2.078  -0.051
  166TIP3   OH2  503   1.359   5.457   4.649
  166TIP3    H1  504   1.395   5.388   4.593
  166TIP3    H2  505   1.426   5.471   4.716
  167TIP3   OH2  506   1.279   1.696   5.048
  167TIP3    H1  507   1.199   1.730   5.087
  167TIP3    H2  508   1.265   1.703   4.953
  168TIP3   OH2  509   0.945   1.939   4.637
  168TIP3    H1  510   0.942   1.855   4.683
  168TIP3    H2  511   1.005   1.992   4.689
  169TIP3   OH2  512   3.944   0.815   2.240
  169TIP3    H1  513   3.944   0.872   2.317
  169TIP3    H2  514   4.036   0.812   2.212
  170TIP3   OH2  515   5.460   1.566   2.893
  170TIP3    H1  516   5.416   1.612   2.822
  170TIP3    H2  517   5.405   1.489   2.908
  171TIP3   OH2  518   4.183   5.102   0.678
  171TIP3    H1  519   4.137   5.041   0.621
  171TIP3    H2  520   4.149   5.083   0.765
  172TIP3   OH2  521   2.275   5.034   2.316
  172TIP3    H1  522   2.301   5.022   2.225
  172TIP3    H2  523   2.352   5.071   2.359
  173TIP3   OH2  524   2.471   1.872   0.936
  173TIP3    H1  525   2.501   1.890   1.025
  173TIP3    H2  526   2.402   1.807   0.946
  174TIP3   OH2  527   5.632   1.666   1.926
  174TIP3    H1  528   5.641   1.577   1.892
  174TIP3    H2  529   5.549   1.697   1.888
  175TIP3   OH2  530   6.041   2.258   0.432
  175TIP3    H1  531   5.967   2.221   0.481
  175TIP3    H2  532   6.066   2.189   0.371
  176TIP3   OH2  533   5.922   2.935   2.501
  176TIP3    H1  534   5.840   2.939   2.551
  176TIP3    H2  535   5.929   3.020   2.459
  177TIP3   OH2  536   5.340   5.867   0.334
  177TIP3    H1  537   5.329   5.863   0.240
  177TIP3    H2  538   5.292   5.791   0.368
  178TIP3   OH2  539   1.468   3.035   2.580
  178TIP3    H1  540   1.376   3.061   2.573
  178TIP3    H2  541   1.517   3.117   2.575
  179TIP3   OH2  542   5.984   1.256   1.776
  179TIP3    H1  543   5.963   1.258   1.870
  179TIP3    H2  544   6.074   1.223   1.772
  180TIP3   OH2  545   0.537   4.086   3.479
  180TIP3    H1  546   0.589   4.062   3.402
  180TIP3    H2  547   0.526   4.181   3.470
  181TIP3   OH2  548   5.878   2.160   5.003
  181TIP3    H1  549   5.785   2.180   5.011
  181TIP3    H2  550   5.881   2.075   4.960
  182TIP3   OH2  551   3.884   5.138   0.191
  182TIP3    H1  552   3.806   5.162   0.141
  182TIP3    H2  553   3.957   5.180   0.144
  183TIP3   OH2  554   0.032   0.275   0.466
  183TIP3    H1  555  -0.016   0.250   0.545
  183TIP3    H2  556   0.017   0.369   0.457
  184TIP3   OH2  557   4.680   5.398   1.552
  184TIP3    H1  558   4.736   5.320   1.548
  184TIP3    H2  559   4.612   5.382   1.487
  185TIP3   OH2  560   0.849   1.238   4.432
  185TIP3    H1  561   0.830   1.206   4.520
  185TIP3    H2  562   0.922   1.298   4.443
  186TIP3   OH2  563   4.888   3.062   3.048
  186TIP3    H1  564   4.884   3.096   3.137
  186TIP3    H2  565   4.924   2.973   3.058
  187TIP3   OH2  566   0.314   1.306   1.761
  187TIP3    H1  567   0.362   1.227   1.738
  187TIP3    H2  568   0.381   1.369   1.785
  188TIP3   OH2  569   3.737   0.440   0.138
  188TIP3    H1  570   3.801   0.502   0.172
  188TIP3    H2  571   3.690   0.488   0.070
  189TIP3   OH2  572   5.654   5.098   3.186
  189TIP3    H1  573   5.748   5.094   3.205
  189TIP3    H2  574   5.631   5.190   3.198
  190TIP3   OH2  575   5.313   2.050   1.855
  190TIP3    H1  576   5.373   1.986   1.895
  190TIP3    H2  577   5.294   2.111   1.925
  191TIP3   OH2  578   6.182   0.667   5.137
  191TIP3    H1  579   6.170   0.701   5.225
  191TIP3    H2  580   6.198   0.744   5.083
  192TIP3   OH2  581   1.974   0.652   2.392
  192TIP3    H1  582   1.931   0.731   2.358
  192TIP3    H2  583   1.909   0.613   2.450
  193TIP3   OH2  584   4.719   4.667   4.784
  193TIP3    H1  585   4.705   4.621   4.866
  193TIP3    H2  586   4.710   4.760   4.807
  194TIP3   OH2  587   6.178   0.532   3.954
  194TIP3    H1  588   6.235   0.539   4.030
  194TIP3    H2  589   6.183   0.440   3.928
  195TIP3   OH2  590   3.578   1.951   0.178
  195TIP3    H1  591   3.483   1.941   0.178
  195TIP3    H2  592   3.608   1.896   0.105
  196TIP3   OH2  593   2.966   5.929   1.672
  196TIP3    H1  594   3.058   5.905   1.681
  196TIP3    H2  595   2.922   5.847   1.649
  197TIP3   OH2  596   4.389   4.881   1.671
  197TIP3    H1  597   4.355   4.924   1.593
  197TIP3    H2  598   4.342   4.921   1.744
  198TIP3   OH2  599   5.888   1.061   2.118
  198TIP3    H1  600   5.960   0.999   2.117
  198TIP3    H2  601   5.927   1.144   2.089
  199TIP3   OH2  602   4.965   4.632   0.600
  199TIP3    H1  603   4.940   4.598   0.685
  199TIP3    H2  604   4.929   4.720   0.597
  200TIP3   OH2  605   6.267   3.213   1.573
  200TIP3    H1  606   6.318   3.267   1.633
  200TIP3    H2  607   6.194   3.180   1.625
  201TIP3   OH2  608   5.873   3.790   4.931
  201TIP3    H1  609   5.958   3.777   4.889
  201TIP3    H2  610   5.809   3.755   4.868
  202TIP3   OH2  611   1.958   4.338   3.178
  202TIP3    H1  612   1.897   4.313   3.248
  202TIP3    H2  613   1.932   4.427   3.153
  203TIP3   OH2  614   2.322   1.112   0.036
  203TIP3    H1  615   2.227   1.116   0.028
  203TIP3    H2  616   2.337   1.059   0.115
  204TIP3   OH2  617   0.149   5.552   2.922
  204TIP3    H1  618   0.087   5.624   2.911
  204TIP3    H2  619   0.225   5.592   2.964
  205TIP3   OH2  620   5.815   1.138   1.129
  205TIP3    H1  621   5.863   1.201   1.183
  205TIP3    H2  622   5.875   1.065   1.117
  206TIP3   OH2  623   6.171   4.430   1.071
  206TIP3    H1  624   6.154   4.512   1.025
  206TIP3    H2  625   6.084   4.392   1.085
  207TIP3   OH2  626   2.419   0.829   4.549
  207TIP3    H1  627   2.347   0.850   4.610
  207TIP3    H2  628   2.468   0.760   4.594
  208TIP3   OH2  629   2.520   2.218   4.863
  208TIP3    H1  630   2.576   2.181   4.795
  208TIP3    H2  631   2.462   2.278   4.816
  209TIP3   OH2  632   1.675   5.790   1.158
  209TIP3    H1  633   1.714   5.877   1.166
  209TIP3    H2  634   1.727   5.736   1.217
  210TIP3   OH2  635   2.791   0.549   1.844
  210TIP3    H1  636   2.728   0.618   1.865
  210TIP3    H2  637   2.745   0.467   1.863
  211TIP3   OH2  638   3.712   3.180   0.718
  211TIP3    H1  639   3.736   3.272   0.729
  211TIP3    H2  640   3.645   3.181   0.650
  212TIP3   OH2  641   2.848   5.178   2.325
  212TIP3    H1  642   2.934   5.200   2.292
  212TIP3    H2  643   2.793   5.253   2.303
  213TIP3   OH2  644   5.937   4.853   4.571
  213TIP3    H1  645   5.931   4.948   4.573
  213TIP3    H2  646   5.871   4.823   4.632
  214TIP3   OH2  647   6.322   1.163   0.866
  214TIP3    H1  648   6.313   1.217   0.788
  214TIP3    H2  649   6.402   1.193   0.908
  215TIP3   OH2  650   1.159   4.892   0.749
  215TIP3    H1  651   1.215   4.845   0.687
  215TIP3    H2  652   1.198   4.979   0.756
  216TIP3   OH2  653   5.865   3.597   2.283
  216TIP3    H1  654   5.854   3.659   2.355
  216TIP3    H2  655   5.862   3.511   2.325
  217TIP3   OH2  656   3.143   2.423   0.825
  217TIP3    H1  657   3.065   2.368   0.815
  217TIP3    H2  658   3.117   2.491   0.887
  218TIP3   OH2  659   3.086   2.052   3.919
  218TIP3    H1  660   3.049   2.138   3.939
  218TIP3    H2  661   3.181   2.065   3.925
  219TIP3   OH2  662   1.888   1.236   4.939
  219TIP3    H1  663   1.812   1.231   4.996
  219TIP3    H2  664   1.963   1.221   4.996
  220TIP3   OH2  665   5.825   2.524   4.413
  220TIP3    H1  666   5.752   2.578   4.381
  220TIP3    H2  667   5.882   2.585   4.459
  221TIP3   OH2  668   2.236   1.301   4.499
  221TIP3    H1  669   2.199   1.337   4.419
  221TIP3    H2  670   2.287   1.225   4.470
  222TIP3   OH2  671   3.845   1.401   2.982
  222TIP3    H1  672   3.781   1.416   2.913
  222TIP3    H2  673   3.848   1.305   2.991
  223TIP3   OH2  674   0.127   4.849   3.198
  223TIP3    H1  675   0.055   4.806   3.244
  223TIP3    H2  676   0.203   4.838   3.256
  224TIP3   OH2  677   2.430   3.221   0.809
  224TIP3    H1  678   2.438   3.284   0.737
  224TIP3    H2  679   2.482   3.259   0.880
  225TIP3   OH2  680   2.915   4.002   0.371
  225TIP3    H1  681   2.951   3.944   0.305
  225TIP3    H2  682   2.846   3.951   0.414
  226TIP3   OH2  683   5.713   4.484   3.447
  226TIP3    H1  684   5.646   4.533   3.494
  226TIP3    H2  685   5.666   4.437   3.378
  227TIP3   OH2  686   1.875   1.753   2.926
  227TIP3    H1  687   1.842   1.722   2.842
  227TIP3    H2  688   1.837   1.840   2.937
  228TIP3   OH2  689   3.377   5.318   1.173
  228TIP3    H1  690   3.292   5.359   1.159
  228TIP3    H2  691   3.410   5.302   1.084
  229TIP3   OH2  692   3.110   3.353   3.769
  229TIP3    H1  693   3.098   3.258   3.769
  229TIP3    H2  694   3.136   3.374   3.859
  230TIP3   OH2  695   0.965   0.370   1.351
  230TIP3    H1  696   0.930   0.281   1.342
  230TIP3    H2  697   0.888   0.424   1.370
  231TIP3   OH2  698   3.734   4.717   0.556
  231TIP3    H1  699   3.780   4.715   0.640
  231TIP3    H2  700   3.740   4.626   0.524
  232TIP3   OH2  701   3.300   4.228   3.530
  232TIP3    H1  702   3.242   4.297   3.497
  232TIP3    H2  703   3.253   4.191   3.605
  233TIP3   OH2  704   1.369   5.726   0.080
  233TIP3    H1  705   1.307   5.705   0.009
  233TIP3    H2  706   1.455   5.716   0.040
  234TIP3   OH2  707   5.963   0.981   4.034
  234TIP3    H1  708   5.880   1.029   4.036
  234TIP3    H2  709   5.938   0.889   4.026
  235TIP3   OH2  710   5.398   3.652   3.221
  235TIP3    H1  711   5.472   3.651   3.281
  235TIP3    H2  712   5.344   3.725   3.250
  236TIP3   OH2  713   3.213   5.780   2.365
  236TIP3    H1  714   3.230   5.698   2.412
  236TIP3    H2  715   3.140   5.820   2.412
  237TIP3   OH2  716   2.401   5.371   1.822
  237TIP3    H1  717   2.496   5.362   1.822
  237TIP3    H2  718   2.385   5.459   1.856
  238TIP3   OH2  719   4.991   3.833   3.838
  238TIP3    H1  720   4.947   3.853   3.756
  238TIP3    H2  721   5.053   3.905   3.850
  239TIP3   OH2  722   4.205   1.018   1.957
  239TIP3    H1  723   4.239   0.946   2.011
  239TIP3    H2  724   4.124   0.983   1.919
  240TIP3   OH2  725   3.984   5.537   4.670
  240TIP3    H1  726   3.970   5.594   4.746
  240TIP3    H2  727   3.910   5.476   4.673
  241TIP3   OH2  728   2.299   4.668   2.416
  241TIP3    H1  729   2.225   4.715   2.378
  241TIP3    H2  730   2.373   4.728   2.407
  242TIP3   OH2  731   2.223   3.611   1.348
  242TIP3    H1  732   2.204   3.534   1.294
  242TIP3    H2  733   2.185   3.684   1.299
  243TIP3   OH2  734   6.020   0.162   2.243
  243TIP3    H1  735   6.069   0.164   2.160
  243TIP3    H2  736   6.029   0.072   2.274
  244TIP3   OH2  737   3.182   1.495   4.442
  244TIP3    H1  738   3.166   1.589   4.450
  244TIP3    H2  739   3.179   1.478   4.347
  245TIP3   OH2  740   3.396   3.492   2.448
  245TIP3    H1  741   3.327   3.452   2.395
  245TIP3    H2  742   3.421   3.571   2.400
  246TIP3   OH2  743   4.447   0.593   1.090
  246TIP3    H1  744   4.355   0.619   1.101
  246TIP3    H2  745   4.445   0.531   1.017
  247TIP3   OH2  746   3.803   3.636   2.660
  247TIP3    H1  747   3.736   3.579   2.620
  247TIP3    H2  748   3.881   3.621   2.607
  248TIP3   OH2  749   2.963   3.327   0.994
  248TIP3    H1  750   3.042   3.281   0.965
  248TIP3    H2  751   2.959   3.312   1.088
  249TIP3   OH2  752   1.807   1.815   4.769
  249TIP3    H1  753   1.842   1.757   4.702
  249TIP3    H2  754   1.837   1.778   4.852
  250TIP3   OH2  755   3.792   5.534   0.972
  250TIP3    H1  756   3.728   5.579   1.027
  250TIP3    H2  757   3.770   5.561   0.883
  251TIP3   OH2  758   4.213   1.953   1.207
  251TIP3    H1  759   4.268   1.980   1.134
  251TIP3    H2  760   4.203   1.859   1.196
  252TIP3   OH2  761   5.842   5.650   4.091
  252TIP3    H1  762   5.886   5.688   4.167
  252TIP3    H2  763   5.749   5.653   4.113
  253TIP3   OH2  764   0.087   3.232   1.274
  253TIP3    H1  765   0.022   3.276   1.330
  253TIP3    H2  766   0.034   3.179   1.214
  254TIP3   OH2  767   4.028   0.108   0.560
  254TIP3    H1  768   4.074   0.076   0.483
  254TIP3    H2  769   3.981   0.032   0.594
  255TIP3   OH2  770   4.317   2.181   4.171
  255TIP3    H1  771   4.315   2.239   4.095
  255TIP3    H2  772   4.296   2.238   4.245
  256TIP3   OH2  773   4.366   5.949   4.004
  256TIP3    H1  774   4.310   5.887   3.958
  256TIP3    H2  775   4.455   5.924   3.978
  257TIP3   OH2  776   0.208   2.534   2.874
  257TIP3    H1  777   0.268   2.571   2.809
  257TIP3    H2  778   0.132   2.506   2.824
  258TIP3   OH2  779   0.165   0.928   4.224
  258TIP3    H1  780   0.112   0.956   4.300
  258TIP3    H2  781   0.252   0.964   4.241
  259TIP3   OH2  782   1.613   2.487   2.040
  259TIP3    H1  783   1.600   2.395   2.019
  259TIP3    H2  784   1.571   2.498   2.125
  260TIP3   OH2  785   5.959   0.401   1.993
  260TIP3    H1  786   6.009   0.351   2.058
  260TIP3    H2  787   5.873   0.360   1.992
  261TIP3   OH2  788   1.483   4.155   3.251
  261TIP3    H1  789   1.417   4.124   3.312
  261TIP3    H2  790   1.499   4.080   3.193
  262TIP3   OH2  791   4.757   3.162   3.994
  262TIP3    H1  792   4.693   3.230   3.975
  262TIP3    H2  793   4.705   3.084   4.012
  263TIP3   OH2  794   4.915   3.925   3.573
  263TIP3    H1  795   4.857   3.883   3.511
  263TIP3    H2  796   5.001   3.924   3.531
  264TIP3   OH2  797   1.857   1.599   4.558
  264TIP3    H1  798   1.762   1.599   4.569
  264TIP3    H2  799   1.887   1.523   4.607
  265TIP3   OH2  800   0.634   0.865   4.339
  265TIP3    H1  801   0.615   0.773   4.359
  265TIP3    H2  802   0.682   0.896   4.416
  266TIP3   OH2  803   2.092   1.734   0.293
  266TIP3    H1  804   2.188   1.732   0.287
  266TIP3    H2  805   2.073   1.723   0.386
  267TIP3   OH2  806   2.002   5.959   1.373
  267TIP3    H1  807   2.045   5.875   1.362
  267TIP3    H2  808   2.073   6.023   1.374
  268TIP3   OH2  809   1.200   1.179   1.612
  268TIP3    H1  810   1.180   1.173   1.519
  268TIP3    H2  811   1.158   1.261   1.640
  269TIP3   OH2  812   5.538   1.602   4.544
  269TIP3    H1  813   5.511   1.689   4.574
  269TIP3    H2  814   5.632   1.598   4.563
  270TIP3   OH2  815   0.223   0.353   1.503
  270TIP3    H1  816   0.256   0.266   1.482
  270TIP3    H2  817   0.134   0.354   1.469
  271TIP3   OH2  818   3.361   5.733   0.119
  271TIP3    H1  819   3.330   5.645   0.095
  271TIP3    H2  820   3.427   5.717   0.186
  272TIP3   OH2  821   2.055   2.733   3.251
  272TIP3    H1  822   2.020   2.796   3.189
  272TIP3    H2  823   2.041   2.647   3.211
  273TIP3   OH2  824   0.483   5.366   0.846
  273TIP3    H1  825   0.481   5.319   0.930
  273TIP3    H2  826   0.545   5.316   0.793
  274TIP3   OH2  827   0.122   0.345   3.278
  274TIP3    H1  828   0.097   0.357   3.186
  274TIP3    H2  829   0.197   0.286   3.274
  275TIP3   OH2  830   2.158   5.736   3.454
  275TIP3    H1  831   2.214   5.726   3.531
  275TIP3    H2  832   2.076   5.772   3.489
  276TIP3   OH2  833   3.133   1.866   0.094
  276TIP3    H1  834   3.206   1.903   0.143
  276TIP3    H2  835   3.055   1.910   0.129
  277TIP3   OH2  836   5.745   3.017   3.845
  277TIP3    H1  837   5.754   2.952   3.775
  277TIP3    H2  838   5.818   3.076   3.832
  278TIP3   OH2  839   0.779   1.315   0.855
  278TIP3    H1  840   0.782   1.385   0.921
  278TIP3    H2  841   0.821   1.240   0.898
  279TIP3   OH2  842   6.285   1.541   2.270
  279TIP3    H1  843   6.255   1.518   2.182
  279TIP3    H2  844   6.355   1.604   2.255
  280TIP3   OH2  845   0.702   0.781   1.526
  280TIP3    H1  846   0.708   0.870   1.562
  280TIP3    H2  847   0.769   0.732   1.574
  281TIP3   OH2  848   4.560   2.461   0.343
  281TIP3    H1  849   4.472   2.455   0.381
  281TIP3    H2  850   4.554   2.410   0.262
  282TIP3   OH2  851   1.467   2.744   4.871
  282TIP3    H1  852   1.491   2.825   4.827
  282TIP3    H2  853   1.451   2.770   4.962
  283TIP3   OH2  854   1.645   2.330   5.141
  283TIP3    H1  855   1.574   2.371   5.093
  283TIP3    H2  856   1.654   2.382   5.221
  284TIP3   OH2  857   1.319   1.813   1.732
  284TIP3    H1  858   1.346   1.739   1.677
  284TIP3    H2  859   1.384   1.880   1.715
  285TIP3   OH2  860   4.813   3.519   1.614
  285TIP3    H1  861   4.763   3.450   1.570
  285TIP3    H2  862   4.857   3.566   1.544
  286TIP3   OH2  863   2.649   1.759   2.565
  286TIP3    H1  864   2.570   1.809   2.545
  286TIP3    H2  865   2.621   1.668   2.564
  287TIP3   OH2  866   6.083   4.592   3.496
  287TIP3    H1  867   6.164   4.572   3.543
  287TIP3    H2  868   6.016   4.597   3.564
  288TIP3   OH2  869   5.747   2.169   3.461
  288TIP3    H1  870   5.801   2.155   3.383
  288TIP3    H2  871   5.657   2.172   3.427
  289TIP3   OH2  872   0.206   1.097   5.130
  289TIP3    H1  873   0.210   1.017   5.182
  289TIP3    H2  874   0.131   1.084   5.072
  290TIP3   OH2  875   4.134   3.192   2.525
  290TIP3    H1  876   4.046   3.190   2.488
  290TIP3    H2  877   4.144   3.107   2.568
  291TIP3   OH2  878   0.608   5.759   2.231
  291TIP3    H1  879   0.646   5.838   2.270
  291TIP3    H2  880   0.572   5.789   2.148
  292TIP3   OH2  881   0.939   2.166   0.037
  292TIP3    H1  882   0.993   2.205  -0.031
  292TIP3    H2  883   0.969   2.076   0.043
  293TIP3   OH2  884   3.768   1.499   0.403
  293TIP3    H1  885   3.834   1.531   0.341
  293TIP3    H2  886   3.811   1.504   0.488
  294TIP3   OH2  887   4.951   1.515   3.074
  294TIP3    H1  888   4.929   1.504   2.981
  294TIP3    H2  889   4.906   1.442   3.117
  295TIP3   OH2  890   4.641   5.402   0.287
  295TIP3    H1  891   4.707   5.407   0.217
  295TIP3    H2  892   4.585   5.328   0.262
  296TIP3   OH2  893   1.432   5.638   2.480
  296TIP3    H1  894   1.381   5.558   2.468
  296TIP3    H2  895   1.380   5.692   2.539
  297TIP3   OH2  896   4.894   5.273   3.598
  297TIP3    H1  897   4.945   5.276   3.678
  297TIP3    H2  898   4.806   5.251   3.626
  298TIP3   OH2  899   2.884   4.429   3.550
  298TIP3    H1  900   2.831   4.352   3.570
  298TIP3    H2  901   2.825   4.486   3.500
  299TIP3   OH2  902   2.397   4.572   0.737
  299TIP3    H1  903   2.351   4.591   0.655
  299TIP3    H2  904   2.390   4.653   0.788
  300TIP3   OH2  905   2.327   5.743   1.183
  300TIP3    H1  906   2.387   5.730   1.110
  300TIP3    H2  907   2.296   5.833   1.174
  301TIP3   OH2  908   2.038   1.410   4.323
  301TIP3    H1  909   2.075   1.337   4.273
  301TIP3    H2  910   2.087   1.486   4.294
  302TIP3   OH2  911   5.291   1.683   2.462
  302TIP3    H1  912   5.216   1.645   2.507
  302TIP3    H2  913   5.264   1.688   2.370
  303TIP3   OH2  914   5.766   0.342   0.346
  303TIP3    H1  915   5.706   0.401   0.300
  303TIP3    H2  916   5.711   0.296   0.409
  304TIP3   OH2  917   6.378   5.765   2.788
  304TIP3    H1  918   6.309   5.717   2.742
  304TIP3    H2  919   6.340   5.785   2.874
  305TIP3   OH2  920   0.619   0.413   1.584
  305TIP3    H1  921   0.657   0.325   1.592
  305TIP3    H2  922   0.663   0.451   1.508
  306TIP3   OH2  923   1.842   0.476   1.835
  306TIP3    H1  924   1.854   0.568   1.858
  306TIP3    H2  925   1.780   0.443   1.900
  307TIP3   OH2  926   3.515   1.038   5.050
  307TIP3    H1  927   3.429   1.079   5.055
  307TIP3    H2  928   3.543   1.030   5.141
  308TIP3   OH2  929   3.262   5.863   4.339
  308TIP3    H1  930   3.226   5.874   4.251
  308TIP3    H2  931   3.351   5.832   4.325
  309TIP3   OH2  932   5.533   0.183   1.596
  309TIP3    H1  933   5.622   0.196   1.562
  309TIP3    H2  934   5.480   0.249   1.551
  310TIP3   OH2  935   5.399   5.467   4.133
  310TIP3    H1  936   5.452   5.388   4.140
  310TIP3    H2  937   5.429   5.523   4.203
  311TIP3   OH2  938   5.446   0.908   2.489
  311TIP3    H1  939   5.493   0.892   2.572
  311TIP3    H2  940   5.510   0.888   2.421
  312TIP3   OH2  941   1.827   3.967   3.417
  312TIP3    H1  942   1.907   4.019   3.406
  312TIP3    H2  943   1.772   4.019   3.475
  313TIP3   OH2  944   5.231   3.459   2.232
  313TIP3    H1  945   5.177   3.427   2.304
  313TIP3    H2  946   5.314   3.412   2.242
  314TIP3   OH2  947   4.409   5.552   3.295
  314TIP3    H1  948   4.500   5.580   3.291
  314TIP3    H2  949   4.399   5.514   3.382
  315TIP3   OH2  950   3.262   0.264   3.626
  315TIP3    H1  951   3.268   0.333   3.561
  315TIP3    H2  952   3.286   0.306   3.709
  316TIP3   OH2  953   4.313   4.860   1.046
  316TIP3    H1  954   4.324   4.872   1.140
  316TIP3    H2  955   4.324   4.766   1.033
  317TIP3   OH2  956   1.065   3.879   3.550
  317TIP3    H1  957   1.035   3.814   3.486
  317TIP3    H2  958   1.155   3.852   3.571
  318TIP3   OH2  959   2.724   5.749   3.037
  318TIP3    H1  960   2.748   5.732   3.128
  318TIP3    H2  961   2.630   5.768   3.040
  319TIP3   OH2  962   3.143   4.758   2.605
  319TIP3    H1  963   3.220   4.765   2.662
  319TIP3    H2  964   3.086   4.830   2.633
  320TIP3   OH2  965   3.031   3.612   0.749
  320TIP3    H1  966   3.088   3.606   0.826
  320TIP3    H2  967   3.044   3.529   0.702
  321TIP3   OH2  968   1.237   1.320   0.407
  321TIP3    H1  969   1.161   1.342   0.460
  321TIP3    H2  970   1.200   1.271   0.333
  322TIP3   OH2  971   5.349   3.003   3.663
  322TIP3    H1  972   5.418   2.937   3.670
  322TIP3    H2  973   5.286   2.977   3.731
  323TIP3   OH2  974   4.340   1.469   2.426
  323TIP3    H1  975   4.330   1.534   2.495
  323TIP3    H2  976   4.430   1.479   2.396
  324TIP3   OH2  977   4.424   1.291   2.106
  324TIP3    H1  978   4.457   1.207   2.074
  324TIP3    H2  979   4.497   1.330   2.153
  325TIP3   OH2  980   5.059   3.728   1.046
  325TIP3    H1  981   5.058   3.816   1.007
  325TIP3    H2  982   5.101   3.673   0.979
  326TIP3   OH2  983   4.091   1.192   2.669
  326TIP3    H1  984   4.113   1.199   2.576
  326TIP3    H2  985   4.008   1.144   2.670
  327TIP3   OH2  986   5.128   4.892   0.398
  327TIP3    H1  987   5.063   4.908   0.467
  327TIP3    H2  988   5.112   4.802   0.370
  328TIP3   OH2  989   4.910   2.426   1.202
  328TIP3    H1  990   4.880   2.337   1.223
  328TIP3    H2  991   4.830   2.475   1.184
  329TIP3   OH2  992   5.173   5.238   5.144
  329TIP3    H1  993   5.248   5.180   5.153
  329TIP3    H2  994   5.161   5.246   5.049
  330TIP3   OH2  995   4.054   1.858   4.639
  330TIP3    H1  996   3.983   1.901   4.687
  330TIP3    H2  997   4.106   1.931   4.604
  331TIP3   OH2  998   3.028   2.198   3.514
  331TIP3    H1  999   3.073   2.121   3.548
  331TIP3    H2 1000   3.028   2.260   3.587
  332TIP3   OH2 1001   1.553   2.725   0.467
  332TIP3    H1 1002   1.484   2.676   0.422
  332TIP3    H2 1003   1.510   2.806   0.494
  333TIP3   OH2 1004   3.594   2.818   1.970
  333TIP3    H1 1005   3.619   2.860   2.052
  333TIP3    H2 1006   3.530   2.878   1.931
  334TIP3   OH2 1007   5.416   4.516   0.889
  334TIP3    H1 1008   5.352   4.470   0.836
  334TIP3    H2 1009   5.392   4.494   0.979
  335TIP3   OH2 1010   1.541   1.772   4.413
  335TIP3    H1 1011   1.573   1.716   4.484
  335TIP3    H2 1012   1.446   1.761   4.416
  336TIP3   OH2 1013   4.544   0.364   2.236
  336TIP3    H1 1014   4.542   0.311   2.156
  336TIP3    H2 1015   4.490   0.440   2.216
  337TIP3   OH2 1016   0.133   3.646   0.996
  337TIP3    H1 1017   0.062   3.582   1.002
  337TIP3    H2 1018   0.106   3.717   1.055
  338TIP3   OH2 1019   5.411   2.149   4.465
  338TIP3    H1 1020   5.468   2.219   4.433
  338TIP3    H2 1021   5.390   2.097   4.388
  339TIP3   OH2 1022   3.433   1.672   3.511
  339TIP3    H1 1023   3.431   1.725   3.591
  339TIP3    H2 1024   3.477   1.728   3.447
  340TIP3   OH2 1025   2.170   4.561   4.797
  340TIP3    H1 1026   2.100   4.527   4.852
  340TIP3    H2 1027   2.251   4.529   4.838
  341TIP3   OH2 1028   3.836   1.109   2.640
  341TIP3    H1 1029   3.767   1.171   2.619
  341TIP3    H2 1030   3.792   1.039   2.688
  342TIP3   OH2 1031   3.233   0.869   0.324
  342TIP3    H1 1032   3.293   0.940   0.303
  342TIP3    H2 1033   3.247   0.851   0.417
  343TIP3   OH2 1034   6.019   4.817   2.120
  343TIP3    H1 1035   5.994   4.870   2.044
  343TIP3    H2 1036   6.022   4.727   2.086
  344TIP3   OH2 1037   2.815   0.571   1.171
  344TIP3    H1 1038   2.832   0.498   1.230
  344TIP3    H2 1039   2.723   0.592   1.185
  345TIP3   OH2 1040   1.098   5.378   3.825
  345TIP3    H1 1041   1.076   5.287   3.803
  345TIP3    H2 1042   1.087   5.383   3.920
  346TIP3   OH2 1043   5.011   0.730   4.179
  346TIP3    H1 1044   4.920   0.758   4.192
  346TIP3    H2 1045   5.033   0.683   4.259
  347TIP3   OH2 1046   6.223   2.272   4.739
  347TIP3    H1 1047   6.161   2.227   4.681
  347TIP3    H2 1048   6.277   2.201   4.775
  348TIP3   OH2 1049   5.943   1.970   1.066
  348TIP3    H1 1050   5.933   1.932   1.154
  348TIP3    H2 1051   5.919   1.899   1.007
  349TIP3   OH2 1052   5.053   4.412   2.260
  349TIP3    H1 1053   5.113   4.348   2.298
  349TIP3    H2 1054   5.090   4.497   2.283
  350TIP3   OH2 1055   3.030   5.104   0.736
  350TIP3    H1 1056   3.056   5.195   0.725
  350TIP3    H2 1057   3.056   5.061   0.654
  351TIP3   OH2 1058   0.435   0.564   3.149
  351TIP3    H1 1059   0.358   0.582   3.095
  351TIP3    H2 1060   0.496   0.519   3.090
  352TIP3   OH2 1061   2.024   0.307   3.302
  352TIP3    H1 1062   1.979   0.289   3.219
  352TIP3    H2 1063   1.971   0.375   3.344
  353TIP3   OH2 1064   4.289   3.617   2.643
  353TIP3    H1 1065   4.267   3.678   2.572
  353TIP3    H2 1066   4.324   3.540   2.599
  354TIP3   OH2 1067   5.293   4.952   4.215
  354TIP3    H1 1068   5.320   5.039   4.246
  354TIP3    H2 1069   5.347   4.891   4.266
  355TIP3   OH2 1070   1.087   4.890   1.800
  355TIP3    H1 1071   1.107   4.814   1.745
  355TIP3    H2 1072   1.153   4.955   1.775
  356TIP3   OH2 1073   4.694   2.491   3.856
  356TIP3    H1 1074   4.692   2.587   3.854
  356TIP3    H2 1075   4.744   2.466   3.779
  357TIP3   OH2 1076   3.264   2.447   4.359
  357TIP3    H1 1077   3.277   2.414   4.271
  357TIP3    H2 1078   3.228   2.373   4.408
  358TIP3   OH2 1079   2.485   1.218   4.774
  358TIP3    H1 1080   2.392   1.222   4.796
  358TIP3    H2 1081   2.488   1.222   4.679
  359TIP3   OH2 1082   4.910   4.842   0.893
  359TIP3    H1 1083   4.938   4.762   0.848
  359TIP3    H2 1084   4.816   4.832   0.904
  360TIP3   OH2 1085   6.156   0.855   2.254
  360TIP3    H1 1086   6.187   0.913   2.184
  360TIP3    H2 1087   6.139   0.772   2.210
  361TIP3   OH2 1088   4.420   4.542   5.101
  361TIP3    H1 1089   4.486   4.612   5.100
  361TIP3    H2 1090   4.441   4.490   5.179
  362TIP3   OH2 1091   4.393   1.483   1.687
  362TIP3    H1 1092   4.388   1.457   1.595
  362TIP3    H2 1093   4.428   1.405   1.732
  363TIP3   OH2 1094   3.202   3.685   5.199
  363TIP3    H1 1095   3.106   3.685   5.198
  363TIP3    H2 1096   3.226   3.676   5.107
  364TIP3   OH2 1097   1.067   1.321   2.561
  364TIP3    H1 1098   1.052   1.258   2.491
  364TIP3    H2 1099   1.157   1.306   2.588
  365TIP3   OH2 1100   6.178   0.832   4.912
  365TIP3    H1 1101   6.227   0.852   4.832
  365TIP3    H2 1102   6.088   0.859   4.892
  366TIP3   OH2 1103   1.485   0.523   0.670
  366TIP3    H1 1104   1.445   0.464   0.734
  366TIP3    H2 1105   1.576   0.496   0.667
  367TIP3   OH2 1106   0.518   0.341   3.822
  367TIP3    H1 1107   0.489   0.316   3.910
  367TIP3    H2 1108   0.526   0.436   3.826
  368TIP3   OH2 1109   2.203   4.600   2.904
  368TIP3    H1 1110   2.115   4.626   2.930
  368TIP3    H2 1111   2.246   4.681   2.875
  369TIP3   OH2 1112   1.465   4.266   0.100
  369TIP3    H1 1113   1.417   4.194   0.058
  369TIP3    H2 1114   1.556   4.235   0.102
  370TIP3   OH2 1115   0.055   3.791   3.949
  370TIP3    H1 1116   0.022   3.702   3.964
  370TIP3    H2 1117   0.023   3.842   4.023
  371TIP3   OH2 1118   1.336   0.977   2.810
  371TIP3    H1 1119   1.373   1.008   2.892
  371TIP3    H2 1120   1.244   1.005   2.812
  372TIP3   OH2 1121   4.318   2.645   2.896
  372TIP3    H1 1122   4.270   2.724   2.920
  372TIP3    H2 1123   4.308   2.587   2.972
  373TIP3   OH2 1124   4.045   2.171   0.673
  373TIP3    H1 1125   4.071   2.223   0.749
  373TIP3    H2 1126   4.021   2.086   0.709
  374TIP3   OH2 1127   4.223   2.084   1.464
  374TIP3    H1 1128   4.129   2.099   1.473
  374TIP3    H2 1129   4.241   2.100   1.371
  375TIP3   OH2 1130   1.928   2.127   4.956
  375TIP3    H1 1131   1.979   2.062   4.909
  375TIP3    H2 1132   1.837   2.102   4.940
  376TIP3   OH2 1133   6.321   2.944   4.814
  376TIP3    H1 1134   6.379   2.988   4.752
  376TIP3    H2 1135   6.233   2.964   4.783
  377TIP3   OH2 1136   0.815   6.013   0.110
  377TIP3    H1 1137   0.780   5.924   0.103
  377TIP3    H2 1138   0.815   6.046   0.020
  378TIP3   OH2 1139   0.749   0.233   3.716
  378TIP3    H1 1140   0.667   0.272   3.745
  378TIP3    H2 1141   0.816   0.272   3.773
  379TIP3   OH2 1142   5.676   0.283   1.380
  379TIP3    H1 1143   5.726   0.349   1.429
  379TIP3    H2 1144   5.738   0.213   1.363
  380TIP3   OH2 1145   2.680   4.562   5.012
  380TIP3    H1 1146   2.737   4.515   4.952
  380TIP3    H2 1147   2.701   4.527   5.099
  381TIP3   OH2 1148   2.765   2.313   5.000
  381TIP3    H1 1149   2.785   2.375   4.929
  381TIP3    H2 1150   2.673   2.291   4.986
  382TIP3   OH2 1151   1.266   1.164   2.398
  382TIP3    H1 1152   1.339   1.106   2.376
  382TIP3    H2 1153   1.277   1.184   2.491
  383TIP3   OH2 1154   3.225   0.816   5.082
  383TIP3    H1 1155   3.149   0.844   5.031
  383TIP3    H2 1156   3.265   0.747   5.029
  384TIP3   OH2 1157   5.832   1.010   2.834
  384TIP3    H1 1158   5.765   0.971   2.890
  384TIP3    H2 1159   5.797   1.096   2.811
  385TIP3   OH2 1160   1.254   2.434   1.664
  385TIP3    H1 1161   1.300   2.375   1.605
  385TIP3    H2 1162   1.163   2.430   1.636
  386TIP3   OH2 1163   4.384   2.419   1.489
  386TIP3    H1 1164   4.301   2.416   1.442
  386TIP3    H2 1165   4.362   2.454   1.575
  387TIP3   OH2 1166   3.218   3.913   4.370
  387TIP3    H1 1167   3.278   3.865   4.313
  387TIP3    H2 1168   3.269   3.931   4.449
  388TIP3   OH2 1169   4.714   4.496   3.835
  388TIP3    H1 1170   4.809   4.504   3.835
  388TIP3    H2 1171   4.684   4.562   3.898
  389TIP3   OH2 1172   5.721   5.416   2.152
  389TIP3    H1 1173   5.664   5.366   2.211
  389TIP3    H2 1174   5.724   5.363   2.072
  390TIP3   OH2 1175   3.531   5.879   3.634
  390TIP3    H1 1176   3.451   5.830   3.617
  390TIP3    H2 1177   3.555   5.917   3.549
  391TIP3   OH2 1178   4.472   0.172   2.505
  391TIP3    H1 1179   4.561   0.207   2.499
  391TIP3    H2 1180   4.457   0.130   2.420
  392TIP3   OH2 1181   3.185   1.692   3.000
  392TIP3    H1 1182   3.110   1.632   3.004
  392TIP3    H2 1183   3.157   1.769   3.050
  393TIP3   OH2 1184   1.998   5.449   4.679
  393TIP3    H1 1185   2.008   5.532   4.726
  393TIP3    H2 1186   1.956   5.472   4.597
  394TIP3   OH2 1187   0.331   2.962   2.351
  394TIP3    H1 1188   0.344   3.050   2.316
  394TIP3    H2 1189   0.418   2.922   2.350
  395TIP3   OH2 1190   5.119   1.849   4.260
  395TIP3    H1 1191   5.124   1.945   4.252
  395TIP3    H2 1192   5.038   1.826   4.214
  396TIP3   OH2 1193   0.966   3.394   2.154
  396TIP3    H1 1194   1.030   3.333   2.190
  396TIP3    H2 1195   0.964   3.466   2.217
  397TIP3   OH2 1196   3.204   5.228   3.911
  397TIP3    H1 1197   3.193   5.138   3.880
  397TIP3    H2 1198   3.175   5.225   4.002
  398TIP3   OH2 1199   6.338   4.611   2.494
  398TIP3    H1 1200   6.255   4.596   2.448
  398TIP3    H2 1201   6.394   4.538   2.468
  399TIP3   OH2 1202   3.454   2.225   2.961
  399TIP3    H1 1203   3.454   2.283   2.885
  399TIP3    H2 1204   3.427   2.140   2.926
  400TIP3   OH2 1205   3.912   3.257   3.627
  400TIP3    H1 1206   3.956   3.204   3.560
  400TIP3    H2 1207   3.820   3.233   3.620
  401TIP3   OH2 1208   3.568   2.583   0.597
  401TIP3    H1 1209   3.611   2.668   0.611
  401TIP3    H2 1210   3.590   2.559   0.507
  402TIP3   OH2 1211   4.594   0.833   0.133
  402TIP3    H1 1212   4.500   0.845   0.146
  402TIP3    H2 1213   4.622   0.778   0.206
  403TIP3   OH2 1214   3.678   1.358   3.380
  403TIP3    H1 1215   3.646   1.315   3.301
  403TIP3    H2 1216   3.683   1.451   3.356
  404TIP3   OH2 1217   5.597   1.196   3.815
  404TIP3    H1 1218   5.565   1.285   3.800
  404TIP3    H2 1219   5.670   1.187   3.753
  405TIP3   OH2 1220   3.889   1.134   1.099
  405TIP3    H1 1221   3.855   1.195   1.166
  405TIP3    H2 1222   3.906   1.190   1.023
  406TIP3   OH2 1223   4.609   5.700   2.239
  406TIP3    H1 1224   4.595   5.779   2.187
  406TIP3    H2 1225   4.667   5.728   2.310
  407TIP3   OH2 1226   3.132   1.272   0.054
  407TIP3    H1 1227   3.075   1.197   0.041
  407TIP3    H2 1228   3.213   1.250   0.008
  408TIP3   OH2 1229   1.617   1.869   3.220
  408TIP3    H1 1230   1.622   1.935   3.151
  408TIP3    H2 1231   1.611   1.785   3.174
  409TIP3   OH2 1232   2.040   3.505   0.320
  409TIP3    H1 1233   1.965   3.484   0.375
  409TIP3    H2 1234   2.111   3.521   0.381
  410TIP3   OH2 1235   2.579   3.293   4.316
  410TIP3    H1 1236   2.621   3.322   4.235
  410TIP3    H2 1237   2.506   3.238   4.287
  411TIP3   OH2 1238   3.152   5.618   4.526
  411TIP3    H1 1239   3.096   5.689   4.496
  411TIP3    H2 1240   3.233   5.661   4.553
  412TIP3   OH2 1241   0.631   1.729   2.323
  412TIP3    H1 1242   0.640   1.771   2.238
  412TIP3    H2 1243   0.720   1.705   2.348
  413TIP3   OH2 1244   3.883   4.573   3.201
  413TIP3    H1 1245   3.830   4.565   3.281
  413TIP3    H2 1246   3.879   4.666   3.179
  414TIP3   OH2 1247   1.654   1.088   2.892
  414TIP3    H1 1248   1.660   1.009   2.946
  414TIP3    H2 1249   1.629   1.056   2.805
  415TIP3   OH2 1250   0.947   3.338   3.728
  415TIP3    H1 1251   0.865   3.306   3.691
  415TIP3    H2 1252   0.944   3.314   3.820
  416TIP3   OH2 1253   6.189   1.940   4.438
  416TIP3    H1 1254   6.128   1.877   4.476
  416TIP3    H2 1255   6.254   1.886   4.393
  417TIP3   OH2 1256   1.739   5.196   3.923
  417TIP3    H1 1257   1.820   5.219   3.967
  417TIP3    H2 1258   1.700   5.280   3.900
  418TIP3   OH2 1259   2.781   1.321   0.077
  418TIP3    H1 1260   2.839   1.300   0.150
  418TIP3    H2 1261   2.837   1.315  -0.001
  419TIP3   OH2 1262   4.038   2.042   4.278
  419TIP3    H1 1263   4.087   2.091   4.212
  419TIP3    H2 1264   4.087   2.055   4.359
  420TIP3   OH2 1265   2.318   4.235   1.736
  420TIP3    H1 1266   2.391   4.221   1.797
  420TIP3    H2 1267   2.358   4.278   1.661
  421TIP3   OH2 1268   4.898   0.248   4.555
  421TIP3    H1 1269   4.903   0.220   4.647
  421TIP3    H2 1270   4.977   0.212   4.515
  422TIP3   OH2 1271   1.869   2.777   1.356
  422TIP3    H1 1272   1.918   2.724   1.294
  422TIP3    H2 1273   1.777   2.755   1.339
  423TIP3   OH2 1274   5.446   1.694   1.006
  423TIP3    H1 1275   5.436   1.696   1.101
  423TIP3    H2 1276   5.363   1.728   0.972
  424TIP3   OH2 1277   3.754   3.479   2.292
  424TIP3    H1 1278   3.788   3.405   2.242
  424TIP3    H2 1279   3.680   3.442   2.340
  425TIP3   OH2 1280   3.120   5.001   0.207
  425TIP3    H1 1281   3.044   4.971   0.156
  425TIP3    H2 1282   3.143   4.926   0.261
  426TIP3   OH2 1283   5.710   1.198   4.954
  426TIP3    H1 1284   5.676   1.285   4.932
  426TIP3    H2 1285   5.646   1.161   5.014
  427TIP3   OH2 1286   0.332   3.562   1.791
  427TIP3    H1 1287   0.297   3.622   1.857
  427TIP3    H2 1288   0.421   3.544   1.819
  428TIP3   OH2 1289   3.571   4.165   4.494
  428TIP3    H1 1290   3.584   4.249   4.450
  428TIP3    H2 1291   3.615   4.102   4.437
  429TIP3   OH2 1292   6.310   4.000   3.555
  429TIP3    H1 1293   6.400   4.017   3.580
  429TIP3    H2 1294   6.266   4.084   3.563
  430TIP3   OH2 1295   3.905   4.535   1.964
  430TIP3    H1 1296   3.924   4.442   1.948
  430TIP3    H2 1297   3.969   4.582   1.911
  431TIP3   OH2 1298   5.335   1.050   4.891
  431TIP3    H1 1299   5.260   0.991   4.895
  431TIP3    H2 1300   5.296   1.137   4.899
  432TIP3   OH2 1301   0.784   0.303   4.407
  432TIP3    H1 1302   0.863   0.335   4.362
  432TIP3    H2 1303   0.737   0.382   4.432
  433TIP3   OH2 1304   1.602   2.205   1.282
  433TIP3    H1 1305   1.689   2.236   1.307
  433TIP3    H2 1306   1.618   2.126   1.230
  434TIP3   OH2 1307   2.957   1.061   0.031
  434TIP3    H1 1308   2.908   1.017   0.100
  434TIP3    H2 1309   2.900   1.056  -0.046
  435TIP3   OH2 1310   0.540   5.175   2.402
  435TIP3    H1 1311   0.478   5.247   2.411
  435TIP3    H2 1312   0.506   5.105   2.458
  436TIP3   OH2 1313   4.015   4.219   4.983
  436TIP3    H1 1314   4.061   4.302   4.973
  436TIP3    H2 1315   3.991   4.215   5.075
  437TIP3   OH2 1316   1.793   2.227   2.332
  437TIP3    H1 1317   1.807   2.157   2.267
  437TIP3    H2 1318   1.868   2.285   2.321
  438TIP3   OH2 1319   4.961   4.236   2.592
  438TIP3    H1 1320   5.026   4.166   2.598
  438TIP3    H2 1321   4.980   4.293   2.666
  439TIP3   OH2 1322   2.842   3.851   3.622
  439TIP3    H1 1323   2.850   3.917   3.553
  439TIP3    H2 1324   2.932   3.832   3.648
  440TIP3   OH2 1325   2.748   5.893   0.199
  440TIP3    H1 1326   2.666   5.941   0.207
  440TIP3    H2 1327   2.791   5.929   0.122
  441TIP3   OH2 1328   0.277   0.284   2.125
  441TIP3    H1 1329   0.354   0.240   2.090
  441TIP3    H2 1330   0.264   0.246   2.212
  442TIP3   OH2 1331   4.541   2.990   4.402
  442TIP3    H1 1332   4.599   2.914   4.396
  442TIP3    H2 1333   4.592   3.063   4.368
  443TIP3   OH2 1334   4.941   3.510   4.261
  443TIP3    H1 1335   4.948   3.438   4.199
  443TIP3    H2 1336   4.851   3.541   4.252
  444TIP3   OH2 1337   3.274   2.116   1.353
  444TIP3    H1 1338   3.351   2.059   1.359
  444TIP3    H2 1339   3.204   2.067   1.397
  445TIP3   OH2 1340   0.484   2.592   1.116
  445TIP3    H1 1341   0.547   2.533   1.158
  445TIP3    H2 1342   0.519   2.680   1.132
  446TIP3   OH2 1343   4.119   0.920   0.871
  446TIP3    H1 1344   4.052   0.948   0.934
  446TIP3    H2 1345   4.200   0.921   0.921
  447TIP3   OH2 1346   0.982   5.870   3.118
  447TIP3    H1 1347   0.896   5.866   3.074
  447TIP3    H2 1348   0.977   5.948   3.173
  448TIP3   OH2 1349   0.525   3.991   4.641
  448TIP3    H1 1350   0.565   4.070   4.676
  448TIP3    H2 1351   0.565   3.920   4.692
  449TIP3   OH2 1352   4.445   2.252   5.053
  449TIP3    H1 1353   4.538   2.230   5.054
  449TIP3    H2 1354   4.442   2.347   5.069
  450TIP3   OH2 1355   0.502   2.918   3.813
  450TIP3    H1 1356   0.557   2.919   3.891
  450TIP3    H2 1357   0.504   2.827   3.783
  451TIP3   OH2 1358   2.731   2.283   1.337
  451TIP3    H1 1359   2.774   2.199   1.323
  451TIP3    H2 1360   2.663   2.264   1.403
  452TIP3   OH2 1361   0.848   3.640   1.069
  452TIP3    H1 1362   0.932   3.627   1.026
  452TIP3    H2 1363   0.867   3.698   1.143
  453TIP3   OH2 1364   6.275   2.343   0.537
  453TIP3    H1 1365   6.187   2.363   0.506
  453TIP3    H2 1366   6.268   2.254   0.574
  454TIP3   OH2 1367   0.604   4.935   3.528
  454TIP3    H1 1368   0.587   5.026   3.501
  454TIP3    H2 1369   0.698   4.932   3.542
  455TIP3   OH2 1370   4.222   5.382   4.661
  455TIP3    H1 1371   4.289   5.443   4.690
  455TIP3    H2 1372   4.139   5.424   4.684
  456TIP3   OH2 1373   3.404   4.077   2.207
  456TIP3    H1 1374   3.401   4.009   2.141
  456TIP3    H2 1375   3.458   4.040   2.277
  457TIP3   OH2 1376   4.869   5.112   0.936
  457TIP3    H1 1377   4.875   5.025   0.897
  457TIP3    H2 1378   4.960   5.140   0.947
  458TIP3   OH2 1379   0.291   5.493   1.829
  458TIP3    H1 1380   0.366   5.478   1.772
  458TIP3    H2 1381   0.251   5.573   1.797
  459TIP3   OH2 1382   1.821   4.254   5.002
  459TIP3    H1 1383   1.868   4.181   5.043
  459TIP3    H2 1384   1.755   4.212   4.947
  460TIP3   OH2 1385   2.124   1.742   2.550
  460TIP3    H1 1386   2.100   1.820   2.601
  460TIP3    H2 1387   2.184   1.693   2.606
  461TIP3   OH2 1388   5.545   5.956   4.624
  461TIP3    H1 1389   5.585   6.043   4.626
  461TIP3    H2 1390   5.572   5.916   4.706
  462TIP3   OH2 1391   2.211   0.089   4.671
  462TIP3    H1 1392   2.190   0.038   4.749
  462TIP3    H2 1393   2.283   0.041   4.629
  463TIP3   OH2 1394   4.301   1.007   5.145
  463TIP3    H1 1395   4.281   1.030   5.236
  463TIP3    H2 1396   4.394   1.027   5.134
  464TIP3   OH2 1397   3.745   3.678   1.910
  464TIP3    H1 1398   3.815   3.637   1.961
  464TIP3    H2 1399   3.783   3.690   1.823
  465TIP3   OH2 1400   5.502   2.070   0.132
  465TIP3    H1 1401   5.537   2.089   0.045
  465TIP3    H2 1402   5.498   2.155   0.176
  466TIP3   OH2 1403   3.341   3.646   4.961
  466TIP3    H1 1404   3.433   3.669   4.971
  466TIP3    H2 1405   3.311   3.699   4.887
  467TIP3   OH2 1406   3.354   3.515   0.410
  467TIP3    H1 1407   3.430   3.536   0.356
  467TIP3    H2 1408   3.332   3.597   0.454
  468TIP3   OH2 1409   6.339   4.321   4.590
  468TIP3    H1 1410   6.251   4.327   4.554
  468TIP3    H2 1411   6.395   4.365   4.525
  469TIP3   OH2 1412   1.045   5.868   2.091
  469TIP3    H1 1413   1.077   5.940   2.036
  469TIP3    H2 1414   1.009   5.911   2.168
  470TIP3   OH2 1415   3.232   4.905   1.384
  470TIP3    H1 1416   3.262   4.849   1.455
  470TIP3    H2 1417   3.312   4.944   1.348
  471TIP3   OH2 1418   4.262   4.348   2.321
  471TIP3    H1 1419   4.282   4.441   2.313
  471TIP3    H2 1420   4.204   4.342   2.396
  472TIP3   OH2 1421   4.816   4.656   2.411
  472TIP3    H1 1422   4.783   4.569   2.430
  472TIP3    H2 1423   4.752   4.715   2.450
  473TIP3   OH2 1424   0.584   2.087   4.900
  473TIP3    H1 1425   0.538   2.138   4.967
  473TIP3    H2 1426   0.649   2.148   4.865
  474TIP3   OH2 1427   5.765   3.367   4.223
  474TIP3    H1 1428   5.725   3.444   4.181
  474TIP3    H2 1429   5.733   3.293   4.172
  475TIP3   OH2 1430   1.442   0.545   2.657
  475TIP3    H1 1431   1.404   0.464   2.690
  475TIP3    H2 1432   1.395   0.562   2.575
  476TIP3   OH2 1433   0.860   4.883   2.925
  476TIP3    H1 1434   0.869   4.856   3.016
  476TIP3    H2 1435   0.833   4.974   2.929
  477TIP3   OH2 1436   2.934   0.258   4.125
  477TIP3    H1 1437   3.003   0.278   4.062
  477TIP3    H2 1438   2.906   0.344   4.158
  478TIP3   OH2 1439   2.456   1.701   0.595
  478TIP3    H1 1440   2.547   1.726   0.606
  478TIP3    H2 1441   2.460   1.621   0.541
  479TIP3   OH2 1442   2.346   3.554   3.105
  479TIP3    H1 1443   2.437   3.559   3.134
  479TIP3    H2 1444   2.297   3.601   3.172
  480TIP3   OH2 1445   3.241   4.328   0.425
  480TIP3    H1 1446   3.192   4.357   0.502
  480TIP3    H2 1447   3.173   4.307   0.360
  481TIP3   OH2 1448   2.908   3.468   4.206
  481TIP3    H1 1449   2.838   3.404   4.193
  481TIP3    H2 1450   2.931   3.460   4.298
  482TIP3   OH2 1451   5.880   5.938   2.566
  482TIP3    H1 1452   5.897   5.906   2.478
  482TIP3    H2 1453   5.915   5.870   2.624
  483TIP3   OH2 1454   1.530   5.909   4.793
  483TIP3    H1 1455   1.445   5.951   4.781
  483TIP3    H2 1456   1.561   5.891   4.704
  484TIP3   OH2 1457   5.117   2.325   3.744
  484TIP3    H1 1458   5.178   2.250   3.744
  484TIP3    H2 1459   5.110   2.349   3.837
  485TIP3   OH2 1460   1.803   2.450   0.794
  485TIP3    H1 1461   1.777   2.510   0.864
  485TIP3    H2 1462   1.776   2.364   0.824
  486TIP3   OH2 1463   0.358   1.229   3.263
  486TIP3    H1 1464   0.400   1.187   3.188
  486TIP3    H2 1465   0.272   1.187   3.269
  487TIP3   OH2 1466   1.487   1.209   1.576
  487TIP3    H1 1467   1.454   1.270   1.511
  487TIP3    H2 1468   1.410   1.181   1.625
  488TIP3   OH2 1469   0.357   0.210   3.285
  488TIP3    H1 1470   0.448   0.232   3.268
  488TIP3    H2 1471   0.328   0.164   3.206
  489TIP3   OH2 1472   1.308   3.522   0.210
  489TIP3    H1 1473   1.258   3.602   0.222
  489TIP3    H2 1474   1.242   3.454   0.195
  490TIP3   OH2 1475   0.964   5.573   0.917
  490TIP3    H1 1476   1.043   5.538   0.959
  490TIP3    H2 1477   0.922   5.625   0.986
  491TIP3   OH2 1478   6.314   3.999   2.846
  491TIP3    H1 1479   6.336   3.939   2.775
  491TIP3    H2 1480   6.336   4.085   2.812
  492TIP3   OH2 1481   1.536   0.896   1.325
  492TIP3    H1 1482   1.466   0.896   1.259
  492TIP3    H2 1483   1.564   0.805   1.330
  493TIP3   OH2 1484   1.697   1.460   2.125
  493TIP3    H1 1485   1.668   1.406   2.199
  493TIP3    H2 1486   1.617   1.500   2.091
  494TIP3   OH2 1487   5.803   4.730   1.757
  494TIP3    H1 1488   5.759   4.807   1.794
  494TIP3    H2 1489   5.848   4.763   1.680
  495TIP3   OH2 1490   2.853   4.261   4.567
  495TIP3    H1 1491   2.762   4.238   4.585
  495TIP3    H2 1492   2.861   4.253   4.472
  496TIP3   OH2 1493   3.909   4.566   0.825
  496TIP3    H1 1494   3.881   4.657   0.835
  496TIP3    H2 1495   3.841   4.516   0.869
  497TIP3   OH2 1496   1.839   1.376   2.727
  497TIP3    H1 1497   1.776   1.325   2.676
  497TIP3    H2 1498   1.842   1.461   2.683
  498TIP3   OH2 1499   0.578   3.236   3.950
  498TIP3    H1 1500   0.489   3.271   3.953
  498TIP3    H2 1501   0.567   3.142   3.965
  499TIP3   OH2 1502   0.551   0.784   0.632
  499TIP3    H1 1503   0.602   0.863   0.651
  499TIP3    H2 1504   0.562   0.729   0.710
  500TIP3   OH2 1505   2.725   4.897   0.304
  500TIP3    H1 1506   2.802   4.871   0.254
  500TIP3    H2 1507   2.660   4.830   0.285
  501TIP3   OH2 1508   5.469   5.975   0.814
  501TIP3    H1 1509   5.523   6.030   0.871
  501TIP3    H2 1510   5.470   6.020   0.729
  502TIP3   OH2 1511   1.265   5.605   4.032
  502TIP3    H1 1512   1.186   5.555   4.053
  502TIP3    H2 1513   1.236   5.668   3.966
  503TIP3   OH2 1514   3.520   4.875   0.950
  503TIP3    H1 1515   3.552   4.824   1.024
  503TIP3    H2 1516   3.425   4.870   0.957
  504TIP3   OH2 1517   3.463   0.570   0.810
  504TIP3    H1 1518   3.375   0.534   0.793
  504TIP3    H2 1519   3.505   0.504   0.865
  505TIP3   OH2 1520   1.354   3.898   1.378
  505TIP3    H1 1521   1.328   3.942   1.458
  505TIP3    H2 1522   1.292   3.826   1.368
  506TIP3   OH2 1523   1.175   3.241   1.632
  506TIP3    H1 1524   1.086   3.209   1.649
  506TIP3    H2 1525   1.162   3.317   1.575
  507TIP3   OH2 1526   2.284   3.581   1.611
  507TIP3    H1 1527   2.303   3.672   1.632
  507TIP3    H2 1528   2.276   3.579   1.515
  508TIP3   OH2 1529   3.183   1.527   0.081
  508TIP3    H1 1530   3.119   1.574   0.135
  508TIP3    H2 1531   3.149   1.438   0.076
  509TIP3   OH2 1532   5.847   2.322   2.908
  509TIP3    H1 1533   5.843   2.407   2.950
  509TIP3    H2 1534   5.865   2.261   2.980
  510TIP3   OH2 1535   3.572   4.951   3.952
  510TIP3    H1 1536   3.522   5.008   4.011
  510TIP3    H2 1537   3.531   4.865   3.962
  511TIP3   OH2 1538   1.126   3.164   2.836
  511TIP3    H1 1539   1.166   3.100   2.895
  511TIP3    H2 1540   1.163   3.143   2.750
  512TIP3   OH2 1541   1.412   0.316   1.311
  512TIP3    H1 1542   1.434   0.294   1.401
  512TIP3    H2 1543   1.464   0.255   1.258
  513TIP3   OH2 1544   3.560   0.783   0.274
  513TIP3    H1 1545   3.513   0.728   0.337
  513TIP3    H2 1546   3.528   0.872   0.291
  514TIP3   OH2 1547   4.995   1.838   3.774
  514TIP3    H1 1548   4.910   1.806   3.805
  514TIP3    H2 1549   5.038   1.761   3.737
  515TIP3   OH2 1550   3.647   4.972   0.429
  515TIP3    H1 1551   3.667   4.884   0.459
  515TIP3    H2 1552   3.677   5.030   0.499
  516TIP3   OH2 1553   5.873   4.420   0.213
  516TIP3    H1 1554   5.869   4.324   0.212
  516TIP3    H2 1555   5.828   4.447   0.134
  517TIP3   OH2 1556   4.163   2.259   0.895
  517TIP3    H1 1557   4.097   2.231   0.958
  517TIP3    H2 1558   4.244   2.219   0.926
  518TIP3   OH2 1559   2.795   2.921   3.473
  518TIP3    H1 1560   2.715   2.963   3.505
  518TIP3    H2 1561   2.830   2.874   3.549
  519TIP3   OH2 1562   0.082   4.930   0.436
  519TIP3    H1 1563   0.052   4.901   0.522
  519TIP3    H2 1564   0.067   5.025   0.437
  520TIP3   OH2 1565   5.537   2.906   1.682
  520TIP3    H1 1566   5.516   2.813   1.678
  520TIP3    H2 1567   5.552   2.924   1.775
  521TIP3   OH2 1568   6.001   5.148   4.686
  521TIP3    H1 1569   6.080   5.101   4.660
  521TIP3    H2 1570   6.029   5.203   4.759
  522TIP3   OH2 1571   5.724   3.694   2.740
  522TIP3    H1 1572   5.770   3.695   2.657
  522TIP3    H2 1573   5.785   3.736   2.802
  523TIP3   OH2 1574   4.992   0.356   1.008
  523TIP3    H1 1575   5.039   0.440   1.003
  523TIP3    H2 1576   5.040   0.307   1.075
  524TIP3   OH2 1577   0.063   3.645   0.663
  524TIP3    H1 1578   0.102   3.723   0.624
  524TIP3    H2 1579  -0.024   3.673   0.692
  525TIP3   OH2 1580   3.371   3.278   1.875
  525TIP3    H1 1581   3.448   3.260   1.928
  525TIP3    H2 1582   3.327   3.351   1.920
  526TIP3   OH2 1583   1.723   4.917   4.667
  526TIP3    H1 1584   1.710   4.871   4.750
  526TIP3    H2 1585   1.723   5.010   4.691
  527TIP3   OH2 1586   4.503   5.455   4.150
  527TIP3    H1 1587   4.576   5.514   4.135
  527TIP3    H2 1588   4.426   5.504   4.120
  528TIP3   OH2 1589   1.635   3.562   1.671
  528TIP3    H1 1590   1.547   3.597   1.669
  528TIP3    H2 1591   1.683   3.612   1.604
  529TIP3   OH2 1592   5.712   5.549   2.718
  529TIP3    H1 1593   5.641   5.525   2.658
  529TIP3    H2 1594   5.680   5.521   2.804
  530TIP3   OH2 1595   4.789   4.907   3.557
  530TIP3    H1 1596   4.812   4.815   3.575
  530TIP3    H2 1597   4.733   4.902   3.479
  531TIP3   OH2 1598   0.864   0.605   1.680
  531TIP3    H1 1599   0.793   0.541   1.692
  531TIP3    H2 1600   0.886   0.633   1.768
  532TIP3   OH2 1601   0.883   3.032   4.189
  532TIP3    H1 1602   0.964   3.045   4.239
  532TIP3    H2 1603   0.814   3.029   4.255
  533TIP3   OH2 1604   1.627   3.784   2.136
  533TIP3    H1 1605   1.568   3.728   2.086
  533TIP3    H2 1606   1.714   3.745   2.124
  534TIP3   OH2 1607   5.357   1.344   2.677
  534TIP3    H1 1608   5.343   1.267   2.622
  534TIP3    H2 1609   5.299   1.330   2.752
  535TIP3   OH2 1610   0.092   1.287   4.129
  535TIP3    H1 1611   0.022   1.285   4.064
  535TIP3    H2 1612   0.049   1.309   4.211
  536TIP3   OH2 1613   2.693   4.531   4.415
  536TIP3    H1 1614   2.608   4.564   4.389
  536TIP3    H2 1615   2.683   4.436   4.416
  537TIP3   OH2 1616   0.093   4.560   4.250
  537TIP3    H1 1617   0.109   4.475   4.292
  537TIP3    H2 1618   0.179   4.584   4.214
  538TIP3   OH2 1619   1.142   0.502   3.444
  538TIP3    H1 1620   1.184   0.573   3.395
  538TIP3    H2 1621   1.078   0.546   3.500
  539TIP3   OH2 1622   3.651   1.010   2.810
  539TIP3    H1 1623   3.668   0.955   2.886
  539TIP3    H2 1624   3.610   1.089   2.847
  540TIP3   OH2 1625   0.790   5.523   4.345
  540TIP3    H1 1626   0.788   5.544   4.251
  540TIP3    H2 1627   0.799   5.608   4.388
  541TIP3   OH2 1628   0.205   0.088   3.491
  541TIP3    H1 1629   0.213   0.118   3.581
  541TIP3    H2 1630   0.256   0.151   3.440
  542TIP3   OH2 1631   6.101   2.485   2.017
  542TIP3    H1 1632   6.072   2.411   1.964
  542TIP3    H2 1633   6.195   2.472   2.028
  543TIP3   OH2 1634   2.828   3.115   1.286
  543TIP3    H1 1635   2.894   3.077   1.228
  543TIP3    H2 1636   2.849   3.080   1.373
  544TIP3   OH2 1637   5.756   4.280   1.808
  544TIP3    H1 1638   5.730   4.371   1.824
  544TIP3    H2 1639   5.806   4.285   1.726
  545TIP3   OH2 1640   4.516   4.354   0.817
  545TIP3    H1 1641   4.471   4.320   0.740
  545TIP3    H2 1642   4.495   4.291   0.886
  546TIP3   OH2 1643   1.087   4.393   1.492
  546TIP3    H1 1644   1.093   4.472   1.438
  546TIP3    H2 1645   1.080   4.426   1.582
  547TIP3   OH2 1646   5.164   0.287   4.463
  547TIP3    H1 1647   5.175   0.344   4.539
  547TIP3    H2 1648   5.202   0.337   4.390
  548TIP3   OH2 1649   4.449   5.234   0.190
  548TIP3    H1 1650   4.501   5.212   0.113
  548TIP3    H2 1651   4.398   5.155   0.208
  549TIP3   OH2 1652   5.159   4.134   3.633
  549TIP3    H1 1653   5.163   4.109   3.725
  549TIP3    H2 1654   5.159   4.050   3.586
  550TIP3   OH2 1655   5.670   0.451   2.740
  550TIP3    H1 1656   5.673   0.356   2.754
  550TIP3    H2 1657   5.704   0.488   2.821
  551TIP3   OH2 1658   4.553   3.706   0.285
  551TIP3    H1 1659   4.645   3.705   0.310
  551TIP3    H2 1660   4.552   3.684   0.192
  552TIP3   OH2 1661   3.910   3.016   0.439
  552TIP3    H1 1662   3.966   2.968   0.378
  552TIP3    H2 1663   3.939   2.990   0.526
  553TIP3   OH2 1664   1.224   0.125   1.804
  553TIP3    H1 1665   1.206   0.145   1.712
  553TIP3    H2 1666   1.319   0.122   1.810
  554TIP3   OH2 1667   3.428   5.743   4.607
  554TIP3    H1 1668   3.435   5.698   4.523
  554TIP3    H2 1669   3.482   5.690   4.666
  555TIP3   OH2 1670   3.956   1.468   2.286
  555TIP3    H1 1671   3.892   1.445   2.219
  555TIP3    H2 1672   4.039   1.435   2.252
  556TIP3   OH2 1673   0.415   2.193   0.243
  556TIP3    H1 1674   0.487   2.182   0.181
  556TIP3    H2 1675   0.458   2.201   0.329
  557TIP3   OH2 1676   5.568   2.901   1.948
  557TIP3    H1 1677   5.622   2.847   2.007
  557TIP3    H2 1678   5.489   2.848   1.934
  558TIP3   OH2 1679   3.515   1.243   0.068
  558TIP3    H1 1680   3.564   1.162   0.058
  558TIP3    H2 1681   3.477   1.259  -0.019
  559TIP3   OH2 1682   3.277   1.839   2.300
  559TIP3    H1 1683   3.298   1.889   2.378
  559TIP3    H2 1684   3.190   1.801   2.317
  560TIP3   OH2 1685   5.342   2.049   4.210
  560TIP3    H1 1686   5.302   1.963   4.201
  560TIP3    H2 1687   5.271   2.106   4.241
  561TIP3   OH2 1688   5.673   5.032   2.437
  561TIP3    H1 1689   5.667   5.117   2.394
  561TIP3    H2 1690   5.600   4.982   2.400
  562TIP3   OH2 1691   1.406   5.239   4.242
  562TIP3    H1 1692   1.378   5.158   4.285
  562TIP3    H2 1693   1.479   5.211   4.185
  563TIP3   OH2 1694   0.805   1.083   3.719
  563TIP3    H1 1695   0.818   1.178   3.714
  563TIP3    H2 1696   0.710   1.071   3.719
  564TIP3   OH2 1697   0.067   0.911   1.900
  564TIP3    H1 1698  -0.011   0.943   1.945
  564TIP3    H2 1699   0.089   0.830   1.946
  565TIP3   OH2 1700   2.437   2.418   1.335
  565TIP3    H1 1701   2.525   2.391   1.310
  565TIP3    H2 1702   2.395   2.443   1.253
  566TIP3   OH2 1703   0.711   4.156   5.074
  566TIP3    H1 1704   0.756   4.209   5.139
  566TIP3    H2 1705   0.633   4.123   5.118
  567TIP3   OH2 1706   3.867   4.973   2.960
  567TIP3    H1 1707   3.871   4.918   3.039
  567TIP3    H2 1708   3.888   4.913   2.888
  568TIP3   OH2 1709   5.354   3.766   1.071
  568TIP3    H1 1710   5.295   3.797   1.003
  568TIP3    H2 1711   5.313   3.685   1.104
  569TIP3   OH2 1712   0.421   5.415   2.476
  569TIP3    H1 1713   0.446   5.481   2.541
  569TIP3    H2 1714   0.446   5.454   2.392
  570TIP3   OH2 1715   2.170   1.506   3.198
  570TIP3    H1 1716   2.151   1.413   3.190
  570TIP3    H2 1717   2.092   1.543   3.239
  571TIP3   OH2 1718   4.091   4.612   4.023
  571TIP3    H1 1719   4.106   4.684   4.084
  571TIP3    H2 1720   4.069   4.538   4.080
  572TIP3   OH2 1721   5.370   5.479   1.535
  572TIP3    H1 1722   5.424   5.533   1.478
  572TIP3    H2 1723   5.347   5.403   1.482
  573TIP3   OH2 1724   2.536   2.859   2.956
  573TIP3    H1 1725   2.487   2.777   2.963
  573TIP3    H2 1726   2.548   2.888   3.046
  574TIP3   OH2 1727   2.830   0.042   2.278
  574TIP3    H1 1728   2.911   0.080   2.243
  574TIP3    H2 1729   2.812   0.092   2.357
  575TIP3   OH2 1730   6.169   3.631   1.592
  575TIP3    H1 1731   6.251   3.626   1.543
  575TIP3    H2 1732   6.103   3.600   1.530
  576TIP3   OH2 1733   4.403   4.796   1.303
  576TIP3    H1 1734   4.472   4.763   1.360
  576TIP3    H2 1735   4.347   4.720   1.286
  577TIP3   OH2 1736   0.886   3.566   1.699
  577TIP3    H1 1737   0.940   3.488   1.709
  577TIP3    H2 1738   0.930   3.633   1.751
  578TIP3   OH2 1739   3.045   5.660   4.991
  578TIP3    H1 1740   2.977   5.727   4.990
  578TIP3    H2 1741   2.999   5.578   5.009
  579TIP3   OH2 1742   1.154   2.119   2.332
  579TIP3    H1 1743   1.232   2.175   2.333
  579TIP3    H2 1744   1.164   2.063   2.408
  580TIP3   OH2 1745   4.858   5.173   2.485
  580TIP3    H1 1746   4.873   5.169   2.390
  580TIP3    H2 1747   4.921   5.110   2.521
  581TIP3   OH2 1748   4.062   0.592   0.473
  581TIP3    H1 1749   4.048   0.598   0.567
  581TIP3    H2 1750   3.994   0.647   0.434
  582TIP3   OH2 1751   5.150   4.272   3.102
  582TIP3    H1 1752   5.231   4.309   3.067
  582TIP3    H2 1753   5.164   4.177   3.101
  583TIP3   OH2 1754   3.784   0.247   2.237
  583TIP3    H1 1755   3.726   0.313   2.200
  583TIP3    H2 1756   3.854   0.238   2.173
  584TIP3   OH2 1757   5.015   0.870   0.553
  584TIP3    H1 1758   4.964   0.816   0.613
  584TIP3    H2 1759   5.104   0.835   0.558
  585TIP3   OH2 1760   2.861   5.035   4.557
  585TIP3    H1 1761   2.890   5.035   4.648
  585TIP3    H2 1762   2.766   5.027   4.561
  586TIP3   OH2 1763   5.981   2.504   1.155
  586TIP3    H1 1764   5.899   2.458   1.139
  586TIP3    H2 1765   6.003   2.482   1.246
  587TIP3   OH2 1766   4.771   3.493   3.229
  587TIP3    H1 1767   4.795   3.518   3.140
  587TIP3    H2 1768   4.786   3.399   3.233
  588TIP3   OH2 1769   5.130   2.868   2.572
  588TIP3    H1 1770   5.115   2.867   2.667
  588TIP3    H2 1771   5.082   2.791   2.540
  589TIP3   OH2 1772   0.111   1.438   1.938
  589TIP3    H1 1773   0.184   1.377   1.931
  589TIP3    H2 1774   0.152   1.522   1.959
  590TIP3   OH2 1775   2.645   0.048   0.978
  590TIP3    H1 1776   2.607   0.039   0.890
  590TIP3    H2 1777   2.656  -0.042   1.008
  591TIP3   OH2 1778   0.608   1.002   1.032
  591TIP3    H1 1779   0.670   1.053   1.083
  591TIP3    H2 1780   0.659   0.967   0.959
  592TIP3   OH2 1781   3.237   3.394   0.180
  592TIP3    H1 1782   3.147   3.368   0.199
  592TIP3    H2 1783   3.284   3.380   0.262
  593TIP3   OH2 1784   1.015   5.908   0.563
  593TIP3    H1 1785   0.992   5.820   0.592
  593TIP3    H2 1786   1.106   5.901   0.533
  594TIP3   OH2 1787   4.277   1.655   0.226
  594TIP3    H1 1788   4.327   1.735   0.247
  594TIP3    H2 1789   4.269   1.657   0.131
  595TIP3   OH2 1790   3.316   1.860   1.116
  595TIP3    H1 1791   3.309   1.773   1.076
  595TIP3    H2 1792   3.405   1.889   1.095
  596TIP3   OH2 1793   0.856   2.436   0.425
  596TIP3    H1 1794   0.774   2.435   0.475
  596TIP3    H2 1795   0.893   2.349   0.439
  597TIP3   OH2 1796   1.362   1.555   0.459
  597TIP3    H1 1797   1.319   1.470   0.452
  597TIP3    H2 1798   1.454   1.535   0.474
  598TIP3   OH2 1799   0.328   5.683   3.084
  598TIP3    H1 1800   0.287   5.734   3.154
  598TIP3    H2 1801   0.400   5.738   3.053
  599TIP3   OH2 1802   3.651   2.789   0.157
  599TIP3    H1 1803   3.597   2.827   0.227
  599TIP3    H2 1804   3.650   2.855   0.088
  600TIP3   OH2 1805   1.253   5.993   4.495
  600TIP3    H1 1806   1.263   6.004   4.590
  600TIP3    H2 1807   1.258   6.082   4.460
  601TIP3   OH2 1808   1.261   4.068   0.757
  601TIP3    H1 1809   1.217   4.004   0.812
  601TIP3    H2 1810   1.345   4.028   0.734
  602TIP3   OH2 1811   0.535   3.901   2.344
  602TIP3    H1 1812   0.623   3.911   2.306
  602TIP3    H2 1813   0.539   3.952   2.425
  603TIP3   OH2 1814   4.175   0.417   2.024
  603TIP3    H1 1815   4.162   0.391   2.115
  603TIP3    H2 1816   4.087   0.436   1.991
  604TIP3   OH2 1817   2.712   1.701   3.237
  604TIP3    H1 1818   2.626   1.736   3.258
  604TIP3    H2 1819   2.721   1.623   3.293
  605TIP3   OH2 1820   5.659   1.651   2.674
  605TIP3    H1 1821   5.634   1.636   2.583
  605TIP3    H2 1822   5.631   1.572   2.720
  606TIP3   OH2 1823   6.178   1.420   4.620
  606TIP3    H1 1824   6.177   1.392   4.711
  606TIP3    H2 1825   6.088   1.446   4.601
  607TIP3   OH2 1826   0.606   3.301   0.253
  607TIP3    H1 1827   0.693   3.302   0.294
  607TIP3    H2 1828   0.561   3.377   0.291
  608TIP3   OH2 1829   2.697   5.332   0.478
  608TIP3    H1 1830   2.762   5.394   0.445
  608TIP3    H2 1831   2.689   5.353   0.571
  609TIP3   OH2 1832   5.855   4.729   4.292
  609TIP3    H1 1833   5.906   4.788   4.348
  609TIP3    H2 1834   5.810   4.671   4.353
  610TIP3   OH2 1835   4.490   5.092   0.905
  610TIP3    H1 1836   4.524   5.108   0.817
  610TIP3    H2 1837   4.463   5.001   0.904
  611TIP3   OH2 1838   1.585   3.203   4.150
  611TIP3    H1 1839   1.598   3.144   4.075
  611TIP3    H2 1840   1.492   3.196   4.170
  612TIP3   OH2 1841   5.076   3.757   1.853
  612TIP3    H1 1842   5.138   3.700   1.898
  612TIP3    H2 1843   5.121   3.841   1.843
  613TIP3   OH2 1844   4.869   5.918   4.324
  613TIP3    H1 1845   4.797   5.884   4.272
  613TIP3    H2 1846   4.913   5.980   4.266
  614TIP3   OH2 1847   4.666   1.290   3.611
  614TIP3    H1 1848   4.671   1.385   3.610
  614TIP3    H2 1849   4.651   1.268   3.703
  615TIP3   OH2 1850   5.036   3.548   4.923
  615TIP3    H1 1851   4.983   3.622   4.953
  615TIP3    H2 1852   4.972   3.478   4.908
  616TIP3   OH2 1853   3.917   0.207   4.141
  616TIP3    H1 1854   4.001   0.234   4.104
  616TIP3    H2 1855   3.929   0.214   4.236
  617TIP3   OH2 1856   6.132   4.146   1.413
  617TIP3    H1 1857   6.082   4.069   1.441
  617TIP3    H2 1858   6.173   4.120   1.331
  618TIP3   OH2 1859   1.340   4.660   2.847
  618TIP3    H1 1860   1.348   4.743   2.799
  618TIP3    H2 1861   1.343   4.686   2.939
  619TIP3   OH2 1862   2.819   4.064   1.165
  619TIP3    H1 1863   2.746   4.072   1.104
  619TIP3    H2 1864   2.857   3.979   1.145
  620TIP3   OH2 1865   1.477   5.099   0.728
  620TIP3    H1 1866   1.394   5.112   0.681
  620TIP3    H2 1867   1.462   5.020   0.780
  621TIP3   OH2 1868   0.156   5.234   0.701
  621TIP3    H1 1869   0.106   5.229   0.619
  621TIP3    H2 1870   0.210   5.155   0.701
  622TIP3   OH2 1871   2.347   1.171   3.169
  622TIP3    H1 1872   2.425   1.135   3.127
  622TIP3    H2 1873   2.340   1.123   3.251
  623TIP3   OH2 1874   3.555   1.995   5.031
  623TIP3    H1 1875   3.528   1.905   5.050
  623TIP3    H2 1876   3.649   1.988   5.014
  624TIP3   OH2 1877   1.702   5.943   1.955
  624TIP3    H1 1878   1.621   5.894   1.938
  624TIP3    H2 1879   1.756   5.882   2.005
  625TIP3   OH2 1880   1.390   5.864   1.216
  625TIP3    H1 1881   1.393   5.900   1.127
  625TIP3    H2 1882   1.474   5.890   1.255
  626TIP3   OH2 1883   3.912   2.802   2.026
  626TIP3    H1 1884   3.834   2.834   2.071
  626TIP3    H2 1885   3.906   2.839   1.938
  627TIP3   OH2 1886   1.713   4.148   2.572
  627TIP3    H1 1887   1.728   4.237   2.604
  627TIP3    H2 1888   1.649   4.159   2.501
  628TIP3   OH2 1889   5.040   4.464   3.246
  628TIP3    H1 1890   5.020   4.514   3.167
  628TIP3    H2 1891   5.068   4.379   3.214
  629TIP3   OH2 1892   2.685   3.658   3.494
  629TIP3    H1 1893   2.599   3.657   3.537
  629TIP3    H2 1894   2.737   3.720   3.546
  630TIP3   OH2 1895   5.702   5.614   1.317
  630TIP3    H1 1896   5.747   5.693   1.288
  630TIP3    H2 1897   5.618   5.645   1.351
  631TIP3   OH2 1898   0.949   0.377   3.858
  631TIP3    H1 1899   0.925   0.469   3.867
  631TIP3    H2 1900   1.044   0.377   3.851
  632TIP3   OH2 1901   3.059   0.853   3.643
  632TIP3    H1 1902   2.973   0.818   3.619
  632TIP3    H2 1903   3.051   0.947   3.629
  633TIP3   OH2 1904   3.057   4.626   4.360
  633TIP3    H1 1905   2.979   4.680   4.347
  633TIP3    H2 1906   3.128   4.689   4.372
  634TIP3   OH2 1907   5.109   3.823   0.545
  634TIP3    H1 1908   5.188   3.771   0.528
  634TIP3    H2 1909   5.112   3.893   0.480
  635TIP3   OH2 1910   5.225   1.396   1.080
  635TIP3    H1 1911   5.278   1.375   1.004
  635TIP3    H2 1912   5.138   1.415   1.045
  636TIP3   OH2 1913   4.724   2.777   2.873
  636TIP3    H1 1914   4.808   2.742   2.904
  636TIP3    H2 1915   4.719   2.749   2.782
  637TIP3   OH2 1916   4.017   0.231   0.798
  637TIP3    H1 1917   4.047   0.156   0.849
  637TIP3    H2 1918   4.017   0.200   0.707
  638TIP3   OH2 1919   1.081   1.108   0.203
  638TIP3    H1 1920   1.019   1.045   0.241
  638TIP3    H2 1921   1.139   1.054   0.148
  639TIP3   OH2 1922   1.693   3.756   0.814
  639TIP3    H1 1923   1.618   3.814   0.800
  639TIP3    H2 1924   1.744   3.763   0.733
  640TIP3   OH2 1925   5.754   3.295   2.630
  640TIP3    H1 1926   5.670   3.249   2.627
  640TIP3    H2 1927   5.776   3.311   2.538
  641TIP3   OH2 1928   0.571   1.625   3.745
  641TIP3    H1 1929   0.544   1.686   3.813
  641TIP3    H2 1930   0.545   1.539   3.779
  642TIP3   OH2 1931   5.385   5.108   0.382
  642TIP3    H1 1932   5.304   5.156   0.401
  642TIP3    H2 1933   5.355   5.023   0.351
  643TIP3   OH2 1934   4.395   4.811   4.151
  643TIP3    H1 1935   4.385   4.718   4.132
  643TIP3    H2 1936   4.354   4.856   4.077
  644TIP3   OH2 1937   3.867   1.146   3.073
  644TIP3    H1 1938   3.774   1.128   3.058
  644TIP3    H2 1939   3.912   1.072   3.031
  645TIP3   OH2 1940   3.966   1.964   1.796
  645TIP3    H1 1941   3.927   2.000   1.876
  645TIP3    H2 1942   4.060   1.979   1.807
  646TIP3   OH2 1943   5.475   3.303   2.238
  646TIP3    H1 1944   5.490   3.357   2.316
  646TIP3    H2 1945   5.535   3.340   2.172
  647TIP3   OH2 1946   3.790   5.001   1.764
  647TIP3    H1 1947   3.794   5.054   1.684
  647TIP3    H2 1948   3.871   4.950   1.762
  648TIP3   OH2 1949   3.998   2.758   2.881
  648TIP3    H1 1950   4.021   2.671   2.914
  648TIP3    H2 1951   4.009   2.816   2.956
  649TIP3   OH2 1952   2.583   4.505   2.231
  649TIP3    H1 1953   2.562   4.589   2.190
  649TIP3    H2 1954   2.668   4.519   2.273
  650TIP3   OH2 1955   5.795   4.140   2.243
  650TIP3    H1 1956   5.722   4.080   2.261
  650TIP3    H2 1957   5.789   4.206   2.312
  651TIP3   OH2 1958   3.110   5.848   4.098
  651TIP3    H1 1959   3.078   5.799   4.022
  651TIP3    H2 1960   3.064   5.932   4.094
  652TIP3   OH2 1961   3.094   5.124   4.707
  652TIP3    H1 1962   3.143   5.087   4.634
  652TIP3    H2 1963   3.135   5.085   4.785
  653TIP3   OH2 1964   3.433   2.575   2.860
  653TIP3    H1 1965   3.441   2.491   2.815
  653TIP3    H2 1966   3.524   2.605   2.870
  654TIP3   OH2 1967   3.422   1.602   4.333
  654TIP3    H1 1968   3.480   1.587   4.408
  654TIP3    H2 1969   3.478   1.590   4.257
  655TIP3   OH2 1970   5.700   5.575   3.651
  655TIP3    H1 1971   5.777   5.597   3.703
  655TIP3    H2 1972   5.631   5.631   3.686
  656TIP3   OH2 1973   3.947   1.458   2.708
  656TIP3    H1 1974   3.915   1.491   2.791
  656TIP3    H2 1975   4.003   1.383   2.732
  657TIP3   OH2 1976   2.903   1.842   2.641
  657TIP3    H1 1977   2.934   1.875   2.557
  657TIP3    H2 1978   2.830   1.785   2.619
  658TIP3   OH2 1979   1.046   1.999   1.458
  658TIP3    H1 1980   1.091   2.010   1.374
  658TIP3    H2 1981   1.010   1.911   1.454
  659TIP3   OH2 1982   4.513   1.512   3.026
  659TIP3    H1 1983   4.417   1.510   3.030
  659TIP3    H2 1984   4.533   1.540   2.937
  660TIP3   OH2 1985   4.219   1.140   1.399
  660TIP3    H1 1986   4.225   1.085   1.477
  660TIP3    H2 1987   4.190   1.080   1.330
  661TIP3   OH2 1988   2.428   1.513   1.799
  661TIP3    H1 1989   2.512   1.532   1.839
  661TIP3    H2 1990   2.367   1.508   1.872
  662TIP3   OH2 1991   2.822   3.822   1.002
  662TIP3    H1 1992   2.756   3.830   0.933
  662TIP3    H2 1993   2.822   3.729   1.025
  663TIP3   OH2 1994   3.386   4.821   2.328
  663TIP3    H1 1995   3.433   4.861   2.401
  663TIP3    H2 1996   3.400   4.881   2.254
  664TIP3   OH2 1997   0.026   5.015   1.375
  664TIP3    H1 1998   0.095   4.990   1.437
  664TIP3    H2 1999   0.072   5.059   1.304
  665TIP3   OH2 2000   3.930   0.787   1.391
  665TIP3    H1 2001   3.964   0.852   1.330
  665TIP3    H2 2002   4.007   0.755   1.438
  666TIP3   OH2 2003   4.519   4.141   2.259
  666TIP3    H1 2004   4.484   4.180   2.339
  666TIP3    H2 2005   4.603   4.103   2.285
  667TIP3   OH2 2006   6.106   3.783   1.826
  667TIP3    H1 2007   6.127   3.739   1.744
  667TIP3    H2 2008   6.015   3.811   1.816
  668TIP3   OH2 2009   2.283   5.722   2.361
  668TIP3    H1 2010   2.328   5.806   2.348
  668TIP3    H2 2011   2.281   5.710   2.456
  669TIP3   OH2 2012   3.068   0.881   4.406
  669TIP3    H1 2013   3.108   0.800   4.440
  669TIP3    H2 2014   2.974   0.864   4.409
  670TIP3   OH2 2015   6.249   0.780   4.454
  670TIP3    H1 2016   6.245   0.685   4.447
  670TIP3    H2 2017   6.316   0.796   4.520
  671TIP3   OH2 2018   1.024   0.286   0.557
  671TIP3    H1 2019   0.987   0.199   0.538
  671TIP3    H2 2020   0.967   0.347   0.510
  672TIP3   OH2 2021   1.698   3.537   3.832
  672TIP3    H1 2022   1.642   3.526   3.755
  672TIP3    H2 2023   1.707   3.631   3.842
  673TIP3   OH2 2024   1.300   1.138   0.775
  673TIP3    H1 2025   1.323   1.107   0.687
  673TIP3    H2 2026   1.343   1.223   0.783
  674TIP3   OH2 2027   1.208   0.283   0.181
  674TIP3    H1 2028   1.132   0.246   0.134
  674TIP3    H2 2029   1.218   0.226   0.257
  675TIP3   OH2 2030   4.823   5.956   1.384
  675TIP3    H1 2031   4.788   5.869   1.365
  675TIP3    H2 2032   4.807   6.007   1.305
  676TIP3   OH2 2033   3.688   2.544   1.970
  676TIP3    H1 2034   3.677   2.639   1.975
  676TIP3    H2 2035   3.601   2.510   1.951
  677TIP3   OH2 2036   3.995   5.268   3.284
  677TIP3    H1 2037   4.009   5.191   3.340
  677TIP3    H2 2038   4.020   5.342   3.339
  678TIP3   OH2 2039   3.002   3.226   0.204
  678TIP3    H1 2040   2.947   3.269   0.270
  678TIP3    H2 2041   3.010   3.136   0.234
  679TIP3   OH2 2042   2.132   0.346   1.069
  679TIP3    H1 2043   2.068   0.283   1.035
  679TIP3    H2 2044   2.217   0.306   1.051
  680TIP3   OH2 2045   6.263   4.178   1.154
  680TIP3    H1 2046   6.241   4.268   1.129
  680TIP3    H2 2047   6.350   4.184   1.192
  681TIP3   OH2 2048   2.350   4.412   2.368
  681TIP3    H1 2049   2.430   4.425   2.318
  681TIP3    H2 2050   2.325   4.499   2.398
  682TIP3   OH2 2051   1.754   2.021   4.085
  682TIP3    H1 2052   1.748   2.107   4.044
  682TIP3    H2 2053   1.763   2.040   4.178
  683TIP3   OH2 2054   1.381   2.896   3.414
  683TIP3    H1 2055   1.444   2.966   3.430
  683TIP3    H2 2056   1.433   2.816   3.417
  684TIP3   OH2 2057   2.143   1.332   1.230
  684TIP3    H1 2058   2.159   1.267   1.298
  684TIP3    H2 2059   2.101   1.405   1.276
  685TIP3   OH2 2060   3.469   4.097   0.925
  685TIP3    H1 2061   3.455   4.170   0.985
  685TIP3    H2 2062   3.462   4.136   0.837
  686TIP3   OH2 2063   5.631   5.378   0.770
  686TIP3    H1 2064   5.658   5.319   0.700
  686TIP3    H2 2065   5.713   5.413   0.805
  687TIP3   OH2 2066   1.269   3.356   1.034
  687TIP3    H1 2067   1.282   3.406   1.114
  687TIP3    H2 2068   1.306   3.270   1.054
  688TIP3   OH2 2069   1.027   2.633   4.274
  688TIP3    H1 2070   1.108   2.665   4.314
  688TIP3    H2 2071   0.960   2.650   4.341
  689TIP3   OH2 2072   1.981   4.079   3.043
  689TIP3    H1 2073   1.979   4.164   3.088
  689TIP3    H2 2074   2.073   4.069   3.017
  690TIP3   OH2 2075   2.877   5.426   4.992
  690TIP3    H1 2076   2.784   5.442   5.005
  690TIP3    H2 2077   2.899   5.357   5.055
  691TIP3   OH2 2078   4.568   5.194   0.662
  691TIP3    H1 2079   4.483   5.188   0.620
  691TIP3    H2 2080   4.608   5.273   0.625
  692TIP3   OH2 2081   4.319   1.988   2.564
  692TIP3    H1 2082   4.303   1.993   2.470
  692TIP3    H2 2083   4.413   2.005   2.573
  693TIP3   OH2 2084   1.183   5.419   3.220
  693TIP3    H1 2085   1.208   5.378   3.137
  693TIP3    H2 2086   1.168   5.511   3.197
  694TIP3   OH2 2087   5.357   3.363   0.881
  694TIP3    H1 2088   5.294   3.408   0.824
  694TIP3    H2 2089   5.372   3.424   0.953
  695TIP3   OH2 2090   1.079   1.087   1.356
  695TIP3    H1 2091   0.989   1.086   1.390
  695TIP3    H2 2092   1.101   0.995   1.345
  696TIP3   OH2 2093   2.717   5.420   0.128
  696TIP3    H1 2094   2.782   5.474   0.172
  696TIP3    H2 2095   2.722   5.446   0.036
  697TIP3   OH2 2096   2.680   4.018   4.820
  697TIP3    H1 2097   2.772   4.003   4.844
  697TIP3    H2 2098   2.647   3.930   4.800
  698TIP3   OH2 2099   2.960   1.384   2.240
  698TIP3    H1 2100   3.048   1.397   2.274
  698TIP3    H2 2101   2.967   1.399   2.146
  699TIP3   OH2 2102   5.647   3.955   3.415
  699TIP3    H1 2103   5.603   3.872   3.437
  699TIP3    H2 2104   5.606   4.020   3.471
  700TIP3   OH2 2105   5.682   0.877   1.253
  700TIP3    H1 2106   5.776   0.892   1.250
  700TIP3    H2 2107   5.650   0.933   1.324
  701TIP3   OH2 2108   0.635   4.837   0.215
  701TIP3    H1 2109   0.620   4.833   0.120
  701TIP3    H2 2110   0.559   4.793   0.253
  702TIP3   OH2 2111   2.403   2.219   3.298
  702TIP3    H1 2112   2.431   2.288   3.238
  702TIP3    H2 2113   2.484   2.175   3.324
  703TIP3   OH2 2114   2.303   2.874   0.546
  703TIP3    H1 2115   2.276   2.955   0.502
  703TIP3    H2 2116   2.224   2.821   0.550
  704TIP3   OH2 2117   5.120   0.640   1.808
  704TIP3    H1 2118   5.075   0.587   1.742
  704TIP3    H2 2119   5.083   0.610   1.892
  705TIP3   OH2 2120   5.352   4.482   4.659
  705TIP3    H1 2121   5.407   4.426   4.605
  705TIP3    H2 2122   5.310   4.542   4.598
  706TIP3   OH2 2123   6.130   2.421   3.376
  706TIP3    H1 2124   6.111   2.361   3.304
  706TIP3    H2 2125   6.078   2.499   3.356
  707TIP3   OH2 2126   3.989   1.850   4.982
  707TIP3    H1 2127   3.940   1.915   4.933
  707TIP3    H2 2128   3.923   1.801   5.031
  708TIP3   OH2 2129   3.893   0.797   3.774
  708TIP3    H1 2130   3.840   0.728   3.813
  708TIP3    H2 2131   3.958   0.751   3.721
  709TIP3   OH2 2132   4.813   2.039   4.293
  709TIP3    H1 2133   4.749   1.969   4.279
  709TIP3    H2 2134   4.760   2.115   4.317
  710TIP3   OH2 2135   4.178   4.375   1.072
  710TIP3    H1 2136   4.092   4.343   1.044
  710TIP3    H2 2137   4.188   4.460   1.030
  711TIP3   OH2 2138   0.808   5.606   4.093
  711TIP3    H1 2139   0.849   5.689   4.069
  711TIP3    H2 2140   0.728   5.603   4.041
  712TIP3   OH2 2141   2.273   4.647   1.682
  712TIP3    H1 2142   2.364   4.628   1.662
  712TIP3    H2 2143   2.224   4.575   1.643
  713TIP3   OH2 2144   1.789   2.257   0.418
  713TIP3    H1 2145   1.712   2.208   0.389
  713TIP3    H2 2146   1.754   2.322   0.479
  714TIP3   OH2 2147   2.564   3.080   3.875
  714TIP3    H1 2148   2.632   3.139   3.845
  714TIP3    H2 2149   2.485   3.134   3.878
  715TIP3   OH2 2150   1.404   0.140   0.973
  715TIP3    H1 2151   1.480   0.173   1.020
  715TIP3    H2 2152   1.344   0.215   0.968
  716TIP3   OH2 2153   1.852   5.156   4.698
  716TIP3    H1 2154   1.892   5.243   4.705
  716TIP3    H2 2155   1.925   5.096   4.716
  717TIP3   OH2 2156   1.545   2.112   4.763
  717TIP3    H1 2157   1.591   2.178   4.814
  717TIP3    H2 2158   1.466   2.092   4.813
  718TIP3   OH2 2159   4.746   2.872   0.215
  718TIP3    H1 2160   4.696   2.953   0.228
  718TIP3    H2 2161   4.837   2.898   0.229
  719TIP3   OH2 2162   0.462   4.989   1.449
  719TIP3    H1 2163   0.438   5.072   1.490
  719TIP3    H2 2164   0.471   5.010   1.356
  720TIP3   OH2 2165   4.403   3.362   1.154
  720TIP3    H1 2166   4.496   3.353   1.133
  720TIP3    H2 2167   4.394   3.453   1.182
  721TIP3   OH2 2168   5.731   3.460   1.594
  721TIP3    H1 2169   5.668   3.442   1.524
  721TIP3    H2 2170   5.816   3.461   1.550
  722TIP3   OH2 2171   0.352   2.012   3.238
  722TIP3    H1 2172   0.320   2.098   3.213
  722TIP3    H2 2173   0.416   2.030   3.307
  723TIP3   OH2 2174   4.790   2.605   0.234
  723TIP3    H1 2175   4.785   2.698   0.258
  723TIP3    H2 2176   4.733   2.561   0.298
  724TIP3   OH2 2177   3.867   4.857   3.204
  724TIP3    H1 2178   3.773   4.842   3.216
  724TIP3    H2 2179   3.894   4.904   3.283
  725TIP3   OH2 2180   2.194   5.173   1.331
  725TIP3    H1 2181   2.113   5.124   1.321
  725TIP3    H2 2182   2.205   5.219   1.248
  726TIP3   OH2 2183   3.142   5.533   1.651
  726TIP3    H1 2184   3.079   5.560   1.584
  726TIP3    H2 2185   3.088   5.493   1.719
  727TIP3   OH2 2186   1.888   0.147   1.181
  727TIP3    H1 2187   1.921   0.153   1.092
  727TIP3    H2 2188   1.964   0.168   1.236
  728TIP3   OH2 2189   6.088   1.698   2.330
  728TIP3    H1 2190   6.066   1.665   2.417
  728TIP3    H2 2191   6.156   1.639   2.298
  729TIP3   OH2 2192   1.445   1.176   3.582
  729TIP3    H1 2193   1.485   1.165   3.495
  729TIP3    H2 2194   1.469   1.264   3.609
  730TIP3   OH2 2195   0.114   5.053   3.033
  730TIP3    H1 2196   0.190   5.101   3.065
  730TIP3    H2 2197   0.121   4.966   3.074
  731TIP3   OH2 2198   2.737   4.943   2.149
  731TIP3    H1 2199   2.763   5.020   2.200
  731TIP3    H2 2200   2.819   4.912   2.110
  732TIP3   OH2 2201   0.730   0.679   3.205
  732TIP3    H1 2202   0.777   0.755   3.238
  732TIP3    H2 2203   0.645   0.682   3.248
  733TIP3   OH2 2204   6.222   4.701   1.004
  733TIP3    H1 2205   6.304   4.679   0.959
  733TIP3    H2 2206   6.238   4.788   1.042
  734TIP3   OH2 2207   1.765   5.753   3.330
  734TIP3    H1 2208   1.790   5.724   3.243
  734TIP3    H2 2209   1.670   5.738   3.334
  735TIP3   OH2 2210   4.480   1.757   2.264
  735TIP3    H1 2211   4.480   1.662   2.246
  735TIP3    H2 2212   4.569   1.785   2.244
  736TIP3   OH2 2213   4.036   4.757   3.803
  736TIP3    H1 2214   4.082   4.705   3.868
  736TIP3    H2 2215   3.951   4.776   3.843
  737TIP3   OH2 2216   4.177   3.845   4.090
  737TIP3    H1 2217   4.209   3.892   4.166
  737TIP3    H2 2218   4.152   3.914   4.028
  738TIP3   OH2 2219   2.129   1.210   5.058
  738TIP3    H1 2220   2.190   1.145   5.092
  738TIP3    H2 2221   2.184   1.277   5.019
  739TIP3   OH2 2222   1.303   2.267   4.619
  739TIP3    H1 2223   1.304   2.342   4.560
  739TIP3    H2 2224   1.384   2.221   4.600
  740TIP3   OH2 2225   0.624   2.979   0.952
  740TIP3    H1 2226   0.658   2.937   0.873
  740TIP3    H2 2227   0.564   3.046   0.918
  741TIP3   OH2 2228   4.000   1.331   3.326
  741TIP3    H1 2229   3.942   1.284   3.266
  741TIP3    H2 2230   4.052   1.262   3.368
  742TIP3   OH2 2231   4.917   0.288   4.909
  742TIP3    H1 2232   5.006   0.271   4.878
  742TIP3    H2 2233   4.888   0.204   4.946
  743TIP3   OH2 2234   6.062   5.428   3.065
  743TIP3    H1 2235   5.993   5.402   3.004
  743TIP3    H2 2236   6.099   5.346   3.096
  744TIP3   OH2 2237   5.615   1.131   1.409
  744TIP3    H1 2238   5.557   1.179   1.350
  744TIP3    H2 2239   5.701   1.169   1.395
  745TIP3   OH2 2240   0.085   2.657   2.444
  745TIP3    H1 2241   0.142   2.629   2.516
  745TIP3    H2 2242   0.063   2.577   2.397
  746TIP3   OH2 2243   4.341   2.368   4.421
  746TIP3    H1 2244   4.388   2.450   4.436
  746TIP3    H2 2245   4.253   2.395   4.395
  747TIP3   OH2 2246   1.453   5.850   2.036
  747TIP3    H1 2247   1.479   5.803   2.115
  747TIP3    H2 2248   1.413   5.931   2.069
  748TIP3   OH2 2249   1.367   1.090   4.316
  748TIP3    H1 2250   1.276   1.067   4.335
  748TIP3    H2 2251   1.408   1.006   4.294
  749TIP3   OH2 2252   3.240   4.962   0.891
  749TIP3    H1 2253   3.202   4.879   0.864
  749TIP3    H2 2254   3.195   5.027   0.837
  750TIP3   OH2 2255   4.162   3.602   2.992
  750TIP3    H1 2256   4.068   3.616   3.004
  750TIP3    H2 2257   4.178   3.515   3.030
  751TIP3   OH2 2258   5.877   3.422   3.887
  751TIP3    H1 2259   5.933   3.359   3.932
  751TIP3    H2 2260   5.893   3.406   3.794
  752TIP3   OH2 2261   5.534   5.048   0.847
  752TIP3    H1 2262   5.478   5.061   0.923
  752TIP3    H2 2263   5.604   4.990   0.877
  753TIP3   OH2 2264   1.601   0.014   1.417
  753TIP3    H1 2265   1.527  -0.017   1.470
  753TIP3    H2 2266   1.617   0.103   1.448
  754TIP3   OH2 2267   1.303   4.730   1.661
  754TIP3    H1 2268   1.276   4.781   1.738
  754TIP3    H2 2269   1.396   4.750   1.650
  755TIP3   OH2 2270   4.189   2.399   2.110
  755TIP3    H1 2271   4.133   2.439   2.044
  755TIP3    H2 2272   4.137   2.328   2.147
  756TIP3   OH2 2273   2.183   1.374   0.958
  756TIP3    H1 2274   2.190   1.345   1.049
  756TIP3    H2 2275   2.117   1.316   0.919
  757TIP3   OH2 2276   3.658   4.736   4.412
  757TIP3    H1 2277   3.736   4.719   4.465
  757TIP3    H2 2278   3.594   4.772   4.474
  758TIP3   OH2 2279   0.071   0.635   2.004
  758TIP3    H1 2280   0.020   0.595   2.074
  758TIP3    H2 2281   0.160   0.640   2.040
  759TIP3   OH2 2282   0.053   1.364   3.148
  759TIP3    H1 2283   0.120   1.413   3.100
  759TIP3    H2 2284  -0.005   1.432   3.184
  760TIP3   OH2 2285   0.856   5.014   3.711
  760TIP3    H1 2286   0.910   4.936   3.700
  760TIP3    H2 2287   0.913   5.087   3.687
  761TIP3   OH2 2288   0.694   2.057   1.873
  761TIP3    H1 2289   0.722   2.144   1.844
  761TIP3    H2 2290   0.690   2.005   1.793
  762TIP3   OH2 2291   3.659   5.667   3.128
  762TIP3    H1 2292   3.666   5.606   3.055
  762TIP3    H2 2293   3.569   5.701   3.122
  763TIP3   OH2 2294   3.118   2.906   4.446
  763TIP3    H1 2295   3.152   2.946   4.526
  763TIP3    H2 2296   3.081   2.979   4.397
  764TIP3   OH2 2297   1.561   1.744   5.100
  764TIP3    H1 2298   1.466   1.751   5.105
  764TIP3    H2 2299   1.583   1.771   5.010
  765TIP3   OH2 2300   4.621   0.691   0.657
  765TIP3    H1 2301   4.644   0.760   0.720
  765TIP3    H2 2302   4.583   0.622   0.711
  766TIP3   OH2 2303   5.987   1.499   1.178
  766TIP3    H1 2304   6.053   1.474   1.113
  766TIP3    H2 2305   6.030   1.567   1.230
  767TIP3   OH2 2306   6.169   3.598   2.537
  767TIP3    H1 2307   6.115   3.540   2.484
  767TIP3    H2 2308   6.140   3.583   2.627
  768TIP3   OH2 2309   5.047   4.392   1.207
  768TIP3    H1 2310   5.030   4.300   1.230
  768TIP3    H2 2311   5.101   4.387   1.128
  769TIP3   OH2 2312   1.070   3.192   4.824
  769TIP3    H1 2313   1.120   3.272   4.808
  769TIP3    H2 2314   1.103   3.129   4.761
  770TIP3   OH2 2315   0.721   1.297   3.387
  770TIP3    H1 2316   0.803   1.269   3.430
  770TIP3    H2 2317   0.750   1.353   3.315
  771TIP3   OH2 2318   1.548   4.327   4.312
  771TIP3    H1 2319   1.579   4.375   4.389
  771TIP3    H2 2320   1.462   4.293   4.338
  772TIP3   OH2 2321   3.323   3.818   4.696
  772TIP3    H1 2322   3.371   3.771   4.628
  772TIP3    H2 2323   3.369   3.902   4.704
  773TIP3   OH2 2324   6.349   0.077   2.905
  773TIP3    H1 2325   6.378  -0.001   2.858
  773TIP3    H2 2326   6.257   0.087   2.880
  774TIP3   OH2 2327   1.988   2.144   1.027
  774TIP3    H1 2328   2.055   2.209   1.004
  774TIP3    H2 2329   2.037   2.064   1.046
  775TIP3   OH2 2330   5.385   3.436   3.478
  775TIP3    H1 2331   5.441   3.359   3.481
  775TIP3    H2 2332   5.296   3.400   3.470
  776TIP3   OH2 2333   2.242   5.958   0.100
  776TIP3    H1 2334   2.159   5.988   0.064
  776TIP3    H2 2335   2.220   5.876   0.144
  777TIP3   OH2 2336   1.790   0.780   3.743
  777TIP3    H1 2337   1.735   0.858   3.746
  777TIP3    H2 2338   1.878   0.811   3.764
  778TIP3   OH2 2339   0.200   4.168   5.107
  778TIP3    H1 2340   0.167   4.258   5.108
  778TIP3    H2 2341   0.163   4.128   5.186
  779TIP3   OH2 2342   5.529   5.210   4.128
  779TIP3    H1 2343   5.610   5.260   4.121
  779TIP3    H2 2344   5.553   5.131   4.176
  780TIP3   OH2 2345   3.809   4.244   2.582
  780TIP3    H1 2346   3.740   4.206   2.635
  780TIP3    H2 2347   3.806   4.338   2.601
  781TIP3   OH2 2348   1.214   4.305   3.226
  781TIP3    H1 2349   1.194   4.268   3.140
  781TIP3    H2 2350   1.232   4.229   3.281
  782TIP3   OH2 2351   1.310   4.958   2.770
  782TIP3    H1 2352   1.276   4.960   2.859
  782TIP3    H2 2353   1.248   5.011   2.719
  783TIP3   OH2 2354   2.345   2.633   2.796
  783TIP3    H1 2355   2.288   2.556   2.792
  783TIP3    H2 2356   2.431   2.597   2.818
  784TIP3   OH2 2357   2.498   3.317   2.204
  784TIP3    H1 2358   2.569   3.333   2.141
  784TIP3    H2 2359   2.422   3.360   2.166
  785TIP3   OH2 2360   2.311   3.721   5.017
  785TIP3    H1 2361   2.357   3.799   4.984
  785TIP3    H2 2362   2.380   3.668   5.057
  786TIP3   OH2 2363   3.449   3.277   4.614
  786TIP3    H1 2364   3.517   3.321   4.563
  786TIP3    H2 2365   3.474   3.185   4.612
  787TIP3   OH2 2366   5.147   5.626   4.726
  787TIP3    H1 2367   5.182   5.715   4.715
  787TIP3    H2 2368   5.147   5.589   4.638
  788TIP3   OH2 2369   1.335   2.948   3.717
  788TIP3    H1 2370   1.263   3.004   3.746
  788TIP3    H2 2371   1.306   2.913   3.632
  789TIP3   OH2 2372   1.112   3.784   3.994
  789TIP3    H1 2373   1.035   3.790   3.937
  789TIP3    H2 2374   1.133   3.875   4.015
  790TIP3   OH2 2375   2.697   4.770   4.166
  790TIP3    H1 2376   2.617   4.735   4.207
  790TIP3    H2 2377   2.674   4.778   4.073
  791TIP3   OH2 2378   1.072   1.088   5.195
  791TIP3    H1 2379   1.160   1.054   5.175
  791TIP3    H2 2380   1.023   1.076   5.114
  792TIP3   OH2 2381   5.474   2.396   1.920
  792TIP3    H1 2382   5.559   2.356   1.902
  792TIP3    H2 2383   5.422   2.377   1.843
  793TIP3   OH2 2384   0.592   0.603   0.842
  793TIP3    H1 2385   0.524   0.555   0.890
  793TIP3    H2 2386   0.665   0.541   0.835
  794TIP3   OH2 2387   0.961   4.562   4.480
  794TIP3    H1 2388   0.939   4.500   4.411
  794TIP3    H2 2389   0.977   4.508   4.557
  795TIP3   OH2 2390   2.667   1.503   2.961
  795TIP3    H1 2391   2.596   1.467   3.014
  795TIP3    H2 2392   2.678   1.441   2.889
  796TIP3   OH2 2393   5.571   3.429   1.380
  796TIP3    H1 2394   5.548   3.507   1.329
  796TIP3    H2 2395   5.489   3.380   1.386
  797TIP3   OH2 2396   6.270   4.425   3.000
  797TIP3    H1 2397   6.209   4.454   3.067
  797TIP3    H2 2398   6.258   4.331   2.995
  798TIP3   OH2 2399   2.974   2.857   3.257
  798TIP3    H1 2400   2.943   2.905   3.179
  798TIP3    H2 2401   2.910   2.878   3.325
  799TIP3   OH2 2402   3.075   4.501   1.256
  799TIP3    H1 2403   3.164   4.520   1.284
  799TIP3    H2 2404   3.020   4.558   1.309
  800TIP3   OH2 2405   5.180   0.468   4.670
  800TIP3    H1 2406   5.115   0.535   4.692
  800TIP3    H2 2407   5.263   0.503   4.702
  801TIP3   OH2 2408   5.373   2.456   1.373
  801TIP3    H1 2409   5.465   2.476   1.356
  801TIP3    H2 2410   5.362   2.365   1.345
  802TIP3   OH2 2411   3.609   5.619   4.765
  802TIP3    H1 2412   3.574   5.600   4.852
  802TIP3    H2 2413   3.695   5.657   4.781
  803TIP3   OH2 2414   2.169   2.237   4.797
  803TIP3    H1 2415   2.194   2.165   4.739
  803TIP3    H2 2416   2.237   2.303   4.785
  804TIP3   OH2 2417   0.996   3.600   2.356
  804TIP3    H1 2418   1.006   3.556   2.441
  804TIP3    H2 2419   1.059   3.672   2.360
  805TIP3   OH2 2420   2.949   0.617   2.351
  805TIP3    H1 2421   2.918   0.707   2.336
  805TIP3    H2 2422   3.043   0.626   2.363
  806TIP3   OH2 2423   6.199   1.508   0.525
  806TIP3    H1 2424   6.291   1.489   0.541
  806TIP3    H2 2425   6.178   1.580   0.585
  807TIP3   OH2 2426   3.991   1.007   4.290
  807TIP3    H1 2427   3.949   1.066   4.227
  807TIP3    H2 2428   3.961   0.920   4.265
  808TIP3   OH2 2429   3.071   2.484   4.813
  808TIP3    H1 2430   3.105   2.566   4.779
  808TIP3    H2 2431   2.985   2.474   4.771
  809TIP3   OH2 2432   3.879   1.646   3.084
  809TIP3    H1 2433   3.904   1.561   3.048
  809TIP3    H2 2434   3.797   1.629   3.132
  810TIP3   OH2 2435   3.193   1.502   0.850
  810TIP3    H1 2436   3.178   1.442   0.777
  810TIP3    H2 2437   3.190   1.589   0.811
  811TIP3   OH2 2438   4.310   2.566   0.154
  811TIP3    H1 2439   4.369   2.500   0.118
  811TIP3    H2 2440   4.250   2.518   0.210
  812TIP3   OH2 2441   2.626   2.589   4.436
  812TIP3    H1 2442   2.533   2.607   4.422
  812TIP3    H2 2443   2.633   2.493   4.429
  813TIP3   OH2 2444   0.492   5.215   4.236
  813TIP3    H1 2445   0.585   5.232   4.250
  813TIP3    H2 2446   0.447   5.278   4.292
  814TIP3   OH2 2447   3.685   3.510   1.514
  814TIP3    H1 2448   3.662   3.596   1.550
  814TIP3    H2 2449   3.776   3.497   1.540
  815TIP3   OH2 2450   3.455   4.068   4.991
  815TIP3    H1 2451   3.494   4.004   4.932
  815TIP3    H2 2452   3.386   4.109   4.939
  816TIP3   OH2 2453   5.338   1.784   4.080
  816TIP3    H1 2454   5.408   1.752   4.137
  816TIP3    H2 2455   5.263   1.729   4.101
  817TIP3   OH2 2456   1.777   5.906   2.838
  817TIP3    H1 2457   1.862   5.903   2.795
  817TIP3    H2 2458   1.739   5.819   2.821
  818TIP3   OH2 2459   6.141   3.869   0.578
  818TIP3    H1 2460   6.233   3.897   0.578
  818TIP3    H2 2461   6.143   3.781   0.541
  819TIP3   OH2 2462   3.779   5.266   5.008
  819TIP3    H1 2463   3.833   5.309   5.075
  819TIP3    H2 2464   3.689   5.272   5.043
  820TIP3   OH2 2465   0.066   3.839   2.622
  820TIP3    H1 2466   0.033   3.763   2.575
  820TIP3    H2 2467   0.161   3.838   2.605
  821TIP3   OH2 2468   5.425   3.361   0.280
  821TIP3    H1 2469   5.505   3.310   0.285
  821TIP3    H2 2470   5.445   3.433   0.220
  822TIP3   OH2 2471   1.636   1.615   1.314
  822TIP3    H1 2472   1.612   1.535   1.267
  822TIP3    H2 2473   1.657   1.678   1.245
  823TIP3   OH2 2474   1.085   5.942   2.474
  823TIP3    H1 2475   1.064   6.002   2.402
  823TIP3    H2 2476   1.042   5.979   2.551
  824TIP3   OH2 2477   1.659   4.086   1.499
  824TIP3    H1 2478   1.614   4.050   1.575
  824TIP3    H2 2479   1.589   4.105   1.436
  825TIP3   OH2 2480   0.626   4.965   0.769
  825TIP3    H1 2481   0.673   5.049   0.770
  825TIP3    H2 2482   0.694   4.900   0.757
  826TIP3   OH2 2483   2.976   1.184   3.741
  826TIP3    H1 2484   2.944   1.273   3.751
  826TIP3    H2 2485   3.000   1.157   3.830
  827TIP3   OH2 2486   5.491   4.631   4.865
  827TIP3    H1 2487   5.396   4.624   4.857
  827TIP3    H2 2488   5.523   4.638   4.775
  828TIP3   OH2 2489   3.563   2.200   4.096
  828TIP3    H1 2490   3.586   2.186   4.188
  828TIP3    H2 2491   3.598   2.287   4.076
  829TIP3   OH2 2492   0.247   2.355   5.110
  829TIP3    H1 2493   0.203   2.424   5.159
  829TIP3    H2 2494   0.176   2.300   5.077
  830TIP3   OH2 2495   1.023   2.444   2.388
  830TIP3    H1 2496   1.024   2.401   2.302
  830TIP3    H2 2497   1.116   2.463   2.406
  831TIP3   OH2 2498   6.013   5.245   2.602
  831TIP3    H1 2499   5.937   5.200   2.638
  831TIP3    H2 2500   6.088   5.196   2.634
  832TIP3   OH2 2501   0.404   5.500   4.694
  832TIP3    H1 2502   0.480   5.451   4.661
  832TIP3    H2 2503   0.418   5.503   4.789
  833TIP3   OH2 2504   2.139   2.014   0.532
  833TIP3    H1 2505   2.110   2.086   0.477
  833TIP3    H2 2506   2.166   2.055   0.614
  834TIP3   OH2 2507   2.343   2.359   1.791
  834TIP3    H1 2508   2.325   2.314   1.709
  834TIP3    H2 2509   2.408   2.303   1.835
  835TIP3   OH2 2510   6.033  -0.003   3.190
  835TIP3    H1 2511   6.119   0.028   3.218
  835TIP3    H2 2512   6.039  -0.098   3.194
  836TIP3   OH2 2513   2.387   5.015   0.599
  836TIP3    H1 2514   2.449   5.035   0.529
  836TIP3    H2 2515   2.435   5.034   0.680
  837TIP3   OH2 2516   5.478   1.242   2.038
  837TIP3    H1 2517   5.497   1.296   1.961
  837TIP3    H2 2518   5.514   1.292   2.111
  838TIP3   OH2 2519   5.944   5.503   2.560
  838TIP3    H1 2520   5.967   5.410   2.557
  838TIP3    H2 2521   5.868   5.508   2.617
  839TIP3   OH2 2522   5.327   0.247   2.835
  839TIP3    H1 2523   5.251   0.298   2.863
  839TIP3    H2 2524   5.360   0.292   2.758
  840TIP3   OH2 2525   2.919   1.247   2.933
  840TIP3    H1 2526   2.925   1.276   2.842
  840TIP3    H2 2527   2.990   1.185   2.944
  841TIP3   OH2 2528   0.702   1.149   0.321
  841TIP3    H1 2529   0.755   1.114   0.392
  841TIP3    H2 2530   0.751   1.126   0.241
  842TIP3   OH2 2531   1.781   4.188   0.456
  842TIP3    H1 2532   1.824   4.229   0.531
  842TIP3    H2 2533   1.834   4.214   0.381
  843TIP3   OH2 2534   4.698   2.134   5.064
  843TIP3    H1 2535   4.785   2.171   5.081
  843TIP3    H2 2536   4.714   2.063   5.002
  844TIP3   OH2 2537   2.003   1.818   1.121
  844TIP3    H1 2538   1.912   1.789   1.114
  844TIP3    H2 2539   2.043   1.795   1.037
  845TIP3   OH2 2540   3.571   0.121   3.816
  845TIP3    H1 2541   3.519   0.042   3.830
  845TIP3    H2 2542   3.653   0.090   3.778
  846TIP3   OH2 2543   0.202   5.582   1.373
  846TIP3    H1 2544   0.290   5.581   1.409
  846TIP3    H2 2545   0.173   5.673   1.384
  847TIP3   OH2 2546   1.377   0.461   4.972
  847TIP3    H1 2547   1.366   0.544   4.925
  847TIP3    H2 2548   1.462   0.428   4.943
  848TIP3   OH2 2549   1.753   4.431   0.988
  848TIP3    H1 2550   1.717   4.348   1.019
  848TIP3    H2 2551   1.839   4.409   0.953
  849TIP3   OH2 2552   0.932   5.668   0.682
  849TIP3    H1 2553   0.956   5.622   0.762
  849TIP3    H2 2554   0.847   5.706   0.701
  850TIP3   OH2 2555   3.335   1.447   4.660
  850TIP3    H1 2556   3.373   1.361   4.647
  850TIP3    H2 2557   3.282   1.462   4.581
  851TIP3   OH2 2558   0.703   2.623   1.746
  851TIP3    H1 2559   0.674   2.578   1.826
  851TIP3    H2 2560   0.646   2.587   1.677
  852TIP3   OH2 2561   5.421   0.495   1.035
  852TIP3    H1 2562   5.482   0.428   1.005
  852TIP3    H2 2563   5.456   0.577   1.002
  853TIP3   OH2 2564   2.207   1.447   1.545
  853TIP3    H1 2565   2.203   1.376   1.608
  853TIP3    H2 2566   2.136   1.507   1.571
  854TIP3   OH2 2567   3.764   4.755   3.647
  854TIP3    H1 2568   3.777   4.677   3.702
  854TIP3    H2 2569   3.748   4.826   3.710
  855TIP3   OH2 2570   2.881   5.651   0.266
  855TIP3    H1 2571   2.954   5.696   0.309
  855TIP3    H2 2572   2.827   5.722   0.231
  856TIP3   OH2 2573   2.591   1.932   4.755
  856TIP3    H1 2574   2.670   1.903   4.800
  856TIP3    H2 2575   2.620   1.950   4.665
  857TIP3   OH2 2576   5.393   3.470   3.777
  857TIP3    H1 2577   5.473   3.438   3.819
  857TIP3    H2 2578   5.404   3.447   3.685
  858TIP3   OH2 2579   5.621   1.361   2.236
  858TIP3    H1 2580   5.714   1.376   2.216
  858TIP3    H2 2581   5.619   1.274   2.275
  859TIP3   OH2 2582   0.903   1.387   1.454
  859TIP3    H1 2583   0.944   1.390   1.540
  859TIP3    H2 2584   0.860   1.302   1.450
  860TIP3   OH2 2585   0.953   4.217   4.894
  860TIP3    H1 2586   0.879   4.256   4.940
  860TIP3    H2 2587   0.956   4.126   4.924
  861TIP3   OH2 2588   1.395   4.841   2.530
  861TIP3    H1 2589   1.358   4.902   2.594
  861TIP3    H2 2590   1.482   4.876   2.512
  862TIP3   OH2 2591   0.357   4.452   0.935
  862TIP3    H1 2592   0.382   4.541   0.910
  862TIP3    H2 2593   0.262   4.455   0.943
  863TIP3   OH2 2594   2.921   2.108   2.962
  863TIP3    H1 2595   2.850   2.171   2.980
  863TIP3    H2 2596   2.984   2.159   2.911
  864TIP3   OH2 2597   4.469   2.597   4.568
  864TIP3    H1 2598   4.555   2.577   4.533
  864TIP3    H2 2599   4.462   2.544   4.648
  865TIP3   OH2 2600   1.174   0.733   4.739
  865TIP3    H1 2601   1.251   0.683   4.764
  865TIP3    H2 2602   1.117   0.730   4.816
  866TIP3   OH2 2603   2.301   3.187   2.720
  866TIP3    H1 2604   2.377   3.136   2.691
  866TIP3    H2 2605   2.338   3.258   2.772
  867TIP3   OH2 2606   2.954   1.474   3.642
  867TIP3    H1 2607   2.890   1.527   3.689
  867TIP3    H2 2608   3.036   1.486   3.691
  868TIP3   OH2 2609   0.283   2.334   0.456
  868TIP3    H1 2610   0.334   2.258   0.485
  868TIP3    H2 2611   0.252   2.310   0.369
  869TIP3   OH2 2612   1.961   2.479   5.088
  869TIP3    H1 2613   1.883   2.534   5.088
  869TIP3    H2 2614   1.974   2.455   4.996
  870TIP3   OH2 2615   3.239   3.180   0.428
  870TIP3    H1 2616   3.201   3.095   0.406
  870TIP3    H2 2617   3.171   3.226   0.477
  871TIP3   OH2 2618   5.893   0.053   4.751
  871TIP3    H1 2619   5.865   0.143   4.767
  871TIP3    H2 2620   5.834   0.022   4.682
  872TIP3   OH2 2621   1.437   4.870   0.884
  872TIP3    H1 2622   1.370   4.831   0.940
  872TIP3    H2 2623   1.498   4.799   0.867
  873TIP3   OH2 2624   5.753   4.980   4.238
  873TIP3    H1 2625   5.831   5.015   4.280
  873TIP3    H2 2626   5.743   4.892   4.276
  874TIP3   OH2 2627   2.166   0.120   3.443
  874TIP3    H1 2628   2.216   0.187   3.489
  874TIP3    H2 2629   2.108   0.170   3.384
  875TIP3   OH2 2630   5.377   5.824   3.424
  875TIP3    H1 2631   5.309   5.881   3.461
  875TIP3    H2 2632   5.458   5.873   3.434
  876TIP3   OH2 2633   1.889   3.054   1.172
  876TIP3    H1 2634   1.890   3.052   1.076
  876TIP3    H2 2635   1.971   3.012   1.197
  877TIP3   OH2 2636   5.342   4.063   0.352
  877TIP3    H1 2637   5.392   4.054   0.433
  877TIP3    H2 2638   5.314   4.155   0.351
  878TIP3   OH2 2639   1.735   4.306   1.999
  878TIP3    H1 2640   1.796   4.261   1.940
  878TIP3    H2 2641   1.787   4.375   2.039
  879TIP3   OH2 2642   5.514   4.472   0.344
  879TIP3    H1 2643   5.583   4.410   0.323
  879TIP3    H2 2644   5.445   4.419   0.385
  880TIP3   OH2 2645   2.678   0.437   4.003
  880TIP3    H1 2646   2.725   0.462   4.083
  880TIP3    H2 2647   2.719   0.488   3.934
  881TIP3   OH2 2648   3.683   0.112   1.421
  881TIP3    H1 2649   3.629   0.073   1.490
  881TIP3    H2 2650   3.620   0.140   1.354
  882TIP3   OH2 2651   5.638   2.381   1.546
  882TIP3    H1 2652   5.679   2.331   1.476
  882TIP3    H2 2653   5.568   2.324   1.579
  883TIP3   OH2 2654   3.628   1.377   5.137
  883TIP3    H1 2655   3.588   1.438   5.075
  883TIP3    H2 2656   3.671   1.312   5.081
  884TIP3   OH2 2657   2.261   0.719   4.770
  884TIP3    H1 2658   2.248   0.774   4.848
  884TIP3    H2 2659   2.232   0.632   4.797
  885TIP3   OH2 2660   5.650   0.795   3.011
  885TIP3    H1 2661   5.672   0.827   3.098
  885TIP3    H2 2662   5.563   0.757   3.021
  886TIP3   OH2 2663   2.599   3.013   3.187
  886TIP3    H1 2664   2.673   3.062   3.225
  886TIP3    H2 2665   2.522   3.050   3.230
  887TIP3   OH2 2666   2.483   1.743   2.197
  887TIP3    H1 2667   2.420   1.696   2.251
  887TIP3    H2 2668   2.544   1.675   2.167
  888TIP3   OH2 2669   5.882   4.581   3.702
  888TIP3    H1 2670   5.889   4.494   3.740
  888TIP3    H2 2671   5.796   4.582   3.659
  889TIP3   OH2 2672   3.163   5.070   3.651
  889TIP3    H1 2673   3.197   4.983   3.629
  889TIP3    H2 2674   3.238   5.117   3.687
  890TIP3   OH2 2675   0.256   2.673   0.081
  890TIP3    H1 2676   0.252   2.767   0.098
  890TIP3    H2 2677   0.344   2.647   0.108
  891TIP3   OH2 2678   4.147   4.126   3.617
  891TIP3    H1 2679   4.068   4.178   3.604
  891TIP3    H2 2680   4.219   4.190   3.615
  892TIP3   OH2 2681   2.714   1.738   0.700
  892TIP3    H1 2682   2.684   1.829   0.696
  892TIP3    H2 2683   2.776   1.736   0.773
  893TIP3   OH2 2684   1.110   5.821   1.209
  893TIP3    H1 2685   1.126   5.797   1.118
  893TIP3    H2 2686   1.196   5.847   1.243
  894TIP3   OH2 2687   5.681   1.344   0.447
  894TIP3    H1 2688   5.759   1.323   0.499
  894TIP3    H2 2689   5.716   1.365   0.360
  895TIP3   OH2 2690   0.527   2.198   0.516
  895TIP3    H1 2691   0.616   2.161   0.521
  895TIP3    H2 2692   0.539   2.291   0.531
  896TIP3   OH2 2693   0.191   3.435   0.137
  896TIP3    H1 2694   0.177   3.519   0.094
  896TIP3    H2 2695   0.203   3.457   0.229
  897TIP3   OH2 2696   2.587   2.261   1.932
  897TIP3    H1 2697   2.645   2.188   1.952
  897TIP3    H2 2698   2.643   2.328   1.895
  898TIP3   OH2 2699   1.897   5.634   3.869
  898TIP3    H1 2700   1.926   5.579   3.942
  898TIP3    H2 2701   1.955   5.610   3.797
  899TIP3   OH2 2702   3.756   0.592   2.344
  899TIP3    H1 2703   3.772   0.684   2.321
  899TIP3    H2 2704   3.843   0.555   2.355
  900TIP3   OH2 2705   2.300   5.286   0.377
  900TIP3    H1 2706   2.303   5.200   0.334
  900TIP3    H2 2707   2.390   5.302   0.405
  901TIP3   OH2 2708   3.040   3.021   1.144
  901TIP3    H1 2709   3.077   2.990   1.062
  901TIP3    H2 2710   3.114   3.023   1.204
  902TIP3   OH2 2711   2.286   0.292   4.878
  902TIP3    H1 2712   2.237   0.221   4.835
  902TIP3    H2 2713   2.356   0.247   4.925
  903TIP3   OH2 2714   3.753   2.838   4.621
  903TIP3    H1 2715   3.812   2.774   4.579
  903TIP3    H2 2716   3.690   2.784   4.669
  904TIP3   OH2 2717   0.169   2.860   3.690
  904TIP3    H1 2718   0.183   2.768   3.667
  904TIP3    H2 2719   0.257   2.897   3.695
  905TIP3   OH2 2720   5.577   2.372   2.342
  905TIP3    H1 2721   5.662   2.413   2.356
  905TIP3    H2 2722   5.519   2.445   2.318
  906TIP3   OH2 2723   4.765   0.128   1.548
  906TIP3    H1 2724   4.693   0.109   1.609
  906TIP3    H2 2725   4.729   0.193   1.488
  907TIP3   OH2 2726   5.147   2.603   4.374
  907TIP3    H1 2727   5.135   2.566   4.287
  907TIP3    H2 2728   5.112   2.691   4.368
  908TIP3   OH2 2729   4.652   5.472   2.982
  908TIP3    H1 2730   4.557   5.477   2.978
  908TIP3    H2 2731   4.683   5.539   2.920
  909TIP3   OH2 2732   3.875   2.836   2.529
  909TIP3    H1 2733   3.885   2.741   2.520
  909TIP3    H2 2734   3.790   2.848   2.569
  910TIP3   OH2 2735   0.487   5.260   1.117
  910TIP3    H1 2736   0.487   5.165   1.126
  910TIP3    H2 2737   0.425   5.290   1.184
  911TIP3   OH2 2738   2.089   3.739   1.803
  911TIP3    H1 2739   2.139   3.731   1.722
  911TIP3    H2 2740   2.156   3.743   1.872
  912TIP3   OH2 2741   6.098   4.957   0.554
  912TIP3    H1 2742   6.140   4.890   0.606
  912TIP3    H2 2743   6.004   4.942   0.566
  913TIP3   OH2 2744   0.251   5.172   1.300
  913TIP3    H1 2745   0.295   5.202   1.380
  913TIP3    H2 2746   0.202   5.248   1.269
  914TIP3   OH2 2747   2.950   5.708   1.908
  914TIP3    H1 2748   2.996   5.624   1.916
  914TIP3    H2 2749   2.873   5.689   1.855
  915TIP3   OH2 2750   3.489   1.339   1.361
  915TIP3    H1 2751   3.407   1.374   1.326
  915TIP3    H2 2752   3.504   1.258   1.311
  916TIP3   OH2 2753   5.388   1.368   0.220
  916TIP3    H1 2754   5.343   1.284   0.219
  916TIP3    H2 2755   5.446   1.365   0.144
  917TIP3   OH2 2756   3.787   1.727   2.032
  917TIP3    H1 2757   3.819   1.815   2.013
  917TIP3    H2 2758   3.788   1.721   2.127
  918TIP3   OH2 2759   5.980   5.026   2.984
  918TIP3    H1 2760   6.072   5.049   2.971
  918TIP3    H2 2761   5.932   5.105   2.959
  919TIP3   OH2 2762   2.123   0.947   4.694
  919TIP3    H1 2763   2.168   0.863   4.700
  919TIP3    H2 2764   2.105   0.958   4.601
  920TIP3   OH2 2765   0.601   1.591   3.474
  920TIP3    H1 2766   0.581   1.620   3.563
  920TIP3    H2 2767   0.531   1.529   3.452
  921TIP3   OH2 2768   5.624   0.782   0.649
  921TIP3    H1 2769   5.635   0.802   0.557
  921TIP3    H2 2770   5.641   0.688   0.656
  922TIP3   OH2 2771   5.161   2.037   5.043
  922TIP3    H1 2772   5.128   1.974   5.107
  922TIP3    H2 2773   5.231   2.084   5.089
  923TIP3   OH2 2774   4.741   4.363   2.494
  923TIP3    H1 2775   4.820   4.316   2.523
  923TIP3    H2 2776   4.678   4.348   2.565
  924TIP3   OH2 2777   5.637   4.733   2.432
  924TIP3    H1 2778   5.729   4.710   2.444
  924TIP3    H2 2779   5.621   4.802   2.496
  925TIP3   OH2 2780   0.500   2.641   5.136
  925TIP3    H1 2781   0.462   2.616   5.052
  925TIP3    H2 2782   0.579   2.691   5.113
  926TIP3   OH2 2783   5.344   4.278   3.448
  926TIP3    H1 2784   5.268   4.227   3.476
  926TIP3    H2 2785   5.418   4.236   3.493
  927TIP3   OH2 2786   4.568   3.614   2.314
  927TIP3    H1 2787   4.486   3.659   2.294
  927TIP3    H2 2788   4.609   3.599   2.229
  928TIP3   OH2 2789   6.162   4.480   2.753
  928TIP3    H1 2790   6.071   4.507   2.770
  928TIP3    H2 2791   6.200   4.470   2.841
  929TIP3   OH2 2792   1.245   3.673   1.853
  929TIP3    H1 2793   1.246   3.647   1.945
  929TIP3    H2 2794   1.250   3.591   1.805
  930TIP3   OH2 2795   4.336   1.972   2.290
  930TIP3    H1 2796   4.342   2.002   2.199
  930TIP3    H2 2797   4.384   1.888   2.291
  931TIP3   OH2 2798   3.719   5.178   3.992
  931TIP3    H1 2799   3.678   5.091   3.988
  931TIP3    H2 2800   3.648   5.239   3.974
  932TIP3   OH2 2801   4.657   2.188   2.879
  932TIP3    H1 2802   4.696   2.242   2.947
  932TIP3    H2 2803   4.683   2.099   2.901
  933TIP3   OH2 2804   4.202   0.779   0.205
  933TIP3    H1 2805   4.147   0.814   0.274
  933TIP3    H2 2806   4.141   0.736   0.145
  934TIP3   OH2 2807   3.253   5.326   2.207
  934TIP3    H1 2808   3.328   5.320   2.267
  934TIP3    H2 2809   3.280   5.274   2.131
  935TIP3   OH2 2810   2.278   2.950   4.516
  935TIP3    H1 2811   2.320   3.028   4.479
  935TIP3    H2 2812   2.238   2.906   4.441
  936TIP3   OH2 2813   4.225   1.710   1.615
  936TIP3    H1 2814   4.277   1.737   1.539
  936TIP3    H2 2815   4.276   1.640   1.655
  937TIP3   OH2 2816   0.154   1.273   4.915
  937TIP3    H1 2817   0.235   1.228   4.890
  937TIP3    H2 2818   0.087   1.234   4.860
  938TIP3   OH2 2819   3.607   3.396   1.266
  938TIP3    H1 2820   3.626   3.440   1.349
  938TIP3    H2 2821   3.548   3.456   1.220
  939TIP3   OH2 2822   2.246   5.584   4.618
  939TIP3    H1 2823   2.235   5.499   4.574
  939TIP3    H2 2824   2.171   5.635   4.590
  940TIP3   OH2 2825   5.758   2.606   3.040
  940TIP3    H1 2826   5.732   2.696   3.061
  940TIP3    H2 2827   5.717   2.588   2.955
  941TIP3   OH2 2828   3.314   4.136   3.908
  941TIP3    H1 2829   3.361   4.078   3.848
  941TIP3    H2 2830   3.339   4.105   3.995
  942TIP3   OH2 2831   6.123   3.704   4.810
  942TIP3    H1 2832   6.113   3.636   4.744
  942TIP3    H2 2833   6.157   3.658   4.887
  943TIP3   OH2 2834   3.616   2.705   2.342
  943TIP3    H1 2835   3.616   2.609   2.345
  943TIP3    H2 2836   3.556   2.730   2.413
  944TIP3   OH2 2837   2.544   5.033   2.871
  944TIP3    H1 2838   2.584   5.034   2.957
  944TIP3    H2 2839   2.452   5.053   2.887
  945TIP3   OH2 2840   2.677   3.899   0.508
  945TIP3    H1 2841   2.612   3.868   0.445
  945TIP3    H2 2842   2.737   3.825   0.519
  946TIP3   OH2 2843   4.643   4.642   3.209
  946TIP3    H1 2844   4.641   4.696   3.288
  946TIP3    H2 2845   4.681   4.559   3.237
  947TIP3   OH2 2846   0.669   3.416   3.748
  947TIP3    H1 2847   0.636   3.503   3.770
  947TIP3    H2 2848   0.627   3.358   3.812
  948TIP3   OH2 2849   4.658   2.028   3.481
  948TIP3    H1 2850   4.565   2.044   3.501
  948TIP3    H2 2851   4.700   2.026   3.567
  949TIP3   OH2 2852   5.781   0.860   4.396
  949TIP3    H1 2853   5.784   0.807   4.476
  949TIP3    H2 2854   5.865   0.842   4.353
  950TIP3   OH2 2855   0.964   0.332   4.198
  950TIP3    H1 2856   0.906   0.341   4.122
  950TIP3    H2 2857   1.050   0.358   4.166
  951TIP3   OH2 2858   4.381   3.490   5.054
  951TIP3    H1 2859   4.347   3.433   5.123
  951TIP3    H2 2860   4.470   3.458   5.038
  952TIP3   OH2 2861   4.669   4.054   5.087
  952TIP3    H1 2862   4.592   4.085   5.133
  952TIP3    H2 2863   4.708   3.989   5.146
  953TIP3   OH2 2864   0.616   2.857   2.836
  953TIP3    H1 2865   0.569   2.929   2.796
  953TIP3    H2 2866   0.550   2.789   2.850
  954TIP3   OH2 2867   5.620   4.894   3.367
  954TIP3    H1 2868   5.660   4.954   3.304
  954TIP3    H2 2869   5.651   4.807   3.341
  955TIP3   OH2 2870   5.555   2.394   3.717
  955TIP3    H1 2871   5.506   2.320   3.680
  955TIP3    H2 2872   5.496   2.469   3.706
  956TIP3   OH2 2873   0.454   0.654   0.272
  956TIP3    H1 2874   0.368   0.649   0.231
  956TIP3    H2 2875   0.451   0.591   0.344
  957TIP3   OH2 2876   2.346   0.973   0.280
  957TIP3    H1 2877   2.375   0.895   0.232
  957TIP3    H2 2878   2.278   0.941   0.339
  958TIP3   OH2 2879   3.565   1.045   3.531
  958TIP3    H1 2880   3.473   1.022   3.517
  958TIP3    H2 2881   3.582   1.020   3.622
  959TIP3   OH2 2882   4.615   3.874   2.957
  959TIP3    H1 2883   4.605   3.872   3.052
  959TIP3    H2 2884   4.682   3.807   2.939
  960TIP3   OH2 2885   5.238   2.017   2.754
  960TIP3    H1 2886   5.269   2.107   2.747
  960TIP3    H2 2887   5.168   2.010   2.689
  961TIP3   OH2 2888   4.990   0.825   3.896
  961TIP3    H1 2889   5.014   0.792   3.982
  961TIP3    H2 2890   5.061   0.884   3.871
  962TIP3   OH2 2891   1.020   1.832   1.732
  962TIP3    H1 2892   1.116   1.826   1.734
  962TIP3    H2 2893   1.002   1.924   1.753
  963TIP3   OH2 2894   4.002   4.727   4.490
  963TIP3    H1 2895   3.975   4.649   4.539
  963TIP3    H2 2896   4.059   4.775   4.550
  964TIP3   OH2 2897   0.727   0.158   1.559
  964TIP3    H1 2898   0.755   0.134   1.471
  964TIP3    H2 2899   0.686   0.079   1.594
  965TIP3   OH2 2900   4.097   4.679   0.286
  965TIP3    H1 2901   4.078   4.652   0.196
  965TIP3    H2 2902   4.023   4.734   0.311
  966TIP3   OH2 2903   0.598   4.718   1.718
  966TIP3    H1 2904   0.618   4.788   1.780
  966TIP3    H2 2905   0.564   4.764   1.641
  967TIP3   OH2 2906   5.173   0.586   3.270
  967TIP3    H1 2907   5.261   0.548   3.266
  967TIP3    H2 2908   5.183   0.663   3.326
  968TIP3   OH2 2909   2.368   2.480   4.104
  968TIP3    H1 2910   2.334   2.436   4.183
  968TIP3    H2 2911   2.294   2.531   4.072
  969TIP3   OH2 2912   4.779   4.044   3.989
  969TIP3    H1 2913   4.751   4.078   3.904
  969TIP3    H2 2914   4.704   3.994   4.021
  970TIP3   OH2 2915   5.976   3.302   4.617
  970TIP3    H1 2916   5.889   3.323   4.583
  970TIP3    H2 2917   6.010   3.236   4.558
  971TIP3   OH2 2918   4.954   1.405   0.137
  971TIP3    H1 2919   4.888   1.474   0.125
  971TIP3    H2 2920   5.037   1.452   0.145
  972TIP3   OH2 2921   5.235   1.409   1.764
  972TIP3    H1 2922   5.269   1.446   1.682
  972TIP3    H2 2923   5.253   1.315   1.757
  973TIP3   OH2 2924   1.185   2.857   1.419
  973TIP3    H1 2925   1.251   2.912   1.461
  973TIP3    H2 2926   1.120   2.840   1.487
  974TIP3   OH2 2927   2.712   4.581   1.379
  974TIP3    H1 2928   2.734   4.626   1.297
  974TIP3    H2 2929   2.791   4.591   1.433
  975TIP3   OH2 2930   3.856   0.928   0.188
  975TIP3    H1 2931   3.782   0.989   0.196
  975TIP3    H2 2932   3.824   0.858   0.132
  976TIP3   OH2 2933   3.785   2.010   4.295
  976TIP3    H1 2934   3.762   2.100   4.314
  976TIP3    H2 2935   3.881   2.008   4.299
  977TIP3   OH2 2936   2.640   1.155   1.091
  977TIP3    H1 2937   2.613   1.088   1.154
  977TIP3    H2 2938   2.648   1.235   1.142
  978TIP3   OH2 2939   4.928   3.721   2.233
  978TIP3    H1 2940   4.888   3.672   2.162
  978TIP3    H2 2941   4.924   3.813   2.205
  979TIP3   OH2 2942   5.900   4.843   3.568
  979TIP3    H1 2943   5.874   4.752   3.555
  979TIP3    H2 2944   5.834   4.879   3.628
  980TIP3   OH2 2945   6.074   1.536   2.581
  980TIP3    H1 2946   5.984   1.530   2.613
  980TIP3    H2 2947   6.128   1.508   2.655
  981TIP3   OH2 2948   3.254   4.732   0.317
  981TIP3    H1 2949   3.320   4.684   0.267
  981TIP3    H2 2950   3.171   4.705   0.277
  982TIP3   OH2 2951   3.704   4.883   1.368
  982TIP3    H1 2952   3.737   4.874   1.279
  982TIP3    H2 2953   3.781   4.909   1.419
  983TIP3   OH2 2954   6.091   3.001   1.980
  983TIP3    H1 2955   6.081   2.908   1.999
  983TIP3    H2 2956   6.001   3.033   1.970
  984TIP3   OH2 2957   3.832   0.663   2.657
  984TIP3    H1 2958   3.820   0.613   2.738
  984TIP3    H2 2959   3.902   0.725   2.677
  985TIP3   OH2 2960   5.634   3.653   0.429
  985TIP3    H1 2961   5.701   3.721   0.422
  985TIP3    H2 2962   5.684   3.571   0.423
  986TIP3   OH2 2963   5.235   1.296   4.906
  986TIP3    H1 2964   5.295   1.370   4.906
  986TIP3    H2 2965   5.183   1.307   4.827
  987TIP3   OH2 2966   4.804   3.645   4.629
  987TIP3    H1 2967   4.743   3.715   4.607
  987TIP3    H2 2968   4.888   3.673   4.591
  988TIP3   OH2 2969   4.143   4.181   0.574
  988TIP3    H1 2970   4.048   4.190   0.564
  988TIP3    H2 2971   4.154   4.108   0.635
  989TIP3   OH2 2972   0.720   5.443   1.057
  989TIP3    H1 2973   0.635   5.404   1.079
  989TIP3    H2 2974   0.712   5.465   0.964
  990TIP3   OH2 2975   4.722   4.623   1.086
  990TIP3    H1 2976   4.771   4.645   1.165
  990TIP3    H2 2977   4.683   4.706   1.058
  991TIP3   OH2 2978   5.026   4.807   2.313
  991TIP3    H1 2979   5.034   4.805   2.217
  991TIP3    H2 2980   4.943   4.762   2.331
  992TIP3   OH2 2981   2.198   2.246   1.263
  992TIP3    H1 2982   2.171   2.321   1.210
  992TIP3    H2 2983   2.245   2.190   1.203
  993TIP3   OH2 2984   2.732   1.016   2.431
  993TIP3    H1 2985   2.686   1.094   2.402
  993TIP3    H2 2986   2.747   1.030   2.525
  994TIP3   OH2 2987   0.566   2.417   2.368
  994TIP3    H1 2988   0.593   2.326   2.364
  994TIP3    H2 2989   0.639   2.462   2.412
  995TIP3   OH2 2990   3.915   1.868   2.788
  995TIP3    H1 2991   3.922   1.848   2.881
  995TIP3    H2 2992   3.828   1.836   2.763
  996TIP3   OH2 2993   0.075   5.899   3.670
  996TIP3    H1 2994   0.026   5.852   3.738
  996TIP3    H2 2995   0.153   5.932   3.714
  997TIP3   OH2 2996   6.087   5.465   0.390
  997TIP3    H1 2997   6.043   5.478   0.306
  997TIP3    H2 2998   6.057   5.379   0.419
  998TIP3   OH2 2999   5.252   2.375   0.570
  998TIP3    H1 3000   5.309   2.309   0.609
  998TIP3    H2 3001   5.246   2.350   0.478
  999TIP3   OH2 3002   4.209   1.786   4.852
  999TIP3    H1 3003   4.161   1.789   4.770
  999TIP3    H2 3004   4.147   1.816   4.918
 1000TIP3   OH2 3005   1.506   3.402   2.966
 1000TIP3    H1 3006   1.482   3.493   2.954
 1000TIP3    H2 3007   1.455   3.354   2.900
 1001TIP3   OH2 3008   3.433   4.014   0.428
 1001TIP3    H1 3009   3.355   3.995   0.375
 1001TIP3    H2 3010   3.493   4.057   0.367
 1002TIP3   OH2 3011   1.320   4.275   0.982
 1002TIP3    H1 3012   1.291   4.199   0.931
 1002TIP3    H2 3013   1.342   4.341   0.917
 1003TIP3   OH2 3014   4.821   2.214   0.049
 1003TIP3    H1 3015   4.819   2.119   0.037
 1003TIP3    H2 3016   4.755   2.248  -0.011
 1004TIP3   OH2 3017   4.066   5.677   2.089
 1004TIP3    H1 3018   4.089   5.741   2.023
 1004TIP3    H2 3019   4.060   5.594   2.041
 1005TIP3   OH2 3020   2.342   3.867   2.358
 1005TIP3    H1 3021   2.433   3.893   2.351
 1005TIP3    H2 3022   2.345   3.772   2.368
 1006TIP3   OH2 3023   5.127   4.839   1.359
 1006TIP3    H1 3024   5.128   4.934   1.345
 1006TIP3    H2 3025   5.046   4.822   1.407
 1007TIP3   OH2 3026   3.557   4.349   2.991
 1007TIP3    H1 3027   3.585   4.271   2.943
 1007TIP3    H2 3028   3.577   4.328   3.082
 1008TIP3   OH2 3029   0.080   2.151   5.080
 1008TIP3    H1 3030   0.000   2.193   5.050
 1008TIP3    H2 3031   0.052   2.066   5.114
 1009TIP3   OH2 3032   1.415   1.372   3.039
 1009TIP3    H1 3033   1.407   1.358   3.133
 1009TIP3    H2 3034   1.342   1.430   3.017
 1010TIP3   OH2 3035   2.749   2.616   2.029
 1010TIP3    H1 3036   2.772   2.527   2.006
 1010TIP3    H2 3037   2.737   2.614   2.124
 1011TIP3   OH2 3038   5.152   0.583   0.970
 1011TIP3    H1 3039   5.169   0.663   0.920
 1011TIP3    H2 3040   5.238   0.547   0.989
 1012TIP3   OH2 3041   2.020   3.264   0.505
 1012TIP3    H1 3042   1.967   3.339   0.477
 1012TIP3    H2 3043   2.015   3.202   0.432
 1013TIP3   OH2 3044   4.074   2.477   2.764
 1013TIP3    H1 3045   4.118   2.478   2.679
 1013TIP3    H2 3046   4.140   2.444   2.825
 1014TIP3   OH2 3047   2.535   2.935   2.007
 1014TIP3    H1 3048   2.629   2.955   2.015
 1014TIP3    H2 3049   2.495   2.975   2.084
 1015TIP3   OH2 3050   1.117   4.634   0.089
 1015TIP3    H1 3051   1.031   4.648   0.049
 1015TIP3    H2 3052   1.115   4.542   0.117
 1016TIP3   OH2 3053   2.532   4.359   1.586
 1016TIP3    H1 3054   2.597   4.338   1.653
 1016TIP3    H2 3055   2.552   4.299   1.514
 1017TIP3   OH2 3056   2.621   6.011   4.772
 1017TIP3    H1 3057   2.595   6.054   4.853
 1017TIP3    H2 3058   2.555   5.942   4.759
 1018TIP3   OH2 3059   0.380   0.957   3.461
 1018TIP3    H1 3060   0.471   0.935   3.440
 1018TIP3    H2 3061   0.344   0.992   3.380
 1019TIP3   OH2 3062   2.979   3.469   4.461
 1019TIP3    H1 3063   2.945   3.514   4.538
 1019TIP3    H2 3064   3.007   3.383   4.493
 1020TIP3   OH2 3065   1.786   4.521   3.985
 1020TIP3    H1 3066   1.817   4.516   4.075
 1020TIP3    H2 3067   1.840   4.589   3.944
 1021TIP3   OH2 3068   1.372   4.188   5.198
 1021TIP3    H1 3069   1.325   4.241   5.134
 1021TIP3    H2 3070   1.331   4.102   5.193
 1022TIP3   OH2 3071   4.712   4.930   4.849
 1022TIP3    H1 3072   4.751   5.011   4.880
 1022TIP3    H2 3073   4.619   4.952   4.836
 1023TIP3   OH2 3074   1.498   1.477   5.110
 1023TIP3    H1 3075   1.503   1.456   5.203
 1023TIP3    H2 3076   1.531   1.567   5.104
 1024TIP3   OH2 3077   3.639   4.305   4.755
 1024TIP3    H1 3078   3.620   4.339   4.667
 1024TIP3    H2 3079   3.723   4.260   4.746
 1025TIP3   OH2 3080   5.461   2.407   4.361
 1025TIP3    H1 3081   5.466   2.398   4.266
 1025TIP3    H2 3082   5.428   2.496   4.375
 1026TIP3   OH2 3083   1.528   2.245   2.346
 1026TIP3    H1 3084   1.533   2.163   2.298
 1026TIP3    H2 3085   1.619   2.270   2.362
 1027TIP3   OH2 3086   3.951   2.684   4.504
 1027TIP3    H1 3087   4.040   2.712   4.525
 1027TIP3    H2 3088   3.950   2.674   4.409
 1028TIP3   OH2 3089   2.627   2.745   0.875
 1028TIP3    H1 3090   2.707   2.775   0.918
 1028TIP3    H2 3091   2.566   2.819   0.884
 1029TIP3   OH2 3092   5.419   0.630   3.040
 1029TIP3    H1 3093   5.353   0.592   2.982
 1029TIP3    H2 3094   5.422   0.571   3.115
 1030TIP3   OH2 3095   6.235   3.611   1.292
 1030TIP3    H1 3096   6.297   3.566   1.349
 1030TIP3    H2 3097   6.179   3.541   1.259
 1031TIP3   OH2 3098   4.014   5.443   3.885
 1031TIP3    H1 3099   4.017   5.492   3.967
 1031TIP3    H2 3100   3.971   5.503   3.823
 1032TIP3   OH2 3101   2.024   5.741   4.540
 1032TIP3    H1 3102   2.022   5.811   4.475
 1032TIP3    H2 3103   1.974   5.670   4.499
 1033TIP3   OH2 3104   4.240   0.050   2.117
 1033TIP3    H1 3105   4.153   0.089   2.111
 1033TIP3    H2 3106   4.234  -0.029   2.062
 1034TIP3   OH2 3107   0.411   4.734   0.860
 1034TIP3    H1 3108   0.475   4.737   0.931
 1034TIP3    H2 3109   0.447   4.791   0.792
 1035TIP3   OH2 3110   0.615   2.321   3.499
 1035TIP3    H1 3111   0.707   2.318   3.526
 1035TIP3    H2 3112   0.594   2.414   3.496
 1036TIP3   OH2 3113   1.759   5.961   3.100
 1036TIP3    H1 3114   1.728   5.870   3.103
 1036TIP3    H2 3115   1.778   5.977   3.008
 1037TIP3   OH2 3116   1.897   5.018   4.239
 1037TIP3    H1 3117   1.923   4.965   4.314
 1037TIP3    H2 3118   1.933   4.973   4.163
 1038TIP3   OH2 3119   0.832   3.292   0.415
 1038TIP3    H1 3120   0.915   3.339   0.418
 1038TIP3    H2 3121   0.818   3.262   0.504
 1039TIP3   OH2 3122   5.996   3.904   1.494
 1039TIP3    H1 3123   5.950   3.829   1.455
 1039TIP3    H2 3124   5.979   3.896   1.588
 1040TIP3   OH2 3125   0.573   5.766   1.296
 1040TIP3    H1 3126   0.525   5.765   1.379
 1040TIP3    H2 3127   0.658   5.729   1.318
 1041TIP3   OH2 3128   6.099   5.655   4.892
 1041TIP3    H1 3129   6.163   5.684   4.956
 1041TIP3    H2 3130   6.152   5.620   4.820
 1042TIP3   OH2 3131   4.441   3.555   2.911
 1042TIP3    H1 3132   4.479   3.474   2.879
 1042TIP3    H2 3133   4.480   3.569   2.997
 1043TIP3   OH2 3134   2.290   2.305   2.885
 1043TIP3    H1 3135   2.328   2.227   2.925
 1043TIP3    H2 3136   2.213   2.325   2.939
 1044TIP3   OH2 3137   2.810   2.140   2.593
 1044TIP3    H1 3138   2.780   2.054   2.619
 1044TIP3    H2 3139   2.749   2.168   2.525
 1045TIP3   OH2 3140   6.054   1.328   4.348
 1045TIP3    H1 3141   6.007   1.380   4.414
 1045TIP3    H2 3142   6.087   1.393   4.286
 1046TIP3   OH2 3143   5.859   2.005   3.977
 1046TIP3    H1 3144   5.802   1.928   3.982
 1046TIP3    H2 3145   5.833   2.048   3.896
 1047TIP3   OH2 3146   1.837   3.542   1.162
 1047TIP3    H1 3147   1.822   3.549   1.256
 1047TIP3    H2 3148   1.766   3.486   1.130
 1048TIP3   OH2 3149   5.231   5.828   2.585
 1048TIP3    H1 3150   5.229   5.811   2.679
 1048TIP3    H2 3151   5.218   5.742   2.544
 1049TIP3   OH2 3152   5.385   2.267   2.801
 1049TIP3    H1 3153   5.450   2.215   2.848
 1049TIP3    H2 3154   5.409   2.257   2.709
 1050TIP3   OH2 3155   1.923   4.030   0.817
 1050TIP3    H1 3156   1.913   3.951   0.764
 1050TIP3    H2 3157   1.894   4.101   0.761
 1051TIP3   OH2 3158   2.913   1.322   2.685
 1051TIP3    H1 3159   2.877   1.384   2.622
 1051TIP3    H2 3160   3.005   1.347   2.694
 1052TIP3   OH2 3161   5.147   5.941   1.854
 1052TIP3    H1 3162   5.162   6.030   1.824
 1052TIP3    H2 3163   5.212   5.928   1.924
 1053TIP3   OH2 3164   2.125   5.536   2.185
 1053TIP3    H1 3165   2.176   5.616   2.177
 1053TIP3    H2 3166   2.186   5.467   2.157
 1054TIP3   OH2 3167   3.408   5.387   4.768
 1054TIP3    H1 3168   3.406   5.453   4.699
 1054TIP3    H2 3169   3.337   5.411   4.827
 1055TIP3   OH2 3170   5.227   2.855   1.700
 1055TIP3    H1 3171   5.296   2.789   1.697
 1055TIP3    H2 3172   5.183   2.841   1.784
 1056TIP3   OH2 3173   4.235   5.889   1.977
 1056TIP3    H1 3174   4.317   5.938   1.983
 1056TIP3    H2 3175   4.228   5.865   1.885
 1057TIP3   OH2 3176   1.532   0.587   3.409
 1057TIP3    H1 3177   1.562   0.648   3.476
 1057TIP3    H2 3178   1.560   0.626   3.327
 1058TIP3   OH2 3179   2.579   3.400   1.544
 1058TIP3    H1 3180   2.502   3.358   1.583
 1058TIP3    H2 3181   2.547   3.483   1.511
 1059TIP3   OH2 3182   4.299   1.231   1.804
 1059TIP3    H1 3183   4.275   1.152   1.852
 1059TIP3    H2 3184   4.216   1.273   1.784
 1060TIP3   OH2 3185   5.781   3.062   2.193
 1060TIP3    H1 3186   5.833   2.984   2.210
 1060TIP3    H2 3187   5.706   3.055   2.253
 1061TIP3   OH2 3188   4.150   4.961   3.070
 1061TIP3    H1 3189   4.101   5.013   3.006
 1061TIP3    H2 3190   4.135   4.870   3.045
 1062TIP3   OH2 3191   3.829   2.651   3.522
 1062TIP3    H1 3192   3.829   2.654   3.618
 1062TIP3    H2 3193   3.866   2.566   3.500
 1063TIP3   OH2 3194   0.930   5.321   1.176
 1063TIP3    H1 3195   0.876   5.245   1.200
 1063TIP3    H2 3196   0.868   5.383   1.137
 1064TIP3   OH2 3197   1.276   5.905   3.904
 1064TIP3    H1 3198   1.184   5.887   3.921
 1064TIP3    H2 3199   1.295   5.859   3.822
 1065TIP3   OH2 3200   4.758   4.181   2.006
 1065TIP3    H1 3201   4.817   4.230   1.949
 1065TIP3    H2 3202   4.762   4.227   2.090
 1066TIP3   OH2 3203   4.587   2.987   3.017
 1066TIP3    H1 3204   4.659   2.965   2.959
 1066TIP3    H2 3205   4.509   2.981   2.962
 1067TIP3   OH2 3206   5.235   5.655   0.525
 1067TIP3    H1 3207   5.299   5.618   0.586
 1067TIP3    H2 3208   5.164   5.686   0.581
 1068TIP3   OH2 3209   2.242   1.808   0.737
 1068TIP3    H1 3210   2.255   1.903   0.737
 1068TIP3    H2 3211   2.315   1.773   0.686
 1069TIP3   OH2 3212   5.416   2.010   3.444
 1069TIP3    H1 3213   5.422   2.105   3.436
 1069TIP3    H2 3214   5.327   1.989   3.415
 1070TIP3   OH2 3215   5.012   2.773   3.368
 1070TIP3    H1 3216   4.975   2.684   3.369
 1070TIP3    H2 3217   4.989   2.809   3.453
 1071TIP3   OH2 3218   1.310   1.202   2.652
 1071TIP3    H1 3219   1.318   1.115   2.692
 1071TIP3    H2 3220   1.374   1.256   2.699
 1072TIP3   OH2 3221   2.126   5.499   3.215
 1072TIP3    H1 3222   2.174   5.549   3.281
 1072TIP3    H2 3223   2.048   5.467   3.260
 1073TIP3   OH2 3224   2.058   1.359   3.888
 1073TIP3    H1 3225   1.964   1.358   3.906
 1073TIP3    H2 3226   2.091   1.277   3.926
 1074TIP3   OH2 3227   1.662   4.535   3.717
 1074TIP3    H1 3228   1.715   4.547   3.795
 1074TIP3    H2 3229   1.656   4.622   3.678
 1075TIP3   OH2 3230   3.315   4.422   1.394
 1075TIP3    H1 3231   3.386   4.452   1.451
 1075TIP3    H2 3232   3.272   4.354   1.445
 1076TIP3   OH2 3233   3.480   4.595   3.481
 1076TIP3    H1 3234   3.428   4.551   3.548
 1076TIP3    H2 3235   3.571   4.578   3.506
 1077TIP3   OH2 3236   1.751   0.801   0.788
 1077TIP3    H1 3237   1.668   0.812   0.834
 1077TIP3    H2 3238   1.731   0.819   0.696
 1078TIP3   OH2 3239   5.046   1.747   1.441
 1078TIP3    H1 3240   4.981   1.728   1.374
 1078TIP3    H2 3241   5.082   1.832   1.417
 1079TIP3   OH2 3242   2.233   1.160   1.414
 1079TIP3    H1 3243   2.315   1.113   1.432
 1079TIP3    H2 3244   2.213   1.206   1.496
 1080TIP3   OH2 3245   5.639   5.752   0.681
 1080TIP3    H1 3246   5.599   5.835   0.708
 1080TIP3    H2 3247   5.733   5.765   0.694
 1081TIP3   OH2 3248   3.191   2.979   3.600
 1081TIP3    H1 3249   3.253   3.037   3.557
 1081TIP3    H2 3250   3.121   2.966   3.536
 1082TIP3   OH2 3251   3.540   2.155   2.081
 1082TIP3    H1 3252   3.624   2.200   2.090
 1082TIP3    H2 3253   3.501   2.157   2.168
 1083TIP3   OH2 3254   2.020   5.824   2.389
 1083TIP3    H1 3255   2.098   5.809   2.336
 1083TIP3    H2 3256   2.002   5.917   2.379
 1084TIP3   OH2 3257   3.632   3.747   0.124
 1084TIP3    H1 3258   3.680   3.727   0.044
 1084TIP3    H2 3259   3.575   3.671   0.139
 1085TIP3   OH2 3260   4.785   4.378   2.214
 1085TIP3    H1 3261   4.739   4.389   2.297
 1085TIP3    H2 3262   4.872   4.416   2.230
 1086TIP3   OH2 3263   0.559   4.279   2.518
 1086TIP3    H1 3264   0.653   4.270   2.502
 1086TIP3    H2 3265   0.520   4.280   2.431
 1087TIP3   OH2 3266   4.313   5.562   1.160
 1087TIP3    H1 3267   4.305   5.466   1.157
 1087TIP3    H2 3268   4.255   5.593   1.090
 1088TIP3   OH2 3269   1.174   1.546   3.305
 1088TIP3    H1 3270   1.133   1.583   3.227
 1088TIP3    H2 3271   1.121   1.578   3.378
 1089TIP3   OH2 3272   4.516   0.570   3.897
 1089TIP3    H1 3273   4.593   0.559   3.842
 1089TIP3    H2 3274   4.480   0.655   3.871
 1090TIP3   OH2 3275   2.719   1.611   4.592
 1090TIP3    H1 3276   2.768   1.531   4.607
 1090TIP3    H2 3277   2.684   1.602   4.503
 1091TIP3   OH2 3278   2.175   2.175   3.147
 1091TIP3    H1 3279   2.248   2.191   3.207
 1091TIP3    H2 3280   2.201   2.098   3.097
 1092TIP3   OH2 3281   0.759   2.719   3.821
 1092TIP3    H1 3282   0.822   2.736   3.890
 1092TIP3    H2 3283   0.765   2.795   3.763
 1093TIP3   OH2 3284   2.884   0.839   4.042
 1093TIP3    H1 3285   2.845   0.871   3.961
 1093TIP3    H2 3286   2.851   0.897   4.110
 1094TIP3   OH2 3287   5.754   4.014   5.142
 1094TIP3    H1 3288   5.841   3.990   5.110
 1094TIP3    H2 3289   5.697   3.945   5.110
 1095TIP3   OH2 3290   0.567   3.692   3.784
 1095TIP3    H1 3291   0.479   3.679   3.820
 1095TIP3    H2 3292   0.580   3.787   3.788
 1096TIP3   OH2 3293   4.369   0.229   5.132
 1096TIP3    H1 3294   4.405   0.140   5.122
 1096TIP3    H2 3295   4.417   0.265   5.207
 1097TIP3   OH2 3296   6.281   2.076   0.641
 1097TIP3    H1 3297   6.248   2.003   0.589
 1097TIP3    H2 3298   6.206   2.103   0.695
 1098TIP3   OH2 3299   3.324   0.350   1.718
 1098TIP3    H1 3300   3.375   0.430   1.703
 1098TIP3    H2 3301   3.373   0.281   1.673
 1099TIP3   OH2 3302   6.243   0.063   4.927
 1099TIP3    H1 3303   6.335   0.088   4.918
 1099TIP3    H2 3304   6.236   0.030   5.017
 1100TIP3   OH2 3305   5.159   1.343   4.657
 1100TIP3    H1 3306   5.254   1.355   4.660
 1100TIP3    H2 3307   5.146   1.268   4.599
 1101TIP3   OH2 3308   6.174   1.837   3.208
 1101TIP3    H1 3309   6.241   1.906   3.208
 1101TIP3    H2 3310   6.127   1.849   3.126
 1102TIP3   OH2 3311   2.116   5.593   1.124
 1102TIP3    H1 3312   2.169   5.513   1.130
 1102TIP3    H2 3313   2.177   5.664   1.146
 1103TIP3   OH2 3314   0.745   3.172   4.829
 1103TIP3    H1 3315   0.839   3.164   4.843
 1103TIP3    H2 3316   0.719   3.245   4.885
 1104TIP3   OH2 3317   6.095   2.616   2.582
 1104TIP3    H1 3318   6.124   2.680   2.516
 1104TIP3    H2 3319   6.082   2.535   2.532
 1105TIP3   OH2 3320   6.096   5.814   1.066
 1105TIP3    H1 3321   6.153   5.829   1.141
 1105TIP3    H2 3322   6.007   5.820   1.101
 1106TIP3   OH2 3323   2.047   2.735   2.392
 1106TIP3    H1 3324   2.104   2.704   2.322
 1106TIP3    H2 3325   2.076   2.688   2.470
 1107TIP3   OH2 3326   5.761   2.573   5.090
 1107TIP3    H1 3327   5.756   2.534   5.002
 1107TIP3    H2 3328   5.806   2.507   5.143
 1108TIP3   OH2 3329   6.075   5.340   4.349
 1108TIP3    H1 3330   6.063   5.354   4.255
 1108TIP3    H2 3331   6.010   5.396   4.390
 1109TIP3   OH2 3332   6.000   4.065   2.793
 1109TIP3    H1 3333   5.939   4.008   2.840
 1109TIP3    H2 3334   6.081   4.014   2.786
 1110TIP3   OH2 3335   5.862   3.744   5.201
 1110TIP3    H1 3336   5.770   3.734   5.224
 1110TIP3    H2 3337   5.862   3.760   5.106
 1111TIP3   OH2 3338   1.201   2.519   3.655
 1111TIP3    H1 3339   1.296   2.513   3.666
 1111TIP3    H2 3340   1.175   2.586   3.718
 1112TIP3   OH2 3341   3.920   2.401   3.438
 1112TIP3    H1 3342   3.884   2.313   3.449
 1112TIP3    H2 3343   3.991   2.406   3.503
 1113TIP3   OH2 3344   6.229   3.046   2.232
 1113TIP3    H1 3345   6.291   2.974   2.241
 1113TIP3    H2 3346   6.187   3.030   2.148
 1114TIP3   OH2 3347   2.626   1.441   1.439
 1114TIP3    H1 3348   2.569   1.472   1.368
 1114TIP3    H2 3349   2.713   1.434   1.398
 1115TIP3   OH2 3350   5.892   0.389   2.596
 1115TIP3    H1 3351   5.820   0.408   2.657
 1115TIP3    H2 3352   5.945   0.323   2.642
 1116TIP3   OH2 3353   4.071   0.748   3.573
 1116TIP3    H1 3354   4.055   0.683   3.505
 1116TIP3    H2 3355   4.138   0.708   3.629
 1117TIP3   OH2 3356   1.779   5.266   3.603
 1117TIP3    H1 3357   1.696   5.223   3.625
 1117TIP3    H2 3358   1.753   5.354   3.574
 1118TIP3   OH2 3359   0.822   3.773   4.932
 1118TIP3    H1 3360   0.823   3.701   4.870
 1118TIP3    H2 3361   0.729   3.789   4.949
 1119TIP3   OH2 3362   0.120   1.612   2.527
 1119TIP3    H1 3363   0.130   1.517   2.522
 1119TIP3    H2 3364   0.109   1.640   2.436
 1120TIP3   OH2 3365   5.401   4.781   1.411
 1120TIP3    H1 3366   5.320   4.824   1.385
 1120TIP3    H2 3367   5.389   4.690   1.385
 1121TIP3   OH2 3368   2.236   1.377   3.620
 1121TIP3    H1 3369   2.145   1.366   3.646
 1121TIP3    H2 3370   2.262   1.291   3.587
 1122TIP3   OH2 3371   1.781   0.354   3.607
 1122TIP3    H1 3372   1.777   0.258   3.601
 1122TIP3    H2 3373   1.693   0.379   3.634
 1123TIP3   OH2 3374   1.459   3.282   3.551
 1123TIP3    H1 3375   1.370   3.315   3.556
 1123TIP3    H2 3376   1.514   3.359   3.564
 1124TIP3   OH2 3377   6.255   3.128   0.830
 1124TIP3    H1 3378   6.329   3.068   0.830
 1124TIP3    H2 3379   6.180   3.074   0.806
 1125TIP3   OH2 3380   2.921   4.573   3.868
 1125TIP3    H1 3381   2.897   4.619   3.788
 1125TIP3    H2 3382   3.008   4.538   3.850
 1126TIP3   OH2 3383   5.471   2.151   1.597
 1126TIP3    H1 3384   5.396   2.131   1.654
 1126TIP3    H2 3385   5.489   2.068   1.552
 1127TIP3   OH2 3386   6.284   1.076   3.770
 1127TIP3    H1 3387   6.204   1.109   3.810
 1127TIP3    H2 3388   6.260   0.990   3.735
 1128TIP3   OH2 3389   1.491   0.899   4.986
 1128TIP3    H1 3390   1.544   0.968   4.947
 1128TIP3    H2 3391   1.401   0.926   4.971
 1129TIP3   OH2 3392   5.749   0.214   2.322
 1129TIP3    H1 3393   5.831   0.212   2.274
 1129TIP3    H2 3394   5.693   0.272   2.271
 1130TIP3   OH2 3395   0.410   5.448   3.729
 1130TIP3    H1 3396   0.503   5.437   3.746
 1130TIP3    H2 3397   0.378   5.360   3.708
 1131TIP3   OH2 3398   0.197   2.985   3.951
 1131TIP3    H1 3399   0.162   2.927   3.884
 1131TIP3    H2 3400   0.234   2.927   4.017
 1132TIP3   OH2 3401   5.447   2.844   2.651
 1132TIP3    H1 3402   5.364   2.843   2.602
 1132TIP3    H2 3403   5.497   2.915   2.611
 1133TIP3   OH2 3404   2.736   1.555   2.150
 1133TIP3    H1 3405   2.706   1.489   2.214
 1133TIP3    H2 3406   2.789   1.506   2.088
 1134TIP3   OH2 3407   5.042   2.365   0.130
 1134TIP3    H1 3408   5.013   2.436   0.187
 1134TIP3    H2 3409   4.964   2.313   0.113
 1135TIP3   OH2 3410   1.158   3.695   4.253
 1135TIP3    H1 3411   1.253   3.690   4.237
 1135TIP3    H2 3412   1.121   3.722   4.170
 1136TIP3   OH2 3413   5.587   0.265   4.638
 1136TIP3    H1 3414   5.618   0.208   4.568
 1136TIP3    H2 3415   5.579   0.208   4.714
 1137TIP3   OH2 3416   4.694   3.625   2.078
 1137TIP3    H1 3417   4.704   3.719   2.069
 1137TIP3    H2 3418   4.736   3.588   2.000
 1138TIP3   OH2 3419   4.048   3.823   2.521
 1138TIP3    H1 3420   4.135   3.828   2.482
 1138TIP3    H2 3421   4.014   3.737   2.495
 1139TIP3   OH2 3422   3.255   2.609   2.467
 1139TIP3    H1 3423   3.194   2.682   2.474
 1139TIP3    H2 3424   3.336   2.641   2.507
 1140TIP3   OH2 3425   3.517   2.233   3.761
 1140TIP3    H1 3426   3.463   2.263   3.834
 1140TIP3    H2 3427   3.500   2.139   3.755
 1141TIP3   OH2 3428   1.754   0.356   1.567
 1141TIP3    H1 3429   1.774   0.417   1.496
 1141TIP3    H2 3430   1.767   0.406   1.647
 1142TIP3   OH2 3431   3.843   5.929   1.545
 1142TIP3    H1 3432   3.877   5.951   1.632
 1142TIP3    H2 3433   3.854   5.835   1.538
 1143TIP3   OH2 3434   4.888   5.580   4.302
 1143TIP3    H1 3435   4.828   5.555   4.373
 1143TIP3    H2 3436   4.855   5.532   4.226
 1144TIP3   OH2 3437   3.640   3.675   4.259
 1144TIP3    H1 3438   3.723   3.701   4.219
 1144TIP3    H2 3439   3.623   3.587   4.224
 1145TIP3   OH2 3440   5.596   5.919   3.154
 1145TIP3    H1 3441   5.665   5.978   3.124
 1145TIP3    H2 3442   5.538   5.974   3.206
 1146TIP3   OH2 3443   5.657   0.173   3.573
 1146TIP3    H1 3444   5.717   0.176   3.498
 1146TIP3    H2 3445   5.714   0.185   3.649
 1147TIP3   OH2 3446   4.142   0.063   5.078
 1147TIP3    H1 3447   4.219   0.119   5.092
 1147TIP3    H2 3448   4.174  -0.011   5.027
 1148TIP3   OH2 3449   1.107   2.773   2.581
 1148TIP3    H1 3450   1.066   2.687   2.586
 1148TIP3    H2 3451   1.196   2.761   2.614
 1149TIP3   OH2 3452   4.228   0.926   3.434
 1149TIP3    H1 3453   4.188   0.932   3.348
 1149TIP3    H2 3454   4.161   0.885   3.489
 1150TIP3   OH2 3455   6.085   3.978   4.412
 1150TIP3    H1 3456   6.145   3.974   4.486
 1150TIP3    H2 3457   6.054   3.888   4.401
 1151TIP3   OH2 3458   2.914   4.094   3.151
 1151TIP3    H1 3459   2.952   4.018   3.107
 1151TIP3    H2 3460   2.989   4.152   3.167
 1152TIP3   OH2 3461   2.767   5.747   4.945
 1152TIP3    H1 3462   2.700   5.688   4.978
 1152TIP3    H2 3463   2.784   5.716   4.856
 1153TIP3   OH2 3464   5.233   4.528   1.379
 1153TIP3    H1 3465   5.316   4.490   1.351
 1153TIP3    H2 3466   5.169   4.490   1.319
 1154TIP3   OH2 3467   4.449   1.920   0.266
 1154TIP3    H1 3468   4.450   1.892   0.175
 1154TIP3    H2 3469   4.491   1.849   0.314
 1155TIP3   OH2 3470   0.496   2.878   3.478
 1155TIP3    H1 3471   0.445   2.833   3.545
 1155TIP3    H2 3472   0.489   2.971   3.500
 1156TIP3   OH2 3473   3.743   3.146   4.559
 1156TIP3    H1 3474   3.668   3.087   4.568
 1156TIP3    H2 3475   3.736   3.205   4.634
 1157TIP3   OH2 3476   6.200   2.537   4.751
 1157TIP3    H1 3477   6.119   2.565   4.793
 1157TIP3    H2 3478   6.201   2.442   4.761
 1158TIP3   OH2 3479   4.336   5.264   0.520
 1158TIP3    H1 3480   4.293   5.297   0.440
 1158TIP3    H2 3481   4.265   5.228   0.572
 1159TIP3   OH2 3482   5.841   1.199   0.614
 1159TIP3    H1 3483   5.786   1.150   0.675
 1159TIP3    H2 3484   5.910   1.237   0.668
 1160TIP3   OH2 3485   2.102   5.752   0.242
 1160TIP3    H1 3486   2.105   5.661   0.213
 1160TIP3    H2 3487   2.140   5.751   0.330
 1161TIP3   OH2 3488   2.010   1.799   3.991
 1161TIP3    H1 3489   1.947   1.870   4.003
 1161TIP3    H2 3490   1.980   1.729   4.049
 1162TIP3   OH2 3491   1.343   3.404   1.808
 1162TIP3    H1 3492   1.414   3.381   1.748
 1162TIP3    H2 3493   1.271   3.346   1.782
 1163TIP3   OH2 3494   2.541   0.538   2.718
 1163TIP3    H1 3495   2.491   0.486   2.655
 1163TIP3    H2 3496   2.624   0.556   2.674
 1164TIP3   OH2 3497   0.629   1.889   3.478
 1164TIP3    H1 3498   0.586   1.804   3.469
 1164TIP3    H2 3499   0.722   1.872   3.466
 1165TIP3   OH2 3500   0.058   4.118   0.261
 1165TIP3    H1 3501   0.086   4.028   0.247
 1165TIP3    H2 3502  -0.035   4.111   0.284
 1166TIP3   OH2 3503   1.466   2.428   1.178
 1166TIP3    H1 3504   1.390   2.422   1.236
 1166TIP3    H2 3505   1.528   2.364   1.213
 1167TIP3   OH2 3506   2.007   0.728   4.212
 1167TIP3    H1 3507   1.959   0.733   4.130
 1167TIP3    H2 3508   2.081   0.788   4.200
 1168TIP3   OH2 3509   1.749   2.164   0.146
 1168TIP3    H1 3510   1.658   2.179   0.171
 1168TIP3    H2 3511   1.773   2.082   0.189
 1169TIP3   OH2 3512   5.081   4.665   0.235
 1169TIP3    H1 3513   5.014   4.677   0.167
 1169TIP3    H2 3514   5.112   4.575   0.222
 1170TIP3   OH2 3515   6.279   1.341   1.219
 1170TIP3    H1 3516   6.357   1.285   1.221
 1170TIP3    H2 3517   6.206   1.281   1.235
 1171TIP3   OH2 3518   5.040   3.491   4.506
 1171TIP3    H1 3519   5.004   3.504   4.418
 1171TIP3    H2 3520   5.069   3.400   4.506
 1172TIP3   OH2 3521   5.844   1.957   3.274
 1172TIP3    H1 3522   5.833   1.944   3.368
 1172TIP3    H2 3523   5.755   1.960   3.239
 1173TIP3   OH2 3524   4.953   3.883   4.998
 1173TIP3    H1 3525   4.962   3.907   4.906
 1173TIP3    H2 3526   4.860   3.862   5.008
 1174TIP3   OH2 3527   0.165   4.897   2.356
 1174TIP3    H1 3528   0.182   4.893   2.450
 1174TIP3    H2 3529   0.182   4.808   2.325
 1175TIP3   OH2 3530   5.037   1.905   1.100
 1175TIP3    H1 3531   5.111   1.924   1.157
 1175TIP3    H2 3532   5.008   1.991   1.069
 1176TIP3   OH2 3533   2.435   2.272   2.648
 1176TIP3    H1 3534   2.388   2.191   2.627
 1176TIP3    H2 3535   2.375   2.321   2.703
 1177TIP3   OH2 3536   3.385   2.753   4.143
 1177TIP3    H1 3537   3.354   2.757   4.233
 1177TIP3    H2 3538   3.387   2.844   4.114
 1178TIP3   OH2 3539   0.617   2.499   3.926
 1178TIP3    H1 3540   0.620   2.411   3.888
 1178TIP3    H2 3541   0.690   2.545   3.886
 1179TIP3   OH2 3542   0.672   3.565   4.030
 1179TIP3    H1 3543   0.646   3.635   3.971
 1179TIP3    H2 3544   0.589   3.526   4.060
 1180TIP3   OH2 3545   1.868   5.929   0.342
 1180TIP3    H1 3546   1.928   5.855   0.346
 1180TIP3    H2 3547   1.911   5.992   0.284
 1181TIP3   OH2 3548   3.262   5.362   4.511
 1181TIP3    H1 3549   3.265   5.332   4.602
 1181TIP3    H2 3550   3.215   5.446   4.516
 1182TIP3   OH2 3551   5.091   0.024   3.215
 1182TIP3    H1 3552   5.047   0.058   3.136
 1182TIP3    H2 3553   5.167   0.081   3.227
 1183TIP3   OH2 3554   3.053   0.056   2.709
 1183TIP3    H1 3555   2.973   0.037   2.758
 1183TIP3    H2 3556   3.096   0.126   2.759
 1184TIP3   OH2 3557   1.786   4.666   0.867
 1184TIP3    H1 3558   1.760   4.581   0.902
 1184TIP3    H2 3559   1.771   4.727   0.940
 1185TIP3   OH2 3560   2.137   3.347   1.587
 1185TIP3    H1 3561   2.219   3.393   1.606
 1185TIP3    H2 3562   2.158   3.289   1.514
 1186TIP3   OH2 3563   1.046   2.755   3.309
 1186TIP3    H1 3564   1.073   2.666   3.334
 1186TIP3    H2 3565   1.072   2.764   3.218
 1187TIP3   OH2 3566   5.723   0.163   2.735
 1187TIP3    H1 3567   5.662   0.103   2.692
 1187TIP3    H2 3568   5.810   0.125   2.719
 1188TIP3   OH2 3569   2.492   4.474   1.003
 1188TIP3    H1 3570   2.490   4.492   0.909
 1188TIP3    H2 3571   2.557   4.404   1.013
 1189TIP3   OH2 3572   4.803   1.167   1.154
 1189TIP3    H1 3573   4.787   1.257   1.181
 1189TIP3    H2 3574   4.741   1.115   1.205
 1190TIP3   OH2 3575   3.347   4.675   1.718
 1190TIP3    H1 3576   3.418   4.718   1.765
 1190TIP3    H2 3577   3.391   4.613   1.660
 1191TIP3   OH2 3578   4.210   1.616   0.756
 1191TIP3    H1 3579   4.244   1.704   0.773
 1191TIP3    H2 3580   4.238   1.565   0.832
 1192TIP3   OH2 3581   1.794   4.943   2.634
 1192TIP3    H1 3582   1.776   4.870   2.694
 1192TIP3    H2 3583   1.751   4.917   2.552
 1193TIP3   OH2 3584   1.103   4.455   2.421
 1193TIP3    H1 3585   1.168   4.394   2.456
 1193TIP3    H2 3586   1.115   4.535   2.472
 1194TIP3   OH2 3587   5.450   5.379   3.864
 1194TIP3    H1 3588   5.377   5.432   3.832
 1194TIP3    H2 3589   5.458   5.403   3.956
 1195TIP3   OH2 3590   5.599   4.354   3.244
 1195TIP3    H1 3591   5.510   4.375   3.214
 1195TIP3    H2 3592   5.621   4.273   3.200
 1196TIP3   OH2 3593   5.903   1.298   3.390
 1196TIP3    H1 3594   5.841   1.354   3.344
 1196TIP3    H2 3595   5.906   1.218   3.337
 1197TIP3   OH2 3596   4.733   2.287   3.252
 1197TIP3    H1 3597   4.670   2.332   3.308
 1197TIP3    H2 3598   4.754   2.350   3.183
 1198TIP3   OH2 3599   1.851   0.031   2.235
 1198TIP3    H1 3600   1.816  -0.039   2.290
 1198TIP3    H2 3601   1.943   0.009   2.224
 1199TIP3   OH2 3602   0.977   0.906   3.219
 1199TIP3    H1 3603   0.925   0.960   3.278
 1199TIP3    H2 3604   1.011   0.969   3.154
 1200TIP3   OH2 3605   2.730   2.406   0.186
 1200TIP3    H1 3606   2.733   2.351   0.108
 1200TIP3    H2 3607   2.677   2.356   0.249
 1201TIP3   OH2 3608   0.762   5.329   2.292
 1201TIP3    H1 3609   0.682   5.296   2.333
 1201TIP3    H2 3610   0.740   5.419   2.266
 1202TIP3   OH2 3611   5.407   0.553   2.288
 1202TIP3    H1 3612   5.382   0.621   2.225
 1202TIP3    H2 3613   5.353   0.477   2.265
 1203TIP3   OH2 3614  -0.028   2.094   3.361
 1203TIP3    H1 3615  -0.009   2.070   3.270
 1203TIP3    H2 3616   0.034   2.043   3.413
 1204TIP3   OH2 3617   3.452   3.592   1.139
 1204TIP3    H1 3618   3.487   3.673   1.101
 1204TIP3    H2 3619   3.373   3.620   1.186
 1205TIP3   OH2 3620   3.389   1.629   1.003
 1205TIP3    H1 3621   3.445   1.584   1.066
 1205TIP3    H2 3622   3.343   1.559   0.958
 1206TIP3   OH2 3623   2.130   1.733   2.275
 1206TIP3    H1 3624   2.175   1.651   2.255
 1206TIP3    H2 3625   2.135   1.741   2.370
 1207TIP3   OH2 3626   4.382   3.248   3.298
 1207TIP3    H1 3627   4.371   3.163   3.341
 1207TIP3    H2 3628   4.435   3.299   3.359
 1208TIP3   OH2 3629   5.087   4.964   1.068
 1208TIP3    H1 3630   5.088   4.883   1.119
 1208TIP3    H2 3631   5.059   4.938   0.981
 1209TIP3   OH2 3632   2.262   0.890   2.969
 1209TIP3    H1 3633   2.348   0.926   2.987
 1209TIP3    H2 3634   2.276   0.825   2.900
 1210TIP3   OH2 3635   3.884   3.974   2.151
 1210TIP3    H1 3636   3.818   3.908   2.170
 1210TIP3    H2 3637   3.836   4.044   2.106
 1211TIP3   OH2 3638   4.542   5.751   3.530
 1211TIP3    H1 3639   4.574   5.829   3.575
 1211TIP3    H2 3640   4.616   5.721   3.478
 1212TIP3   OH2 3641   2.837   2.353   1.072
 1212TIP3    H1 3642   2.916   2.380   1.118
 1212TIP3    H2 3643   2.789   2.301   1.136
 1213TIP3   OH2 3644   1.736   5.193   0.380
 1213TIP3    H1 3645   1.663   5.135   0.404
 1213TIP3    H2 3646   1.777   5.151   0.305
 1214TIP3   OH2 3647   0.494   1.292   3.567
 1214TIP3    H1 3648   0.494   1.208   3.613
 1214TIP3    H2 3649   0.521   1.271   3.478
 1215TIP3   OH2 3650   6.330   5.056   4.947
 1215TIP3    H1 3651   6.398   5.091   4.889
 1215TIP3    H2 3652   6.301   4.976   4.903
 1216TIP3   OH2 3653   2.834   0.808   1.390
 1216TIP3    H1 3654   2.761   0.752   1.362
 1216TIP3    H2 3655   2.824   0.814   1.485
 1217TIP3   OH2 3656   0.475   3.868   3.058
 1217TIP3    H1 3657   0.565   3.887   3.032
 1217TIP3    H2 3658   0.477   3.873   3.154
 1218TIP3   OH2 3659   5.525   0.833   4.957
 1218TIP3    H1 3660   5.524   0.865   5.047
 1218TIP3    H2 3661   5.536   0.912   4.904
 1219TIP3   OH2 3662   1.503   1.761   2.272
 1219TIP3    H1 3663   1.498   1.667   2.257
 1219TIP3    H2 3664   1.580   1.789   2.221
 1220TIP3   OH2 3665   5.415   1.321   0.644
 1220TIP3    H1 3666   5.479   1.393   0.638
 1220TIP3    H2 3667   5.449   1.255   0.584
 1221TIP3   OH2 3668   5.442   4.661   2.818
 1221TIP3    H1 3669   5.422   4.710   2.898
 1221TIP3    H2 3670   5.508   4.715   2.774
 1222TIP3   OH2 3671   1.793   4.765   2.858
 1222TIP3    H1 3672   1.738   4.751   2.935
 1222TIP3    H2 3673   1.876   4.796   2.893
 1223TIP3   OH2 3674   1.401   1.287   4.142
 1223TIP3    H1 3675   1.361   1.213   4.096
 1223TIP3    H2 3676   1.437   1.250   4.222
 1224TIP3   OH2 3677   2.943   0.927   3.277
 1224TIP3    H1 3678   2.870   0.945   3.217
 1224TIP3    H2 3679   2.977   1.014   3.300
 1225TIP3   OH2 3680   1.099   0.364   2.535
 1225TIP3    H1 3681   1.164   0.367   2.606
 1225TIP3    H2 3682   1.048   0.444   2.546
 1226TIP3   OH2 3683   0.089   3.172   3.505
 1226TIP3    H1 3684   0.059   3.081   3.507
 1226TIP3    H2 3685   0.179   3.167   3.538
 1227TIP3   OH2 3686   4.645   5.453   0.545
 1227TIP3    H1 3687   4.620   5.545   0.541
 1227TIP3    H2 3688   4.658   5.428   0.453
 1228TIP3   OH2 3689   4.002   3.864   1.567
 1228TIP3    H1 3690   4.086   3.849   1.610
 1228TIP3    H2 3691   3.959   3.930   1.621
 1229TIP3   OH2 3692   0.135   1.353   2.720
 1229TIP3    H1 3693   0.214   1.406   2.714
 1229TIP3    H2 3694   0.120   1.321   2.632
 1230TIP3   OH2 3695   1.406   2.424   5.011
 1230TIP3    H1 3696   1.334   2.372   5.047
 1230TIP3    H2 3697   1.366   2.508   4.989
 1231TIP3   OH2 3698   5.543   1.710   4.257
 1231TIP3    H1 3699   5.515   1.660   4.334
 1231TIP3    H2 3700   5.601   1.778   4.293
 1232TIP3   OH2 3701   3.285   5.360   1.493
 1232TIP3    H1 3702   3.236   5.425   1.542
 1232TIP3    H2 3703   3.370   5.401   1.478
 1233TIP3   OH2 3704   4.412   1.076   0.747
 1233TIP3    H1 3705   4.506   1.058   0.741
 1233TIP3    H2 3706   4.371   1.008   0.692
 1234TIP3   OH2 3707   1.507   2.193   0.361
 1234TIP3    H1 3708   1.472   2.278   0.334
 1234TIP3    H2 3709   1.452   2.129   0.316
 1235TIP3   OH2 3710   6.109   3.121   0.162
 1235TIP3    H1 3711   6.183   3.137   0.220
 1235TIP3    H2 3712   6.146   3.072   0.088
 1236TIP3   OH2 3713   4.179   4.574   0.910
 1236TIP3    H1 3714   4.185   4.654   0.858
 1236TIP3    H2 3715   4.095   4.536   0.886
 1237TIP3   OH2 3716   3.044   5.126   2.968
 1237TIP3    H1 3717   3.047   5.085   3.055
 1237TIP3    H2 3718   3.098   5.204   2.977
 1238TIP3   OH2 3719   3.965   5.144   2.167
 1238TIP3    H1 3720   3.966   5.239   2.180
 1238TIP3    H2 3721   3.973   5.108   2.256
 1239TIP3   OH2 3722   2.624   1.594   4.234
 1239TIP3    H1 3723   2.561   1.541   4.283
 1239TIP3    H2 3724   2.696   1.534   4.216
 1240TIP3   OH2 3725   0.664   0.746   2.679
 1240TIP3    H1 3726   0.703   0.819   2.727
 1240TIP3    H2 3727   0.571   0.767   2.675
 1241TIP3   OH2 3728   1.530   1.525   1.642
 1241TIP3    H1 3729   1.435   1.523   1.627
 1241TIP3    H2 3730   1.553   1.433   1.655
 1242TIP3   OH2 3731   2.679   0.045   1.438
 1242TIP3    H1 3732   2.697  -0.033   1.386
 1242TIP3    H2 3733   2.622   0.099   1.384
 1243TIP3   OH2 3734   4.058   3.311   0.108
 1243TIP3    H1 3735   4.014   3.327   0.191
 1243TIP3    H2 3736   4.053   3.216   0.096
 1244TIP3   OH2 3737   1.690   2.880   3.735
 1244TIP3    H1 3738   1.651   2.904   3.651
 1244TIP3    H2 3739   1.717   2.789   3.723
 1245TIP3   OH2 3740   5.234   0.049   1.084
 1245TIP3    H1 3741   5.272   0.112   1.146
 1245TIP3    H2 3742   5.217   0.100   1.005
 1246TIP3   OH2 3743   5.557   1.959   3.172
 1246TIP3    H1 3744   5.561   1.864   3.156
 1246TIP3    H2 3745   5.507   1.967   3.254
 1247TIP3   OH2 3746   3.162   1.453   2.671
 1247TIP3    H1 3747   3.127   1.487   2.589
 1247TIP3    H2 3748   3.207   1.528   2.710
 1248TIP3   OH2 3749   2.867   3.799   2.814
 1248TIP3    H1 3750   2.809   3.817   2.889
 1248TIP3    H2 3751   2.955   3.799   2.852
 1249TIP3   OH2 3752   4.442   0.857   3.883
 1249TIP3    H1 3753   4.353   0.892   3.886
 1249TIP3    H2 3754   4.484   0.902   3.809
 1250TIP3   OH2 3755   4.402   0.296   4.555
 1250TIP3    H1 3756   4.353   0.255   4.627
 1250TIP3    H2 3757   4.364   0.383   4.546
 1251TIP3   OH2 3758   5.558   0.615   1.339
 1251TIP3    H1 3759   5.611   0.695   1.339
 1251TIP3    H2 3760   5.593   0.564   1.266
 1252TIP3   OH2 3761   4.976   0.816   2.941
 1252TIP3    H1 3762   4.957   0.780   3.027
 1252TIP3    H2 3763   5.070   0.829   2.940
 1253TIP3   OH2 3764   3.106   0.442   1.116
 1253TIP3    H1 3765   3.143   0.520   1.157
 1253TIP3    H2 3766   3.061   0.476   1.038
 1254TIP3   OH2 3767   0.317   1.427   1.257
 1254TIP3    H1 3768   0.383   1.386   1.313
 1254TIP3    H2 3769   0.237   1.424   1.309
 1255TIP3   OH2 3770   4.505   0.246   0.144
 1255TIP3    H1 3771   4.464   0.328   0.115
 1255TIP3    H2 3772   4.576   0.231   0.082
 1256TIP3   OH2 3773   6.145   5.888   1.325
 1256TIP3    H1 3774   6.094   5.856   1.399
 1256TIP3    H2 3775   6.089   5.954   1.284
 1257TIP3   OH2 3776   1.048   1.333   2.845
 1257TIP3    H1 3777   1.069   1.420   2.878
 1257TIP3    H2 3778   1.048   1.343   2.750
 1258TIP3   OH2 3779   2.206   3.836   3.935
 1258TIP3    H1 3780   2.177   3.795   4.016
 1258TIP3    H2 3781   2.293   3.800   3.919
 1259TIP3   OH2 3782   5.900   3.502   0.105
 1259TIP3    H1 3783   5.869   3.593   0.104
 1259TIP3    H2 3784   5.945   3.490   0.021
 1260TIP3   OH2 3785   5.784   1.445   0.876
 1260TIP3    H1 3786   5.752   1.407   0.958
 1260TIP3    H2 3787   5.860   1.391   0.853
 1261TIP3   OH2 3788   3.009   0.111   4.724
 1261TIP3    H1 3789   2.935   0.101   4.664
 1261TIP3    H2 3790   3.073   0.162   4.676
 1262TIP3   OH2 3791   3.145   0.200   0.982
 1262TIP3    H1 3792   3.156   0.281   1.031
 1262TIP3    H2 3793   3.234   0.166   0.971
 1263TIP3   OH2 3794   0.462   0.675   5.226
 1263TIP3    H1 3795   0.370   0.676   5.198
 1263TIP3    H2 3796   0.510   0.712   5.152
 1264TIP3   OH2 3797   3.866   2.439   1.290
 1264TIP3    H1 3798   3.860   2.466   1.199
 1264TIP3    H2 3799   3.794   2.485   1.334
 1265TIP3   OH2 3800   2.490   1.857   1.470
 1265TIP3    H1 3801   2.463   1.921   1.536
 1265TIP3    H2 3802   2.455   1.774   1.501
 1266TIP3   OH2 3803   0.659   5.521   0.619
 1266TIP3    H1 3804   0.653   5.597   0.677
 1266TIP3    H2 3805   0.575   5.477   0.628
 1267TIP3   OH2 3806   3.880   0.637   1.163
 1267TIP3    H1 3807   3.905   0.685   1.241
 1267TIP3    H2 3808   3.860   0.705   1.098
 1268TIP3   OH2 3809   5.643   0.875   3.650
 1268TIP3    H1 3810   5.721   0.911   3.608
 1268TIP3    H2 3811   5.669   0.861   3.741
 1269TIP3   OH2 3812   5.267   1.108   0.195
 1269TIP3    H1 3813   5.283   1.074   0.107
 1269TIP3    H2 3814   5.192   1.059   0.227
 1270TIP3   OH2 3815   0.709   4.626   3.440
 1270TIP3    H1 3816   0.642   4.592   3.381
 1270TIP3    H2 3817   0.763   4.683   3.385
 1271TIP3   OH2 3818   3.681   1.791   2.663
 1271TIP3    H1 3819   3.594   1.751   2.666
 1271TIP3    H2 3820   3.699   1.803   2.569
 1272TIP3   OH2 3821   0.047   3.151   2.601
 1272TIP3    H1 3822   0.048   3.208   2.524
 1272TIP3    H2 3823   0.139   3.138   2.623
 1273TIP3   OH2 3824   0.952   5.216   1.798
 1273TIP3    H1 3825   1.035   5.252   1.768
 1273TIP3    H2 3826   0.904   5.292   1.833
 1274TIP3   OH2 3827   0.405   0.465   3.568
 1274TIP3    H1 3828   0.433   0.379   3.538
 1274TIP3    H2 3829   0.347   0.497   3.499
 1275TIP3   OH2 3830   3.190   1.753   0.759
 1275TIP3    H1 3831   3.193   1.745   0.664
 1275TIP3    H2 3832   3.268   1.803   0.782
 1276TIP3   OH2 3833   3.905   2.690   0.214
 1276TIP3    H1 3834   3.960   2.761   0.244
 1276TIP3    H2 3835   3.821   2.731   0.193
 1277TIP3   OH2 3836   0.195   4.053   2.237
 1277TIP3    H1 3837   0.142   4.117   2.189
 1277TIP3    H2 3838   0.285   4.077   2.216
 1278TIP3   OH2 3839   4.552   1.418   0.636
 1278TIP3    H1 3840   4.477   1.475   0.619
 1278TIP3    H2 3841   4.545   1.350   0.569
 1279TIP3   OH2 3842   2.431   0.530   4.072
 1279TIP3    H1 3843   2.517   0.513   4.033
 1279TIP3    H2 3844   2.451   0.574   4.155
 1280TIP3   OH2 3845   0.356   1.519   0.197
 1280TIP3    H1 3846   0.325   1.432   0.171
 1280TIP3    H2 3847   0.280   1.560   0.239
 1281TIP3   OH2 3848   4.747   0.630   4.148
 1281TIP3    H1 3849   4.828   0.585   4.168
 1281TIP3    H2 3850   4.685   0.559   4.127
 1282TIP3   OH2 3851   4.955   2.755   1.135
 1282TIP3    H1 3852   4.865   2.741   1.164
 1282TIP3    H2 3853   5.009   2.736   1.212
 1283TIP3   OH2 3854   5.471   0.050   3.013
 1283TIP3    H1 3855   5.415   0.099   2.953
 1283TIP3    H2 3856   5.512   0.118   3.068
 1284TIP3   OH2 3857   1.246   2.029   0.994
 1284TIP3    H1 3858   1.235   2.122   0.976
 1284TIP3    H2 3859   1.217   2.018   1.084
 1285TIP3   OH2 3860   3.560   0.695   2.597
 1285TIP3    H1 3861   3.651   0.706   2.621
 1285TIP3    H2 3862   3.561   0.636   2.522
 1286TIP3   OH2 3863   5.688   1.765   3.989
 1286TIP3    H1 3864   5.665   1.775   4.081
 1286TIP3    H2 3865   5.629   1.825   3.943
 1287TIP3   OH2 3866   3.319   0.778   4.133
 1287TIP3    H1 3867   3.346   0.753   4.221
 1287TIP3    H2 3868   3.241   0.725   4.116
 1288TIP3   OH2 3869   5.359   1.400   4.373
 1288TIP3    H1 3870   5.367   1.495   4.367
 1288TIP3    H2 3871   5.273   1.381   4.334
 1289TIP3   OH2 3872   1.152   4.320   5.087
 1289TIP3    H1 3873   1.141   4.413   5.104
 1289TIP3    H2 3874   1.074   4.296   5.036
 1290TIP3   OH2 3875   2.547   2.518   1.636
 1290TIP3    H1 3876   2.502   2.455   1.693
 1290TIP3    H2 3877   2.497   2.515   1.555
 1291TIP3   OH2 3878   5.511   5.741   1.454
 1291TIP3    H1 3879   5.568   5.773   1.524
 1291TIP3    H2 3880   5.426   5.726   1.496
 1292TIP3   OH2 3881   6.247   2.750   2.796
 1292TIP3    H1 3882   6.235   2.819   2.730
 1292TIP3    H2 3883   6.194   2.677   2.764
 1293TIP3   OH2 3884   4.378   2.915   2.676
 1293TIP3    H1 3885   4.350   2.914   2.767
 1293TIP3    H2 3886   4.300   2.888   2.626
 1294TIP3   OH2 3887   3.918   0.547   3.060
 1294TIP3    H1 3888   3.938   0.549   2.966
 1294TIP3    H2 3889   3.986   0.491   3.098
 1295TIP3   OH2 3890   2.075   5.574   3.662
 1295TIP3    H1 3891   2.142   5.508   3.680
 1295TIP3    H2 3892   2.054   5.562   3.570
 1296TIP3   OH2 3893   0.110   1.751   3.400
 1296TIP3    H1 3894   0.089   1.708   3.317
 1296TIP3    H2 3895   0.156   1.683   3.450
 1297TIP3   OH2 3896   5.498   2.699   2.923
 1297TIP3    H1 3897   5.486   2.661   2.836
 1297TIP3    H2 3898   5.436   2.771   2.926
 1298TIP3   OH2 3899   5.398   0.161   2.330
 1298TIP3    H1 3900   5.353   0.231   2.282
 1298TIP3    H2 3901   5.416   0.095   2.264
 1299TIP3   OH2 3902   5.438   3.121   0.131
 1299TIP3    H1 3903   5.531   3.109   0.112
 1299TIP3    H2 3904   5.414   3.201   0.083
 1300TIP3   OH2 3905   6.071   5.426   1.886
 1300TIP3    H1 3906   6.124   5.416   1.965
 1300TIP3    H2 3907   6.097   5.511   1.851
 1301TIP3   OH2 3908   1.573   2.995   1.477
 1301TIP3    H1 3909   1.573   2.949   1.561
 1301TIP3    H2 3910   1.481   3.016   1.461
 1302TIP3   OH2 3911   4.085   2.893   0.238
 1302TIP3    H1 3912   4.022   2.921   0.172
 1302TIP3    H2 3913   4.163   2.947   0.221
 1303TIP3   OH2 3914   3.942   5.502   1.255
 1303TIP3    H1 3915   3.949   5.409   1.235
 1303TIP3    H2 3916   3.880   5.537   1.190
 1304TIP3   OH2 3917   4.069   0.088   2.367
 1304TIP3    H1 3918   4.117   0.158   2.324
 1304TIP3    H2 3919   3.999   0.132   2.415
 1305TIP3   OH2 3920   0.250   1.272   0.990
 1305TIP3    H1 3921   0.282   1.238   0.906
 1305TIP3    H2 3922   0.277   1.364   0.991
 1306TIP3   OH2 3923   3.449   5.700   1.594
 1306TIP3    H1 3924   3.380   5.722   1.531
 1306TIP3    H2 3925   3.526   5.682   1.540
 1307TIP3   OH2 3926   0.571   3.148   3.363
 1307TIP3    H1 3927   0.477   3.160   3.377
 1307TIP3    H2 3928   0.578   3.107   3.277
 1308TIP3   OH2 3929   1.903   2.916   4.825
 1308TIP3    H1 3930   1.846   2.975   4.775
 1308TIP3    H2 3931   1.861   2.830   4.816
 1309TIP3   OH2 3932   4.863   5.447   0.110
 1309TIP3    H1 3933   4.899   5.403   0.033
 1309TIP3    H2 3934   4.921   5.522   0.123
 1310TIP3   OH2 3935   4.071   0.955   1.217
 1310TIP3    H1 3936   4.151   0.945   1.165
 1310TIP3    H2 3937   4.037   1.041   1.193
 1311TIP3   OH2 3938   2.799   4.624   2.056
 1311TIP3    H1 3939   2.778   4.531   2.064
 1311TIP3    H2 3940   2.737   4.657   1.990
 1312TIP3   OH2 3941   2.993   2.291   4.097
 1312TIP3    H1 3942   3.024   2.321   4.182
 1312TIP3    H2 3943   2.964   2.370   4.052
 1313TIP3   OH2 3944   3.712   0.009   0.361
 1313TIP3    H1 3945   3.805  -0.012   0.347
 1313TIP3    H2 3946   3.711   0.061   0.441
 1314TIP3   OH2 3947   4.536   2.109   3.209
 1314TIP3    H1 3948   4.574   2.039   3.157
 1314TIP3    H2 3949   4.603   2.130   3.275
 1315TIP3   OH2 3950   5.895   2.812   2.211
 1315TIP3    H1 3951   5.969   2.787   2.266
 1315TIP3    H2 3952   5.914   2.772   2.126
 1316TIP3   OH2 3953   0.553   1.324   1.370
 1316TIP3    H1 3954   0.599   1.249   1.409
 1316TIP3    H2 3955   0.621   1.391   1.364
 1317TIP3   OH2 3956   6.028   2.854   1.117
 1317TIP3    H1 3957   5.944   2.835   1.160
 1317TIP3    H2 3958   6.088   2.871   1.189
 1318TIP3   OH2 3959   6.036   1.483   3.083
 1318TIP3    H1 3960   5.956   1.506   3.131
 1318TIP3    H2 3961   6.005   1.433   3.007
 1319TIP3   OH2 3962   0.079   3.527   2.624
 1319TIP3    H1 3963  -0.002   3.570   2.595
 1319TIP3    H2 3964   0.048   3.457   2.682
 1320TIP3   OH2 3965   0.130   0.349   4.672
 1320TIP3    H1 3966   0.160   0.274   4.725
 1320TIP3    H2 3967   0.115   0.313   4.585
 1321TIP3   OH2 3968   0.618   2.172   1.297
 1321TIP3    H1 3969   0.525   2.163   1.280
 1321TIP3    H2 3970   0.655   2.207   1.216
 1322TIP3   OH2 3971   5.898   4.035   3.746
 1322TIP3    H1 3972   5.966   4.014   3.810
 1322TIP3    H2 3973   5.816   4.011   3.789
 1323TIP3   OH2 3974   5.889   2.212   1.562
 1323TIP3    H1 3975   5.855   2.145   1.620
 1323TIP3    H2 3976   5.955   2.168   1.510
 1324TIP3   OH2 3977   1.044   5.474   4.104
 1324TIP3    H1 3978   0.962   5.524   4.099
 1324TIP3    H2 3979   1.058   5.461   4.198
 1325TIP3   OH2 3980   1.083   2.003   4.146
 1325TIP3    H1 3981   1.091   2.098   4.140
 1325TIP3    H2 3982   0.995   1.985   4.112
 1326TIP3   OH2 3983   1.404   4.560   3.281
 1326TIP3    H1 3984   1.402   4.492   3.214
 1326TIP3    H2 3985   1.496   4.562   3.310
 1327TIP3   OH2 3986   6.051   2.680   4.537
 1327TIP3    H1 3987   6.016   2.691   4.626
 1327TIP3    H2 3988   6.145   2.695   4.547
 1328TIP3   OH2 3989   4.350   1.038   4.184
 1328TIP3    H1 3990   4.400   1.078   4.113
 1328TIP3    H2 3991   4.265   1.082   4.181
 1329TIP3   OH2 3992   4.528   5.008   2.927
 1329TIP3    H1 3993   4.569   5.009   2.841
 1329TIP3    H2 3994   4.573   4.939   2.975
 1330TIP3   OH2 3995   3.840   4.510   4.583
 1330TIP3    H1 3996   3.755   4.496   4.541
 1330TIP3    H2 3997   3.895   4.439   4.550
 1331TIP3   OH2 3998   1.781   4.338   1.413
 1331TIP3    H1 3999   1.754   4.248   1.432
 1331TIP3    H2 4000   1.701   4.381   1.382
 1332TIP3   OH2 4001   5.176   5.975   3.185
 1332TIP3    H1 4002   5.212   5.974   3.096
 1332TIP3    H2 4003   5.251   5.961   3.242
 1333TIP3   OH2 4004   4.982   0.146   2.978
 1333TIP3    H1 4005   5.013   0.193   2.901
 1333TIP3    H2 4006   4.904   0.193   3.006
 1334TIP3   OH2 4007   5.435   4.531   3.527
 1334TIP3    H1 4008   5.375   4.581   3.472
 1334TIP3    H2 4009   5.438   4.444   3.487
 1335TIP3   OH2 4010   0.197   3.952   1.463
 1335TIP3    H1 4011   0.197   4.044   1.489
 1335TIP3    H2 4012   0.177   3.904   1.543
 1336TIP3   OH2 4013   1.209   5.160   0.750
 1336TIP3    H1 4014   1.156   5.204   0.817
 1336TIP3    H2 4015   1.157   5.169   0.670
 1337TIP3   OH2 4016   0.023   5.373   1.344
 1337TIP3    H1 4017  -0.064   5.365   1.383
 1337TIP3    H2 4018   0.056   5.457   1.377
 1338TIP3   OH2 4019   5.979   2.134   1.874
 1338TIP3    H1 4020   6.023   2.062   1.828
 1338TIP3    H2 4021   5.887   2.126   1.849
 1339TIP3   OH2 4022   2.742   4.081  -0.029
 1339TIP3    H1 4023   2.765   4.083   0.064
 1339TIP3    H2 4024   2.734   4.173  -0.054
 1340TIP3   OH2 4025   3.893   0.768   4.216
 1340TIP3    H1 4026   3.809   0.740   4.181
 1340TIP3    H2 4027   3.930   0.689   4.255
 1341TIP3   OH2 4028   2.979   1.321   0.901
 1341TIP3    H1 4029   2.921   1.376   0.954
 1341TIP3    H2 4030   3.057   1.376   0.886
 1342TIP3   OH2 4031   2.498   2.539   2.559
 1342TIP3    H1 4032   2.510   2.564   2.651
 1342TIP3    H2 4033   2.474   2.446   2.562
 1343TIP3   OH2 4034   0.851   0.618   3.989
 1343TIP3    H1 4035   0.870   0.712   3.993
 1343TIP3    H2 4036   0.774   0.607   4.045
 1344TIP3   OH2 4037   5.959   0.607   1.228
 1344TIP3    H1 4038   5.919   0.652   1.303
 1344TIP3    H2 4039   5.889   0.552   1.193
 1345TIP3   OH2 4040   0.042   0.533   0.033
 1345TIP3    H1 4041   0.082   0.591   0.098
 1345TIP3    H2 4042   0.110   0.469   0.013
 1346TIP3   OH2 4043   1.616   1.312   1.909
 1346TIP3    H1 4044   1.545   1.375   1.923
 1346TIP3    H2 4045   1.666   1.314   1.991
 1347TIP3   OH2 4046   0.917   4.888   1.422
 1347TIP3    H1 4047   0.997   4.913   1.468
 1347TIP3    H2 4048   0.885   4.811   1.470
 1348TIP3   OH2 4049   4.689   0.503   4.824
 1348TIP3    H1 4050   4.757   0.436   4.837
 1348TIP3    H2 4051   4.683   0.512   4.729
 1349TIP3   OH2 4052   4.155   1.085   4.907
 1349TIP3    H1 4053   4.221   1.122   4.848
 1349TIP3    H2 4054   4.205   1.054   4.982
 1350TIP3   OH2 4055   5.127   3.359   3.863
 1350TIP3    H1 4056   5.065   3.431   3.852
 1350TIP3    H2 4057   5.208   3.391   3.824
 1351TIP3   OH2 4058   0.904   1.122   2.319
 1351TIP3    H1 4059   0.891   1.028   2.332
 1351TIP3    H2 4060   0.928   1.130   2.227
 1352TIP3   OH2 4061   1.379   0.639   1.603
 1352TIP3    H1 4062   1.365   0.693   1.680
 1352TIP3    H2 4063   1.297   0.644   1.554
 1353TIP3   OH2 4064   1.378   4.446   0.307
 1353TIP3    H1 4065   1.456   4.497   0.329
 1353TIP3    H2 4066   1.404   4.395   0.230
 1354TIP3   OH2 4067   3.555   3.057   0.897
 1354TIP3    H1 4068   3.625   3.100   0.846
 1354TIP3    H2 4069   3.474   3.084   0.853
 1355TIP3   OH2 4070   2.027   0.371   2.838
 1355TIP3    H1 4071   2.054   0.422   2.915
 1355TIP3    H2 4072   1.947   0.327   2.866
 1356TIP3   OH2 4073   1.281   4.373   3.528
 1356TIP3    H1 4074   1.218   4.396   3.460
 1356TIP3    H2 4075   1.366   4.398   3.492
 1357TIP3   OH2 4076   4.032   2.174   3.794
 1357TIP3    H1 4077   4.035   2.090   3.748
 1357TIP3    H2 4078   3.943   2.206   3.780
 1358TIP3   OH2 4079   0.354   0.121   0.147
 1358TIP3    H1 4080   0.281   0.126   0.208
 1358TIP3    H2 4081   0.417   0.185   0.179
 1359TIP3   OH2 4082   3.087   5.739   3.826
 1359TIP3    H1 4083   3.079   5.781   3.740
 1359TIP3    H2 4084   2.997   5.728   3.855
 1360TIP3   OH2 4085   3.021   5.443   3.355
 1360TIP3    H1 4086   2.988   5.357   3.381
 1360TIP3    H2 4087   2.955   5.476   3.293
 1361TIP3   OH2 4088   1.898   5.646   2.559
 1361TIP3    H1 4089   1.956   5.572   2.544
 1361TIP3    H2 4090   1.925   5.711   2.495
 1362TIP3   OH2 4091   0.579   4.118   3.988
 1362TIP3    H1 4092   0.586   4.182   3.917
 1362TIP3    H2 4093   0.670   4.103   4.015
 1363TIP3   OH2 4094   4.669   3.851   4.834
 1363TIP3    H1 4095   4.669   3.921   4.769
 1363TIP3    H2 4096   4.699   3.773   4.787
 1364TIP3   OH2 4097   3.185   2.955   1.406
 1364TIP3    H1 4098   3.165   2.878   1.459
 1364TIP3    H2 4099   3.107   3.010   1.413
 1365TIP3   OH2 4100   4.427   2.155   3.549
 1365TIP3    H1 4101   4.413   2.199   3.633
 1365TIP3    H2 4102   4.341   2.157   3.507
 1366TIP3   OH2 4103   1.636   1.042   2.611
 1366TIP3    H1 4104   1.728   1.030   2.587
 1366TIP3    H2 4105   1.588   0.991   2.546
 1367TIP3   OH2 4106   5.251   3.667   2.052
 1367TIP3    H1 4107   5.266   3.741   2.111
 1367TIP3    H2 4108   5.220   3.597   2.109
 1368TIP3   OH2 4109   3.833   3.720   0.589
 1368TIP3    H1 4110   3.908   3.755   0.638
 1368TIP3    H2 4111   3.836   3.766   0.505
 1369TIP3   OH2 4112   5.491   5.262   3.617
 1369TIP3    H1 4113   5.490   5.309   3.700
 1369TIP3    H2 4114   5.570   5.295   3.573
 1370TIP3   OH2 4115   4.258   2.801   0.589
 1370TIP3    H1 4116   4.235   2.739   0.520
 1370TIP3    H2 4117   4.201   2.780   0.662
 1371TIP3   OH2 4118   0.400   4.209   4.830
 1371TIP3    H1 4119   0.371   4.161   4.908
 1371TIP3    H2 4120   0.354   4.167   4.758
 1372TIP3   OH2 4121   5.460   1.052   2.854
 1372TIP3    H1 4122   5.536   1.090   2.897
 1372TIP3    H2 4123   5.497   0.991   2.789
 1373TIP3   OH2 4124   5.396   5.262   1.355
 1373TIP3    H1 4125   5.459   5.198   1.322
 1373TIP3    H2 4126   5.312   5.230   1.324
 1374TIP3   OH2 4127   2.456   2.051   0.453
 1374TIP3    H1 4128   2.361   2.057   0.460
 1374TIP3    H2 4129   2.481   1.993   0.525
 1375TIP3   OH2 4130   1.130   2.717   3.838
 1375TIP3    H1 4131   1.149   2.786   3.775
 1375TIP3    H2 4132   1.071   2.757   3.901
 1376TIP3   OH2 4133   0.389   5.199   3.577
 1376TIP3    H1 4134   0.318   5.213   3.514
 1376TIP3    H2 4135   0.467   5.232   3.534
 1377TIP3   OH2 4136   5.710   4.776   5.138
 1377TIP3    H1 4137   5.642   4.711   5.118
 1377TIP3    H2 4138   5.769   4.773   5.063
 1378TIP3   OH2 4139   1.885   0.756   1.469
 1378TIP3    H1 4140   1.951   0.752   1.400
 1378TIP3    H2 4141   1.840   0.839   1.454
 1379TIP3   OH2 4142   5.920   4.605   4.735
 1379TIP3    H1 4143   5.910   4.676   4.798
 1379TIP3    H2 4144   6.014   4.598   4.720
 1380TIP3   OH2 4145   0.444   4.629   2.404
 1380TIP3    H1 4146   0.424   4.667   2.489
 1380TIP3    H2 4147   0.360   4.605   2.367
 1381TIP3   OH2 4148   5.398   3.044   4.934
 1381TIP3    H1 4149   5.446   2.997   4.867
 1381TIP3    H2 4150   5.462   3.104   4.973
 1382TIP3   OH2 4151   2.976   3.472   2.714
 1382TIP3    H1 4152   3.044   3.536   2.691
 1382TIP3    H2 4153   2.907   3.523   2.756
 1383TIP3   OH2 4154   4.524   3.322   4.641
 1383TIP3    H1 4155   4.455   3.348   4.701
 1383TIP3    H2 4156   4.539   3.229   4.661
 1384TIP3   OH2 4157   5.820   1.583   2.210
 1384TIP3    H1 4158   5.889   1.626   2.260
 1384TIP3    H2 4159   5.855   1.576   2.122
 1385TIP3   OH2 4160   1.805   4.654   1.460
 1385TIP3    H1 4161   1.803   4.738   1.415
 1385TIP3    H2 4162   1.821   4.590   1.390
 1386TIP3   OH2 4163   5.983   3.408   2.989
 1386TIP3    H1 4164   6.006   3.452   3.071
 1386TIP3    H2 4165   6.034   3.327   2.990
 1387TIP3   OH2 4166   1.664   3.045   3.009
 1387TIP3    H1 4167   1.597   3.108   3.036
 1387TIP3    H2 4168   1.659   2.975   3.074
 1388TIP3   OH2 4169   4.347   5.274   2.383
 1388TIP3    H1 4170   4.258   5.299   2.359
 1388TIP3    H2 4171   4.393   5.357   2.397
 1389TIP3   OH2 4172   3.331   5.864   2.142
 1389TIP3    H1 4173   3.305   5.827   2.226
 1389TIP3    H2 4174   3.250   5.899   2.105
 1390TIP3   OH2 4175   0.438   3.207   5.094
 1390TIP3    H1 4176   0.378   3.273   5.058
 1390TIP3    H2 4177   0.402   3.123   5.065
 1391TIP3   OH2 4178   0.206   2.112   0.670
 1391TIP3    H1 4179   0.182   2.106   0.762
 1391TIP3    H2 4180   0.123   2.126   0.624
 1392TIP3   OH2 4181   5.684   4.807   4.652
 1392TIP3    H1 4182   5.604   4.854   4.627
 1392TIP3    H2 4183   5.678   4.799   4.748
 1393TIP3   OH2 4184   5.213   0.459   4.069
 1393TIP3    H1 4185   5.228   0.551   4.048
 1393TIP3    H2 4186   5.214   0.455   4.164
 1394TIP3   OH2 4187   2.186   4.494   3.386
 1394TIP3    H1 4188   2.136   4.415   3.409
 1394TIP3    H2 4189   2.164   4.510   3.295
 1395TIP3   OH2 4190   3.907   2.626   4.239
 1395TIP3    H1 4191   3.952   2.654   4.159
 1395TIP3    H2 4192   3.815   2.619   4.213
 1396TIP3   OH2 4193   1.670   4.598   3.375
 1396TIP3    H1 4194   1.711   4.557   3.451
 1396TIP3    H2 4195   1.735   4.662   3.345
 1397TIP3   OH2 4196   4.100   1.291   0.478
 1397TIP3    H1 4197   4.039   1.227   0.441
 1397TIP3    H2 4198   4.185   1.248   0.477
 1398TIP3   OH2 4199   4.832   3.781   3.338
 1398TIP3    H1 4200   4.817   3.706   3.280
 1398TIP3    H2 4201   4.867   3.849   3.281
 1399TIP3   OH2 4202   5.472   3.161   2.909
 1399TIP3    H1 4203   5.422   3.237   2.939
 1399TIP3    H2 4204   5.556   3.169   2.954
 1400TIP3   OH2 4205   5.123   1.080   4.552
 1400TIP3    H1 4206   5.112   1.050   4.642
 1400TIP3    H2 4207   5.085   1.011   4.498
 1401TIP3   OH2 4208   5.269   2.699   0.926
 1401TIP3    H1 4209   5.317   2.617   0.927
 1401TIP3    H2 4210   5.190   2.682   0.977
 1402TIP3   OH2 4211   3.429   2.689   1.347
 1402TIP3    H1 4212   3.463   2.778   1.335
 1402TIP3    H2 4213   3.386   2.692   1.433
 1403TIP3   OH2 4214   3.017   5.546   1.408
 1403TIP3    H1 4215   3.097   5.597   1.413
 1403TIP3    H2 4216   2.972   5.578   1.330
 1404TIP3   OH2 4217   0.455   3.440   4.140
 1404TIP3    H1 4218   0.380   3.412   4.086
 1404TIP3    H2 4219   0.423   3.517   4.186
 1405TIP3   OH2 4220   1.743   4.618   0.129
 1405TIP3    H1 4221   1.725   4.542   0.074
 1405TIP3    H2 4222   1.702   4.597   0.213
 1406TIP3   OH2 4223   5.192   5.526   0.878
 1406TIP3    H1 4224   5.273   5.520   0.827
 1406TIP3    H2 4225   5.140   5.593   0.834
 1407TIP3   OH2 4226   1.420   5.888   4.306
 1407TIP3    H1 4227   1.445   5.970   4.263
 1407TIP3    H2 4228   1.364   5.916   4.379
 1408TIP3   OH2 4229   3.297   1.276   1.950
 1408TIP3    H1 4230   3.293   1.212   2.021
 1408TIP3    H2 4231   3.345   1.233   1.880
 1409TIP3   OH2 4232   2.391   5.092   0.922
 1409TIP3    H1 4233   2.360   5.141   0.998
 1409TIP3    H2 4234   2.474   5.134   0.899
 1410TIP3   OH2 4235   5.224   1.187   3.939
 1410TIP3    H1 4236   5.313   1.222   3.936
 1410TIP3    H2 4237   5.217   1.147   4.025
 1411TIP3   OH2 4238   6.244   5.592   1.522
 1411TIP3    H1 4239   6.317   5.653   1.532
 1411TIP3    H2 4240   6.166   5.645   1.539
 1412TIP3   OH2 4241   1.330   1.519   4.416
 1412TIP3    H1 4242   1.269   1.592   4.402
 1412TIP3    H2 4243   1.362   1.498   4.329
 1413TIP3   OH2 4244   0.694   1.177   4.077
 1413TIP3    H1 4245   0.737   1.241   4.020
 1413TIP3    H2 4246   0.682   1.223   4.160
 1414TIP3   OH2 4247   5.822   0.143   3.317
 1414TIP3    H1 4248   5.775   0.060   3.327
 1414TIP3    H2 4249   5.896   0.122   3.260
 1415TIP3   OH2 4250   3.382   5.427   1.794
 1415TIP3    H1 4251   3.307   5.468   1.751
 1415TIP3    H2 4252   3.446   5.497   1.803
 1416TIP3   OH2 4253   0.628   2.510   4.557
 1416TIP3    H1 4254   0.548   2.518   4.610
 1416TIP3    H2 4255   0.603   2.450   4.486
 1417TIP3   OH2 4256   4.940   5.770   2.952
 1417TIP3    H1 4257   4.985   5.731   3.027
 1417TIP3    H2 4258   4.998   5.753   2.877
 1418TIP3   OH2 4259   5.872   3.734   4.551
 1418TIP3    H1 4260   5.873   3.698   4.640
 1418TIP3    H2 4261   5.909   3.665   4.497
 1419TIP3   OH2 4262   4.504   0.498   0.827
 1419TIP3    H1 4263   4.483   0.411   0.794
 1419TIP3    H2 4264   4.593   0.490   0.861
 1420TIP3   OH2 4265   3.459   4.013   3.694
 1420TIP3    H1 4266   3.549   4.044   3.703
 1420TIP3    H2 4267   3.466   3.918   3.698
 1421TIP3   OH2 4268   3.345   3.613   2.153
 1421TIP3    H1 4269   3.391   3.553   2.095
 1421TIP3    H2 4270   3.275   3.649   2.099
 1422TIP3   OH2 4271   1.773   2.803   2.890
 1422TIP3    H1 4272   1.755   2.840   2.976
 1422TIP3    H2 4273   1.702   2.836   2.835
 1423TIP3   OH2 4274   1.755   5.812   4.191
 1423TIP3    H1 4275   1.665   5.811   4.159
 1423TIP3    H2 4276   1.781   5.720   4.194
 1424TIP3   OH2 4277   5.475   0.987   3.320
 1424TIP3    H1 4278   5.565   0.959   3.304
 1424TIP3    H2 4279   5.475   1.020   3.409
 1425TIP3   OH2 4280   4.423   0.044   2.752
 1425TIP3    H1 4281   4.434   0.072   2.661
 1425TIP3    H2 4282   4.367  -0.033   2.748
 1426TIP3   OH2 4283   4.251   1.992   1.719
 1426TIP3    H1 4284   4.253   2.020   1.627
 1426TIP3    H2 4285   4.241   1.897   1.715
 1427TIP3   OH2 4286   4.955   3.219   1.514
 1427TIP3    H1 4287   4.971   3.180   1.599
 1427TIP3    H2 4288   4.992   3.157   1.451
 1428TIP3   OH2 4289   0.608   0.413   3.011
 1428TIP3    H1 4290   0.620   0.320   3.030
 1428TIP3    H2 4291   0.639   0.423   2.921
 1429TIP3   OH2 4292   2.269   1.813   4.691
 1429TIP3    H1 4293   2.214   1.756   4.637
 1429TIP3    H2 4294   2.342   1.757   4.718
 1430TIP3   OH2 4295   5.114   1.981   3.984
 1430TIP3    H1 4296   5.154   1.910   4.035
 1430TIP3    H2 4297   5.109   1.947   3.895
 1431TIP3   OH2 4298   5.073   5.863   4.541
 1431TIP3    H1 4299   5.135   5.881   4.470
 1431TIP3    H2 4300   4.987   5.868   4.500
 1432TIP3   OH2 4301   0.524   0.949   4.764
 1432TIP3    H1 4302   0.456   0.945   4.697
 1432TIP3    H2 4303   0.600   0.987   4.719
 1433TIP3   OH2 4304   5.187   4.017   1.885
 1433TIP3    H1 4305   5.267   3.973   1.916
 1433TIP3    H2 4306   5.187   4.101   1.932
 1434TIP3   OH2 4307   4.067   3.660   1.043
 1434TIP3    H1 4308   4.045   3.615   1.125
 1434TIP3    H2 4309   4.005   3.732   1.038
 1435TIP3   OH2 4310   1.372   4.886   2.271
 1435TIP3    H1 4311   1.400   4.977   2.258
 1435TIP3    H2 4312   1.345   4.882   2.363
 1436TIP3   OH2 4313   0.829   0.725   0.024
 1436TIP3    H1 4314   0.846   0.752   0.114
 1436TIP3    H2 4315   0.737   0.750   0.009
 1437TIP3   OH2 4316   4.768   3.168   4.879
 1437TIP3    H1 4317   4.707   3.114   4.828
 1437TIP3    H2 4318   4.819   3.214   4.813
 1438TIP3   OH2 4319   6.065   4.047   1.007
 1438TIP3    H1 4320   6.025   4.005   1.083
 1438TIP3    H2 4321   6.139   4.096   1.043
 1439TIP3   OH2 4322   5.358   4.144   3.219
 1439TIP3    H1 4323   5.364   4.198   3.297
 1439TIP3    H2 4324   5.438   4.162   3.170
 1440TIP3   OH2 4325   1.215   0.768   3.329
 1440TIP3    H1 4326   1.163   0.827   3.275
 1440TIP3    H2 4327   1.301   0.765   3.287
 1441TIP3   OH2 4328   3.630   3.728   4.945
 1441TIP3    H1 4329   3.627   3.696   4.855
 1441TIP3    H2 4330   3.698   3.795   4.945
 1442TIP3   OH2 4331   2.726   4.351   3.882
 1442TIP3    H1 4332   2.763   4.289   3.818
 1442TIP3    H2 4333   2.792   4.418   3.892
 1443TIP3   OH2 4334   5.554   5.723   2.362
 1443TIP3    H1 4335   5.614   5.778   2.312
 1443TIP3    H2 4336   5.483   5.702   2.301
 1444TIP3   OH2 4337   2.174   3.439   3.944
 1444TIP3    H1 4338   2.093   3.486   3.962
 1444TIP3    H2 4339   2.223   3.446   4.026
 1445TIP3   OH2 4340   5.147   4.652   0.968
 1445TIP3    H1 4341   5.065   4.609   0.942
 1445TIP3    H2 4342   5.176   4.696   0.888
 1446TIP3   OH2 4343   2.883   5.117   1.928
 1446TIP3    H1 4344   2.895   5.056   1.856
 1446TIP3    H2 4345   2.921   5.073   2.004
 1447TIP3   OH2 4346   5.628   4.658   0.804
 1447TIP3    H1 4347   5.553   4.613   0.843
 1447TIP3    H2 4348   5.629   4.743   0.848
 1448TIP3   OH2 4349   5.789   5.928   3.858
 1448TIP3    H1 4350   5.774   5.945   3.951
 1448TIP3    H2 4351   5.708   5.955   3.815
 1449TIP3   OH2 4352   1.232   5.600   3.472
 1449TIP3    H1 4353   1.193   5.571   3.390
 1449TIP3    H2 4354   1.173   5.669   3.504
 1450TIP3   OH2 4355   3.576   3.945   4.280
 1450TIP3    H1 4356   3.578   3.850   4.286
 1450TIP3    H2 4357   3.587   3.964   4.187
 1451TIP3   OH2 4358   0.371   1.479   3.372
 1451TIP3    H1 4359   0.281   1.466   3.402
 1451TIP3    H2 4360   0.394   1.395   3.333
 1452TIP3   OH2 4361   2.529   1.426   4.990
 1452TIP3    H1 4362   2.519   1.373   4.911
 1452TIP3    H2 4363   2.440   1.441   5.020
 1453TIP3   OH2 4364   4.285   2.976   3.372
 1453TIP3    H1 4365   4.341   2.912   3.417
 1453TIP3    H2 4366   4.262   2.934   3.289
 1454TIP3   OH2 4367   6.212   2.287   2.978
 1454TIP3    H1 4368   6.119   2.295   2.998
 1454TIP3    H2 4369   6.254   2.356   3.030
 1455TIP3   OH2 4370   0.713   2.086   3.673
 1455TIP3    H1 4371   0.686   2.016   3.613
 1455TIP3    H2 4372   0.642   2.091   3.738
 1456TIP3   OH2 4373   6.219   5.551   2.417
 1456TIP3    H1 4374   6.200   5.462   2.389
 1456TIP3    H2 4375   6.198   5.553   2.510
 1457TIP3   OH2 4376   5.231   5.156   3.396
 1457TIP3    H1 4377   5.262   5.100   3.325
 1457TIP3    H2 4378   5.198   5.094   3.462
 1458TIP3   OH2 4379   4.204   4.788   0.747
 1458TIP3    H1 4380   4.137   4.771   0.680
 1458TIP3    H2 4381   4.167   4.857   0.801
 1459TIP3   OH2 4382   0.234   5.194   4.888
 1459TIP3    H1 4383   0.206   5.251   4.817
 1459TIP3    H2 4384   0.317   5.156   4.857
 1460TIP3   OH2 4385   5.057   5.278   3.842
 1460TIP3    H1 4386   5.120   5.350   3.839
 1460TIP3    H2 4387   5.101   5.210   3.894
 1461TIP3   OH2 4388   4.188   4.041   4.836
 1461TIP3    H1 4389   4.135   4.068   4.911
 1461TIP3    H2 4390   4.276   4.073   4.856
 1462TIP3   OH2 4391   3.342   3.287   2.759
 1462TIP3    H1 4392   3.293   3.352   2.809
 1462TIP3    H2 4393   3.286   3.270   2.682
 1463TIP3   OH2 4394   0.279   2.974   1.676
 1463TIP3    H1 4395   0.282   3.064   1.709
 1463TIP3    H2 4396   0.271   2.984   1.581
 1464TIP3   OH2 4397   3.506   4.097   3.377
 1464TIP3    H1 4398   3.417   4.113   3.408
 1464TIP3    H2 4399   3.496   4.031   3.309
 1465TIP3   OH2 4400   4.485   5.526   2.424
 1465TIP3    H1 4401   4.510   5.568   2.506
 1465TIP3    H2 4402   4.541   5.566   2.358
 1466TIP3   OH2 4403   3.838   3.109   3.281
 1466TIP3    H1 4404   3.805   3.189   3.323
 1466TIP3    H2 4405   3.797   3.109   3.194
 1467TIP3   OH2 4406   3.091   2.399   1.873
 1467TIP3    H1 4407   3.033   2.324   1.876
 1467TIP3    H2 4408   3.179   2.362   1.883
 1468TIP3   OH2 4409   0.697   4.633   4.045
 1468TIP3    H1 4410   0.639   4.635   3.969
 1468TIP3    H2 4411   0.731   4.543   4.047
 1469TIP3   OH2 4412   0.249   3.668   3.264
 1469TIP3    H1 4413   0.316   3.733   3.285
 1469TIP3    H2 4414   0.297   3.586   3.253
 1470TIP3   OH2 4415   1.799   3.507   4.304
 1470TIP3    H1 4416   1.766   3.503   4.214
 1470TIP3    H2 4417   1.828   3.597   4.314
 1471TIP3   OH2 4418   4.106   0.379   1.521
 1471TIP3    H1 4419   4.171   0.349   1.457
 1471TIP3    H2 4420   4.024   0.383   1.471
 1472TIP3   OH2 4421   3.312   2.846   4.921
 1472TIP3    H1 4422   3.354   2.926   4.953
 1472TIP3    H2 4423   3.246   2.826   4.987
 1473TIP3   OH2 4424   1.004   5.660   2.369
 1473TIP3    H1 4425   0.970   5.606   2.440
 1473TIP3    H2 4426   1.017   5.747   2.408
 1474TIP3   OH2 4427   0.372   1.605   2.289
 1474TIP3    H1 4428   0.452   1.657   2.283
 1474TIP3    H2 4429   0.394   1.534   2.349
 1475TIP3   OH2 4430   1.011   5.750   3.528
 1475TIP3    H1 4431   0.990   5.752   3.621
 1475TIP3    H2 4432   0.929   5.726   3.485
 1476TIP3   OH2 4433   3.871   5.705   4.855
 1476TIP3    H1 4434   3.851   5.771   4.922
 1476TIP3    H2 4435   3.918   5.754   4.787
 1477TIP3   OH2 4436   1.271   1.598   1.582
 1477TIP3    H1 4437   1.216   1.534   1.627
 1477TIP3    H2 4438   1.219   1.626   1.507
 1478TIP3   OH2 4439   3.313   2.735   3.027
 1478TIP3    H1 4440   3.339   2.674   2.959
 1478TIP3    H2 4441   3.330   2.689   3.109
 1479TIP3   OH2 4442   5.468   1.275   3.239
 1479TIP3    H1 4443   5.457   1.181   3.254
 1479TIP3    H2 4444   5.435   1.316   3.319
 1480TIP3   OH2 4445   2.451   1.845   3.314
 1480TIP3    H1 4446   2.447   1.933   3.352
 1480TIP3    H2 4447   2.487   1.857   3.227
 1481TIP3   OH2 4448   1.273   5.647   4.360
 1481TIP3    H1 4449   1.316   5.677   4.440
 1481TIP3    H2 4450   1.301   5.708   4.293
 1482TIP3   OH2 4451   1.254   1.456   4.794
 1482TIP3    H1 4452   1.281   1.534   4.745
 1482TIP3    H2 4453   1.171   1.430   4.754
 1483TIP3   OH2 4454   0.748   4.965   0.436
 1483TIP3    H1 4455   0.704   4.962   0.351
 1483TIP3    H2 4456   0.677   4.970   0.500
 1484TIP3   OH2 4457   3.279   3.468   3.538
 1484TIP3    H1 4458   3.369   3.471   3.570
 1484TIP3    H2 4459   3.233   3.412   3.601
 1485TIP3   OH2 4460   1.376   0.930   1.059
 1485TIP3    H1 4461   1.283   0.928   1.037
 1485TIP3    H2 4462   1.389   1.015   1.102
 1486TIP3   OH2 4463   2.621   3.658   4.128
 1486TIP3    H1 4464   2.669   3.736   4.155
 1486TIP3    H2 4465   2.630   3.598   4.202
 1487TIP3   OH2 4466   6.288   3.558   0.280
 1487TIP3    H1 4467   6.231   3.538   0.206
 1487TIP3    H2 4468   6.227   3.583   0.350
 1488TIP3   OH2 4469   3.511   4.602   2.956
 1488TIP3    H1 4470   3.528   4.508   2.970
 1488TIP3    H2 4471   3.486   4.635   3.042
 1489TIP3   OH2 4472   0.760   0.191   1.032
 1489TIP3    H1 4473   0.775   0.238   1.114
 1489TIP3    H2 4474   0.701   0.119   1.056
 1490TIP3   OH2 4475   0.808   5.432   4.804
 1490TIP3    H1 4476   0.847   5.479   4.878
 1490TIP3    H2 4477   0.882   5.415   4.745
 1491TIP3   OH2 4478   4.344   4.565   3.535
 1491TIP3    H1 4479   4.277   4.535   3.474
 1491TIP3    H2 4480   4.315   4.652   3.561
 1492TIP3   OH2 4481   4.605   5.205   4.946
 1492TIP3    H1 4482   4.636   5.224   5.034
 1492TIP3    H2 4483   4.518   5.167   4.959
 1493TIP3   OH2 4484   0.538   3.518   3.507
 1493TIP3    H1 4485   0.573   3.606   3.516
 1493TIP3    H2 4486   0.604   3.462   3.550
 1494TIP3   OH2 4487   0.512   1.675   4.886
 1494TIP3    H1 4488   0.603   1.701   4.896
 1494TIP3    H2 4489   0.513   1.609   4.816
 1495TIP3   OH2 4490   5.941   5.727   0.732
 1495TIP3    H1 4491   6.009   5.698   0.793
 1495TIP3    H2 4492   5.989   5.752   0.653
 1496TIP3   OH2 4493   2.947   3.915   0.118
 1496TIP3    H1 4494   2.999   3.967   0.057
 1496TIP3    H2 4495   2.926   3.835   0.069
 1497TIP3   OH2 4496   6.130   3.377   5.117
 1497TIP3    H1 4497   6.052   3.323   5.108
 1497TIP3    H2 4498   6.142   3.385   5.212
 1498TIP3   OH2 4499   0.132   0.436   2.771
 1498TIP3    H1 4500   0.066   0.481   2.718
 1498TIP3    H2 4501   0.209   0.430   2.713
 1499TIP3   OH2 4502   5.131   3.562   3.270
 1499TIP3    H1 4503   5.225   3.578   3.267
 1499TIP3    H2 4504   5.119   3.479   3.223
 1500TIP3   OH2 4505   2.669   2.706   4.676
 1500TIP3    H1 4506   2.680   2.664   4.591
 1500TIP3    H2 4507   2.577   2.730   4.680
 1501TIP3   OH2 4508   0.051   0.859   0.994
 1501TIP3    H1 4509  -0.003   0.827   0.922
 1501TIP3    H2 4510  -0.009   0.866   1.068
 1502TIP3   OH2 4511   4.875   5.406   3.331
 1502TIP3    H1 4512   4.820   5.340   3.288
 1502TIP3    H2 4513   4.881   5.377   3.422
 1503TIP3   OH2 4514   3.638   3.223   3.553
 1503TIP3    H1 4515   3.581   3.299   3.559
 1503TIP3    H2 4516   3.580   3.150   3.530
 1504TIP3   OH2 4517   1.716   1.790   3.502
 1504TIP3    H1 4518   1.669   1.798   3.419
 1504TIP3    H2 4519   1.683   1.861   3.556
 1505TIP3   OH2 4520   6.058   0.610   3.720
 1505TIP3    H1 4521   5.997   0.537   3.721
 1505TIP3    H2 4522   6.094   0.613   3.809
 1506TIP3   OH2 4523   5.280   2.542   3.658
 1506TIP3    H1 4524   5.231   2.477   3.709
 1506TIP3    H2 4525   5.213   2.587   3.607
 1507TIP3   OH2 4526   4.270   5.839   3.466
 1507TIP3    H1 4527   4.320   5.921   3.469
 1507TIP3    H2 4528   4.337   5.771   3.464
 1508TIP3   OH2 4529   3.926   2.502   3.951
 1508TIP3    H1 4530   3.994   2.443   3.983
 1508TIP3    H2 4531   3.972   2.568   3.899
 1509TIP3   OH2 4532   5.209   5.032   2.190
 1509TIP3    H1 4533   5.121   5.039   2.225
 1509TIP3    H2 4534   5.198   4.991   2.104
 1510TIP3   OH2 4535   1.601   5.416   5.204
 1510TIP3    H1 4536   1.604   5.512   5.211
 1510TIP3    H2 4537   1.628   5.398   5.114
 1511TIP3   OH2 4538   4.920   3.214   3.558
 1511TIP3    H1 4539   4.909   3.185   3.649
 1511TIP3    H2 4540   5.014   3.231   3.550
 1512TIP3   OH2 4541   0.798   4.829   1.178
 1512TIP3    H1 4542   0.877   4.842   1.126
 1512TIP3    H2 4543   0.821   4.858   1.266
 1513TIP3   OH2 4544   0.860   4.260   2.513
 1513TIP3    H1 4545   0.939   4.206   2.504
 1513TIP3    H2 4546   0.893   4.349   2.518
 1514TIP3   OH2 4547   0.619   5.226   3.423
 1514TIP3    H1 4548   0.701   5.248   3.468
 1514TIP3    H2 4549   0.626   5.271   3.338
 1515TIP3   OH2 4550   6.311   2.921   3.544
 1515TIP3    H1 4551   6.381   2.908   3.608
 1515TIP3    H2 4552   6.245   2.855   3.565
 1516TIP3   OH2 4553   5.126   5.950   3.552
 1516TIP3    H1 4554   5.045   5.976   3.597
 1516TIP3    H2 4555   5.098   5.922   3.466
 1517TIP3   OH2 4556   1.115   4.550   4.054
 1517TIP3    H1 4557   1.115   4.547   3.959
 1517TIP3    H2 4558   1.204   4.576   4.078
 1518TIP3   OH2 4559   4.760   5.626   2.774
 1518TIP3    H1 4560   4.798   5.712   2.754
 1518TIP3    H2 4561   4.795   5.568   2.707
 1519TIP3   OH2 4562   1.640   5.130   3.250
 1519TIP3    H1 4563   1.576   5.092   3.310
 1519TIP3    H2 4564   1.617   5.095   3.164
 1520TIP3   OH2 4565   3.023   4.359   4.371
 1520TIP3    H1 4566   3.101   4.362   4.425
 1520TIP3    H2 4567   2.996   4.451   4.361
 1521TIP3   OH2 4568   1.965   0.522   4.691
 1521TIP3    H1 4569   1.920   0.483   4.616
 1521TIP3    H2 4570   1.999   0.447   4.740
 1522TIP3   OH2 4571   0.936   0.035   0.544
 1522TIP3    H1 4572   0.986  -0.002   0.471
 1522TIP3    H2 4573   0.846   0.006   0.528
 1523TIP3   OH2 4574   0.180   2.507   4.871
 1523TIP3    H1 4575   0.194   2.469   4.957
 1523TIP3    H2 4576   0.133   2.588   4.888
 1524TIP3   OH2 4577   4.879   2.054   2.106
 1524TIP3    H1 4578   4.950   2.095   2.155
 1524TIP3    H2 4579   4.909   2.051   2.016
 1525TIP3   OH2 4580   0.343   5.014   0.742
 1525TIP3    H1 4581   0.289   4.998   0.820
 1525TIP3    H2 4582   0.433   5.012   0.775
 1526TIP3   OH2 4583   5.576   1.409   1.082
 1526TIP3    H1 4584   5.533   1.347   1.023
 1526TIP3    H2 4585   5.525   1.405   1.163
 1527TIP3   OH2 4586   1.976   0.260   0.345
 1527TIP3    H1 4587   1.988   0.169   0.372
 1527TIP3    H2 4588   2.057   0.303   0.370
 1528TIP3   OH2 4589   5.776   0.273   1.000
 1528TIP3    H1 4590   5.763   0.195   1.053
 1528TIP3    H2 4591   5.715   0.264   0.928
 1529TIP3   OH2 4592   0.290   4.369   4.561
 1529TIP3    H1 4593   0.250   4.366   4.474
 1529TIP3    H2 4594   0.258   4.290   4.605
 1530TIP3   OH2 4595   3.324   4.012   2.876
 1530TIP3    H1 4596   3.350   4.042   2.789
 1530TIP3    H2 4597   3.308   4.093   2.925
 1531TIP3   OH2 4598   5.526   2.060   4.677
 1531TIP3    H1 4599   5.613   2.027   4.659
 1531TIP3    H2 4600   5.488   2.076   4.590
 1532TIP3   OH2 4601   2.203   3.886   1.562
 1532TIP3    H1 4602   2.240   3.960   1.514
 1532TIP3    H2 4603   2.118   3.871   1.520
 1533TIP3   OH2 4604  -0.044   0.857   1.252
 1533TIP3    H1 4605   0.040   0.887   1.284
 1533TIP3    H2 4606  -0.108   0.891   1.315
 1534TIP3   OH2 4607   5.252   5.634   3.230
 1534TIP3    H1 4608   5.288   5.698   3.292
 1534TIP3    H2 4609   5.291   5.551   3.256
 1535TIP3   OH2 4610   5.545   1.088   0.375
 1535TIP3    H1 4611   5.588   1.171   0.393
 1535TIP3    H2 4612   5.455   1.111   0.355
 1536TIP3   OH2 4613   1.511   0.008   5.168
 1536TIP3    H1 4614   1.470  -0.012   5.084
 1536TIP3    H2 4615   1.459   0.081   5.203
 1537TIP3   OH2 4616   0.843   4.409   4.304
 1537TIP3    H1 4617   0.778   4.420   4.234
 1537TIP3    H2 4618   0.802   4.348   4.365
 1538TIP3   OH2 4619   0.125   0.213   4.408
 1538TIP3    H1 4620   0.086   0.200   4.321
 1538TIP3    H2 4621   0.205   0.161   4.406
 1539TIP3   OH2 4622   3.675   0.965   3.787
 1539TIP3    H1 4623   3.750   0.911   3.765
 1539TIP3    H2 4624   3.637   0.924   3.865
 1540TIP3   OH2 4625   1.849   0.058   3.349
 1540TIP3    H1 4626   1.918   0.101   3.298
 1540TIP3    H2 4627   1.776   0.120   3.347
 1541TIP3   OH2 4628   1.899   5.101   0.750
 1541TIP3    H1 4629   1.858   5.017   0.770
 1541TIP3    H2 4630   1.951   5.084   0.672
 1542TIP3   OH2 4631   0.489   5.505   2.228
 1542TIP3    H1 4632   0.405   5.538   2.197
 1542TIP3    H2 4633   0.549   5.579   2.219
 1543TIP3   OH2 4634   5.830   4.864   0.549
 1543TIP3    H1 4635   5.745   4.820   0.560
 1543TIP3    H2 4636   5.807   4.951   0.518
 1544TIP3   OH2 4637   0.110   2.545   0.278
 1544TIP3    H1 4638   0.162   2.591   0.212
 1544TIP3    H2 4639   0.020   2.570   0.259
 1545TIP3   OH2 4640   4.315   3.383   4.800
 1545TIP3    H1 4641   4.295   3.291   4.818
 1545TIP3    H2 4642   4.314   3.425   4.886
 1546TIP3   OH2 4643   5.173   4.403   0.157
 1546TIP3    H1 4644   5.200   4.398   0.065
 1546TIP3    H2 4645   5.106   4.335   0.165
 1547TIP3   OH2 4646   5.942   2.443   1.738
 1547TIP3    H1 4647   5.877   2.509   1.763
 1547TIP3    H2 4648   5.890   2.372   1.699
 1548TIP3   OH2 4649   1.688   2.285   3.142
 1548TIP3    H1 4650   1.629   2.226   3.095
 1548TIP3    H2 4651   1.769   2.236   3.152
 1549TIP3   OH2 4652   5.074   2.159   2.328
 1549TIP3    H1 4653   4.984   2.193   2.333
 1549TIP3    H2 4654   5.120   2.204   2.399
 1550TIP3   OH2 4655   4.377   0.797   3.056
 1550TIP3    H1 4656   4.336   0.749   3.128
 1550TIP3    H2 4657   4.421   0.871   3.098
 1551TIP3   OH2 4658   1.714   5.511   1.368
 1551TIP3    H1 4659   1.794   5.559   1.346
 1551TIP3    H2 4660   1.679   5.483   1.283
 1552TIP3   OH2 4661   2.195   2.102   3.461
 1552TIP3    H1 4662   2.232   2.077   3.546
 1552TIP3    H2 4663   2.261   2.159   3.422
 1553TIP3   OH2 4664   2.183   5.329   3.717
 1553TIP3    H1 4665   2.113   5.269   3.742
 1553TIP3    H2 4666   2.261   5.293   3.757
 1554TIP3   OH2 4667   3.190   0.392   2.608
 1554TIP3    H1 4668   3.255   0.354   2.549
 1554TIP3    H2 4669   3.174   0.479   2.573
 1555TIP3   OH2 4670   4.472   2.611   2.647
 1555TIP3    H1 4671   4.385   2.603   2.687
 1555TIP3    H2 4672   4.499   2.701   2.664
 1556TIP3   OH2 4673   4.551   4.721   2.475
 1556TIP3    H1 4674   4.496   4.644   2.489
 1556TIP3    H2 4675   4.572   4.753   2.563
 1557TIP3   OH2 4676   2.159   4.519   3.916
 1557TIP3    H1 4677   2.173   4.492   4.007
 1557TIP3    H2 4678   2.080   4.573   3.919
 1558TIP3   OH2 4679   1.745   0.669   3.236
 1558TIP3    H1 4680   1.826   0.634   3.272
 1558TIP3    H2 4681   1.741   0.759   3.268
 1559TIP3   OH2 4682   2.566   0.995   3.095
 1559TIP3    H1 4683   2.583   0.912   3.051
 1559TIP3    H2 4684   2.652   1.034   3.107
 1560TIP3   OH2 4685   0.955   5.824   4.041
 1560TIP3    H1 4686   0.880   5.881   4.061
 1560TIP3    H2 4687   1.026   5.859   4.094
 1561TIP3   OH2 4688   0.794   2.562   1.024
 1561TIP3    H1 4689   0.853   2.589   0.954
 1561TIP3    H2 4690   0.820   2.614   1.100
 1562TIP3   OH2 4691   4.818   2.245   2.342
 1562TIP3    H1 4692   4.733   2.275   2.309
 1562TIP3    H2 4693   4.796   2.184   2.413
 1563TIP3   OH2 4694   0.036   3.486   3.889
 1563TIP3    H1 4695   0.051   3.400   3.928
 1563TIP3    H2 4696  -0.022   3.469   3.815
 1564TIP3   OH2 4697   3.409   3.107   2.148
 1564TIP3    H1 4698   3.467   3.182   2.134
 1564TIP3    H2 4699   3.446   3.062   2.224
 1565TIP3   OH2 4700   6.035   1.998   1.395
 1565TIP3    H1 4701   6.104   2.062   1.380
 1565TIP3    H2 4702   6.079   1.923   1.435
 1566TIP3   OH2 4703   5.505   1.442   3.766
 1566TIP3    H1 4704   5.437   1.507   3.784
 1566TIP3    H2 4705   5.584   1.494   3.748
 1567TIP3   OH2 4706   2.985   5.867   4.725
 1567TIP3    H1 4707   2.985   5.909   4.639
 1567TIP3    H2 4708   2.918   5.800   4.719
 1568TIP3   OH2 4709   0.818   0.072   3.958
 1568TIP3    H1 4710   0.791   0.104   3.871
 1568TIP3    H2 4711   0.809  -0.023   3.952
 1569TIP3   OH2 4712   2.231   3.727   2.636
 1569TIP3    H1 4713   2.172   3.712   2.562
 1569TIP3    H2 4714   2.293   3.793   2.605
 1570TIP3   OH2 4715   3.352   0.650   4.880
 1570TIP3    H1 4716   3.403   0.569   4.876
 1570TIP3    H2 4717   3.393   0.707   4.814
 1571TIP3   OH2 4718   6.242   0.499   2.630
 1571TIP3    H1 4719   6.181   0.451   2.685
 1571TIP3    H2 4720   6.212   0.482   2.541
 1572TIP3   OH2 4721   3.721   4.528   3.842
 1572TIP3    H1 4722   3.676   4.451   3.808
 1572TIP3    H2 4723   3.684   4.542   3.929
 1573TIP3   OH2 4724   0.823   3.236   0.718
 1573TIP3    H1 4725   0.898   3.177   0.719
 1573TIP3    H2 4726   0.820   3.272   0.807
 1574TIP3   OH2 4727   4.932   0.437   0.079
 1574TIP3    H1 4728   4.851   0.470   0.040
 1574TIP3    H2 4729   4.999   0.498   0.049
 1575TIP3   OH2 4730   4.260   5.480   5.180
 1575TIP3    H1 4731   4.254   5.540   5.106
 1575TIP3    H2 4732   4.175   5.435   5.182
 1576TIP3   OH2 4733   4.927   0.678   1.124
 1576TIP3    H1 4734   4.990   0.647   1.059
 1576TIP3    H2 4735   4.842   0.675   1.079
 1577TIP3   OH2 4736   0.621   3.478   1.699
 1577TIP3    H1 4737   0.571   3.523   1.632
 1577TIP3    H2 4738   0.705   3.523   1.700
 1578TIP3   OH2 4739   2.656   2.072   3.364
 1578TIP3    H1 4740   2.713   2.148   3.360
 1578TIP3    H2 4741   2.714   1.997   3.346
 1579TIP3   OH2 4742   1.588   0.227   2.514
 1579TIP3    H1 4743   1.661   0.283   2.486
 1579TIP3    H2 4744   1.625   0.139   2.517
 1580TIP3   OH2 4745   0.837   5.243   0.429
 1580TIP3    H1 4746   0.783   5.290   0.492
 1580TIP3    H2 4747   0.816   5.151   0.445
 1581TIP3   OH2 4748   5.941   0.345   3.667
 1581TIP3    H1 4749   5.872   0.396   3.623
 1581TIP3    H2 4750   6.008   0.335   3.600
 1582TIP3   OH2 4751   1.261   0.813   4.462
 1582TIP3    H1 4752   1.223   0.787   4.546
 1582TIP3    H2 4753   1.187   0.811   4.401
 1583TIP3   OH2 4754   2.021   2.926  -0.024
 1583TIP3    H1 4755   1.952   2.936   0.041
 1583TIP3    H2 4756   2.102   2.919   0.027
 1584TIP3   OH2 4757   1.967   4.524   2.157
 1584TIP3    H1 4758   2.015   4.452   2.115
 1584TIP3    H2 4759   1.988   4.601   2.104
 1585TIP3   OH2 4760   5.398   1.966   2.385
 1585TIP3    H1 4761   5.393   1.901   2.455
 1585TIP3    H2 4762   5.468   1.935   2.327
 1586TIP3   OH2 4763   5.447   3.945   1.962
 1586TIP3    H1 4764   5.496   4.025   1.941
 1586TIP3    H2 4765   5.510   3.890   2.008
 1587TIP3   OH2 4766   4.121   1.785   3.040
 1587TIP3    H1 4767   4.034   1.766   3.075
 1587TIP3    H2 4768   4.157   1.699   3.017
 1588TIP3   OH2 4769   1.015   2.807   1.614
 1588TIP3    H1 4770   0.939   2.831   1.667
 1588TIP3    H2 4771   1.066   2.749   1.671
 1589TIP3   OH2 4772   5.141   2.612   5.184
 1589TIP3    H1 4773   5.169   2.702   5.172
 1589TIP3    H2 4774   5.051   2.610   5.151
 1590TIP3   OH2 4775   5.489   2.273   3.381
 1590TIP3    H1 4776   5.550   2.334   3.422
 1590TIP3    H2 4777   5.408   2.323   3.371
 1591TIP3   OH2 4778   1.866   3.858   3.164
 1591TIP3    H1 4779   1.925   3.925   3.129
 1591TIP3    H2 4780   1.837   3.894   3.248
 1592TIP3   OH2 4781   5.546   4.834   4.040
 1592TIP3    H1 4782   5.496   4.901   3.992
 1592TIP3    H2 4783   5.537   4.859   4.132
 1593TIP3   OH2 4784   2.895   0.966   2.832
 1593TIP3    H1 4785   2.878   0.882   2.876
 1593TIP3    H2 4786   2.980   0.994   2.865
 1594TIP3   OH2 4787   4.668   2.518   0.842
 1594TIP3    H1 4788   4.604   2.581   0.806
 1594TIP3    H2 4789   4.742   2.573   0.869
 1595TIP3   OH2 4790   1.071   0.707   4.985
 1595TIP3    H1 4791   1.129   0.763   5.037
 1595TIP3    H2 4792   0.990   0.701   5.036
 1596TIP3   OH2 4793   6.365   5.730   3.410
 1596TIP3    H1 4794   6.375   5.661   3.476
 1596TIP3    H2 4795   6.332   5.684   3.333
 1597TIP3   OH2 4796   5.739   0.936   1.580
 1597TIP3    H1 4797   5.727   0.932   1.675
 1597TIP3    H2 4798   5.674   0.999   1.550
 1598TIP3   OH2 4799   1.269   2.525   2.020
 1598TIP3    H1 4800   1.305   2.443   2.055
 1598TIP3    H2 4801   1.184   2.534   2.063
 1599TIP3   OH2 4802   2.803   1.154   4.563
 1599TIP3    H1 4803   2.731   1.180   4.506
 1599TIP3    H2 4804   2.858   1.232   4.569
 1600TIP3   OH2 4805   3.944   1.639   4.098
 1600TIP3    H1 4806   3.980   1.660   4.012
 1600TIP3    H2 4807   3.866   1.693   4.106
 1601TIP3   OH2 4808   5.038   0.522   1.335
 1601TIP3    H1 4809   4.992   0.581   1.276
 1601TIP3    H2 4810   5.127   0.558   1.342
 1602TIP3   OH2 4811   5.910   3.168   0.776
 1602TIP3    H1 4812   5.834   3.223   0.795
 1602TIP3    H2 4813   5.948   3.149   0.861
 1603TIP3   OH2 4814   6.092   2.194   0.825
 1603TIP3    H1 4815   6.111   2.269   0.881
 1603TIP3    H2 4816   6.105   2.118   0.882
 1604TIP3   OH2 4817   5.103   5.110   1.419
 1604TIP3    H1 4818   5.081   5.181   1.359
 1604TIP3    H2 4819   5.099   5.150   1.506
 1605TIP3   OH2 4820   2.896   1.165   1.945
 1605TIP3    H1 4821   2.877   1.116   2.026
 1605TIP3    H2 4822   2.921   1.252   1.975
 1606TIP3   OH2 4823   4.697   1.172   3.867
 1606TIP3    H1 4824   4.700   1.081   3.838
 1606TIP3    H2 4825   4.784   1.206   3.849
 1607TIP3   OH2 4826   6.347   2.404   2.728
 1607TIP3    H1 4827   6.274   2.419   2.668
 1607TIP3    H2 4828   6.307   2.367   2.807
 1608TIP3   OH2 4829   0.268   1.485   3.013
 1608TIP3    H1 4830   0.252   1.569   3.056
 1608TIP3    H2 4831   0.270   1.507   2.919
 1609TIP3   OH2 4832   1.475   1.002   2.333
 1609TIP3    H1 4833   1.491   0.989   2.239
 1609TIP3    H2 4834   1.505   0.921   2.373
 1610TIP3   OH2 4835   5.077   2.845   4.596
 1610TIP3    H1 4836   4.983   2.840   4.611
 1610TIP3    H2 4837   5.101   2.934   4.622
 1611TIP3   OH2 4838   4.112   5.180   3.931
 1611TIP3    H1 4839   4.108   5.274   3.911
 1611TIP3    H2 4840   4.048   5.168   4.002
 1612TIP3   OH2 4841   3.689   3.284   1.684
 1612TIP3    H1 4842   3.785   3.286   1.686
 1612TIP3    H2 4843   3.665   3.361   1.632
 1613TIP3   OH2 4844   0.318   0.856   1.601
 1613TIP3    H1 4845   0.234   0.886   1.636
 1613TIP3    H2 4846   0.327   0.767   1.635
 1614TIP3   OH2 4847   2.377   2.563   3.665
 1614TIP3    H1 4848   2.393   2.469   3.668
 1614TIP3    H2 4849   2.302   2.572   3.606
 1615TIP3   OH2 4850   4.887   0.800   4.445
 1615TIP3    H1 4851   4.823   0.759   4.503
 1615TIP3    H2 4852   4.840   0.876   4.408
 1616TIP3   OH2 4853   6.199   4.171   3.087
 1616TIP3    H1 4854   6.214   4.112   3.013
 1616TIP3    H2 4855   6.192   4.114   3.163
 1617TIP3   OH2 4856   3.533   2.267   4.644
 1617TIP3    H1 4857   3.498   2.354   4.624
 1617TIP3    H2 4858   3.544   2.266   4.739
 1618TIP3   OH2 4859   3.556   5.075   3.135
 1618TIP3    H1 4860   3.599   4.994   3.164
 1618TIP3    H2 4861   3.538   5.061   3.042
 1619TIP3   OH2 4862   3.139   3.919   2.595
 1619TIP3    H1 4863   3.214   3.974   2.616
 1619TIP3    H2 4864   3.168   3.830   2.617
 1620TIP3   OH2 4865   6.256   1.896   1.546
 1620TIP3    H1 4866   6.289   1.981   1.517
 1620TIP3    H2 4867   6.334   1.848   1.575
 1621TIP3   OH2 4868   0.338   2.395   4.676
 1621TIP3    H1 4869   0.272   2.445   4.723
 1621TIP3    H2 4870   0.307   2.305   4.679
 1622TIP3   OH2 4871   1.556   2.892   1.831
 1622TIP3    H1 4872   1.487   2.913   1.769
 1622TIP3    H2 4873   1.533   2.941   1.910
 1623TIP3   OH2 4874   1.252   5.000   4.411
 1623TIP3    H1 4875   1.322   4.954   4.458
 1623TIP3    H2 4876   1.176   4.993   4.469
 1624TIP3   OH2 4877   3.800   0.213   1.014
 1624TIP3    H1 4878   3.834   0.160   1.086
 1624TIP3    H2 4879   3.866   0.207   0.946
 1625TIP3   OH2 4880   1.463   4.629   2.288
 1625TIP3    H1 4881   1.413   4.710   2.292
 1625TIP3    H2 4882   1.531   4.645   2.222
 1626TIP3   OH2 4883   5.524   1.136   4.589
 1626TIP3    H1 4884   5.595   1.095   4.638
 1626TIP3    H2 4885   5.486   1.199   4.651
 1627TIP3   OH2 4886   6.144   0.171   1.151
 1627TIP3    H1 4887   6.137   0.255   1.105
 1627TIP3    H2 4888   6.237   0.149   1.147
 1628TIP3   OH2 4889   5.657   0.487   2.204
 1628TIP3    H1 4890   5.566   0.508   2.227
 1628TIP3    H2 4891   5.666   0.517   2.114
 1629TIP3   OH2 4892   4.643   5.186   3.613
 1629TIP3    H1 4893   4.627   5.121   3.682
 1629TIP3    H2 4894   4.571   5.174   3.551
 1630TIP3   OH2 4895   4.685   2.793   2.230
 1630TIP3    H1 4896   4.693   2.698   2.237
 1630TIP3    H2 4897   4.606   2.815   2.279
 1631TIP3   OH2 4898   5.678   5.394   1.136
 1631TIP3    H1 4899   5.712   5.415   1.049
 1631TIP3    H2 4900   5.691   5.474   1.187
 1632TIP3   OH2 4901   1.692   5.437   3.140
 1632TIP3    H1 4902   1.685   5.367   3.205
 1632TIP3    H2 4903   1.714   5.392   3.059
 1633TIP3   OH2 4904   3.846   3.961   3.068
 1633TIP3    H1 4905   3.802   3.987   3.149
 1633TIP3    H2 4906   3.906   3.892   3.094
 1634TIP3   OH2 4907   4.278   3.011   4.466
 1634TIP3    H1 4908   4.237   2.950   4.527
 1634TIP3    H2 4909   4.372   2.993   4.474
 1635TIP3   OH2 4910   6.140   5.336   1.483
 1635TIP3    H1 4911   6.081   5.311   1.554
 1635TIP3    H2 4912   6.169   5.424   1.506
 1636TIP3   OH2 4913   1.638   3.071   0.358
 1636TIP3    H1 4914   1.598   3.017   0.426
 1636TIP3    H2 4915   1.598   3.158   0.371
 1637TIP3   OH2 4916   4.272   4.397   1.862
 1637TIP3    H1 4917   4.279   4.439   1.776
 1637TIP3    H2 4918   4.270   4.470   1.924
 1638TIP3   OH2 4919   1.341   1.321   3.286
 1638TIP3    H1 4920   1.298   1.406   3.294
 1638TIP3    H2 4921   1.414   1.325   3.348
 1639TIP3   OH2 4922   5.842   5.299   1.907
 1639TIP3    H1 4923   5.915   5.359   1.893
 1639TIP3    H2 4924   5.883   5.218   1.936
 1640TIP3   OH2 4925   3.989   0.211   4.865
 1640TIP3    H1 4926   4.008   0.136   4.809
 1640TIP3    H2 4927   4.007   0.179   4.954
 1641TIP3   OH2 4928   5.443   0.515   3.304
 1641TIP3    H1 4929   5.416   0.447   3.364
 1641TIP3    H2 4930   5.527   0.546   3.339
 1642TIP3   OH2 4931   4.003   3.047   0.926
 1642TIP3    H1 4932   3.932   3.028   0.987
 1642TIP3    H2 4933   4.065   3.100   0.977
 1643TIP3   OH2 4934   5.860   3.702   3.356
 1643TIP3    H1 4935   5.874   3.722   3.449
 1643TIP3    H2 4936   5.793   3.634   3.357
 1644TIP3   OH2 4937   2.043   0.871   3.284
 1644TIP3    H1 4938   2.023   0.952   3.331
 1644TIP3    H2 4939   2.138   0.874   3.272
 1645TIP3   OH2 4940   0.150   4.979   2.728
 1645TIP3    H1 4941   0.124   5.020   2.810
 1645TIP3    H2 4942   0.165   5.052   2.668
 1646TIP3   OH2 4943   1.352   0.088   2.635
 1646TIP3    H1 4944   1.413   0.077   2.562
 1646TIP3    H2 4945   1.328  -0.001   2.659
 1647TIP3   OH2 4946   1.610   2.760   4.525
 1647TIP3    H1 4947   1.592   2.667   4.535
 1647TIP3    H2 4948   1.587   2.780   4.434
 1648TIP3   OH2 4949   4.385   0.334   1.681
 1648TIP3    H1 4950   4.374   0.321   1.587
 1648TIP3    H2 4951   4.327   0.408   1.701
 1649TIP3   OH2 4952   0.219   4.761   2.587
 1649TIP3    H1 4953   0.134   4.717   2.579
 1649TIP3    H2 4954   0.214   4.805   2.672
 1650TIP3   OH2 4955   4.341   4.933   4.402
 1650TIP3    H1 4956   4.361   4.869   4.333
 1650TIP3    H2 4957   4.246   4.929   4.412
 1651TIP3   OH2 4958   3.304   3.552   3.247
 1651TIP3    H1 4959   3.309   3.474   3.192
 1651TIP3    H2 4960   3.305   3.518   3.337
 1652TIP3   OH2 4961   5.193   3.886   3.485
 1652TIP3    H1 4962   5.262   3.834   3.525
 1652TIP3    H2 4963   5.174   3.842   3.402
 1653TIP3   OH2 4964   2.998   4.374   2.079
 1653TIP3    H1 4965   2.979   4.320   2.003
 1653TIP3    H2 4966   3.025   4.458   2.042
 1654TIP3   OH2 4967   1.947   5.462   3.442
 1654TIP3    H1 4968   1.924   5.372   3.465
 1654TIP3    H2 4969   1.865   5.510   3.451
 1655TIP3   OH2 4970   4.250   2.248   2.689
 1655TIP3    H1 4971   4.332   2.294   2.709
 1655TIP3    H2 4972   4.277   2.160   2.663
 1656TIP3   OH2 4973   6.230   1.091   5.066
 1656TIP3    H1 4974   6.143   1.124   5.043
 1656TIP3    H2 4975   6.232   1.003   5.028
 1657TIP3   OH2 4976   1.510   2.040   4.285
 1657TIP3    H1 4977   1.438   1.978   4.295
 1657TIP3    H2 4978   1.514   2.087   4.368
 1658TIP3   OH2 4979   2.410   4.238   2.589
 1658TIP3    H1 4980   2.387   4.307   2.528
 1658TIP3    H2 4981   2.434   4.283   2.669
 1659TIP3   OH2 4982   2.478   2.238   3.998
 1659TIP3    H1 4983   2.475   2.332   4.017
 1659TIP3    H2 4984   2.425   2.199   4.068
 1660TIP3   OH2 4985   3.238   2.366   3.082
 1660TIP3    H1 4986   3.271   2.445   3.124
 1660TIP3    H2 4987   3.317   2.319   3.055
 1661TIP3   OH2 4988   0.714   5.881   3.132
 1661TIP3    H1 4989   0.665   5.854   3.054
 1661TIP3    H2 4990   0.671   5.961   3.161
 1662TIP3   OH2 4991   2.540   3.258   2.477
 1662TIP3    H1 4992   2.615   3.296   2.524
 1662TIP3    H2 4993   2.550   3.290   2.387
 1663TIP3   OH2 4994   1.664   4.750   4.023
 1663TIP3    H1 4995   1.698   4.800   4.096
 1663TIP3    H2 4996   1.682   4.658   4.045
 1664TIP3   OH2 4997   5.695   1.001   4.761
 1664TIP3    H1 4998   5.762   1.039   4.704
 1664TIP3    H2 4999   5.687   1.063   4.834
 1665TIP3   OH2 5000   0.917   4.344   1.119
 1665TIP3    H1 5001   0.834   4.386   1.096
 1665TIP3    H2 5002   0.894   4.253   1.137
 1666TIP3   OH2 5003   1.732   4.790   2.157
 1666TIP3    H1 5004   1.753   4.752   2.243
 1666TIP3    H2 5005   1.756   4.882   2.165
 1667TIP3   OH2 5006   4.458   2.919   1.259
 1667TIP3    H1 5007   4.426   2.831   1.279
 1667TIP3    H2 5008   4.390   2.978   1.292
 1668TIP3   OH2 5009   1.553   1.082   1.810
 1668TIP3    H1 5010   1.572   1.165   1.854
 1668TIP3    H2 5011   1.638   1.048   1.785
 1669TIP3   OH2 5012   1.914   1.216   2.432
 1669TIP3    H1 5013   1.959   1.298   2.451
 1669TIP3    H2 5014   1.925   1.163   2.511
 1670TIP3   OH2 5015   0.606   0.152   3.093
 1670TIP3    H1 5016   0.695   0.146   3.057
 1670TIP3    H2 5017   0.592   0.068   3.137
 1671TIP3   OH2 5018   5.918   5.758   3.112
 1671TIP3    H1 5019   5.874   5.691   3.165
 1671TIP3    H2 5020   5.994   5.783   3.164
 1672TIP3   OH2 5021   4.902   2.034   3.295
 1672TIP3    H1 5022   4.841   2.089   3.345
 1672TIP3    H2 5023   4.873   1.945   3.313
 1673TIP3   OH2 5024   3.099   2.651   0.994
 1673TIP3    H1 5025   3.065   2.603   1.069
 1673TIP3    H2 5026   3.175   2.699   1.028
 1674TIP3   OH2 5027   4.352   2.423   0.491
 1674TIP3    H1 5028   4.274   2.461   0.452
 1674TIP3    H2 5029   4.330   2.414   0.584
 1675TIP3   OH2 5030   5.670   3.306   0.231
 1675TIP3    H1 5031   5.729   3.346   0.294
 1675TIP3    H2 5032   5.723   3.237   0.190
 1676TIP3   OH2 5033   2.080   4.834   2.310
 1676TIP3    H1 5034   2.143   4.900   2.341
 1676TIP3    H2 5035   2.092   4.832   2.215
 1677TIP3   OH2 5036   1.511   3.586   1.959
 1677TIP3    H1 5037   1.457   3.540   1.895
 1677TIP3    H2 5038   1.586   3.617   1.909
 1678TIP3   OH2 5039   1.793   3.224   1.839
 1678TIP3    H1 5040   1.788   3.216   1.934
 1678TIP3    H2 5041   1.827   3.312   1.824
 1679TIP3   OH2 5042   4.755   1.599   0.187
 1679TIP3    H1 5043   4.681   1.588   0.127
 1679TIP3    H2 5044   4.714   1.611   0.273
 1680TIP3   OH2 5045   4.102   5.658   4.457
 1680TIP3    H1 5046   4.129   5.748   4.476
 1680TIP3    H2 5047   4.045   5.634   4.530
 1681TIP3   OH2 5048   1.046   3.186   1.272
 1681TIP3    H1 5049   0.983   3.128   1.315
 1681TIP3    H2 5050   1.021   3.184   1.180
 1682TIP3   OH2 5051   4.387   1.821   3.637
 1682TIP3    H1 5052   4.433   1.757   3.692
 1682TIP3    H2 5053   4.312   1.848   3.689
 1683TIP3   OH2 5054   5.109   3.238   4.380
 1683TIP3    H1 5055   5.193   3.277   4.356
 1683TIP3    H2 5056   5.069   3.214   4.297
 1684TIP3   OH2 5057   3.646   2.988   0.384
 1684TIP3    H1 5058   3.737   3.013   0.402
 1684TIP3    H2 5059   3.607   3.067   0.347
 1685TIP3   OH2 5060   1.048   2.643   0.373
 1685TIP3    H1 5061   0.963   2.613   0.407
 1685TIP3    H2 5062   1.108   2.571   0.392
 1686TIP3   OH2 5063   3.396   3.338   1.597
 1686TIP3    H1 5064   3.418   3.303   1.684
 1686TIP3    H2 5065   3.423   3.269   1.536
 1687TIP3   OH2 5066   4.807   3.381   4.687
 1687TIP3    H1 5067   4.713   3.388   4.671
 1687TIP3    H2 5068   4.840   3.470   4.674
 1688TIP3   OH2 5069   5.862   1.897   4.890
 1688TIP3    H1 5070   5.789   1.844   4.857
 1688TIP3    H2 5071   5.865   1.879   4.984
 1689TIP3   OH2 5072   5.949   1.550   1.962
 1689TIP3    H1 5073   5.974   1.476   2.018
 1689TIP3    H2 5074   6.031   1.581   1.924
 1690TIP3   OH2 5075   4.465   5.208   3.362
 1690TIP3    H1 5076   4.529   5.234   3.295
 1690TIP3    H2 5077   4.445   5.290   3.407
 1691TIP3   OH2 5078   1.708   4.216   4.137
 1691TIP3    H1 5079   1.635   4.256   4.184
 1691TIP3    H2 5080   1.670   4.190   4.053
 1692TIP3   OH2 5081   0.692   5.552   3.662
 1692TIP3    H1 5082   0.654   5.606   3.593
 1692TIP3    H2 5083   0.722   5.615   3.728
 1693TIP3   OH2 5084   5.180   3.626   0.806
 1693TIP3    H1 5085   5.116   3.696   0.791
 1693TIP3    H2 5086   5.155   3.558   0.744
 1694TIP3   OH2 5087   5.752   3.563   4.764
 1694TIP3    H1 5088   5.677   3.557   4.823
 1694TIP3    H2 5089   5.714   3.579   4.678
 1695TIP3   OH2 5090   4.015   2.558   1.962
 1695TIP3    H1 5091   3.959   2.552   1.885
 1695TIP3    H2 5092   3.982   2.635   2.009
 1696TIP3   OH2 5093   1.557   1.984   2.601
 1696TIP3    H1 5094   1.499   2.050   2.638
 1696TIP3    H2 5095   1.638   2.031   2.583
 1697TIP3   OH2 5096   0.602   2.831   1.221
 1697TIP3    H1 5097   0.615   2.853   1.129
 1697TIP3    H2 5098   0.581   2.914   1.263
 1698TIP3   OH2 5099   0.925   5.525   1.750
 1698TIP3    H1 5100   0.930   5.468   1.674
 1698TIP3    H2 5101   0.882   5.605   1.717
 1699TIP3   OH2 5102   3.397   1.703   4.759
 1699TIP3    H1 5103   3.315   1.752   4.763
 1699TIP3    H2 5104   3.372   1.616   4.728
 1700TIP3   OH2 5105   3.696   0.378   4.737
 1700TIP3    H1 5106   3.634   0.380   4.664
 1700TIP3    H2 5107   3.781   0.399   4.697
 1701TIP3   OH2 5108   1.635   3.564   4.610
 1701TIP3    H1 5109   1.546   3.540   4.634
 1701TIP3    H2 5110   1.672   3.484   4.570
 1702TIP3   OH2 5111   1.576   1.566   4.607
 1702TIP3    H1 5112   1.511   1.514   4.559
 1702TIP3    H2 5113   1.597   1.513   4.684
 1703TIP3   OH2 5114   2.241   1.666   3.453
 1703TIP3    H1 5115   2.146   1.670   3.440
 1703TIP3    H2 5116   2.274   1.745   3.410
 1704TIP3   OH2 5117   2.890   2.110   0.165
 1704TIP3    H1 5118   2.891   2.164   0.244
 1704TIP3    H2 5119   2.950   2.154   0.105
 1705TIP3   OH2 5120   0.535   4.255   0.821
 1705TIP3    H1 5121   0.494   4.333   0.859
 1705TIP3    H2 5122   0.514   4.260   0.727
 1706TIP3   OH2 5123   1.682   2.039   5.053
 1706TIP3    H1 5124   1.618   2.007   4.989
 1706TIP3    H2 5125   1.647   2.122   5.084
 1707TIP3   OH2 5126   0.271   2.033   2.463
 1707TIP3    H1 5127   0.303   1.961   2.518
 1707TIP3    H2 5128   0.180   2.046   2.490
 1708TIP3   OH2 5129   2.461   0.900   2.099
 1708TIP3    H1 5130   2.402   0.835   2.060
 1708TIP3    H2 5131   2.433   0.906   2.190
 1709TIP3   OH2 5132   2.983   0.601   2.752
 1709TIP3    H1 5133   3.078   0.613   2.756
 1709TIP3    H2 5134   2.955   0.603   2.844
 1710TIP3   OH2 5135   1.323   0.054   0.351
 1710TIP3    H1 5136   1.405   0.006   0.361
 1710TIP3    H2 5137   1.256  -0.006   0.385
 1711TIP3   OH2 5138   3.873   5.277   1.058
 1711TIP3    H1 5139   3.867   5.368   1.028
 1711TIP3    H2 5140   3.897   5.227   0.980
 1712TIP3   OH2 5141   2.600   0.771   3.499
 1712TIP3    H1 5142   2.607   0.865   3.513
 1712TIP3    H2 5143   2.575   0.762   3.407
 1713TIP3   OH2 5144   3.709   1.882   0.939
 1713TIP3    H1 5145   3.674   1.958   0.986
 1713TIP3    H2 5146   3.743   1.825   1.007
 1714TIP3   OH2 5147   4.573   1.245   1.693
 1714TIP3    H1 5148   4.532   1.189   1.627
 1714TIP3    H2 5149   4.517   1.235   1.770
 1715TIP3   OH2 5150   1.285   3.214   3.344
 1715TIP3    H1 5151   1.360   3.205   3.403
 1715TIP3    H2 5152   1.306   3.291   3.291
 1716TIP3   OH2 5153   6.044   0.399   1.006
 1716TIP3    H1 5154   6.000   0.483   1.017
 1716TIP3    H2 5155   5.973   0.337   0.988
 1717TIP3   OH2 5156   0.039   3.807   3.062
 1717TIP3    H1 5157   0.089   3.828   3.140
 1717TIP3    H2 5158   0.041   3.888   3.010
 1718TIP3   OH2 5159   4.366   5.404   3.518
 1718TIP3    H1 5160   4.297   5.343   3.544
 1718TIP3    H2 5161   4.394   5.444   3.601
 1719TIP3   OH2 5162   3.869   0.209   2.874
 1719TIP3    H1 5163   3.882   0.155   2.796
 1719TIP3    H2 5164   3.774   0.216   2.884
 1720TIP3   OH2 5165   5.921   4.316   3.412
 1720TIP3    H1 5166   5.894   4.230   3.444
 1720TIP3    H2 5167   5.851   4.375   3.441
 1721TIP3   OH2 5168   6.232   0.378   0.807
 1721TIP3    H1 5169   6.158   0.370   0.868
 1721TIP3    H2 5170   6.245   0.290   0.774
 1722TIP3   OH2 5171   1.500   1.793   4.817
 1722TIP3    H1 5172   1.430   1.777   4.754
 1722TIP3    H2 5173   1.579   1.800   4.764
 1723TIP3   OH2 5174   3.677   1.415   4.771
 1723TIP3    H1 5175   3.623   1.339   4.750
 1723TIP3    H2 5176   3.634   1.455   4.847
 1724TIP3   OH2 5177   5.824   2.912   0.701
 1724TIP3    H1 5178   5.910   2.888   0.735
 1724TIP3    H2 5179   5.821   3.008   0.710
 1725TIP3   OH2 5180   5.087   1.253   2.780
 1725TIP3    H1 5181   5.094   1.198   2.857
 1725TIP3    H2 5182   5.026   1.322   2.806
 1726TIP3   OH2 5183   0.252   0.068   0.583
 1726TIP3    H1 5184   0.162   0.093   0.562
 1726TIP3    H2 5185   0.255   0.066   0.679
 1727TIP3   OH2 5186   0.699   0.487   2.750
 1727TIP3    H1 5187   0.629   0.460   2.691
 1727TIP3    H2 5188   0.698   0.583   2.746
 1728TIP3   OH2 5189   5.128   1.467   2.501
 1728TIP3    H1 5190   5.159   1.413   2.428
 1728TIP3    H2 5191   5.150   1.417   2.580
 1729TIP3   OH2 5192   1.812   2.080   2.560
 1729TIP3    H1 5193   1.812   2.147   2.492
 1729TIP3    H2 5194   1.839   2.000   2.515
 1730TIP3   OH2 5195   3.767   4.637   5.037
 1730TIP3    H1 5196   3.840   4.636   4.975
 1730TIP3    H2 5197   3.802   4.681   5.114
 1731TIP3   OH2 5198   2.275   2.847   2.233
 1731TIP3    H1 5199   2.214   2.897   2.288
 1731TIP3    H2 5200   2.355   2.899   2.234
 1732TIP3   OH2 5201   4.471   4.256   4.496
 1732TIP3    H1 5202   4.447   4.338   4.539
 1732TIP3    H2 5203   4.469   4.277   4.402
 1733TIP3   OH2 5204   6.202   3.948   4.665
 1733TIP3    H1 5205   6.161   3.862   4.677
 1733TIP3    H2 5206   6.296   3.930   4.664
 1734TIP3   OH2 5207   5.501   3.610   4.857
 1734TIP3    H1 5208   5.454   3.600   4.940
 1734TIP3    H2 5209   5.432   3.609   4.791
 1735TIP3   OH2 5210   1.097   2.989   3.436
 1735TIP3    H1 5211   1.085   2.909   3.386
 1735TIP3    H2 5212   1.168   3.036   3.391
 1736TIP3   OH2 5213   5.461   3.064   4.531
 1736TIP3    H1 5214   5.554   3.042   4.541
 1736TIP3    H2 5215   5.461   3.150   4.490
 1737TIP3   OH2 5216   5.915   2.022   4.249
 1737TIP3    H1 5217   5.894   2.038   4.157
 1737TIP3    H2 5218   5.913   2.108   4.290
 1738TIP3   OH2 5219   6.310   3.104   1.859
 1738TIP3    H1 5220   6.242   3.062   1.912
 1738TIP3    H2 5221   6.360   3.032   1.822
 1739TIP3   OH2 5222   2.742   0.883   1.946
 1739TIP3    H1 5223   2.736   0.860   2.038
 1739TIP3    H2 5224   2.672   0.947   1.933
 1740TIP3   OH2 5225   2.919   4.883   4.323
 1740TIP3    H1 5226   2.920   4.959   4.381
 1740TIP3    H2 5227   2.827   4.859   4.317
 1741TIP3   OH2 5228   2.276   3.076   3.015
 1741TIP3    H1 5229   2.265   2.984   2.992
 1741TIP3    H2 5230   2.247   3.124   2.938
 1742TIP3   OH2 5231   0.130   2.725   3.181
 1742TIP3    H1 5232   0.220   2.732   3.213
 1742TIP3    H2 5233   0.094   2.812   3.192
 1743TIP3   OH2 5234   1.627   5.252   1.506
 1743TIP3    H1 5235   1.649   5.342   1.482
 1743TIP3    H2 5236   1.663   5.199   1.435
 1744TIP3   OH2 5237   4.392   0.722   4.205
 1744TIP3    H1 5238   4.310   0.716   4.156
 1744TIP3    H2 5239   4.418   0.814   4.198
 1745TIP3   OH2 5240   2.881   2.067   1.302
 1745TIP3    H1 5241   2.941   2.040   1.233
 1745TIP3    H2 5242   2.843   1.985   1.334
 1746TIP3   OH2 5243   1.052   2.202   0.389
 1746TIP3    H1 5244   1.112   2.248   0.330
 1746TIP3    H2 5245   1.042   2.116   0.350
 1747TIP3   OH2 5246   0.250   3.319   2.857
 1747TIP3    H1 5247   0.164   3.360   2.869
 1747TIP3    H2 5248   0.241   3.269   2.777
 1748TIP3   OH2 5249   5.625   0.576   0.228
 1748TIP3    H1 5250   5.674   0.639   0.175
 1748TIP3    H2 5251   5.597   0.625   0.305
 1749TIP3   OH2 5252   3.159   3.985   3.343
 1749TIP3    H1 5253   3.155   4.052   3.274
 1749TIP3    H2 5254   3.167   3.902   3.296
 1750TIP3   OH2 5255   0.739   5.161   0.141
 1750TIP3    H1 5256   0.790   5.094   0.186
 1750TIP3    H2 5257   0.777   5.244   0.169
 1751TIP3   OH2 5258   2.093   5.476   2.483
 1751TIP3    H1 5259   2.178   5.442   2.511
 1751TIP3    H2 5260   2.108   5.507   2.394
 1752TIP3   OH2 5261   2.485   2.381   2.167
 1752TIP3    H1 5262   2.482   2.458   2.110
 1752TIP3    H2 5263   2.495   2.307   2.107
 1753TIP3   OH2 5264   0.660   5.353   3.866
 1753TIP3    H1 5265   0.700   5.292   3.928
 1753TIP3    H2 5266   0.711   5.343   3.786
 1754TIP3   OH2 5267   2.945   1.453   1.949
 1754TIP3    H1 5268   3.023   1.456   1.894
 1754TIP3    H2 5269   2.879   1.503   1.899
 1755TIP3   OH2 5270   5.687   4.987   1.790
 1755TIP3    H1 5271   5.696   5.069   1.741
 1755TIP3    H2 5272   5.611   4.944   1.751
 1756TIP3   OH2 5273   1.854   0.680   4.932
 1756TIP3    H1 5274   1.904   0.615   4.882
 1756TIP3    H2 5275   1.780   0.702   4.875
 1757TIP3   OH2 5276   3.306   1.685   3.967
 1757TIP3    H1 5277   3.335   1.747   3.900
 1757TIP3    H2 5278   3.385   1.635   3.989
 1758TIP3   OH2 5279   1.235   0.701   0.791
 1758TIP3    H1 5280   1.152   0.681   0.746
 1758TIP3    H2 5281   1.287   0.622   0.779
 1759TIP3   OH2 5282   4.284   4.896   1.928
 1759TIP3    H1 5283   4.260   4.937   2.011
 1759TIP3    H2 5284   4.380   4.893   1.929
 1760TIP3   OH2 5285   1.481   3.663   2.927
 1760TIP3    H1 5286   1.510   3.687   3.014
 1760TIP3    H2 5287   1.549   3.696   2.868
 1761TIP3   OH2 5288   0.667   0.174   4.185
 1761TIP3    H1 5289   0.733   0.154   4.119
 1761TIP3    H2 5290   0.716   0.217   4.255
 1762TIP3   OH2 5291   2.377   5.425   2.472
 1762TIP3    H1 5292   2.421   5.343   2.492
 1762TIP3    H2 5293   2.376   5.428   2.376
 1763TIP3   OH2 5294   4.281   0.236   4.771
 1763TIP3    H1 5295   4.215   0.301   4.793
 1763TIP3    H2 5296   4.235   0.152   4.779
 1764TIP3   OH2 5297   1.355   3.423   4.915
 1764TIP3    H1 5298   1.276   3.451   4.868
 1764TIP3    H2 5299   1.405   3.373   4.850
 1765TIP3   OH2 5300   0.832   1.950   4.035
 1765TIP3    H1 5301   0.756   1.924   3.982
 1765TIP3    H2 5302   0.833   1.887   4.107
 1766TIP3   OH2 5303   3.499   3.393   4.945
 1766TIP3    H1 5304   3.447   3.430   4.873
 1766TIP3    H2 5305   3.478   3.448   5.021
 1767TIP3   OH2 5306   1.797   0.425   4.512
 1767TIP3    H1 5307   1.784   0.331   4.522
 1767TIP3    H2 5308   1.709   0.461   4.505
 1768TIP3   OH2 5309   4.616   5.205   4.258
 1768TIP3    H1 5310   4.627   5.238   4.347
 1768TIP3    H2 5311   4.563   5.272   4.214
 1769TIP3   OH2 5312   5.053   5.320   2.860
 1769TIP3    H1 5313   4.993   5.249   2.837
 1769TIP3    H2 5314   5.030   5.342   2.951
 1770TIP3   OH2 5315   0.243   2.973   0.837
 1770TIP3    H1 5316   0.292   2.913   0.780
 1770TIP3    H2 5317   0.306   3.041   0.860
 1771TIP3   OH2 5318   2.671   0.504   2.978
 1771TIP3    H1 5319   2.611   0.481   2.907
 1771TIP3    H2 5320   2.706   0.420   3.008
 1772TIP3   OH2 5321   5.000   0.973   1.221
 1772TIP3    H1 5322   4.927   1.004   1.167
 1772TIP3    H2 5323   4.965   0.895   1.265
 1773TIP3   OH2 5324   3.620   1.614   4.574
 1773TIP3    H1 5325   3.584   1.664   4.647
 1773TIP3    H2 5326   3.651   1.533   4.613
 1774TIP3   OH2 5327   2.055   0.913   3.772
 1774TIP3    H1 5328   2.123   0.937   3.836
 1774TIP3    H2 5329   2.101   0.859   3.708
 1775TIP3   OH2 5330   2.590   0.636   2.391
 1775TIP3    H1 5331   2.638   0.599   2.465
 1775TIP3    H2 5332   2.534   0.565   2.360
 1776TIP3   OH2 5333   2.508   4.288   0.264
 1776TIP3    H1 5334   2.494   4.197   0.289
 1776TIP3    H2 5335   2.441   4.305   0.197
 1777TIP3   OH2 5336   2.775   3.161   0.426
 1777TIP3    H1 5337   2.718   3.084   0.430
 1777TIP3    H2 5338   2.829   3.155   0.504
 1778TIP3   OH2 5339   2.214   2.458   4.333
 1778TIP3    H1 5340   2.255   2.519   4.395
 1778TIP3    H2 5341   2.157   2.404   4.386
 1779TIP3   OH2 5342   0.019   5.958   4.897
 1779TIP3    H1 5343   0.051   5.888   4.953
 1779TIP3    H2 5344  -0.059   5.990   4.942
 1780TIP3   OH2 5345   6.258   3.663   2.858
 1780TIP3    H1 5346   6.323   3.732   2.868
 1780TIP3    H2 5347   6.197   3.677   2.930
 1781TIP3   OH2 5348   3.318   0.153   3.289
 1781TIP3    H1 5349   3.362   0.143   3.205
 1781TIP3    H2 5350   3.349   0.237   3.323
 1782TIP3   OH2 5351   2.923   1.777   0.911
 1782TIP3    H1 5352   3.001   1.828   0.887
 1782TIP3    H2 5353   2.951   1.726   0.988
 1783TIP3   OH2 5354   4.145   2.704   3.623
 1783TIP3    H1 5355   4.121   2.611   3.621
 1783TIP3    H2 5356   4.237   2.705   3.597
 1784TIP3   OH2 5357   3.612   3.047   1.777
 1784TIP3    H1 5358   3.518   3.046   1.791
 1784TIP3    H2 5359   3.630   3.131   1.735
 1785TIP3   OH2 5360   5.643   3.661   3.673
 1785TIP3    H1 5361   5.637   3.689   3.765
 1785TIP3    H2 5362   5.735   3.678   3.649
 1786TIP3   OH2 5363   2.276   4.738   0.530
 1786TIP3    H1 5364   2.288   4.744   0.435
 1786TIP3    H2 5365   2.307   4.822   0.564
 1787TIP3   OH2 5366   6.348   4.738   0.236
 1787TIP3    H1 5367   6.349   4.781   0.150
 1787TIP3    H2 5368   6.374   4.807   0.297
 1788TIP3   OH2 5369   5.181   0.914   1.775
 1788TIP3    H1 5370   5.172   0.819   1.763
 1788TIP3    H2 5371   5.253   0.923   1.837
 1789TIP3   OH2 5372   3.436   2.999   1.349
 1789TIP3    H1 5373   3.345   2.994   1.379
 1789TIP3    H2 5374   3.429   3.012   1.254
 1790TIP3   OH2 5375   5.198   3.188   3.491
 1790TIP3    H1 5376   5.220   3.184   3.398
 1790TIP3    H2 5377   5.218   3.101   3.525
 1791TIP3   OH2 5378   1.235   5.375   5.021
 1791TIP3    H1 5379   1.195   5.310   4.963
 1791TIP3    H2 5380   1.274   5.439   4.961
 1792TIP3   OH2 5381   0.264   4.086   3.615
 1792TIP3    H1 5382   0.254   4.013   3.677
 1792TIP3    H2 5383   0.356   4.080   3.586
 1793TIP3   OH2 5384   4.350   0.524   3.501
 1793TIP3    H1 5385   4.351   0.560   3.590
 1793TIP3    H2 5386   4.396   0.440   3.509
 1794TIP3   OH2 5387   2.171   4.755   4.621
 1794TIP3    H1 5388   2.139   4.820   4.683
 1794TIP3    H2 5389   2.180   4.674   4.672
 1795TIP3   OH2 5390   0.418   0.458   1.900
 1795TIP3    H1 5391   0.381   0.496   1.980
 1795TIP3    H2 5392   0.374   0.505   1.829
 1796TIP3   OH2 5393   3.493   2.951   4.377
 1796TIP3    H1 5394   3.457   2.864   4.392
 1796TIP3    H2 5395   3.457   3.004   4.448
 1797TIP3   OH2 5396   6.311   3.966   0.875
 1797TIP3    H1 5397   6.226   4.009   0.887
 1797TIP3    H2 5398   6.310   3.894   0.939
 1798TIP3   OH2 5399   1.197   3.290   0.742
 1798TIP3    H1 5400   1.153   3.206   0.730
 1798TIP3    H2 5401   1.239   3.283   0.828
 1799TIP3   OH2 5402   3.920   2.198   3.072
 1799TIP3    H1 5403   3.894   2.106   3.075
 1799TIP3    H2 5404   3.933   2.216   2.979
 1800TIP3   OH2 5405   1.881   4.521   1.211
 1800TIP3    H1 5406   1.865   4.449   1.273
 1800TIP3    H2 5407   1.839   4.492   1.130
 1801TIP3   OH2 5408   2.393   1.485   0.821
 1801TIP3    H1 5409   2.336   1.431   0.876
 1801TIP3    H2 5410   2.347   1.489   0.737
 1802TIP3   OH2 5411   0.404   5.766   1.580
 1802TIP3    H1 5412   0.443   5.736   1.662
 1802TIP3    H2 5413   0.412   5.861   1.583
 1803TIP3   OH2 5414   6.032   4.738   0.270
 1803TIP3    H1 5415   6.011   4.682   0.345
 1803TIP3    H2 5416   6.127   4.749   0.274
 1804TIP3   OH2 5417   3.904   2.754   1.586
 1804TIP3    H1 5418   3.906   2.824   1.521
 1804TIP3    H2 5419   3.873   2.796   1.666
 1805TIP3   OH2 5420   5.772   5.487   4.683
 1805TIP3    H1 5421   5.721   5.428   4.627
 1805TIP3    H2 5422   5.732   5.573   4.670
 1806TIP3   OH2 5423   3.201   1.460   2.157
 1806TIP3    H1 5424   3.211   1.388   2.096
 1806TIP3    H2 5425   3.269   1.446   2.223
 1807TIP3   OH2 5426   4.354   1.576   0.528
 1807TIP3    H1 5427   4.283   1.608   0.473
 1807TIP3    H2 5428   4.328   1.599   0.617
 1808TIP3   OH2 5429   3.550   5.765   2.295
 1808TIP3    H1 5430   3.593   5.697   2.243
 1808TIP3    H2 5431   3.463   5.773   2.257
 1809TIP3   OH2 5432   4.211   1.440   2.167
 1809TIP3    H1 5433   4.289   1.385   2.175
 1809TIP3    H2 5434   4.225   1.490   2.087
 1810TIP3   OH2 5435   0.918   0.668   4.630
 1810TIP3    H1 5436   0.886   0.591   4.676
 1810TIP3    H2 5437   0.992   0.699   4.682
 1811TIP3   OH2 5438   6.108   0.384   2.388
 1811TIP3    H1 5439   6.092   0.308   2.333
 1811TIP3    H2 5440   6.059   0.368   2.468
 1812TIP3   OH2 5441   4.155   0.735   4.035
 1812TIP3    H1 5442   4.081   0.755   4.091
 1812TIP3    H2 5443   4.146   0.795   3.961
 1813TIP3   OH2 5444   0.391   5.301   5.073
 1813TIP3    H1 5445   0.419   5.376   5.020
 1813TIP3    H2 5446   0.338   5.248   5.014
 1814TIP3   OH2 5447   1.317   5.822   1.783
 1814TIP3    H1 5448   1.408   5.851   1.779
 1814TIP3    H2 5449   1.304   5.794   1.874
 1815TIP3   OH2 5450   4.988   1.553   1.241
 1815TIP3    H1 5451   4.932   1.509   1.177
 1815TIP3    H2 5452   4.971   1.507   1.324
 1816TIP3   OH2 5453   1.882   1.468   1.620
 1816TIP3    H1 5454   1.910   1.545   1.670
 1816TIP3    H2 5455   1.786   1.472   1.621
 1817TIP3   OH2 5456   1.524   3.667   1.082
 1817TIP3    H1 5457   1.507   3.702   0.995
 1817TIP3    H2 5458   1.558   3.579   1.067
 1818TIP3   OH2 5459   0.076   2.866   2.273
 1818TIP3    H1 5460   0.053   2.798   2.336
 1818TIP3    H2 5461   0.157   2.903   2.306
 1819TIP3   OH2 5462   2.278   0.314   3.200
 1819TIP3    H1 5463   2.293   0.221   3.184
 1819TIP3    H2 5464   2.190   0.317   3.240
 1820TIP3   OH2 5465   6.336   2.244   3.735
 1820TIP3    H1 5466   6.404   2.177   3.737
 1820TIP3    H2 5467   6.384   2.327   3.744
 1821TIP3   OH2 5468   0.289   5.113   3.818
 1821TIP3    H1 5469   0.340   5.130   3.738
 1821TIP3    H2 5470   0.249   5.028   3.803
 1822TIP3   OH2 5471   3.665   5.122   2.257
 1822TIP3    H1 5472   3.736   5.071   2.219
 1822TIP3    H2 5473   3.708   5.197   2.298
 1823TIP3   OH2 5474   1.860   5.257   2.392
 1823TIP3    H1 5475   1.869   5.330   2.331
 1823TIP3    H2 5476   1.892   5.292   2.476
 1824TIP3   OH2 5477   3.717   0.111   3.299
 1824TIP3    H1 5478   3.706   0.172   3.226
 1824TIP3    H2 5479   3.778   0.045   3.267
 1825TIP3   OH2 5480   1.387   5.813   3.095
 1825TIP3    H1 5481   1.384   5.755   3.018
 1825TIP3    H2 5482   1.449   5.882   3.070
 1826TIP3   OH2 5483   2.236   1.947   3.913
 1826TIP3    H1 5484   2.306   1.934   3.978
 1826TIP3    H2 5485   2.156   1.921   3.960
 1827TIP3   OH2 5486   2.860   3.301   2.124
 1827TIP3    H1 5487   2.893   3.391   2.127
 1827TIP3    H2 5488   2.798   3.300   2.051
 1828TIP3   OH2 5489   4.484   5.451   3.779
 1828TIP3    H1 5490   4.463   5.359   3.792
 1828TIP3    H2 5491   4.572   5.451   3.740
 1829TIP3   OH2 5492   0.710   2.713   0.763
 1829TIP3    H1 5493   0.669   2.743   0.682
 1829TIP3    H2 5494   0.661   2.635   0.787
 1830TIP3   OH2 5495   3.542   3.985   4.729
 1830TIP3    H1 5496   3.573   3.922   4.664
 1830TIP3    H2 5497   3.542   4.069   4.684
 1831TIP3   OH2 5498   2.628   3.569   3.220
 1831TIP3    H1 5499   2.644   3.596   3.310
 1831TIP3    H2 5500   2.660   3.642   3.167
 1832TIP3   OH2 5501   3.205   0.263   4.597
 1832TIP3    H1 5502   3.224   0.262   4.503
 1832TIP3    H2 5503   3.208   0.356   4.620
 1833TIP3   OH2 5504   1.179   1.624   3.731
 1833TIP3    H1 5505   1.139   1.538   3.747
 1833TIP3    H2 5506   1.116   1.670   3.676
 1834TIP3   OH2 5507   0.893   0.029   2.180
 1834TIP3    H1 5508   0.981   0.005   2.151
 1834TIP3    H2 5509   0.859  -0.052   2.219
 1835TIP3   OH2 5510   2.873   5.936   2.220
 1835TIP3    H1 5511   2.911   5.863   2.269
 1835TIP3    H2 5512   2.795   5.960   2.270
 1836TIP3   OH2 5513   3.420   3.826   0.932
 1836TIP3    H1 5514   3.455   3.806   0.845
 1836TIP3    H2 5515   3.418   3.921   0.936
 1837TIP3   OH2 5516   3.102   3.695   2.010
 1837TIP3    H1 5517   3.094   3.743   2.093
 1837TIP3    H2 5518   3.034   3.732   1.954
 1838TIP3   OH2 5519   3.261   5.514   3.254
 1838TIP3    H1 5520   3.170   5.488   3.269
 1838TIP3    H2 5521   3.274   5.591   3.308
 1839TIP3   OH2 5522   5.266   1.920   1.570
 1839TIP3    H1 5523   5.327   1.848   1.586
 1839TIP3    H2 5524   5.270   1.973   1.650
 1840TIP3   OH2 5525   0.203   3.579   0.362
 1840TIP3    H1 5526   0.227   3.655   0.416
 1840TIP3    H2 5527   0.108   3.580   0.362
 1841TIP3   OH2 5528   2.312   1.991   2.692
 1841TIP3    H1 5529   2.217   1.986   2.695
 1841TIP3    H2 5530   2.340   1.969   2.781
 1842TIP3   OH2 5531   2.648   2.191   0.008
 1842TIP3    H1 5532   2.719   2.141   0.048
 1842TIP3    H2 5533   2.578   2.191   0.073
 1843TIP3   OH2 5534   0.888   2.412   3.532
 1843TIP3    H1 5535   0.839   2.494   3.526
 1843TIP3    H2 5536   0.962   2.424   3.473
 1844TIP3   OH2 5537   2.501   3.198   0.278
 1844TIP3    H1 5538   2.534   3.157   0.198
 1844TIP3    H2 5539   2.525   3.291   0.269
 1845TIP3   OH2 5540   5.546   5.595   3.411
 1845TIP3    H1 5541   5.583   5.568   3.495
 1845TIP3    H2 5542   5.473   5.653   3.435
 1846TIP3   OH2 5543   5.782   1.177   3.621
 1846TIP3    H1 5544   5.812   1.218   3.540
 1846TIP3    H2 5545   5.822   1.090   3.621
 1847TIP3   OH2 5546   0.531   5.899   0.568
 1847TIP3    H1 5547   0.519   5.922   0.476
 1847TIP3    H2 5548   0.616   5.935   0.592
 1848TIP3   OH2 5549   1.894   3.464   1.476
 1848TIP3    H1 5550   1.987   3.468   1.500
 1848TIP3    H2 5551   1.874   3.371   1.470
 1849TIP3   OH2 5552   1.906   4.857   3.631
 1849TIP3    H1 5553   1.967   4.923   3.598
 1849TIP3    H2 5554   1.933   4.776   3.587
 1850TIP3   OH2 5555   6.014   5.051   4.299
 1850TIP3    H1 5556   6.081   5.036   4.232
 1850TIP3    H2 5557   6.034   5.138   4.335
 1851TIP3   OH2 5558   2.382   4.966   1.858
 1851TIP3    H1 5559   2.371   4.975   1.764
 1851TIP3    H2 5560   2.346   4.879   1.878
 1852TIP3   OH2 5561   3.723   2.020   3.895
 1852TIP3    H1 5562   3.745   2.079   3.822
 1852TIP3    H2 5563   3.667   2.072   3.952
 1853TIP3   OH2 5564   5.006   1.654   1.714
 1853TIP3    H1 5565   4.992   1.695   1.629
 1853TIP3    H2 5566   5.085   1.601   1.703
 1854TIP3   OH2 5567   4.103   2.726   4.021
 1854TIP3    H1 5568   4.188   2.692   3.993
 1854TIP3    H2 5569   4.125   2.794   4.085
 1855TIP3   OH2 5570   5.022   3.017   5.006
 1855TIP3    H1 5571   4.934   3.051   4.989
 1855TIP3    H2 5572   5.080   3.071   4.952
 1856TIP3   OH2 5573   1.282   4.833   0.273
 1856TIP3    H1 5574   1.240   4.760   0.227
 1856TIP3    H2 5575   1.309   4.893   0.205
 1857TIP3   OH2 5576   6.300   5.545   4.084
 1857TIP3    H1 5577   6.238   5.507   4.022
 1857TIP3    H2 5578   6.369   5.478   4.093
 1858TIP3   OH2 5579   3.601   4.856   3.256
 1858TIP3    H1 5580   3.553   4.773   3.257
 1858TIP3    H2 5581   3.591   4.891   3.345
 1859TIP3   OH2 5582   1.460   2.026   2.210
 1859TIP3    H1 5583   1.376   2.001   2.171
 1859TIP3    H2 5584   1.486   1.950   2.261
 1860TIP3   OH2 5585   2.839   0.976   4.744
 1860TIP3    H1 5586   2.811   0.929   4.666
 1860TIP3    H2 5587   2.851   1.067   4.714
 1861TIP3   OH2 5588   6.213   4.382   3.882
 1861TIP3    H1 5589   6.125   4.354   3.856
 1861TIP3    H2 5590   6.257   4.301   3.908
 1862TIP3   OH2 5591   5.851   3.714   1.363
 1862TIP3    H1 5592   5.760   3.708   1.392
 1862TIP3    H2 5593   5.862   3.641   1.303
 1863TIP3   OH2 5594   4.062   5.343   4.314
 1863TIP3    H1 5595   4.128   5.389   4.366
 1863TIP3    H2 5596   4.019   5.413   4.264
 1864TIP3   OH2 5597   4.151   0.182   2.735
 1864TIP3    H1 5598   4.160   0.088   2.719
 1864TIP3    H2 5599   4.153   0.190   2.830
 1865TIP3   OH2 5600   4.258   2.674   3.284
 1865TIP3    H1 5601   4.178   2.699   3.330
 1865TIP3    H2 5602   4.327   2.679   3.351
 1866TIP3   OH2 5603   0.368   3.543   1.172
 1866TIP3    H1 5604   0.296   3.574   1.117
 1866TIP3    H2 5605   0.443   3.595   1.144
 1867TIP3   OH2 5606   3.884   3.670   4.688
 1867TIP3    H1 5607   3.900   3.594   4.745
 1867TIP3    H2 5608   3.789   3.669   4.674
 1868TIP3   OH2 5609   0.792   3.921   2.228
 1868TIP3    H1 5610   0.825   4.011   2.227
 1868TIP3    H2 5611   0.869   3.868   2.251
 1869TIP3   OH2 5612   5.285   0.647   1.352
 1869TIP3    H1 5613   5.377   0.622   1.346
 1869TIP3    H2 5614   5.284   0.740   1.332
 1870TIP3   OH2 5615   0.864   0.899   1.176
 1870TIP3    H1 5616   0.824   0.976   1.217
 1870TIP3    H2 5617   0.791   0.840   1.158
 1871TIP3   OH2 5618   1.983   5.131   3.763
 1871TIP3    H1 5619   1.906   5.179   3.732
 1871TIP3    H2 5620   1.948   5.060   3.816
 1872TIP3   OH2 5621   2.518   0.359   0.356
 1872TIP3    H1 5622   2.564   0.319   0.430
 1872TIP3    H2 5623   2.564   0.324   0.279
 1873TIP3   OH2 5624   2.158   4.788   1.463
 1873TIP3    H1 5625   2.076   4.825   1.496
 1873TIP3    H2 5626   2.201   4.752   1.541
 1874TIP3   OH2 5627   0.835   1.350   3.932
 1874TIP3    H1 5628   0.818   1.381   3.843
 1874TIP3    H2 5629   0.870   1.426   3.978
 1875TIP3   OH2 5630   4.158   2.333   3.969
 1875TIP3    H1 5631   4.246   2.348   3.934
 1875TIP3    H2 5632   4.114   2.281   3.903
 1876TIP3   OH2 5633   3.166   0.496   1.442
 1876TIP3    H1 5634   3.117   0.524   1.364
 1876TIP3    H2 5635   3.114   0.527   1.516
 1877TIP3   OH2 5636   5.588   3.859   4.761
 1877TIP3    H1 5637   5.549   3.786   4.809
 1877TIP3    H2 5638   5.556   3.937   4.808
 1878TIP3   OH2 5639   1.060   2.795   0.135
 1878TIP3    H1 5640   1.058   2.767   0.226
 1878TIP3    H2 5641   1.113   2.729   0.091
 1879TIP3   OH2 5642   4.031   3.961   3.431
 1879TIP3    H1 5643   4.100   4.011   3.475
 1879TIP3    H2 5644   4.026   3.880   3.480
 1880TIP3   OH2 5645   2.260   0.365   4.392
 1880TIP3    H1 5646   2.299   0.295   4.339
 1880TIP3    H2 5647   2.304   0.445   4.363
 1881TIP3   OH2 5648   2.275   0.671   2.774
 1881TIP3    H1 5649   2.253   0.664   2.681
 1881TIP3    H2 5650   2.338   0.600   2.789
 1882TIP3   OH2 5651   6.074   2.393   2.405
 1882TIP3    H1 5652   6.053   2.305   2.373
 1882TIP3    H2 5653   6.169   2.401   2.391
 1883TIP3   OH2 5654   3.000   1.434   0.635
 1883TIP3    H1 5655   3.055   1.357   0.624
 1883TIP3    H2 5656   2.939   1.410   0.704
 1884TIP3   OH2 5657   3.637   2.604   5.137
 1884TIP3    H1 5658   3.550   2.565   5.133
 1884TIP3    H2 5659   3.621   2.697   5.151
 1885TIP3   OH2 5660   5.211   5.607   1.181
 1885TIP3    H1 5661   5.253   5.691   1.162
 1885TIP3    H2 5662   5.263   5.543   1.133
 1886TIP3   OH2 5663   1.289   0.106   2.233
 1886TIP3    H1 5664   1.240   0.074   2.308
 1886TIP3    H2 5665   1.324   0.190   2.261
 1887TIP3   OH2 5666   3.124   3.251   4.543
 1887TIP3    H1 5667   3.104   3.172   4.491
 1887TIP3    H2 5668   3.219   3.259   4.539
 1888TIP3   OH2 5669   3.043   4.881   2.392
 1888TIP3    H1 5670   3.099   4.849   2.462
 1888TIP3    H2 5671   2.957   4.889   2.432
 1889TIP3   OH2 5672   5.328   3.751   3.737
 1889TIP3    H1 5673   5.289   3.761   3.824
 1889TIP3    H2 5674   5.376   3.669   3.742
 1890TIP3   OH2 5675   0.045   2.285   0.274
 1890TIP3    H1 5676  -0.023   2.298   0.339
 1890TIP3    H2 5677   0.095   2.367   0.274
 1891TIP3   OH2 5678   6.003   0.040   0.900
 1891TIP3    H1 5679   6.065   0.052   0.972
 1891TIP3    H2 5680   5.945  -0.030   0.929
 1892TIP3   OH2 5681   4.798   3.910   0.893
 1892TIP3    H1 5682   4.825   3.992   0.934
 1892TIP3    H2 5683   4.705   3.921   0.876
 1893TIP3   OH2 5684   0.345   1.639   4.527
 1893TIP3    H1 5685   0.333   1.713   4.467
 1893TIP3    H2 5686   0.261   1.629   4.570
 1894TIP3   OH2 5687   3.875   0.511   3.523
 1894TIP3    H1 5688   3.817   0.449   3.476
 1894TIP3    H2 5689   3.906   0.570   3.454
 1895TIP3   OH2 5690   5.660   4.901   1.310
 1895TIP3    H1 5691   5.579   4.853   1.294
 1895TIP3    H2 5692   5.642   4.990   1.280
 1896TIP3   OH2 5693   4.609   2.075   4.623
 1896TIP3    H1 5694   4.555   2.029   4.686
 1896TIP3    H2 5695   4.696   2.076   4.662
 1897TIP3   OH2 5696   4.755   5.842   4.554
 1897TIP3    H1 5697   4.811   5.840   4.477
 1897TIP3    H2 5698   4.740   5.750   4.576
 1898TIP3   OH2 5699   0.366   5.024   1.856
 1898TIP3    H1 5700   0.461   5.030   1.865
 1898TIP3    H2 5701   0.333   5.107   1.890
 1899TIP3   OH2 5702   4.659   2.834   2.542
 1899TIP3    H1 5703   4.713   2.913   2.533
 1899TIP3    H2 5704   4.715   2.763   2.510
 1900TIP3   OH2 5705   3.009   0.896   4.946
 1900TIP3    H1 5706   2.972   0.851   4.870
 1900TIP3    H2 5707   2.963   0.980   4.948
 1901TIP3   OH2 5708   0.154   4.780   4.923
 1901TIP3    H1 5709   0.157   4.716   4.851
 1901TIP3    H2 5710   0.154   4.865   4.879
 1902TIP3   OH2 5711   5.450   4.852   2.080
 1902TIP3    H1 5712   5.543   4.827   2.083
 1902TIP3    H2 5713   5.429   4.877   2.170
 1903TIP3   OH2 5714   1.535   0.634   3.727
 1903TIP3    H1 5715   1.610   0.684   3.760
 1903TIP3    H2 5716   1.460   0.673   3.770
 1904TIP3   OH2 5717   2.372   0.211   0.643
 1904TIP3    H1 5718   2.428   0.139   0.674
 1904TIP3    H2 5719   2.377   0.276   0.713
 1905TIP3   OH2 5720   2.706   1.859   4.251
 1905TIP3    H1 5721   2.660   1.780   4.280
 1905TIP3    H2 5722   2.798   1.841   4.268
 1906TIP3   OH2 5723   0.524   5.794   4.150
 1906TIP3    H1 5724   0.501   5.713   4.104
 1906TIP3    H2 5725   0.454   5.855   4.126
 1907TIP3   OH2 5726   3.580   4.944   5.115
 1907TIP3    H1 5727   3.665   4.968   5.077
 1907TIP3    H2 5728   3.569   5.004   5.188
 1908TIP3   OH2 5729   3.256   5.505   0.048
 1908TIP3    H1 5730   3.267   5.415   0.017
 1908TIP3    H2 5731   3.175   5.535   0.008
 1909TIP3   OH2 5732   3.118   2.857   2.839
 1909TIP3    H1 5733   3.054   2.893   2.901
 1909TIP3    H2 5734   3.168   2.793   2.890
 1910TIP3   OH2 5735   4.271   5.578   4.081
 1910TIP3    H1 5736   4.202   5.519   4.113
 1910TIP3    H2 5737   4.226   5.638   4.021
 1911TIP3   OH2 5738   3.063   1.108   5.211
 1911TIP3    H1 5739   3.042   1.031   5.263
 1911TIP3    H2 5740   2.980   1.132   5.168
 1912TIP3   OH2 5741   5.566  -0.015   4.003
 1912TIP3    H1 5742   5.535   0.076   4.005
 1912TIP3    H2 5743   5.647  -0.012   3.951
 1913TIP3   OH2 5744   4.905   2.439   1.550
 1913TIP3    H1 5745   4.821   2.467   1.513
 1913TIP3    H2 5746   4.955   2.520   1.559
 1914TIP3   OH2 5747   2.604   5.263   4.646
 1914TIP3    H1 5748   2.695   5.267   4.674
 1914TIP3    H2 5749   2.602   5.313   4.564
 1915TIP3   OH2 5750   5.582   5.913   1.146
 1915TIP3    H1 5751   5.612   5.986   1.092
 1915TIP3    H2 5752   5.536   5.855   1.085
 1916TIP3   OH2 5753   0.219   4.641   2.230
 1916TIP3    H1 5754   0.195   4.633   2.138
 1916TIP3    H2 5755   0.184   4.561   2.271
 1917TIP3   OH2 5756   0.877   3.854   0.712
 1917TIP3    H1 5757   0.914   3.924   0.766
 1917TIP3    H2 5758   0.802   3.822   0.763
 1918TIP3   OH2 5759   1.403   0.444   2.057
 1918TIP3    H1 5760   1.343   0.375   2.084
 1918TIP3    H2 5761   1.410   0.501   2.134
 1919TIP3   OH2 5762   5.070   5.730   0.751
 1919TIP3    H1 5763   4.979   5.737   0.723
 1919TIP3    H2 5764   5.084   5.808   0.805
 1920TIP3   OH2 5765   0.027   2.931   1.308
 1920TIP3    H1 5766   0.103   2.932   1.251
 1920TIP3    H2 5767   0.053   2.983   1.384
 1921TIP3   OH2 5768   2.333   1.048   1.891
 1921TIP3    H1 5769   2.284   1.102   1.952
 1921TIP3    H2 5770   2.374   0.981   1.945
 1922TIP3   OH2 5771   2.578   5.918   5.126
 1922TIP3    H1 5772   2.591   5.990   5.064
 1922TIP3    H2 5773   2.666   5.895   5.155
 1923TIP3   OH2 5774   5.648   4.323   0.942
 1923TIP3    H1 5775   5.588   4.385   0.901
 1923TIP3    H2 5776   5.715   4.307   0.876
 1924TIP3   OH2 5777   6.178   5.019   1.565
 1924TIP3    H1 5778   6.199   5.029   1.472
 1924TIP3    H2 5779   6.126   5.096   1.587
 1925TIP3   OH2 5780   3.293   4.450   4.453
 1925TIP3    H1 5781   3.286   4.537   4.493
 1925TIP3    H2 5782   3.313   4.468   4.361
 1926TIP3   OH2 5783   4.860   2.216   1.699
 1926TIP3    H1 5784   4.812   2.236   1.780
 1926TIP3    H2 5785   4.866   2.300   1.654
 1927TIP3   OH2 5786   2.805   1.830   5.053
 1927TIP3    H1 5787   2.785   1.826   5.147
 1927TIP3    H2 5788   2.816   1.923   5.035
 1928TIP3   OH2 5789   1.014   1.911   3.681
 1928TIP3    H1 5790   0.980   1.974   3.617
 1928TIP3    H2 5791   0.945   1.845   3.688
 1929TIP3   OH2 5792   1.301   5.667   4.941
 1929TIP3    H1 5793   1.379   5.617   4.917
 1929TIP3    H2 5794   1.331   5.729   5.007
 1930TIP3   OH2 5795   1.852   4.653   2.363
 1930TIP3    H1 5796   1.883   4.584   2.304
 1930TIP3    H2 5797   1.927   4.712   2.373
 1931TIP3   OH2 5798   0.820   5.567   2.146
 1931TIP3    H1 5799   0.916   5.569   2.148
 1931TIP3    H2 5800   0.794   5.634   2.209
 1932TIP3   OH2 5801   5.283   3.125   0.601
 1932TIP3    H1 5802   5.207   3.091   0.648
 1932TIP3    H2 5803   5.336   3.047   0.581
 1933TIP3   OH2 5804   4.708   4.068   2.682
 1933TIP3    H1 5805   4.729   3.977   2.705
 1933TIP3    H2 5806   4.788   4.101   2.641
 1934TIP3   OH2 5807   5.698   1.909   4.372
 1934TIP3    H1 5808   5.727   1.892   4.461
 1934TIP3    H2 5809   5.767   1.963   4.334
 1935TIP3   OH2 5810   1.147   5.010   5.014
 1935TIP3    H1 5811   1.097   5.079   5.058
 1935TIP3    H2 5812   1.238   5.042   5.015
 1936TIP3   OH2 5813   1.303   0.972   0.055
 1936TIP3    H1 5814   1.315   1.012  -0.031
 1936TIP3    H2 5815   1.372   0.906   0.060
 1937TIP3   OH2 5816   5.692   0.617   4.925
 1937TIP3    H1 5817   5.664   0.550   4.987
 1937TIP3    H2 5818   5.627   0.687   4.935
 1938TIP3   OH2 5819   3.268   5.274   0.492
 1938TIP3    H1 5820   3.277   5.369   0.498
 1938TIP3    H2 5821   3.189   5.261   0.439
 1939TIP3   OH2 5822   3.754   4.472   1.027
 1939TIP3    H1 5823   3.795   4.490   1.112
 1939TIP3    H2 5824   3.660   4.471   1.045
 1940TIP3   OH2 5825   5.700   3.654   3.957
 1940TIP3    H1 5826   5.744   3.571   3.943
 1940TIP3    H2 5827   5.634   3.636   4.024
 1941TIP3   OH2 5828   2.873   3.140   5.019
 1941TIP3    H1 5829   2.808   3.207   4.999
 1941TIP3    H2 5830   2.824   3.070   5.062
 1942TIP3   OH2 5831   5.488   4.044   2.262
 1942TIP3    H1 5832   5.474   4.051   2.167
 1942TIP3    H2 5833   5.484   4.133   2.294
 1943TIP3   OH2 5834   6.015   2.738   1.958
 1943TIP3    H1 5835   6.064   2.658   1.971
 1943TIP3    H2 5836   5.930   2.710   1.923
 1944TIP3   OH2 5837   5.322   0.731   3.945
 1944TIP3    H1 5838   5.276   0.811   3.918
 1944TIP3    H2 5839   5.378   0.759   4.017
 1945TIP3   OH2 5840   3.707   5.968   2.425
 1945TIP3    H1 5841   3.670   5.911   2.357
 1945TIP3    H2 5842   3.688   6.057   2.394
 1946TIP3   OH2 5843   6.287   5.871   1.756
 1946TIP3    H1 5844   6.221   5.913   1.702
 1946TIP3    H2 5845   6.351   5.940   1.774
 1947TIP3   OH2 5846   3.754   5.833   3.801
 1947TIP3    H1 5847   3.679   5.875   3.758
 1947TIP3    H2 5848   3.822   5.899   3.802
 1948TIP3   OH2 5849   3.130   1.054   2.936
 1948TIP3    H1 5850   3.205   1.051   2.877
 1948TIP3    H2 5851   3.168   1.044   3.024
 1949TIP3   OH2 5852   3.860   0.720   5.115
 1949TIP3    H1 5853   3.786   0.776   5.096
 1949TIP3    H2 5854   3.874   0.669   5.035
 1950TIP3   OH2 5855   1.582   0.413   4.717
 1950TIP3    H1 5856   1.640   0.417   4.792
 1950TIP3    H2 5857   1.535   0.330   4.728
 1951TIP3   OH2 5858   5.163   5.463   0.323
 1951TIP3    H1 5859   5.163   5.538   0.383
 1951TIP3    H2 5860   5.247   5.468   0.278
 1952TIP3   OH2 5861   3.578   0.561   1.131
 1952TIP3    H1 5862   3.643   0.609   1.182
 1952TIP3    H2 5863   3.510   0.538   1.195
 1953TIP3   OH2 5864   1.143   0.659   0.290
 1953TIP3    H1 5865   1.126   0.650   0.196
 1953TIP3    H2 5866   1.062   0.628   0.332
 1954TIP3   OH2 5867   6.170   1.902   3.841
 1954TIP3    H1 5868   6.210   1.881   3.756
 1954TIP3    H2 5869   6.081   1.930   3.819
 1955TIP3   OH2 5870   4.269   1.187   3.200
 1955TIP3    H1 5871   4.365   1.183   3.196
 1955TIP3    H2 5872   4.245   1.249   3.131
 1956TIP3   OH2 5873   6.043   0.792   0.950
 1956TIP3    H1 5874   6.118   0.747   0.913
 1956TIP3    H2 5875   5.971   0.728   0.944
 1957TIP3   OH2 5876   2.771   5.360   0.738
 1957TIP3    H1 5877   2.785   5.400   0.824
 1957TIP3    H2 5878   2.851   5.311   0.720
 1958TIP3   OH2 5879   2.036   1.134   3.397
 1958TIP3    H1 5880   2.109   1.168   3.448
 1958TIP3    H2 5881   1.958   1.163   3.444
 1959TIP3   OH2 5882   3.835   3.483   0.072
 1959TIP3    H1 5883   3.915   3.431   0.074
 1959TIP3    H2 5884   3.788   3.458   0.152
 1960TIP3   OH2 5885   3.130   4.077   1.839
 1960TIP3    H1 5886   3.113   4.084   1.933
 1960TIP3    H2 5887   3.073   4.007   1.809
 1961TIP3   OH2 5888   2.722   5.050   5.038
 1961TIP3    H1 5889   2.631   5.064   5.012
 1961TIP3    H2 5890   2.764   5.013   4.961
 1962TIP3   OH2 5891   2.462   3.720   3.913
 1962TIP3    H1 5892   2.531   3.786   3.901
 1962TIP3    H2 5893   2.496   3.662   3.982
 1963TIP3   OH2 5894   0.844   0.223   2.697
 1963TIP3    H1 5895   0.793   0.304   2.702
 1963TIP3    H2 5896   0.924   0.247   2.650
 1964TIP3   OH2 5897   1.379   4.501  -0.015
 1964TIP3    H1 5898   1.296   4.485   0.031
 1964TIP3    H2 5899   1.433   4.425   0.006
 1965TIP3   OH2 5900   3.837   4.474   0.457
 1965TIP3    H1 5901   3.861   4.412   0.526
 1965TIP3    H2 5902   3.819   4.419   0.381
 1966TIP3   OH2 5903   5.065   3.306   3.166
 1966TIP3    H1 5904   4.992   3.267   3.214
 1966TIP3    H2 5905   5.136   3.241   3.173
 1967TIP3   OH2 5906   2.424   5.967   2.031
 1967TIP3    H1 5907   2.396   5.886   1.988
 1967TIP3    H2 5908   2.520   5.963   2.028
 1968TIP3   OH2 5909   3.581   2.904   3.764
 1968TIP3    H1 5910   3.650   2.908   3.830
 1968TIP3    H2 5911   3.625   2.870   3.686
 1969TIP3   OH2 5912   1.531   3.296   2.583
 1969TIP3    H1 5913   1.573   3.378   2.607
 1969TIP3    H2 5914   1.440   3.318   2.565
 1970TIP3   OH2 5915   0.187   4.883   4.639
 1970TIP3    H1 5916   0.234   4.955   4.597
 1970TIP3    H2 5917   0.214   4.805   4.590
 1971TIP3   OH2 5918   3.868   3.101   2.385
 1971TIP3    H1 5919   3.879   3.011   2.417
 1971TIP3    H2 5920   3.798   3.137   2.440
 1972TIP3   OH2 5921   1.582   5.911   1.648
 1972TIP3    H1 5922   1.578   5.843   1.580
 1972TIP3    H2 5923   1.667   5.953   1.634
 1973TIP3   OH2 5924   3.740   5.148   1.538
 1973TIP3    H1 5925   3.647   5.140   1.514
 1973TIP3    H2 5926   3.782   5.179   1.458
 1974TIP3   OH2 5927   2.507   0.445   1.167
 1974TIP3    H1 5928   2.495   0.378   1.235
 1974TIP3    H2 5929   2.573   0.408   1.109
 1975TIP3   OH2 5930   0.095   3.795   4.970
 1975TIP3    H1 5931   0.043   3.874   4.953
 1975TIP3    H2 5932   0.032   3.732   5.005
 1976TIP3   OH2 5933   0.921   3.409   4.618
 1976TIP3    H1 5934   0.891   3.397   4.528
 1976TIP3    H2 5935   1.003   3.360   4.623
 1977TIP3   OH2 5936   0.553   1.385   4.749
 1977TIP3    H1 5937   0.484   1.338   4.796
 1977TIP3    H2 5938   0.627   1.325   4.749
 1978TIP3   OH2 5939   0.779   3.570   0.350
 1978TIP3    H1 5940   0.825   3.571   0.434
 1978TIP3    H2 5941   0.689   3.543   0.372
 1979TIP3   OH2 5942   2.798   4.218   2.653
 1979TIP3    H1 5943   2.733   4.193   2.719
 1979TIP3    H2 5944   2.801   4.143   2.594
 1980TIP3   OH2 5945   5.156   0.200   3.935
 1980TIP3    H1 5946   5.249   0.223   3.927
 1980TIP3    H2 5947   5.146   0.174   4.026
 1981TIP3   OH2 5948   5.908   0.914   3.697
 1981TIP3    H1 5949   5.941   0.833   3.736
 1981TIP3    H2 5950   5.967   0.931   3.624
 1982TIP3   OH2 5951   3.264   4.028   1.152
 1982TIP3    H1 5952   3.195   4.094   1.150
 1982TIP3    H2 5953   3.342   4.073   1.119
 1983TIP3   OH2 5954   0.667   2.208   4.338
 1983TIP3    H1 5955   0.753   2.231   4.302
 1983TIP3    H2 5956   0.687   2.166   4.421
 1984TIP3   OH2 5957   4.901   5.664   1.994
 1984TIP3    H1 5958   4.806   5.667   1.980
 1984TIP3    H2 5959   4.930   5.586   1.947
 1985TIP3   OH2 5960   2.790   3.688   1.926
 1985TIP3    H1 5961   2.787   3.718   1.835
 1985TIP3    H2 5962   2.726   3.744   1.971
 1986TIP3   OH2 5963   0.863   3.890   4.672
 1986TIP3    H1 5964   0.802   3.836   4.622
 1986TIP3    H2 5965   0.846   3.867   4.764
 1987TIP3   OH2 5966   1.377   0.705   2.856
 1987TIP3    H1 5967   1.376   0.781   2.798
 1987TIP3    H2 5968   1.408   0.633   2.801
 1988TIP3   OH2 5969   0.273   4.163   2.593
 1988TIP3    H1 5970   0.292   4.071   2.609
 1988TIP3    H2 5971   0.302   4.208   2.673
 1989TIP3   OH2 5972   1.671   2.840   4.054
 1989TIP3    H1 5973   1.692   2.884   3.972
 1989TIP3    H2 5974   1.755   2.825   4.096
 1990TIP3   OH2 5975   4.350   5.184   3.755
 1990TIP3    H1 5976   4.292   5.122   3.712
 1990TIP3    H2 5977   4.318   5.188   3.845
 1991TIP3   OH2 5978   2.317   0.757   3.270
 1991TIP3    H1 5979   2.323   0.718   3.183
 1991TIP3    H2 5980   2.308   0.682   3.330
 1992TIP3   OH2 5981   3.673   2.739   4.126
 1992TIP3    H1 5982   3.696   2.806   4.062
 1992TIP3    H2 5983   3.673   2.785   4.210
 1993TIP3   OH2 5984   5.751   0.219   1.965
 1993TIP3    H1 5985   5.666   0.231   2.008
 1993TIP3    H2 5986   5.756   0.125   1.948
 1994TIP3   OH2 5987   3.642   2.969   2.737
 1994TIP3    H1 5988   3.662   2.876   2.746
 1994TIP3    H2 5989   3.591   2.991   2.816
 1995TIP3   OH2 5990   2.626   4.277   4.886
 1995TIP3    H1 5991   2.619   4.189   4.847
 1995TIP3    H2 5992   2.715   4.280   4.922
 1996TIP3   OH2 5993   0.945   4.299   2.884
 1996TIP3    H1 5994   0.852   4.320   2.888
 1996TIP3    H2 5995   0.989   4.383   2.895
 1997TIP3   OH2 5996   4.203   0.584   4.469
 1997TIP3    H1 5997   4.254   0.650   4.423
 1997TIP3    H2 5998   4.190   0.620   4.557
 1998TIP3   OH2 5999   1.933   5.387   0.541
 1998TIP3    H1 6000   2.027   5.369   0.546
 1998TIP3    H2 6001   1.892   5.302   0.526
 1999TIP3   OH2 6002   3.763   1.912   0.629
 1999TIP3    H1 6003   3.853   1.885   0.648
 1999TIP3    H2 6004   3.717   1.904   0.712
 2000TIP3   OH2 6005   6.236   2.269   4.154
 2000TIP3    H1 6006   6.295   2.203   4.118
 2000TIP3    H2 6007   6.165   2.275   4.091
 2001TIP3   OH2 6008   4.816   3.819   2.664
 2001TIP3    H1 6009   4.876   3.763   2.616
 2001TIP3    H2 6010   4.736   3.767   2.672
 2002TIP3   OH2 6011   3.251   5.806   1.745
 2002TIP3    H1 6012   3.324   5.750   1.720
 2002TIP3    H2 6013   3.177   5.746   1.759
 2003TIP3   OH2 6014   3.582   4.302   3.670
 2003TIP3    H1 6015   3.629   4.220   3.657
 2003TIP3    H2 6016   3.493   4.284   3.638
 2004TIP3   OH2 6017   5.674   3.190   4.912
 2004TIP3    H1 6018   5.744   3.256   4.913
 2004TIP3    H2 6019   5.638   3.192   5.000
 2005TIP3   OH2 6020   1.137   3.011   2.300
 2005TIP3    H1 6021   1.044   3.014   2.277
 2005TIP3    H2 6022   1.172   2.940   2.247
 2006TIP3   OH2 6023   3.722   5.078   0.871
 2006TIP3    H1 6024   3.635   5.041   0.886
 2006TIP3    H2 6025   3.732   5.145   0.939
 2007TIP3   OH2 6026   0.633   0.583   4.384
 2007TIP3    H1 6027   0.610   0.589   4.477
 2007TIP3    H2 6028   0.556   0.544   4.343
 2008TIP3   OH2 6029   5.075   1.685   0.379
 2008TIP3    H1 6030   5.142   1.699   0.447
 2008TIP3    H2 6031   5.120   1.637   0.310
 2009TIP3   OH2 6032   2.661   1.359   0.459
 2009TIP3    H1 6033   2.570   1.390   0.460
 2009TIP3    H2 6034   2.695   1.388   0.375
 2010TIP3   OH2 6035   4.687   3.038   5.110
 2010TIP3    H1 6036   4.729   3.092   5.043
 2010TIP3    H2 6037   4.609   3.087   5.135
 2011TIP3   OH2 6038   0.143   0.454   4.231
 2011TIP3    H1 6039   0.190   0.526   4.189
 2011TIP3    H2 6040   0.143   0.384   4.165
 2012TIP3   OH2 6041   2.581   5.258   4.216
 2012TIP3    H1 6042   2.625   5.294   4.293
 2012TIP3    H2 6043   2.525   5.189   4.251
 2013TIP3   OH2 6044   3.929   5.203   1.327
 2013TIP3    H1 6045   3.876   5.217   1.248
 2013TIP3    H2 6046   4.017   5.184   1.294
 2014TIP3   OH2 6047   4.383   2.092   2.057
 2014TIP3    H1 6048   4.457   2.041   2.024
 2014TIP3    H2 6049   4.343   2.129   1.979
 2015TIP3   OH2 6050   3.488   5.049   1.741
 2015TIP3    H1 6051   3.577   5.014   1.740
 2015TIP3    H2 6052   3.481   5.099   1.659
 2016TIP3   OH2 6053   5.195   2.154   4.645
 2016TIP3    H1 6054   5.268   2.118   4.594
 2016TIP3    H2 6055   5.149   2.211   4.584
 2017TIP3   OH2 6056   0.480   5.412   2.982
 2017TIP3    H1 6057   0.435   5.439   3.062
 2017TIP3    H2 6058   0.422   5.347   2.943
 2018TIP3   OH2 6059   1.780  -0.011   0.137
 2018TIP3    H1 6060   1.822  -0.086   0.097
 2018TIP3    H2 6061   1.839   0.062   0.119
 2019TIP3   OH2 6062   0.616   1.413   0.455
 2019TIP3    H1 6063   0.634   1.488   0.398
 2019TIP3    H2 6064   0.677   1.345   0.426
 2020TIP3   OH2 6065   2.979   1.271   1.224
 2020TIP3    H1 6066   2.941   1.280   1.312
 2020TIP3    H2 6067   2.917   1.316   1.167
 2021TIP3   OH2 6068   1.667   5.444   3.926
 2021TIP3    H1 6069   1.700   5.504   3.859
 2021TIP3    H2 6070   1.575   5.431   3.903
 2022TIP3   OH2 6071   1.196   3.031   4.632
 2022TIP3    H1 6072   1.289   3.011   4.620
 2022TIP3    H2 6073   1.150   2.956   4.592
 2023TIP3   OH2 6074   1.347   2.591   4.666
 2023TIP3    H1 6075   1.425   2.536   4.666
 2023TIP3    H2 6076   1.360   2.650   4.740
 2024TIP3   OH2 6077   0.329   2.600   4.485
 2024TIP3    H1 6078   0.320   2.535   4.554
 2024TIP3    H2 6079   0.303   2.554   4.405
 2025TIP3   OH2 6080   2.798   5.321   1.139
 2025TIP3    H1 6081   2.884   5.286   1.119
 2025TIP3    H2 6082   2.742   5.244   1.149
 2026TIP3   OH2 6083   0.155   2.522   4.168
 2026TIP3    H1 6084   0.116   2.456   4.225
 2026TIP3    H2 6085   0.243   2.488   4.151
 2027TIP3   OH2 6086   3.676   0.654   2.020
 2027TIP3    H1 6087   3.712   0.743   2.024
 2027TIP3    H2 6088   3.749   0.600   1.989
 2028TIP3   OH2 6089   3.983   1.814   0.039
 2028TIP3    H1 6090   3.925   1.778   0.106
 2028TIP3    H2 6091   3.954   1.774  -0.043
 2029TIP3   OH2 6092   2.873   2.774   0.155
 2029TIP3    H1 6093   2.829   2.719   0.220
 2029TIP3    H2 6094   2.900   2.713   0.086
 2030TIP3   OH2 6095   3.521   3.661   0.716
 2030TIP3    H1 6096   3.449   3.667   0.653
 2030TIP3    H2 6097   3.598   3.687   0.666
 2031TIP3   OH2 6098   5.666   3.775   4.364
 2031TIP3    H1 6099   5.712   3.750   4.445
 2031TIP3    H2 6100   5.728   3.833   4.318
 2032TIP3   OH2 6101   1.566   5.130   1.759
 2032TIP3    H1 6102   1.587   5.200   1.821
 2032TIP3    H2 6103   1.606   5.158   1.677
 2033TIP3   OH2 6104   3.278   1.618   0.534
 2033TIP3    H1 6105   3.294   1.625   0.440
 2033TIP3    H2 6106   3.340   1.551   0.564
 2034TIP3   OH2 6107   0.916   5.095   4.160
 2034TIP3    H1 6108   0.856   5.071   4.089
 2034TIP3    H2 6109   0.872   5.166   4.206
 2035TIP3   OH2 6110   3.074   0.269   1.815
 2035TIP3    H1 6111   3.005   0.289   1.752
 2035TIP3    H2 6112   3.154   0.301   1.773
 2036TIP3   OH2 6113   2.697   2.610   0.607
 2036TIP3    H1 6114   2.683   2.627   0.700
 2036TIP3    H2 6115   2.622   2.557   0.580
 2037TIP3   OH2 6116   3.881   4.569   2.219
 2037TIP3    H1 6117   3.892   4.545   2.127
 2037TIP3    H2 6118   3.970   4.569   2.255
 2038TIP3   OH2 6119   6.150   2.451   3.634
 2038TIP3    H1 6120   6.130   2.426   3.543
 2038TIP3    H2 6121   6.146   2.368   3.682
 2039TIP3   OH2 6122   0.511   0.886   2.300
 2039TIP3    H1 6123   0.600   0.884   2.336
 2039TIP3    H2 6124   0.525   0.893   2.205
 2040TIP3   OH2 6125   5.676   1.476   4.834
 2040TIP3    H1 6126   5.735   1.480   4.759
 2040TIP3    H2 6127   5.705   1.546   4.892
 2041TIP3   OH2 6128   3.750   3.033   3.036
 2041TIP3    H1 6129   3.658   3.055   3.024
 2041TIP3    H2 6130   3.751   2.939   3.052
 2042TIP3   OH2 6131   5.936   2.583   0.477
 2042TIP3    H1 6132   5.958   2.532   0.399
 2042TIP3    H2 6133   5.943   2.520   0.549
 2043TIP3   OH2 6134   4.734   3.345   0.569
 2043TIP3    H1 6135   4.723   3.439   0.580
 2043TIP3    H2 6136   4.678   3.306   0.636
 2044TIP3   OH2 6137   4.650   3.228   1.557
 2044TIP3    H1 6138   4.728   3.205   1.507
 2044TIP3    H2 6139   4.658   3.180   1.638
 2045TIP3   OH2 6140   3.007   4.447   3.204
 2045TIP3    H1 6141   2.911   4.453   3.210
 2045TIP3    H2 6142   3.034   4.535   3.175
 2046TIP3   OH2 6143   3.809   2.743   1.158
 2046TIP3    H1 6144   3.804   2.824   1.107
 2046TIP3    H2 6145   3.725   2.701   1.146
 2047TIP3   OH2 6146   0.744   0.537   1.369
 2047TIP3    H1 6147   0.758   0.614   1.423
 2047TIP3    H2 6148   0.662   0.555   1.323
 2048TIP3   OH2 6149   5.493   3.604   0.768
 2048TIP3    H1 6150   5.489   3.520   0.723
 2048TIP3    H2 6151   5.403   3.637   0.766
 2049TIP3   OH2 6152   2.320   0.533   1.820
 2049TIP3    H1 6153   2.280   0.519   1.734
 2049TIP3    H2 6154   2.382   0.460   1.829
 2050TIP3   OH2 6155   4.682   2.545   1.422
 2050TIP3    H1 6156   4.595   2.519   1.452
 2050TIP3    H2 6157   4.667   2.584   1.335
 2051TIP3   OH2 6158   5.911   4.005   3.455
 2051TIP3    H1 6159   5.820   3.982   3.434
 2051TIP3    H2 6160   5.915   4.000   3.550
 2052TIP3   OH2 6161   1.711   2.225   3.792
 2052TIP3    H1 6162   1.632   2.204   3.841
 2052TIP3    H2 6163   1.725   2.150   3.734
 2053TIP3   OH2 6164   2.060   4.207   1.649
 2053TIP3    H1 6165   2.084   4.138   1.587
 2053TIP3    H2 6166   2.139   4.221   1.701
 2054TIP3   OH2 6167   0.196   0.273   1.770
 2054TIP3    H1 6168   0.282   0.274   1.811
 2054TIP3    H2 6169   0.210   0.312   1.684
 2055TIP3   OH2 6170   4.411   1.545   1.975
 2055TIP3    H1 6171   4.378   1.537   1.885
 2055TIP3    H2 6172   4.422   1.455   2.005
 2056TIP3   OH2 6173   5.943   5.727   3.757
 2056TIP3    H1 6174   5.945   5.767   3.670
 2056TIP3    H2 6175   5.885   5.784   3.809
 2057TIP3   OH2 6176   1.540   5.518   4.858
 2057TIP3    H1 6177   1.619   5.546   4.812
 2057TIP3    H2 6178   1.534   5.424   4.839
 2058TIP3   OH2 6179   4.318   2.192   4.812
 2058TIP3    H1 6180   4.340   2.111   4.767
 2058TIP3    H2 6181   4.362   2.186   4.896
 2059TIP3   OH2 6182   0.915   3.225   1.654
 2059TIP3    H1 6183   0.844   3.219   1.717
 2059TIP3    H2 6184   0.873   3.250   1.572
 2060TIP3   OH2 6185   3.478   3.292   3.872
 2060TIP3    H1 6186   3.572   3.278   3.870
 2060TIP3    H2 6187   3.440   3.206   3.852
 2061TIP3   OH2 6188   2.660   2.729   3.264
 2061TIP3    H1 6189   2.611   2.732   3.346
 2061TIP3    H2 6190   2.656   2.818   3.230
 2062TIP3   OH2 6191   4.054   0.820   2.645
 2062TIP3    H1 6192   4.074   0.871   2.566
 2062TIP3    H2 6193   4.123   0.843   2.707
 2063TIP3   OH2 6194   2.222   2.747   3.889
 2063TIP3    H1 6195   2.272   2.696   3.826
 2063TIP3    H2 6196   2.184   2.682   3.948
 2064TIP3   OH2 6197   2.880   5.330   4.727
 2064TIP3    H1 6198   2.942   5.257   4.724
 2064TIP3    H2 6199   2.880   5.358   4.819
 2065TIP3   OH2 6200   3.545   1.591   1.931
 2065TIP3    H1 6201   3.460   1.630   1.912
 2065TIP3    H2 6202   3.585   1.651   1.994
 2066TIP3   OH2 6203   5.411   5.774   4.464
 2066TIP3    H1 6204   5.337   5.830   4.442
 2066TIP3    H2 6205   5.471   5.831   4.511
 2067TIP3   OH2 6206   4.391   1.496   4.215
 2067TIP3    H1 6207   4.321   1.518   4.276
 2067TIP3    H2 6208   4.467   1.477   4.271
 2068TIP3   OH2 6209   4.928   4.409   1.885
 2068TIP3    H1 6210   4.851   4.458   1.915
 2068TIP3    H2 6211   4.984   4.474   1.844
 2069TIP3   OH2 6212   4.606   0.704   5.155
 2069TIP3    H1 6213   4.698   0.699   5.179
 2069TIP3    H2 6214   4.575   0.787   5.193
 2070TIP3   OH2 6215   6.117   4.413   1.408
 2070TIP3    H1 6216   6.146   4.322   1.403
 2070TIP3    H2 6217   6.116   4.443   1.317
 2071TIP3   OH2 6218   5.584   2.726   4.377
 2071TIP3    H1 6219   5.533   2.771   4.309
 2071TIP3    H2 6220   5.522   2.712   4.448
 2072TIP3   OH2 6221   3.939   0.319   3.287
 2072TIP3    H1 6222   3.893   0.236   3.293
 2072TIP3    H2 6223   4.011   0.311   3.350
 2073TIP3   OH2 6224   2.224   2.697   0.894
 2073TIP3    H1 6225   2.152   2.671   0.836
 2073TIP3    H2 6226   2.193   2.676   0.982
 2074TIP3   OH2 6227   3.811   1.233   0.289
 2074TIP3    H1 6228   3.793   1.327   0.292
 2074TIP3    H2 6229   3.799   1.204   0.380
 2075TIP3   OH2 6230   2.914   4.040   3.427
 2075TIP3    H1 6231   3.010   4.048   3.420
 2075TIP3    H2 6232   2.884   4.041   3.337
 2076TIP3   OH2 6233   3.321   0.297   0.203
 2076TIP3    H1 6234   3.272   0.254   0.273
 2076TIP3    H2 6235   3.395   0.339   0.247
 2077TIP3   OH2 6236   0.397   3.181   0.913
 2077TIP3    H1 6237   0.458   3.239   0.867
 2077TIP3    H2 6238   0.400   3.211   1.004
 2078TIP3   OH2 6239   2.125   5.035   3.519
 2078TIP3    H1 6240   2.199   5.089   3.491
 2078TIP3    H2 6241   2.108   5.063   3.609
 2079TIP3   OH2 6242   1.564   0.774   0.526
 2079TIP3    H1 6243   1.530   0.713   0.591
 2079TIP3    H2 6244   1.531   0.740   0.442
 2080TIP3   OH2 6245   2.028   2.323   1.668
 2080TIP3    H1 6246   2.077   2.388   1.718
 2080TIP3    H2 6247   2.003   2.369   1.588
 2081TIP3   OH2 6248   4.711   5.516   4.495
 2081TIP3    H1 6249   4.634   5.566   4.469
 2081TIP3    H2 6250   4.677   5.431   4.520
 2082TIP3   OH2 6251   5.812   2.423   4.832
 2082TIP3    H1 6252   5.817   2.335   4.868
 2082TIP3    H2 6253   5.782   2.411   4.742
 2083TIP3   OH2 6254   1.682   5.508   3.494
 2083TIP3    H1 6255   1.639   5.552   3.567
 2083TIP3    H2 6256   1.638   5.542   3.416
 2084TIP3   OH2 6257   2.386   1.405   0.155
 2084TIP3    H1 6258   2.394   1.313   0.130
 2084TIP3    H2 6259   2.409   1.407   0.248
 2085TIP3   OH2 6260   4.721   0.387   1.672
 2085TIP3    H1 6261   4.654   0.350   1.728
 2085TIP3    H2 6262   4.694   0.365   1.583
 2086TIP3   OH2 6263   2.253   1.944   2.981
 2086TIP3    H1 6264   2.216   1.857   2.964
 2086TIP3    H2 6265   2.326   1.927   3.041
 2087TIP3   OH2 6266   4.273   3.754   1.959
 2087TIP3    H1 6267   4.194   3.806   1.945
 2087TIP3    H2 6268   4.338   3.818   1.988
 2088TIP3   OH2 6269   4.693   0.253   0.373
 2088TIP3    H1 6270   4.622   0.307   0.408
 2088TIP3    H2 6271   4.651   0.197   0.308
 2089TIP3   OH2 6272   1.527   5.585   0.647
 2089TIP3    H1 6273   1.543   5.492   0.638
 2089TIP3    H2 6274   1.570   5.610   0.728
 2090TIP3   OH2 6275   0.128   4.327   3.660
 2090TIP3    H1 6276   0.165   4.239   3.662
 2090TIP3    H2 6277   0.201   4.385   3.683
 2091TIP3   OH2 6278   2.825   3.727   2.539
 2091TIP3    H1 6279   2.831   3.713   2.633
 2091TIP3    H2 6280   2.848   3.819   2.526
 2092TIP3   OH2 6281   2.801   0.525   3.266
 2092TIP3    H1 6282   2.888   0.565   3.268
 2092TIP3    H2 6283   2.813   0.445   3.213
 2093TIP3   OH2 6284   1.027   5.282   0.893
 2093TIP3    H1 6285   0.994   5.371   0.882
 2093TIP3    H2 6286   1.039   5.272   0.987
 2094TIP3   OH2 6287   1.203   5.634   3.765
 2094TIP3    H1 6288   1.248   5.624   3.681
 2094TIP3    H2 6289   1.164   5.548   3.781
 2095TIP3   OH2 6290   2.404   5.821   4.924
 2095TIP3    H1 6291   2.465   5.835   4.996
 2095TIP3    H2 6292   2.365   5.736   4.942
 2096TIP3   OH2 6293   0.624   5.132   1.867
 2096TIP3    H1 6294   0.654   5.210   1.914
 2096TIP3    H2 6295   0.703   5.094   1.830
 2097TIP3   OH2 6296   3.444   0.692   1.891
 2097TIP3    H1 6297   3.509   0.664   1.955
 2097TIP3    H2 6298   3.495   0.722   1.816
 2098TIP3   OH2 6299   5.094   1.583   4.615
 2098TIP3    H1 6300   5.134   1.615   4.533
 2098TIP3    H2 6301   5.145   1.506   4.638
 2099TIP3   OH2 6302   1.738   4.248   3.333
 2099TIP3    H1 6303   1.704   4.286   3.414
 2099TIP3    H2 6304   1.660   4.232   3.280
 2100TIP3   OH2 6305   3.070   3.620   3.476
 2100TIP3    H1 6306   3.110   3.698   3.515
 2100TIP3    H2 6307   3.141   3.555   3.475
 2101TIP3   OH2 6308   5.239   4.713   4.972
 2101TIP3    H1 6309   5.224   4.754   5.057
 2101TIP3    H2 6310   5.272   4.784   4.917
 2102TIP3   OH2 6311   2.897   0.042   0.622
 2102TIP3    H1 6312   2.979  -0.007   0.617
 2102TIP3    H2 6313   2.925   0.133   0.634
 2103TIP3   OH2 6314   4.435   4.948   4.840
 2103TIP3    H1 6315   4.377   5.020   4.863
 2103TIP3    H2 6316   4.428   4.886   4.913
 2104TIP3   OH2 6317   3.449   3.656   4.477
 2104TIP3    H1 6318   3.389   3.590   4.442
 2104TIP3    H2 6319   3.514   3.669   4.408
 2105TIP3   OH2 6320   4.660   1.924   1.673
 2105TIP3    H1 6321   4.605   1.991   1.633
 2105TIP3    H2 6322   4.634   1.924   1.765
 2106TIP3   OH2 6323   3.980   0.910   2.970
 2106TIP3    H1 6324   3.929   0.865   2.904
 2106TIP3    H2 6325   4.059   0.940   2.923
 2107TIP3   OH2 6326   3.950   2.598   0.815
 2107TIP3    H1 6327   3.969   2.681   0.859
 2107TIP3    H2 6328   3.906   2.545   0.881
 2108TIP3   OH2 6329   2.271   1.459   2.585
 2108TIP3    H1 6330   2.299   1.519   2.654
 2108TIP3    H2 6331   2.252   1.377   2.630
 2109TIP3   OH2 6332   3.754   2.747   0.480
 2109TIP3    H1 6333   3.725   2.679   0.419
 2109TIP3    H2 6334   3.705   2.825   0.455
 2110TIP3   OH2 6335   2.124   0.861   0.391
 2110TIP3    H1 6336   2.066   0.792   0.359
 2110TIP3    H2 6337   2.144   0.836   0.480
 2111TIP3   OH2 6338   6.252   5.306   0.188
 2111TIP3    H1 6339   6.255   5.375   0.254
 2111TIP3    H2 6340   6.216   5.231   0.234
 2112TIP3   OH2 6341   4.995   3.224   4.126
 2112TIP3    H1 6342   5.055   3.280   4.077
 2112TIP3    H2 6343   4.941   3.182   4.060
 2113TIP3   OH2 6344   2.574   1.486   2.554
 2113TIP3    H1 6345   2.576   1.433   2.474
 2113TIP3    H2 6346   2.583   1.423   2.625
 2114TIP3   OH2 6347   3.280   4.732   1.136
 2114TIP3    H1 6348   3.312   4.769   1.218
 2114TIP3    H2 6349   3.213   4.794   1.106
 2115TIP3   OH2 6350   2.639   5.436   4.435
 2115TIP3    H1 6351   2.734   5.440   4.428
 2115TIP3    H2 6352   2.612   5.526   4.455
 2116TIP3   OH2 6353   0.772   5.281   1.590
 2116TIP3    H1 6354   0.840   5.327   1.542
 2116TIP3    H2 6355   0.820   5.220   1.646
 2117TIP3   OH2 6356   1.600   3.855   1.870
 2117TIP3    H1 6357   1.612   3.868   1.965
 2117TIP3    H2 6358   1.688   3.856   1.834
 2118TIP3   OH2 6359   1.515   5.147   2.273
 2118TIP3    H1 6360   1.439   5.201   2.251
 2118TIP3    H2 6361   1.568   5.148   2.193
 2119TIP3   OH2 6362   5.365   0.996   1.995
 2119TIP3    H1 6363   5.425   1.042   2.054
 2119TIP3    H2 6364   5.420   0.964   1.924
 2120TIP3   OH2 6365   6.297   5.852   3.044
 2120TIP3    H1 6366   6.253   5.929   3.008
 2120TIP3    H2 6367   6.390   5.872   3.038
 2121TIP3   OH2 6368   1.961   4.058   1.418
 2121TIP3    H1 6369   1.976   4.127   1.354
 2121TIP3    H2 6370   1.872   4.074   1.451
 2122TIP3   OH2 6371   2.692   2.274   2.808
 2122TIP3    H1 6372   2.614   2.256   2.756
 2122TIP3    H2 6373   2.763   2.226   2.764
 2123TIP3   OH2 6374   4.769   5.928   3.606
 2123TIP3    H1 6375   4.724   6.000   3.562
 2123TIP3    H2 6376   4.802   5.873   3.535
 2124TIP3   OH2 6377   4.047   1.946   2.244
 2124TIP3    H1 6378   4.097   1.872   2.209
 2124TIP3    H2 6379   4.113   2.001   2.286
 2125TIP3   OH2 6380   5.412   2.638   5.099
 2125TIP3    H1 6381   5.326   2.676   5.119
 2125TIP3    H2 6382   5.427   2.661   5.007
 2126TIP3   OH2 6383   2.633   3.495   2.787
 2126TIP3    H1 6384   2.575   3.426   2.821
 2126TIP3    H2 6385   2.716   3.480   2.831
 2127TIP3   OH2 6386   3.092   1.095   0.442
 2127TIP3    H1 6387   3.008   1.084   0.487
 2127TIP3    H2 6388   3.115   1.007   0.412
 2128TIP3   OH2 6389   4.386   0.647   1.357
 2128TIP3    H1 6390   4.454   0.636   1.424
 2128TIP3    H2 6391   4.419   0.599   1.281
 2129TIP3   OH2 6392   3.904   5.261   3.021
 2129TIP3    H1 6393   3.938   5.252   3.110
 2129TIP3    H2 6394   3.898   5.171   2.989
 2130TIP3   OH2 6395   2.191   1.150   2.106
 2130TIP3    H1 6396   2.155   1.078   2.158
 2130TIP3    H2 6397   2.186   1.226   2.164
 2131TIP3   OH2 6398   5.025   5.643   5.089
 2131TIP3    H1 6399   5.019   5.593   5.007
 2131TIP3    H2 6400   5.065   5.582   5.151
 2132TIP3   OH2 6401   3.641   3.578   4.697
 2132TIP3    H1 6402   3.626   3.596   4.605
 2132TIP3    H2 6403   3.631   3.483   4.705
 2133TIP3   OH2 6404   6.257   0.512   2.174
 2133TIP3    H1 6405   6.170   0.542   2.147
 2133TIP3    H2 6406   6.241   0.464   2.255
 2134TIP3   OH2 6407   5.302   3.443   4.311
 2134TIP3    H1 6408   5.303   3.392   4.230
 2134TIP3    H2 6409   5.286   3.533   4.283
 2135TIP3   OH2 6410   2.608   0.133   3.156
 2135TIP3    H1 6411   2.515   0.128   3.131
 2135TIP3    H2 6412   2.606   0.154   3.249
 2136TIP3   OH2 6413   5.037   0.460   1.621
 2136TIP3    H1 6414   5.042   0.364   1.619
 2136TIP3    H2 6415   5.075   0.488   1.538
 2137TIP3   OH2 6416   4.351   3.613   4.619
 2137TIP3    H1 6417   4.340   3.548   4.688
 2137TIP3    H2 6418   4.445   3.611   4.599
 2138TIP3   OH2 6419   0.830   4.791   4.543
 2138TIP3    H1 6420   0.873   4.705   4.546
 2138TIP3    H2 6421   0.741   4.773   4.514
 2139TIP3   OH2 6422   4.263   5.404   0.286
 2139TIP3    H1 6423   4.213   5.389   0.207
 2139TIP3    H2 6424   4.350   5.367   0.267
 2140TIP3   OH2 6425   4.057   3.432   0.856
 2140TIP3    H1 6426   4.021   3.367   0.916
 2140TIP3    H2 6427   4.051   3.515   0.904
 2141TIP3   OH2 6428   3.290   5.957   0.236
 2141TIP3    H1 6429   3.339   5.890   0.186
 2141TIP3    H2 6430   3.275   6.027   0.173
 2142TIP3   OH2 6431   2.203   2.693   0.187
 2142TIP3    H1 6432   2.289   2.728   0.209
 2142TIP3    H2 6433   2.221   2.616   0.134
 2143TIP3   OH2 6434   1.703   2.204   1.563
 2143TIP3    H1 6435   1.691   2.297   1.580
 2143TIP3    H2 6436   1.770   2.201   1.494
 2144TIP3   OH2 6437   3.006   5.038   3.233
 2144TIP3    H1 6438   2.961   4.973   3.288
 2144TIP3    H2 6439   3.006   5.118   3.285
 2145TIP3   OH2 6440   0.707   2.796   5.050
 2145TIP3    H1 6441   0.661   2.828   4.972
 2145TIP3    H2 6442   0.753   2.873   5.084
 2146TIP3   OH2 6443   1.533   0.109   3.053
 2146TIP3    H1 6444   1.519   0.194   3.012
 2146TIP3    H2 6445   1.596   0.065   2.995
 2147TIP3   OH2 6446   1.811   0.739   5.186
 2147TIP3    H1 6447   1.850   0.745   5.099
 2147TIP3    H2 6448   1.789   0.647   5.197
 2148TIP3   OH2 6449   4.736   4.147   3.668
 2148TIP3    H1 6450   4.764   4.213   3.605
 2148TIP3    H2 6451   4.788   4.070   3.648
 2149TIP3   OH2 6452   5.361   0.230   5.015
 2149TIP3    H1 6453   5.297   0.227   4.944
 2149TIP3    H2 6454   5.311   0.211   5.094
 2150TIP3   OH2 6455   2.696   3.440   0.455
 2150TIP3    H1 6456   2.644   3.449   0.535
 2150TIP3    H2 6457   2.735   3.352   0.460
 2151TIP3   OH2 6458   3.366   2.054   4.572
 2151TIP3    H1 6459   3.415   2.132   4.597
 2151TIP3    H2 6460   3.433   1.994   4.539
 2152TIP3   OH2 6461   6.363   5.765   4.246
 2152TIP3    H1 6462   6.329   5.737   4.162
 2152TIP3    H2 6463   6.444   5.715   4.257
 2153TIP3   OH2 6464   3.962   3.576   2.069
 2153TIP3    H1 6465   3.957   3.520   2.146
 2153TIP3    H2 6466   4.041   3.547   2.023
 2154TIP3   OH2 6467   2.475   4.283   4.307
 2154TIP3    H1 6468   2.466   4.293   4.402
 2154TIP3    H2 6469   2.407   4.220   4.284
 2155TIP3   OH2 6470   2.364   2.416   4.716
 2155TIP3    H1 6471   2.384   2.509   4.725
 2155TIP3    H2 6472   2.409   2.389   4.636
 2156TIP3   OH2 6473   2.092   3.826   2.852
 2156TIP3    H1 6474   2.128   3.809   2.765
 2156TIP3    H2 6475   2.073   3.920   2.851
 2157TIP3   OH2 6476   1.631   0.696   2.128
 2157TIP3    H1 6477   1.592   0.678   2.042
 2157TIP3    H2 6478   1.559   0.689   2.189
 2158TIP3   OH2 6479   4.038   3.917   0.179
 2158TIP3    H1 6480   4.131   3.916   0.160
 2158TIP3    H2 6481   3.999   3.856   0.116
 2159TIP3   OH2 6482   4.983   3.961   0.299
 2159TIP3    H1 6483   4.985   4.047   0.259
 2159TIP3    H2 6484   4.980   3.900   0.224
 2160TIP3   OH2 6485   5.545   0.126   4.855
 2160TIP3    H1 6486   5.494   0.159   4.929
 2160TIP3    H2 6487   5.493   0.053   4.822
 2161TIP3   OH2 6488   5.303   3.173   3.241
 2161TIP3    H1 6489   5.376   3.221   3.202
 2161TIP3    H2 6490   5.334   3.082   3.246
 2162TIP3   OH2 6491   6.033   4.624   5.025
 2162TIP3    H1 6492   6.008   4.536   5.053
 2162TIP3    H2 6493   6.099   4.610   4.956
 2163TIP3   OH2 6494   6.313   4.560   3.699
 2163TIP3    H1 6495   6.401   4.524   3.687
 2163TIP3    H2 6496   6.266   4.494   3.750
 2164TIP3   OH2 6497   5.948   2.687   4.787
 2164TIP3    H1 6498   5.992   2.661   4.868
 2164TIP3    H2 6499   5.885   2.618   4.770
 2165TIP3   OH2 6500   0.891   5.743   4.466
 2165TIP3    H1 6501   0.963   5.685   4.491
 2165TIP3    H2 6502   0.934   5.823   4.436
 2166TIP3   OH2 6503   1.127  -0.016   2.034
 2166TIP3    H1 6504   1.183   0.023   2.102
 2166TIP3    H2 6505   1.154   0.027   1.953
 2167TIP3   OH2 6506   6.078   2.905   0.844
 2167TIP3    H1 6507   6.170   2.878   0.836
 2167TIP3    H2 6508   6.051   2.873   0.930
 2168TIP3   OH2 6509   0.099   5.045   2.085
 2168TIP3    H1 6510   0.139   5.117   2.036
 2168TIP3    H2 6511   0.135   5.052   2.173
 2169TIP3   OH2 6512   2.462   1.609   4.746
 2169TIP3    H1 6513   2.555   1.629   4.738
 2169TIP3    H2 6514   2.452   1.571   4.833
 2170TIP3   OH2 6515   5.938   2.664   3.822
 2170TIP3    H1 6516   5.912   2.576   3.792
 2170TIP3    H2 6517   5.939   2.657   3.917
 2171TIP3   OH2 6518   1.643   5.948   3.694
 2171TIP3    H1 6519   1.702   5.914   3.761
 2171TIP3    H2 6520   1.692   5.940   3.612
 2172TIP3   OH2 6521   5.358   5.009   0.108
 2172TIP3    H1 6522   5.287   5.048   0.159
 2172TIP3    H2 6523   5.365   4.919   0.141
 2173TIP3   OH2 6524   5.553   1.977   3.817
 2173TIP3    H1 6525   5.513   1.930   3.743
 2173TIP3    H2 6526   5.619   2.032   3.776
 2174TIP3   OH2 6527   3.922   2.165   5.069
 2174TIP3    H1 6528   3.859   2.221   5.114
 2174TIP3    H2 6529   3.930   2.088   5.126
 2175TIP3   OH2 6530   4.926   0.160   0.010
 2175TIP3    H1 6531   4.834   0.168  -0.015
 2175TIP3    H2 6532   4.944   0.241   0.059
 2176TIP3   OH2 6533   2.117   4.281   2.022
 2176TIP3    H1 6534   2.077   4.208   1.976
 2176TIP3    H2 6535   2.187   4.311   1.964
 2177TIP3   OH2 6536   5.325   1.344   2.998
 2177TIP3    H1 6537   5.383   1.365   3.071
 2177TIP3    H2 6538   5.326   1.248   2.993
 2178TIP3   OH2 6539   3.307   0.944   3.499
 2178TIP3    H1 6540   3.236   0.907   3.552
 2178TIP3    H2 6541   3.289   1.038   3.500
 2179TIP3   OH2 6542   5.106   2.744   2.304
 2179TIP3    H1 6543   5.174   2.767   2.368
 2179TIP3    H2 6544   5.079   2.655   2.329
 2180TIP3   OH2 6545   3.051   5.221   0.355
 2180TIP3    H1 6546   3.026   5.130   0.370
 2180TIP3    H2 6547   3.057   5.229   0.260
 2181TIP3   OH2 6548   4.185   3.421   3.476
 2181TIP3    H1 6549   4.189   3.422   3.571
 2181TIP3    H2 6550   4.168   3.329   3.454
 2182TIP3   OH2 6551   4.156   2.473   2.505
 2182TIP3    H1 6552   4.216   2.494   2.433
 2182TIP3    H2 6553   4.167   2.379   2.518
 2183TIP3   OH2 6554   4.334   1.019   1.014
 2183TIP3    H1 6555   4.349   1.062   0.930
 2183TIP3    H2 6556   4.367   1.081   1.079
 2184TIP3   OH2 6557   4.614   4.832   2.241
 2184TIP3    H1 6558   4.645   4.754   2.195
 2184TIP3    H2 6559   4.579   4.799   2.324
 2185TIP3   OH2 6560   5.932   4.381   1.608
 2185TIP3    H1 6561   5.864   4.446   1.586
 2185TIP3    H2 6562   5.990   4.381   1.532
 2186TIP3   OH2 6563   4.909   0.678   2.365
 2186TIP3    H1 6564   4.866   0.595   2.385
 2186TIP3    H2 6565   4.978   0.655   2.303
 2187TIP3   OH2 6566   0.433   0.883   1.938
 2187TIP3    H1 6567   0.525   0.908   1.942
 2187TIP3    H2 6568   0.395   0.944   1.874
 2188TIP3   OH2 6569   5.365   2.881   4.318
 2188TIP3    H1 6570   5.312   2.878   4.398
 2188TIP3    H2 6571   5.349   2.796   4.276
 2189TIP3   OH2 6572   1.738   0.217   0.789
 2189TIP3    H1 6573   1.699   0.131   0.795
 2189TIP3    H2 6574   1.709   0.251   0.704
 2190TIP3   OH2 6575   4.417   3.757   3.528
 2190TIP3    H1 6576   4.452   3.846   3.535
 2190TIP3    H2 6577   4.346   3.754   3.593
 2191TIP3   OH2 6578   3.456   2.735   2.613
 2191TIP3    H1 6579   3.490   2.682   2.684
 2191TIP3    H2 6580   3.443   2.822   2.651
 2192TIP3   OH2 6581   2.426   2.000   1.687
 2192TIP3    H1 6582   2.448   1.956   1.769
 2192TIP3    H2 6583   2.331   1.992   1.680
 2193TIP3   OH2 6584   4.274   5.687   0.323
 2193TIP3    H1 6585   4.354   5.731   0.354
 2193TIP3    H2 6586   4.298   5.594   0.319
 2194TIP3   OH2 6587   4.050   2.076   0.403
 2194TIP3    H1 6588   4.134   2.112   0.374
 2194TIP3    H2 6589   4.035   2.116   0.489
 2195TIP3   OH2 6590   2.495   4.523   4.173
 2195TIP3    H1 6591   2.479   4.441   4.219
 2195TIP3    H2 6592   2.508   4.498   4.081
 2196TIP3   OH2 6593   0.521   3.190   4.617
 2196TIP3    H1 6594   0.472   3.268   4.589
 2196TIP3    H2 6595   0.596   3.224   4.665
 2197TIP3   OH2 6596   0.511   5.422   0.149
 2197TIP3    H1 6597   0.535   5.450   0.238
 2197TIP3    H2 6598   0.461   5.341   0.162
 2198TIP3   OH2 6599   0.593   1.052   0.710
 2198TIP3    H1 6600   0.507   1.028   0.744
 2198TIP3    H2 6601   0.597   1.147   0.720
 2199TIP3   OH2 6602   5.770   0.090   4.289
 2199TIP3    H1 6603   5.856   0.075   4.251
 2199TIP3    H2 6604   5.741   0.173   4.250
 2200TIP3   OH2 6605   5.446   4.736   4.302
 2200TIP3    H1 6606   5.492   4.654   4.283
 2200TIP3    H2 6607   5.405   4.721   4.387
 2201TIP3   OH2 6608   2.641   4.060   3.145
 2201TIP3    H1 6609   2.723   4.090   3.184
 2201TIP3    H2 6610   2.603   4.138   3.104
 2202TIP3   OH2 6611   2.964   1.308   0.327
 2202TIP3    H1 6612   3.023   1.244   0.287
 2202TIP3    H2 6613   2.940   1.268   0.411
 2203TIP3   OH2 6614   2.303   3.232   1.199
 2203TIP3    H1 6615   2.289   3.144   1.234
 2203TIP3    H2 6616   2.244   3.237   1.123
 2204TIP3   OH2 6617   4.753   2.098   0.900
 2204TIP3    H1 6618   4.684   2.159   0.874
 2204TIP3    H2 6619   4.824   2.115   0.838
 2205TIP3   OH2 6620   3.211   5.755   1.080
 2205TIP3    H1 6621   3.291   5.744   1.131
 2205TIP3    H2 6622   3.197   5.850   1.076
 2206TIP3   OH2 6623   1.572   3.789   4.014
 2206TIP3    H1 6624   1.518   3.857   3.975
 2206TIP3    H2 6625   1.658   3.800   3.974
 2207TIP3   OH2 6626   2.673   5.443   2.372
 2207TIP3    H1 6627   2.589   5.459   2.329
 2207TIP3    H2 6628   2.729   5.514   2.342
 2208TIP3   OH2 6629   6.037   3.026   4.186
 2208TIP3    H1 6630   5.963   2.968   4.168
 2208TIP3    H2 6631   6.114   2.977   4.158
 2209TIP3   OH2 6632   3.402   2.525   3.993
 2209TIP3    H1 6633   3.390   2.578   4.072
 2209TIP3    H2 6634   3.491   2.490   4.001
 2210TIP3   OH2 6635   1.594   3.566   0.054
 2210TIP3    H1 6636   1.618   3.473   0.048
 2210TIP3    H2 6637   1.502   3.568   0.028
 2211TIP3   OH2 6638   4.794   5.286   4.768
 2211TIP3    H1 6639   4.712   5.263   4.812
 2211TIP3    H2 6640   4.781   5.258   4.678
 2212TIP3   OH2 6641   2.500   5.949   3.203
 2212TIP3    H1 6642   2.413   5.914   3.185
 2212TIP3    H2 6643   2.514   6.017   3.138
 2213TIP3   OH2 6644   0.809   2.874   0.069
 2213TIP3    H1 6645   0.768   2.788   0.059
 2213TIP3    H2 6646   0.900   2.854   0.091
 2214TIP3   OH2 6647   2.007   2.046   4.276
 2214TIP3    H1 6648   2.049   1.973   4.232
 2214TIP3    H2 6649   1.950   2.006   4.341
 2215TIP3   OH2 6650   1.177   4.959   1.497
 2215TIP3    H1 6651   1.201   5.037   1.547
 2215TIP3    H2 6652   1.232   4.962   1.419
 2216TIP3   OH2 6653   4.281   3.947   4.330
 2216TIP3    H1 6654   4.342   4.014   4.298
 2216TIP3    H2 6655   4.294   3.945   4.424
 2217TIP3   OH2 6656   3.154   2.939   0.886
 2217TIP3    H1 6657   3.229   2.881   0.879
 2217TIP3    H2 6658   3.133   2.962   0.796
 2218TIP3   OH2 6659   1.848   1.045   1.999
 2218TIP3    H1 6660   1.835   1.063   2.092
 2218TIP3    H2 6661   1.918   1.106   1.973
 2219TIP3   OH2 6662   1.747   2.060   1.110
 2219TIP3    H1 6663   1.830   2.102   1.090
 2219TIP3    H2 6664   1.693   2.074   1.032
 2220TIP3   OH2 6665   5.209   5.273   1.905
 2220TIP3    H1 6666   5.191   5.181   1.884
 2220TIP3    H2 6667   5.303   5.283   1.888
 2221TIP3   OH2 6668   3.385   3.526   3.869
 2221TIP3    H1 6669   3.436   3.444   3.873
 2221TIP3    H2 6670   3.355   3.539   3.959
 2222TIP3   OH2 6671   3.089   2.143   2.608
 2222TIP3    H1 6672   3.098   2.170   2.700
 2222TIP3    H2 6673   2.994   2.137   2.595
 2223TIP3   OH2 6674   4.317   0.634   2.396
 2223TIP3    H1 6675   4.378   0.701   2.427
 2223TIP3    H2 6676   4.314   0.569   2.466
 2224TIP3   OH2 6677   3.788   4.567   3.445
 2224TIP3    H1 6678   3.766   4.650   3.486
 2224TIP3    H2 6679   3.859   4.531   3.499
 2225TIP3   OH2 6680   3.461   1.081   4.466
 2225TIP3    H1 6681   3.367   1.101   4.461
 2225TIP3    H2 6682   3.502   1.146   4.409
 2226TIP3   OH2 6683   3.578   1.220   1.980
 2226TIP3    H1 6684   3.511   1.152   1.976
 2226TIP3    H2 6685   3.535   1.298   1.944
 2227TIP3   OH2 6686   1.752   2.857   5.151
 2227TIP3    H1 6687   1.699   2.933   5.176
 2227TIP3    H2 6688   1.832   2.895   5.116
 2228TIP3   OH2 6689   1.182   2.363   0.209
 2228TIP3    H1 6690   1.258   2.341   0.156
 2228TIP3    H2 6691   1.120   2.402   0.148
 2229TIP3   OH2 6692   5.995   5.904   4.966
 2229TIP3    H1 6693   6.038   5.843   4.905
 2229TIP3    H2 6694   5.938   5.848   5.019
 2230TIP3   OH2 6695   1.818   3.117   2.775
 2230TIP3    H1 6696   1.767   3.104   2.855
 2230TIP3    H2 6697   1.860   3.033   2.760
 2231TIP3   OH2 6698   3.913   4.948   5.096
 2231TIP3    H1 6699   3.971   5.014   5.059
 2231TIP3    H2 6700   3.889   4.983   5.182
 2232TIP3   OH2 6701   2.415   3.946   1.194
 2232TIP3    H1 6702   2.356   3.893   1.141
 2232TIP3    H2 6703   2.359   3.982   1.263
 2233TIP3   OH2 6704   0.312   4.504   3.768
 2233TIP3    H1 6705   0.358   4.567   3.711
 2233TIP3    H2 6706   0.367   4.497   3.845
 2234TIP3   OH2 6707   1.191   3.576   3.864
 2234TIP3    H1 6708   1.179   3.659   3.911
 2234TIP3    H2 6709   1.143   3.512   3.917
 2235TIP3   OH2 6710   0.229   1.175   2.915
 2235TIP3    H1 6711   0.182   1.243   2.963
 2235TIP3    H2 6712   0.208   1.190   2.823
 2236TIP3   OH2 6713   1.805   3.456   0.422
 2236TIP3    H1 6714   1.767   3.425   0.339
 2236TIP3    H2 6715   1.739   3.516   0.457
 2237TIP3   OH2 6716   5.989   4.768   3.105
 2237TIP3    H1 6717   5.998   4.838   3.040
 2237TIP3    H2 6718   5.968   4.690   3.054
 2238TIP3   OH2 6719   1.968   5.980   4.696
 2238TIP3    H1 6720   2.004   5.941   4.776
 2238TIP3    H2 6721   1.937   5.905   4.644
 2239TIP3   OH2 6722   4.570   1.893   0.839
 2239TIP3    H1 6723   4.625   1.840   0.782
 2239TIP3    H2 6724   4.631   1.935   0.899
 2240TIP3   OH2 6725   3.832   2.149   1.024
 2240TIP3    H1 6726   3.847   2.059   0.994
 2240TIP3    H2 6727   3.756   2.178   0.973
 2241TIP3   OH2 6728   0.551   3.316   4.348
 2241TIP3    H1 6729   0.491   3.348   4.415
 2241TIP3    H2 6730   0.516   3.349   4.266
 2242TIP3   OH2 6731   5.559   3.707   1.351
 2242TIP3    H1 6732   5.523   3.744   1.431
 2242TIP3    H2 6733   5.532   3.768   1.282
 2243TIP3   OH2 6734   2.070   5.825   4.028
 2243TIP3    H1 6735   2.065   5.852   4.120
 2243TIP3    H2 6736   1.983   5.843   3.993
 2244TIP3   OH2 6737   0.925   2.809   4.054
 2244TIP3    H1 6738   0.962   2.749   4.119
 2244TIP3    H2 6739   0.902   2.887   4.104
 2245TIP3   OH2 6740   2.720   5.915   1.932
 2245TIP3    H1 6741   2.713   5.833   1.883
 2245TIP3    H2 6742   2.787   5.899   1.998
 2246TIP3   OH2 6743   3.448   5.132   2.544
 2246TIP3    H1 6744   3.499   5.054   2.522
 2246TIP3    H2 6745   3.359   5.111   2.514
 2247TIP3   OH2 6746   3.129   2.298   4.540
 2247TIP3    H1 6747   3.148   2.293   4.633
 2247TIP3    H2 6748   3.089   2.214   4.519
 2248TIP3   OH2 6749   4.956   3.620   3.529
 2248TIP3    H1 6750   4.907   3.690   3.487
 2248TIP3    H2 6751   5.010   3.583   3.459
 2249TIP3   OH2 6752   0.960   5.726   2.753
 2249TIP3    H1 6753   0.893   5.781   2.712
 2249TIP3    H2 6754   1.034   5.785   2.767
 2250TIP3   OH2 6755   1.902   0.132   4.738
 2250TIP3    H1 6756   1.949   0.182   4.671
 2250TIP3    H2 6757   1.942   0.045   4.736
 2251TIP3   OH2 6758   5.457   0.930   1.750
 2251TIP3    H1 6759   5.517   0.860   1.724
 2251TIP3    H2 6760   5.382   0.920   1.691
 2252TIP3   OH2 6761   4.343   3.687   1.448
 2252TIP3    H1 6762   4.345   3.593   1.468
 2252TIP3    H2 6763   4.346   3.691   1.352
 2253TIP3   OH2 6764   5.590   5.569   1.794
 2253TIP3    H1 6765   5.615   5.617   1.873
 2253TIP3    H2 6766   5.572   5.480   1.825
 2254TIP3   OH2 6767   3.472   5.696   0.366
 2254TIP3    H1 6768   3.556   5.654   0.351
 2254TIP3    H2 6769   3.473   5.719   0.459
 2255TIP3   OH2 6770   0.493   3.594   5.137
 2255TIP3    H1 6771   0.439   3.591   5.216
 2255TIP3    H2 6772   0.437   3.634   5.071
 2256TIP3   OH2 6773   4.890   4.818   1.586
 2256TIP3    H1 6774   4.962   4.844   1.643
 2256TIP3    H2 6775   4.819   4.796   1.646
 2257TIP3   OH2 6776   1.345   0.548   4.324
 2257TIP3    H1 6777   1.279   0.521   4.260
 2257TIP3    H2 6778   1.306   0.626   4.365
 2258TIP3   OH2 6779   2.475   3.493   1.132
 2258TIP3    H1 6780   2.416   3.431   1.175
 2258TIP3    H2 6781   2.428   3.576   1.133
 2259TIP3   OH2 6782   2.856   0.647   4.925
 2259TIP3    H1 6783   2.921   0.655   4.995
 2259TIP3    H2 6784   2.772   0.658   4.969
 2260TIP3   OH2 6785   5.195   2.324   2.532
 2260TIP3    H1 6786   5.282   2.286   2.540
 2260TIP3    H2 6787   5.160   2.324   2.621
 2261TIP3   OH2 6788   0.209   4.903   4.270
 2261TIP3    H1 6789   0.300   4.880   4.254
 2261TIP3    H2 6790   0.161   4.864   4.197
 2262TIP3   OH2 6791   3.137   3.098   2.035
 2262TIP3    H1 6792   3.140   3.143   1.950
 2262TIP3    H2 6793   3.229   3.094   2.062
 2263TIP3   OH2 6794   4.696   1.085   3.426
 2263TIP3    H1 6795   4.765   1.048   3.481
 2263TIP3    H2 6796   4.676   1.170   3.465
 2264TIP3   OH2 6797   2.703   3.025   0.119
 2264TIP3    H1 6798   2.742   2.992   0.201
 2264TIP3    H2 6799   2.771   3.011   0.053
 2265TIP3   OH2 6800   0.107   5.891   1.044
 2265TIP3    H1 6801   0.091   5.879   1.137
 2265TIP3    H2 6802   0.119   5.802   1.010
 2266TIP3   OH2 6803   2.971   1.710   0.490
 2266TIP3    H1 6804   3.033   1.640   0.511
 2266TIP3    H2 6805   2.895   1.692   0.546
 2267TIP3   OH2 6806   5.811   2.463   2.430
 2267TIP3    H1 6807   5.800   2.408   2.507
 2267TIP3    H2 6808   5.902   2.450   2.404
 2268TIP3   OH2 6809   0.640   1.817   0.658
 2268TIP3    H1 6810   0.547   1.798   0.649
 2268TIP3    H2 6811   0.655   1.818   0.753
 2269TIP3   OH2 6812   5.537   3.218   1.216
 2269TIP3    H1 6813   5.466   3.210   1.280
 2269TIP3    H2 6814   5.567   3.128   1.202
 2270TIP3   OH2 6815   3.586   0.353   0.966
 2270TIP3    H1 6816   3.587   0.432   1.021
 2270TIP3    H2 6817   3.656   0.298   1.002
 2271TIP3   OH2 6818   0.038   5.535   3.615
 2271TIP3    H1 6819   0.041   5.459   3.674
 2271TIP3    H2 6820   0.095   5.600   3.657
 2272TIP3   OH2 6821   0.346   5.149   3.160
 2272TIP3    H1 6822   0.388   5.232   3.178
 2272TIP3    H2 6823   0.354   5.099   3.241
 2273TIP3   OH2 6824   3.209   4.851   4.385
 2273TIP3    H1 6825   3.270   4.925   4.388
 2273TIP3    H2 6826   3.123   4.892   4.393
 2274TIP3   OH2 6827   3.536   0.615   4.659
 2274TIP3    H1 6828   3.578   0.690   4.617
 2274TIP3    H2 6829   3.576   0.538   4.617
 2275TIP3   OH2 6830   0.550   3.078   0.653
 2275TIP3    H1 6831   0.630   3.128   0.662
 2275TIP3    H2 6832   0.572   3.007   0.594
 2276TIP3   OH2 6833   4.453  -0.008   2.273
 2276TIP3    H1 6834   4.498  -0.029   2.192
 2276TIP3    H2 6835   4.365   0.020   2.245
 2277TIP3   OH2 6836   4.171   4.689   3.059
 2277TIP3    H1 6837   4.255   4.665   3.019
 2277TIP3    H2 6838   4.186   4.683   3.153
 2278TIP3   OH2 6839   4.337   4.846   2.654
 2278TIP3    H1 6840   4.335   4.940   2.638
 2278TIP3    H2 6841   4.367   4.837   2.744
 2279TIP3   OH2 6842   1.198   1.747   0.533
 2279TIP3    H1 6843   1.251   1.684   0.485
 2279TIP3    H2 6844   1.236   1.832   0.511
 2280TIP3   OH2 6845   4.836   0.499   0.335
 2280TIP3    H1 6846   4.856   0.473   0.245
 2280TIP3    H2 6847   4.778   0.431   0.368
 2281TIP3   OH2 6848   2.495   1.935   0.199
 2281TIP3    H1 6849   2.502   2.007   0.262
 2281TIP3    H2 6850   2.582   1.894   0.201
 2282TIP3   OH2 6851   4.341   3.150   1.682
 2282TIP3    H1 6852   4.336   3.103   1.765
 2282TIP3    H2 6853   4.382   3.089   1.621
 2283TIP3   OH2 6854   5.634   4.706   3.633
 2283TIP3    H1 6855   5.542   4.694   3.612
 2283TIP3    H2 6856   5.636   4.779   3.695
 2284TIP3   OH2 6857   1.883   5.144   0.133
 2284TIP3    H1 6858   1.897   5.067   0.078
 2284TIP3    H2 6859   1.892   5.218   0.073
 2285TIP3   OH2 6860   4.819   0.650   1.702
 2285TIP3    H1 6861   4.864   0.651   1.787
 2285TIP3    H2 6862   4.823   0.558   1.674
 2286TIP3   OH2 6863   5.175   3.903   0.871
 2286TIP3    H1 6864   5.123   3.953   0.808
 2286TIP3    H2 6865   5.256   3.953   0.881
 2287TIP3   OH2 6866   3.811   5.910   5.013
 2287TIP3    H1 6867   3.880   5.953   5.062
 2287TIP3    H2 6868   3.806   5.959   4.931
 2288TIP3   OH2 6869   1.232   1.076   3.099
 2288TIP3    H1 6870   1.169   1.138   3.134
 2288TIP3    H2 6871   1.198   1.053   3.012
 2289TIP3   OH2 6872   2.378   3.461   4.482
 2289TIP3    H1 6873   2.365   3.440   4.574
 2289TIP3    H2 6874   2.458   3.414   4.458
 2290TIP3   OH2 6875   1.766   5.822   4.920
 2290TIP3    H1 6876   1.697   5.878   4.886
 2290TIP3    H2 6877   1.752   5.738   4.878
 2291TIP3   OH2 6878   5.014   1.893   2.363
 2291TIP3    H1 6879   5.062   1.820   2.323
 2291TIP3    H2 6880   5.073   1.968   2.356
 2292TIP3   OH2 6881   0.085   1.768   1.697
 2292TIP3    H1 6882   0.058   1.681   1.728
 2292TIP3    H2 6883   0.165   1.786   1.746
 2293TIP3   OH2 6884   4.679   1.855   2.739
 2293TIP3    H1 6885   4.607   1.793   2.741
 2293TIP3    H2 6886   4.668   1.908   2.818
 2294TIP3   OH2 6887   0.299   0.910   0.584
 2294TIP3    H1 6888   0.381   0.862   0.590
 2294TIP3    H2 6889   0.287   0.927   0.491
 2295TIP3   OH2 6890   0.484   0.173   4.888
 2295TIP3    H1 6891   0.557   0.153   4.830
 2295TIP3    H2 6892   0.502   0.123   4.967
 2296TIP3   OH2 6893   3.952   4.304   0.951
 2296TIP3    H1 6894   3.923   4.213   0.956
 2296TIP3    H2 6895   3.873   4.355   0.967
 2297TIP3   OH2 6896   0.287   3.872   3.777
 2297TIP3    H1 6897   0.204   3.868   3.824
 2297TIP3    H2 6898   0.325   3.784   3.786
 2298TIP3   OH2 6899   4.537   2.699   4.038
 2298TIP3    H1 6900   4.587   2.778   4.019
 2298TIP3    H2 6901   4.512   2.708   4.130
 2299TIP3   OH2 6902   0.906   4.785   3.944
 2299TIP3    H1 6903   0.965   4.852   3.909
 2299TIP3    H2 6904   0.858   4.753   3.868
 2300TIP3   OH2 6905   5.405   2.665   1.753
 2300TIP3    H1 6906   5.425   2.661   1.847
 2300TIP3    H2 6907   5.376   2.576   1.731
 2301TIP3   OH2 6908   2.830  -0.025   3.606
 2301TIP3    H1 6909   2.908  -0.011   3.553
 2301TIP3    H2 6910   2.836   0.041   3.676
 2302TIP3   OH2 6911   2.815   3.508   3.924
 2302TIP3    H1 6912   2.870   3.492   4.000
 2302TIP3    H2 6913   2.734   3.543   3.960
 2303TIP3   OH2 6914   5.903   5.746   2.816
 2303TIP3    H1 6915   5.825   5.701   2.783
 2303TIP3    H2 6916   5.895   5.742   2.911
 2304TIP3   OH2 6917   3.893   1.297   4.616
 2304TIP3    H1 6918   3.843   1.316   4.696
 2304TIP3    H2 6919   3.848   1.346   4.548
 2305TIP3   OH2 6920   0.422   4.659   2.987
 2305TIP3    H1 6921   0.331   4.637   3.006
 2305TIP3    H2 6922   0.419   4.706   2.904
 2306TIP3   OH2 6923   1.418   2.404   4.389
 2306TIP3    H1 6924   1.409   2.448   4.305
 2306TIP3    H2 6925   1.507   2.424   4.417
 2307TIP3   OH2 6926   1.836   3.180   1.537
 2307TIP3    H1 6927   1.761   3.122   1.520
 2307TIP3    H2 6928   1.817   3.219   1.623
 2308TIP3   OH2 6929   0.436   1.652   5.156
 2308TIP3    H1 6930   0.370   1.591   5.121
 2308TIP3    H2 6931   0.489   1.676   5.080
 2309TIP3   OH2 6932   0.675   2.344   5.016
 2309TIP3    H1 6933   0.755   2.299   4.988
 2309TIP3    H2 6934   0.637   2.287   5.083
 2310TIP3   OH2 6935   5.502   2.189   0.654
 2310TIP3    H1 6936   5.501   2.118   0.590
 2310TIP3    H2 6937   5.504   2.145   0.739
 2311TIP3   OH2 6938   1.924   2.411   3.737
 2311TIP3    H1 6939   1.980   2.338   3.710
 2311TIP3    H2 6940   1.837   2.372   3.746
 2312TIP3   OH2 6941   2.655   5.920   2.690
 2312TIP3    H1 6942   2.713   5.843   2.690
 2312TIP3    H2 6943   2.658   5.952   2.780
 2313TIP3   OH2 6944   0.482   4.464   0.270
 2313TIP3    H1 6945   0.486   4.495   0.179
 2313TIP3    H2 6946   0.418   4.522   0.312
 2314TIP3   OH2 6947   6.080   3.530   3.224
 2314TIP3    H1 6948   6.012   3.570   3.278
 2314TIP3    H2 6949   6.099   3.447   3.267
 2315TIP3   OH2 6950   2.542   1.726   2.818
 2315TIP3    H1 6951   2.617   1.785   2.811
 2315TIP3    H2 6952   2.576   1.649   2.863
 2316TIP3   OH2 6953   5.101   1.613   3.642
 2316TIP3    H1 6954   5.162   1.624   3.570
 2316TIP3    H2 6955   5.046   1.539   3.615
 2317TIP3   OH2 6956   4.750   3.625   3.957
 2317TIP3    H1 6957   4.798   3.641   3.875
 2317TIP3    H2 6958   4.814   3.641   4.026
 2318TIP3   OH2 6959   1.286   2.733   0.710
 2318TIP3    H1 6960   1.335   2.653   0.691
 2318TIP3    H2 6961   1.209   2.703   0.759
 2319TIP3   OH2 6962   3.937   3.502   1.590
 2319TIP3    H1 6963   3.959   3.432   1.651
 2319TIP3    H2 6964   4.012   3.562   1.593
 2320TIP3   OH2 6965   0.128   1.068   4.492
 2320TIP3    H1 6966   0.078   1.129   4.438
 2320TIP3    H2 6967   0.118   1.101   4.581
 2321TIP3   OH2 6968   1.363   3.851   0.046
 2321TIP3    H1 6969   1.285   3.799   0.028
 2321TIP3    H2 6970   1.330   3.931   0.087
 2322TIP3   OH2 6971   5.219   3.157   1.056
 2322TIP3    H1 6972   5.169   3.236   1.035
 2322TIP3    H2 6973   5.310   3.187   1.059
 2323TIP3   OH2 6974   3.074   3.541   1.640
 2323TIP3    H1 6975   3.025   3.495   1.708
 2323TIP3    H2 6976   3.054   3.494   1.559
 2324TIP3   OH2 6977   0.979   2.455   1.553
 2324TIP3    H1 6978   0.927   2.380   1.580
 2324TIP3    H2 6979   0.920   2.530   1.564
 2325TIP3   OH2 6980   3.969   0.924   1.915
 2325TIP3    H1 6981   3.898   0.945   1.976
 2325TIP3    H2 6982   4.002   0.839   1.945
 2326TIP3   OH2 6983   4.631   1.452   4.339
 2326TIP3    H1 6984   4.691   1.402   4.283
 2326TIP3    H2 6985   4.683   1.476   4.415
 2327TIP3   OH2 6986   1.385   2.670   2.943
 2327TIP3    H1 6987   1.475   2.679   2.975
 2327TIP3    H2 6988   1.391   2.688   2.850
 2328TIP3   OH2 6989   0.548   0.565   4.078
 2328TIP3    H1 6990   0.471   0.621   4.083
 2328TIP3    H2 6991   0.518   0.481   4.113
 2329TIP3   OH2 6992   0.653   3.699   3.281
 2329TIP3    H1 6993   0.620   3.621   3.237
 2329TIP3    H2 6994   0.743   3.708   3.249
 2330TIP3   OH2 6995   6.115   0.393   3.459
 2330TIP3    H1 6996   6.141   0.456   3.393
 2330TIP3    H2 6997   6.151   0.310   3.429
 2331TIP3   OH2 6998   4.553   3.045   4.700
 2331TIP3    H1 6999   4.563   2.982   4.629
 2331TIP3    H2 7000   4.498   3.000   4.765
 2332TIP3   OH2 7001   3.201   2.231   4.824
 2332TIP3    H1 7002   3.287   2.228   4.865
 2332TIP3    H2 7003   3.173   2.323   4.833
 2333TIP3   OH2 7004   5.216   0.962   3.785
 2333TIP3    H1 7005   5.205   1.028   3.853
 2333TIP3    H2 7006   5.162   0.991   3.712
 2334TIP3   OH2 7007   4.685   3.059   1.191
 2334TIP3    H1 7008   4.688   3.060   1.095
 2334TIP3    H2 7009   4.604   3.013   1.212
 2335TIP3   OH2 7010   1.609   4.193   1.033
 2335TIP3    H1 7011   1.607   4.155   1.121
 2335TIP3    H2 7012   1.516   4.202   1.009
 2336TIP3   OH2 7013   4.211   0.360   0.935
 2336TIP3    H1 7014   4.142   0.329   0.877
 2336TIP3    H2 7015   4.293   0.339   0.889
 2337TIP3   OH2 7016   5.835   5.400   1.426
 2337TIP3    H1 7017   5.921   5.393   1.385
 2337TIP3    H2 7018   5.779   5.439   1.359
 2338TIP3   OH2 7019   1.593   3.055   3.488
 2338TIP3    H1 7020   1.535   3.130   3.502
 2338TIP3    H2 7021   1.664   3.089   3.433
 2339TIP3   OH2 7022   4.490   5.673   2.679
 2339TIP3    H1 7023   4.413   5.642   2.727
 2339TIP3    H2 7024   4.562   5.665   2.741
 2340TIP3   OH2 7025   2.978   2.462   0.100
 2340TIP3    H1 7026   2.904   2.416   0.139
 2340TIP3    H2 7027   3.016   2.398   0.040
 2341TIP3   OH2 7028   1.088   3.705   0.611
 2341TIP3    H1 7029   0.999   3.736   0.629
 2341TIP3    H2 7030   1.122   3.766   0.546
 2342TIP3   OH2 7031   1.811   2.464   1.114
 2342TIP3    H1 7032   1.876   2.533   1.128
 2342TIP3    H2 7033   1.862   2.384   1.103
 2343TIP3   OH2 7034   2.373   2.849   2.556
 2343TIP3    H1 7035   2.389   2.763   2.515
 2343TIP3    H2 7036   2.460   2.888   2.564
 2344TIP3   OH2 7037   1.639   5.446   1.080
 2344TIP3    H1 7038   1.708   5.410   1.024
 2344TIP3    H2 7039   1.568   5.469   1.020
 2345TIP3   OH2 7040   4.658   5.992   1.673
 2345TIP3    H1 7041   4.656   6.065   1.735
 2345TIP3    H2 7042   4.746   5.955   1.682
 2346TIP3   OH2 7043   2.195   2.891   2.768
 2346TIP3    H1 7044   2.228   2.976   2.738
 2346TIP3    H2 7045   2.260   2.828   2.737
 2347TIP3   OH2 7046   6.236   5.131   3.936
 2347TIP3    H1 7047   6.226   5.076   4.014
 2347TIP3    H2 7048   6.148   5.160   3.915
 2348TIP3   OH2 7049   1.360   3.922   4.683
 2348TIP3    H1 7050   1.294   3.872   4.731
 2348TIP3    H2 7051   1.357   3.887   4.594
 2349TIP3   OH2 7052   5.210   4.240   2.403
 2349TIP3    H1 7053   5.157   4.174   2.360
 2349TIP3    H2 7054   5.227   4.204   2.490
 2350TIP3   OH2 7055   3.068   5.274   1.334
 2350TIP3    H1 7056   3.153   5.282   1.378
 2350TIP3    H2 7057   3.028   5.360   1.342
 2351TIP3   OH2 7058   3.181   5.105   2.496
 2351TIP3    H1 7059   3.140   5.060   2.421
 2351TIP3    H2 7060   3.115   5.102   2.564
 2352TIP3   OH2 7061   6.132   5.631   2.704
 2352TIP3    H1 7062   6.077   5.678   2.766
 2352TIP3    H2 7063   6.070   5.587   2.646
 2353TIP3   OH2 7064   0.155   5.016   3.511
 2353TIP3    H1 7065   0.116   5.061   3.436
 2353TIP3    H2 7066   0.235   4.976   3.476
 2354TIP3   OH2 7067   1.041   5.219   0.024
 2354TIP3    H1 7068   0.993   5.295  -0.009
 2354TIP3    H2 7069   1.133   5.243   0.017
 2355TIP3   OH2 7070   5.899   0.115   4.032
 2355TIP3    H1 7071   5.953   0.104   4.109
 2355TIP3    H2 7072   5.961   0.127   3.960
 2356TIP3   OH2 7073   1.463   1.031   3.219
 2356TIP3    H1 7074   1.491   1.121   3.235
 2356TIP3    H2 7075   1.372   1.038   3.189
 2357TIP3   OH2 7076   2.096   2.509   3.935
 2357TIP3    H1 7077   2.022   2.484   3.879
 2357TIP3    H2 7078   2.107   2.435   3.994
 2358TIP3   OH2 7079   3.876   2.957   1.795
 2358TIP3    H1 7080   3.898   2.999   1.712
 2358TIP3    H2 7081   3.789   2.990   1.816
 2359TIP3   OH2 7082   1.080   1.589   1.357
 2359TIP3    H1 7083   1.028   1.520   1.398
 2359TIP3    H2 7084   1.119   1.547   1.280
 2360TIP3   OH2 7085   2.455   5.667   3.073
 2360TIP3    H1 7086   2.476   5.578   3.045
 2360TIP3    H2 7087   2.442   5.660   3.168
 2361TIP3   OH2 7088   4.928   5.864   4.941
 2361TIP3    H1 7089   4.958   5.788   4.990
 2361TIP3    H2 7090   4.937   5.937   5.002
 2362TIP3   OH2 7091   5.477   3.689   3.467
 2362TIP3    H1 7092   5.535   3.691   3.544
 2362TIP3    H2 7093   5.437   3.602   3.470
 2363TIP3   OH2 7094   0.657   2.149   2.346
 2363TIP3    H1 7095   0.741   2.103   2.338
 2363TIP3    H2 7096   0.592   2.087   2.312
 2364TIP3   OH2 7097   4.649   1.648   0.983
 2364TIP3    H1 7098   4.599   1.614   0.909
 2364TIP3    H2 7099   4.739   1.656   0.950
 2365TIP3   OH2 7100   3.907   3.049   1.523
 2365TIP3    H1 7101   3.979   3.039   1.461
 2365TIP3    H2 7102   3.839   3.095   1.474
 2366TIP3   OH2 7103   5.543   4.341   2.300
 2366TIP3    H1 7104   5.490   4.420   2.293
 2366TIP3    H2 7105   5.589   4.336   2.216
 2367TIP3   OH2 7106   3.456   1.046   0.271
 2367TIP3    H1 7107   3.460   1.090   0.186
 2367TIP3    H2 7108   3.512   1.100   0.328
 2368TIP3   OH2 7109   1.544   4.377   3.102
 2368TIP3    H1 7110   1.613   4.322   3.065
 2368TIP3    H2 7111   1.486   4.315   3.146
 2369TIP3   OH2 7112   5.746   5.354   3.218
 2369TIP3    H1 7113   5.783   5.367   3.306
 2369TIP3    H2 7114   5.703   5.437   3.197
 2370TIP3   OH2 7115   2.138   2.456   1.919
 2370TIP3    H1 7116   2.134   2.549   1.895
 2370TIP3    H2 7117   2.220   2.425   1.883
 2371TIP3   OH2 7118   2.567   0.691   1.305
 2371TIP3    H1 7119   2.513   0.765   1.278
 2371TIP3    H2 7120   2.511   0.614   1.289
 2372TIP3   OH2 7121   0.505   0.918   1.358
 2372TIP3    H1 7122   0.514   0.830   1.396
 2372TIP3    H2 7123   0.530   0.977   1.429
 2373TIP3   OH2 7124   0.468   2.890   2.018
 2373TIP3    H1 7125   0.378   2.858   2.028
 2373TIP3    H2 7126   0.521   2.810   2.012
 2374TIP3   OH2 7127   2.028   4.339   0.924
 2374TIP3    H1 7128   2.122   4.354   0.932
 2374TIP3    H2 7129   2.011   4.264   0.982
 2375TIP3   OH2 7130   3.450   1.587   3.061
 2375TIP3    H1 7131   3.498   1.550   2.986
 2375TIP3    H2 7132   3.365   1.612   3.025
 2376TIP3   OH2 7133   4.961   4.553   3.693
 2376TIP3    H1 7134   5.038   4.606   3.714
 2376TIP3    H2 7135   4.940   4.574   3.602
 2377TIP3   OH2 7136   5.904   4.660   2.453
 2377TIP3    H1 7137   5.959   4.599   2.403
 2377TIP3    H2 7138   5.948   4.668   2.537
 2378TIP3   OH2 7139   4.451   0.598   2.159
 2378TIP3    H1 7140   4.395   0.603   2.236
 2378TIP3    H2 7141   4.513   0.670   2.169
 2379TIP3   OH2 7142   2.946   2.297   0.366
 2379TIP3    H1 7143   3.032   2.307   0.406
 2379TIP3    H2 7144   2.887   2.277   0.438
 2380TIP3   OH2 7145   3.010   4.970   2.109
 2380TIP3    H1 7146   3.094   4.940   2.075
 2380TIP3    H2 7147   3.002   4.930   2.195
 2381TIP3   OH2 7148   1.015   4.210   0.665
 2381TIP3    H1 7149   1.023   4.137   0.725
 2381TIP3    H2 7150   1.054   4.284   0.711
 2382TIP3   OH2 7151   5.355   5.066   1.095
 2382TIP3    H1 7152   5.355   4.972   1.112
 2382TIP3    H2 7153   5.267   5.084   1.061
 2383TIP3   OH2 7154   2.460   5.042   2.092
 2383TIP3    H1 7155   2.546   5.000   2.098
 2383TIP3    H2 7156   2.435   5.033   2.000
 2384TIP3   OH2 7157   4.527   2.338   4.065
 2384TIP3    H1 7158   4.537   2.355   4.159
 2384TIP3    H2 7159   4.586   2.399   4.023
 2385TIP3   OH2 7160   3.794   4.212   2.312
 2385TIP3    H1 7161   3.798   4.218   2.408
 2385TIP3    H2 7162   3.841   4.132   2.290
 2386TIP3   OH2 7163   3.409   4.592   0.125
 2386TIP3    H1 7164   3.468   4.596   0.049
 2386TIP3    H2 7165   3.338   4.533   0.097
 2387TIP3   OH2 7166   1.279   4.332   2.589
 2387TIP3    H1 7167   1.319   4.331   2.675
 2387TIP3    H2 7168   1.351   4.347   2.528
 2388TIP3   OH2 7169   5.705   4.090   0.440
 2388TIP3    H1 7170   5.673   4.134   0.361
 2388TIP3    H2 7171   5.629   4.087   0.498
 2389TIP3   OH2 7172   6.188   1.831   0.114
 2389TIP3    H1 7173   6.253   1.821   0.044
 2389TIP3    H2 7174   6.151   1.743   0.125
 2390TIP3   OH2 7175   4.074   4.986   3.343
 2390TIP3    H1 7176   4.159   4.949   3.365
 2390TIP3    H2 7177   4.079   5.003   3.249
 2391TIP3   OH2 7178   4.099   4.952  -0.004
 2391TIP3    H1 7179   4.038   4.881   0.012
 2391TIP3    H2 7180   4.050   5.014  -0.058
 2392TIP3   OH2 7181   5.456   5.695   2.094
 2392TIP3    H1 7182   5.550   5.702   2.081
 2392TIP3    H2 7183   5.419   5.767   2.044
 2393TIP3   OH2 7184   2.756   3.502   4.660
 2393TIP3    H1 7185   2.820   3.507   4.730
 2393TIP3    H2 7186   2.692   3.437   4.690
 2394TIP3   OH2 7187   2.948   5.462   0.468
 2394TIP3    H1 7188   2.997   5.402   0.412
 2394TIP3    H2 7189   2.921   5.532   0.408
 2395TIP3   OH2 7190   4.532   5.206   1.937
 2395TIP3    H1 7191   4.571   5.272   1.994
 2395TIP3    H2 7192   4.536   5.244   1.849
 2396TIP3   OH2 7193   1.112   2.475   3.385
 2396TIP3    H1 7194   1.187   2.468   3.326
 2396TIP3    H2 7195   1.149   2.505   3.468
 2397TIP3   OH2 7196   4.693   4.938   0.696
 2397TIP3    H1 7197   4.660   5.028   0.702
 2397TIP3    H2 7198   4.618   4.884   0.720
 2398TIP3   OH2 7199   4.451   0.821   4.453
 2398TIP3    H1 7200   4.510   0.770   4.509
 2398TIP3    H2 7201   4.449   0.772   4.370
 2399TIP3   OH2 7202   4.761   4.185   3.106
 2399TIP3    H1 7203   4.721   4.240   3.173
 2399TIP3    H2 7204   4.698   4.187   3.033
 2400TIP3   OH2 7205   4.884   2.490   2.038
 2400TIP3    H1 7206   4.890   2.579   2.002
 2400TIP3    H2 7207   4.864   2.503   2.131
 2401TIP3   OH2 7208   6.064   1.098   0.983
 2401TIP3    H1 7209   6.040   1.030   0.920
 2401TIP3    H2 7210   6.155   1.118   0.963
 2402TIP3   OH2 7211   1.930   2.180   0.692
 2402TIP3    H1 7212   1.970   2.185   0.778
 2402TIP3    H2 7213   1.978   2.244   0.639
 2403TIP3   OH2 7214   0.338   4.464   4.871
 2403TIP3    H1 7215   0.363   4.372   4.863
 2403TIP3    H2 7216   0.274   4.465   4.942
 2404TIP3   OH2 7217   1.972   3.531   4.652
 2404TIP3    H1 7218   1.984   3.601   4.588
 2404TIP3    H2 7219   2.005   3.453   4.608
 2405TIP3   OH2 7220   6.115   2.734   3.624
 2405TIP3    H1 7221   6.147   2.650   3.593
 2405TIP3    H2 7222   6.053   2.712   3.694
 2406TIP3   OH2 7223   1.996   5.099   3.063
 2406TIP3    H1 7224   2.066   5.158   3.089
 2406TIP3    H2 7225   1.984   5.042   3.139
 2407TIP3   OH2 7226   2.055   4.140   3.993
 2407TIP3    H1 7227   2.044   4.066   4.053
 2407TIP3    H2 7228   2.113   4.200   4.040
 2408TIP3   OH2 7229   2.005   5.017   1.103
 2408TIP3    H1 7230   2.090   4.972   1.105
 2408TIP3    H2 7231   2.011   5.078   1.030
 2409TIP3   OH2 7232   3.421   0.127   0.983
 2409TIP3    H1 7233   3.466   0.046   0.961
 2409TIP3    H2 7234   3.486   0.196   0.970
 2410TIP3   OH2 7235   2.692   1.574   1.856
 2410TIP3    H1 7236   2.741   1.564   1.774
 2410TIP3    H2 7237   2.701   1.667   1.878
 2411TIP3   OH2 7238   5.813   3.464   1.229
 2411TIP3    H1 7239   5.725   3.477   1.195
 2411TIP3    H2 7240   5.803   3.401   1.300
 2412TIP3   OH2 7241   1.296   3.325   2.214
 2412TIP3    H1 7242   1.390   3.318   2.230
 2412TIP3    H2 7243   1.269   3.237   2.187
 2413TIP3   OH2 7244   3.871   4.166   4.256
 2413TIP3    H1 7245   3.883   4.170   4.161
 2413TIP3    H2 7246   3.898   4.078   4.280
 2414TIP3   OH2 7247   4.213   4.224   4.582
 2414TIP3    H1 7248   4.306   4.233   4.559
 2414TIP3    H2 7249   4.212   4.156   4.649
 2415TIP3   OH2 7250   5.135   4.038   2.646
 2415TIP3    H1 7251   5.143   3.974   2.575
 2415TIP3    H2 7252   5.217   4.030   2.695
 2416TIP3   OH2 7253   4.622   0.685   3.001
 2416TIP3    H1 7254   4.543   0.738   2.993
 2416TIP3    H2 7255   4.654   0.677   2.911
 2417TIP3   OH2 7256   3.650   4.239   5.033
 2417TIP3    H1 7257   3.574   4.181   5.044
 2417TIP3    H2 7258   3.643   4.271   4.943
 2418TIP3   OH2 7259   0.926   3.693   3.356
 2418TIP3    H1 7260   0.864   3.665   3.423
 2418TIP3    H2 7261   0.984   3.618   3.343
 2419TIP3   OH2 7262   3.653   4.333   4.262
 2419TIP3    H1 7263   3.611   4.309   4.180
 2419TIP3    H2 7264   3.718   4.264   4.277
 2420TIP3   OH2 7265   4.277   2.295   3.024
 2420TIP3    H1 7266   4.222   2.220   3.004
 2420TIP3    H2 7267   4.330   2.308   2.945
 2421TIP3   OH2 7268   5.101   0.918   2.303
 2421TIP3    H1 7269   5.104   0.839   2.249
 2421TIP3    H2 7270   5.087   0.885   2.392
 2422TIP3   OH2 7271   2.950   4.287   0.880
 2422TIP3    H1 7272   2.959   4.196   0.854
 2422TIP3    H2 7273   2.923   4.332   0.800
 2423TIP3   OH2 7274   5.823   2.632   3.510
 2423TIP3    H1 7275   5.830   2.563   3.577
 2423TIP3    H2 7276   5.871   2.597   3.435
 2424TIP3   OH2 7277   3.975   3.577   2.437
 2424TIP3    H1 7278   4.039   3.509   2.417
 2424TIP3    H2 7279   3.897   3.552   2.387
 2425TIP3   OH2 7280   6.008   0.743   4.610
 2425TIP3    H1 7281   6.085   0.735   4.555
 2425TIP3    H2 7282   6.017   0.828   4.653
 2426TIP3   OH2 7283   6.060   0.051   4.282
 2426TIP3    H1 7284   6.109   0.075   4.361
 2426TIP3    H2 7285   6.040  -0.042   4.294
 2427TIP3   OH2 7286   0.241   5.603   0.162
 2427TIP3    H1 7287   0.332   5.625   0.181
 2427TIP3    H2 7288   0.210   5.674   0.106
 2428TIP3   OH2 7289   4.562   5.948   2.610
 2428TIP3    H1 7290   4.524   5.860   2.601
 2428TIP3    H2 7291   4.598   5.950   2.699
 2429TIP3   OH2 7292   2.358   1.057   3.800
 2429TIP3    H1 7293   2.329   1.131   3.854
 2429TIP3    H2 7294   2.401   0.998   3.862
 2430TIP3   OH2 7295   4.877   1.068   2.885
 2430TIP3    H1 7296   4.914   0.981   2.896
 2430TIP3    H2 7297   4.853   1.095   2.974
 2431TIP3   OH2 7298   2.780   0.948   4.325
 2431TIP3    H1 7299   2.726   0.924   4.401
 2431TIP3    H2 7300   2.814   1.035   4.347
 2432TIP3   OH2 7301   3.473   3.767   2.324
 2432TIP3    H1 7302   3.416   3.732   2.255
 2432TIP3    H2 7303   3.559   3.775   2.281
 2433TIP3   OH2 7304   2.398   5.615   4.288
 2433TIP3    H1 7305   2.365   5.702   4.308
 2433TIP3    H2 7306   2.471   5.602   4.348
 2434TIP3   OH2 7307   2.909   1.959   2.345
 2434TIP3    H1 7308   2.815   1.941   2.339
 2434TIP3    H2 7309   2.917   2.051   2.320
 2435TIP3   OH2 7310   5.192   2.896   1.202
 2435TIP3    H1 7311   5.130   2.863   1.137
 2435TIP3    H2 7312   5.207   2.987   1.177
 2436TIP3   OH2 7313   3.226   4.216   4.831
 2436TIP3    H1 7314   3.231   4.217   4.735
 2436TIP3    H2 7315   3.254   4.303   4.857
 2437TIP3   OH2 7316   1.229   3.981   5.061
 2437TIP3    H1 7317   1.137   3.965   5.082
 2437TIP3    H2 7318   1.260   3.899   5.023
 2438TIP3   OH2 7319   4.658   0.722   4.621
 2438TIP3    H1 7320   4.652   0.736   4.716
 2438TIP3    H2 7321   4.668   0.627   4.611
 2439TIP3   OH2 7322   2.514   2.739   3.495
 2439TIP3    H1 7323   2.463   2.676   3.547
 2439TIP3    H2 7324   2.550   2.800   3.560
 2440TIP3   OH2 7325   3.400   0.971   3.196
 2440TIP3    H1 7326   3.388   0.916   3.274
 2440TIP3    H2 7327   3.373   0.915   3.123
 2441TIP3   OH2 7328   5.578   2.595   2.673
 2441TIP3    H1 7329   5.672   2.586   2.660
 2441TIP3    H2 7330   5.557   2.681   2.635
 2442TIP3   OH2 7331   1.672   0.814   2.983
 2442TIP3    H1 7332   1.711   0.740   2.936
 2442TIP3    H2 7333   1.659   0.781   3.072
 2443TIP3   OH2 7334   2.501   3.442   4.865
 2443TIP3    H1 7335   2.480   3.523   4.818
 2443TIP3    H2 7336   2.440   3.440   4.938
 2444TIP3   OH2 7337   3.085   4.305   2.626
 2444TIP3    H1 7338   3.168   4.256   2.626
 2444TIP3    H2 7339   3.018   4.237   2.635
 2445TIP3   OH2 7340   3.634   5.871   0.619
 2445TIP3    H1 7341   3.673   5.848   0.535
 2445TIP3    H2 7342   3.700   5.925   0.663
 2446TIP3   OH2 7343   1.798   2.320   4.014
 2446TIP3    H1 7344   1.806   2.308   3.919
 2446TIP3    H2 7345   1.884   2.300   4.049
 2447TIP3   OH2 7346   1.449   2.584   1.790
 2447TIP3    H1 7347   1.432   2.583   1.885
 2447TIP3    H2 7348   1.381   2.528   1.753
 2448TIP3   OH2 7349   1.025   2.686   0.875
 2448TIP3    H1 7350   0.998   2.715   0.788
 2448TIP3    H2 7351   1.032   2.767   0.926
 2449TIP3   OH2 7352   4.005   5.691   1.789
 2449TIP3    H1 7353   3.916   5.724   1.802
 2449TIP3    H2 7354   4.006   5.607   1.834
 2450TIP3   OH2 7355   2.597   1.093   1.849
 2450TIP3    H1 7356   2.614   1.166   1.789
 2450TIP3    H2 7357   2.501   1.086   1.851
 2451TIP3   OH2 7358   5.740   1.490   3.638
 2451TIP3    H1 7359   5.820   1.526   3.675
 2451TIP3    H2 7360   5.754   1.395   3.636
 2452TIP3   OH2 7361   1.514   2.987   4.703
 2452TIP3    H1 7362   1.509   2.915   4.641
 2452TIP3    H2 7363   1.596   3.032   4.681
 2453TIP3   OH2 7364   0.408  -0.066   0.390
 2453TIP3    H1 7365   0.351   0.001   0.427
 2453TIP3    H2 7366   0.395  -0.059   0.295
 2454TIP3   OH2 7367   4.263   5.292   0.870
 2454TIP3    H1 7368   4.230   5.224   0.813
 2454TIP3    H2 7369   4.356   5.271   0.881
 2455TIP3   OH2 7370   4.746   3.577   0.903
 2455TIP3    H1 7371   4.787   3.621   0.828
 2455TIP3    H2 7372   4.742   3.485   0.878
 2456TIP3   OH2 7373   3.995   4.889   1.165
 2456TIP3    H1 7374   3.986   4.874   1.259
 2456TIP3    H2 7375   4.089   4.885   1.149
 2457TIP3   OH2 7376   2.488   5.011   4.905
 2457TIP3    H1 7377   2.493   4.918   4.886
 2457TIP3    H2 7378   2.422   5.019   4.974
 2458TIP3   OH2 7379   2.969   4.943   1.530
 2458TIP3    H1 7380   3.043   4.962   1.588
 2458TIP3    H2 7381   3.008   4.937   1.443
 2459TIP3   OH2 7382   0.157   4.265   1.253
 2459TIP3    H1 7383   0.228   4.225   1.303
 2459TIP3    H2 7384   0.196   4.343   1.214
 2460TIP3   OH2 7385   0.852   1.082   0.601
 2460TIP3    H1 7386   0.776   1.036   0.637
 2460TIP3    H2 7387   0.917   1.078   0.671
 2461TIP3   OH2 7388   6.292   3.383   3.455
 2461TIP3    H1 7389   6.336   3.447   3.399
 2461TIP3    H2 7390   6.361   3.325   3.486
 2462TIP3   OH2 7391   0.028   1.725   4.312
 2462TIP3    H1 7392  -0.017   1.755   4.233
 2462TIP3    H2 7393   0.120   1.742   4.296
 2463TIP3   OH2 7394   0.316   3.187   3.253
 2463TIP3    H1 7395   0.235   3.173   3.302
 2463TIP3    H2 7396   0.292   3.168   3.162
 2464TIP3   OH2 7397   6.131   2.244   1.322
 2464TIP3    H1 7398   6.172   2.276   1.242
 2464TIP3    H2 7399   6.089   2.320   1.361
 2465TIP3   OH2 7400   5.851   3.873   0.506
 2465TIP3    H1 7401   5.811   3.959   0.490
 2465TIP3    H2 7402   5.902   3.885   0.586
 2466TIP3   OH2 7403   1.534   4.202   2.158
 2466TIP3    H1 7404   1.574   4.128   2.204
 2466TIP3    H2 7405   1.608   4.245   2.115
 2467TIP3   OH2 7406   1.827   3.288   2.536
 2467TIP3    H1 7407   1.884   3.326   2.469
 2467TIP3    H2 7408   1.772   3.226   2.488
 2468TIP3   OH2 7409   5.452   5.727   0.995
 2468TIP3    H1 7410   5.419   5.794   0.935
 2468TIP3    H2 7411   5.415   5.645   0.961
 2469TIP3   OH2 7412   6.025   0.025   1.817
 2469TIP3    H1 7413   6.091   0.066   1.761
 2469TIP3    H2 7414   6.014   0.085   1.890
 2470TIP3   OH2 7415   4.108   5.106   2.763
 2470TIP3    H1 7416   4.067   5.189   2.740
 2470TIP3    H2 7417   4.046   5.039   2.734
 2471TIP3   OH2 7418   4.902   3.217   0.874
 2471TIP3    H1 7419   4.809   3.196   0.865
 2471TIP3    H2 7420   4.944   3.168   0.803
 2472TIP3   OH2 7421   2.350   3.875   4.679
 2472TIP3    H1 7422   2.341   3.780   4.690
 2472TIP3    H2 7423   2.411   3.885   4.606
 2473TIP3   OH2 7424   3.595   0.040   2.544
 2473TIP3    H1 7425   3.626   0.016   2.457
 2473TIP3    H2 7426   3.540  -0.034   2.571
 2474TIP3   OH2 7427   2.402   0.649   4.325
 2474TIP3    H1 7428   2.433   0.721   4.380
 2474TIP3    H2 7429   2.347   0.692   4.259
 2475TIP3   OH2 7430   5.274   1.086   4.286
 2475TIP3    H1 7431   5.345   1.045   4.336
 2475TIP3    H2 7432   5.271   1.176   4.317
 2476TIP3   OH2 7433   4.767   1.968   0.043
 2476TIP3    H1 7434   4.793   1.942   0.131
 2476TIP3    H2 7435   4.682   1.925   0.030
 2477TIP3   OH2 7436   6.104   1.058   2.507
 2477TIP3    H1 7437   6.084   1.067   2.600
 2477TIP3    H2 7438   6.109   1.148   2.475
 2478TIP3   OH2 7439   0.963   2.804   4.662
 2478TIP3    H1 7440   0.891   2.867   4.656
 2478TIP3    H2 7441   0.984   2.801   4.755
 2479TIP3   OH2 7442   3.940   3.050   4.742
 2479TIP3    H1 7443   3.897   2.983   4.688
 2479TIP3    H2 7444   3.936   3.130   4.689
 2480TIP3   OH2 7445   6.093   3.393   1.230
 2480TIP3    H1 7446   6.005   3.421   1.203
 2480TIP3    H2 7447   6.114   3.320   1.172
 2481TIP3   OH2 7448   4.028   3.146   2.003
 2481TIP3    H1 7449   4.109   3.102   2.030
 2481TIP3    H2 7450   3.975   3.076   1.963
 2482TIP3   OH2 7451   5.662   2.853   3.597
 2482TIP3    H1 7452   5.605   2.828   3.670
 2482TIP3    H2 7453   5.732   2.788   3.598
 2483TIP3   OH2 7454   0.038   2.987   3.185
 2483TIP3    H1 7455   0.120   2.998   3.137
 2483TIP3    H2 7456  -0.006   3.071   3.176
 2484TIP3   OH2 7457   3.367   4.435   2.714
 2484TIP3    H1 7458   3.362   4.451   2.620
 2484TIP3    H2 7459   3.429   4.501   2.746
 2485TIP3   OH2 7460   1.307   3.433   0.532
 2485TIP3    H1 7461   1.259   3.390   0.603
 2485TIP3    H2 7462   1.313   3.525   0.559
 2486TIP3   OH2 7463   4.941   3.115   3.804
 2486TIP3    H1 7464   4.876   3.154   3.862
 2486TIP3    H2 7465   5.023   3.158   3.827
 2487TIP3   OH2 7466   0.297   3.250   3.990
 2487TIP3    H1 7467   0.265   3.162   3.968
 2487TIP3    H2 7468   0.248   3.275   4.068
 2488TIP3   OH2 7469   1.915   4.142   1.872
 2488TIP3    H1 7470   1.966   4.165   1.794
 2488TIP3    H2 7471   1.904   4.047   1.867
 2489TIP3   OH2 7472   0.381   5.977   2.344
 2489TIP3    H1 7473   0.430   5.973   2.426
 2489TIP3    H2 7474   0.385   5.888   2.310
 2490TIP3   OH2 7475   2.972   3.369   5.178
 2490TIP3    H1 7476   2.958   3.279   5.148
 2490TIP3    H2 7477   2.950   3.424   5.103
 2491TIP3   OH2 7478   3.348   2.497   4.659
 2491TIP3    H1 7479   3.346   2.504   4.564
 2491TIP3    H2 7480   3.260   2.470   4.684
 2492TIP3   OH2 7481   5.187   0.123   4.208
 2492TIP3    H1 7482   5.273   0.158   4.232
 2492TIP3    H2 7483   5.156   0.079   4.288
 2493TIP3   OH2 7484   1.753   1.166   0.611
 2493TIP3    H1 7485   1.767   1.094   0.549
 2493TIP3    H2 7486   1.829   1.162   0.670
 2494TIP3   OH2 7487   4.920   5.081   3.397
 2494TIP3    H1 7488   4.911   5.165   3.441
 2494TIP3    H2 7489   4.887   5.017   3.461
 2495TIP3   OH2 7490   0.670   3.223   1.769
 2495TIP3    H1 7491   0.656   3.309   1.729
 2495TIP3    H2 7492   0.701   3.242   1.857
 2496TIP3   OH2 7493   4.695   1.060   0.732
 2496TIP3    H1 7494   4.698   1.038   0.639
 2496TIP3    H2 7495   4.759   1.130   0.742
 2497TIP3   OH2 7496   1.628   4.796   3.654
 2497TIP3    H1 7497   1.719   4.810   3.681
 2497TIP3    H2 7498   1.611   4.867   3.592
 2498TIP3   OH2 7499   0.212   5.435   0.383
 2498TIP3    H1 7500   0.225   5.471   0.295
 2498TIP3    H2 7501   0.150   5.495   0.424
 2499TIP3   OH2 7502   4.700   3.074   1.772
 2499TIP3    H1 7503   4.745   3.099   1.852
 2499TIP3    H2 7504   4.700   2.978   1.773
 2500TIP3   OH2 7505   1.099   2.195   0.657
 2500TIP3    H1 7506   1.152   2.270   0.685
 2500TIP3    H2 7507   1.088   2.208   0.563
 2501TIP3   OH2 7508   1.987   2.493   2.840
 2501TIP3    H1 7509   1.982   2.518   2.932
 2501TIP3    H2 7510   1.922   2.423   2.830
 2502TIP3   OH2 7511   5.668   3.552   3.220
 2502TIP3    H1 7512   5.683   3.520   3.131
 2502TIP3    H2 7513   5.652   3.473   3.271
 2503TIP3   OH2 7514   3.617   4.120   1.293
 2503TIP3    H1 7515   3.566   4.179   1.238
 2503TIP3    H2 7516   3.552   4.072   1.344
 2504TIP3   OH2 7517   5.164   3.261   2.758
 2504TIP3    H1 7518   5.153   3.330   2.824
 2504TIP3    H2 7519   5.106   3.191   2.786
 2505TIP3   OH2 7520   1.575   5.241   2.545
 2505TIP3    H1 7521   1.653   5.193   2.574
 2505TIP3    H2 7522   1.590   5.260   2.453
 2506TIP3   OH2 7523   5.765   1.315   0.188
 2506TIP3    H1 7524   5.687   1.286   0.141
 2506TIP3    H2 7525   5.817   1.362   0.123
 2507TIP3   OH2 7526   0.890   4.179   2.124
 2507TIP3    H1 7527   0.949   4.215   2.190
 2507TIP3    H2 7528   0.948   4.135   2.062
 2508TIP3   OH2 7529   4.883   2.858   3.916
 2508TIP3    H1 7530   4.798   2.829   3.882
 2508TIP3    H2 7531   4.901   2.939   3.869
 2509TIP3   OH2 7532   5.610   5.290   0.355
 2509TIP3    H1 7533   5.535   5.230   0.354
 2509TIP3    H2 7534   5.667   5.255   0.424
 2510TIP3   OH2 7535   2.644   0.307   0.120
 2510TIP3    H1 7536   2.611   0.368   0.054
 2510TIP3    H2 7537   2.736   0.295   0.097
 2511TIP3   OH2 7538   1.697   2.912   0.804
 2511TIP3    H1 7539   1.717   2.845   0.740
 2511TIP3    H2 7540   1.652   2.866   0.875
 2512TIP3   OH2 7541   2.941   4.256   0.496
 2512TIP3    H1 7542   2.912   4.166   0.480
 2512TIP3    H2 7543   2.880   4.310   0.445
 2513TIP3   OH2 7544   1.447   5.899   0.918
 2513TIP3    H1 7545   1.511   5.842   0.874
 2513TIP3    H2 7546   1.362   5.864   0.890
 2514TIP3   OH2 7547   3.539   4.763   1.917
 2514TIP3    H1 7548   3.594   4.830   1.958
 2514TIP3    H2 7549   3.532   4.694   1.982
 2515TIP3   OH2 7550   5.347   1.652   1.888
 2515TIP3    H1 7551   5.293   1.723   1.921
 2515TIP3    H2 7552   5.285   1.582   1.868
 2516TIP3   OH2 7553   4.945   5.290   0.321
 2516TIP3    H1 7554   5.020   5.348   0.331
 2516TIP3    H2 7555   4.885   5.339   0.264
 2517TIP3   OH2 7556   4.619   2.957   0.611
 2517TIP3    H1 7557   4.628   2.866   0.582
 2517TIP3    H2 7558   4.705   2.981   0.643
 2518TIP3   OH2 7559   0.403   1.176   0.248
 2518TIP3    H1 7560   0.480   1.164   0.304
 2518TIP3    H2 7561   0.439   1.201   0.163
 2519TIP3   OH2 7562   3.009   0.582   1.628
 2519TIP3    H1 7563   2.958   0.589   1.708
 2519TIP3    H2 7564   3.080   0.645   1.638
 2520TIP3   OH2 7565   1.005   3.504   0.157
 2520TIP3    H1 7566   0.915   3.475   0.139
 2520TIP3    H2 7567   1.013   3.499   0.252
 2521TIP3   OH2 7568   0.188   2.017   0.228
 2521TIP3    H1 7569   0.174   2.103   0.266
 2521TIP3    H2 7570   0.275   1.991   0.258
 2522TIP3   OH2 7571   1.477   2.730   3.866
 2522TIP3    H1 7572   1.522   2.781   3.933
 2522TIP3    H2 7573   1.449   2.794   3.801
 2523TIP3   OH2 7574   2.573   4.809   2.439
 2523TIP3    H1 7575   2.658   4.845   2.464
 2523TIP3    H2 7576   2.575   4.806   2.343
 2524TIP3   OH2 7577   1.560   4.865   1.677
 2524TIP3    H1 7578   1.560   4.960   1.690
 2524TIP3    H2 7579   1.611   4.831   1.750
 2525TIP3   OH2 7580   5.901   4.941   3.303
 2525TIP3    H1 7581   5.885   4.907   3.391
 2525TIP3    H2 7582   5.924   4.864   3.251
 2526TIP3   OH2 7583   6.201   1.469   1.864
 2526TIP3    H1 7584   6.292   1.471   1.894
 2526TIP3    H2 7585   6.164   1.391   1.905
 2527TIP3   OH2 7586   0.457   4.817   2.112
 2527TIP3    H1 7587   0.381   4.873   2.094
 2527TIP3    H2 7588   0.427   4.756   2.179
 2528TIP3   OH2 7589   2.061   4.924   0.046
 2528TIP3    H1 7590   2.063   4.856   0.113
 2528TIP3    H2 7591   2.085   4.878  -0.035
 2529TIP3   OH2 7592   5.589   5.014   5.022
 2529TIP3    H1 7593   5.632   5.097   4.999
 2529TIP3    H2 7594   5.660   4.958   5.053
 2530TIP3   OH2 7595   3.752   4.060   3.659
 2530TIP3    H1 7596   3.727   3.979   3.615
 2530TIP3    H2 7597   3.797   4.032   3.738
 2531TIP3   OH2 7598   3.552   0.396   3.736
 2531TIP3    H1 7599   3.555   0.304   3.759
 2531TIP3    H2 7600   3.473   0.429   3.779
 2532TIP3   OH2 7601   1.520   2.820   0.993
 2532TIP3    H1 7602   1.446   2.834   1.052
 2532TIP3    H2 7603   1.529   2.725   0.987
 2533TIP3   OH2 7604   5.262   5.770   1.575
 2533TIP3    H1 7605   5.200   5.698   1.571
 2533TIP3    H2 7606   5.278   5.785   1.668
 2534TIP3   OH2 7607   1.077   4.599   1.984
 2534TIP3    H1 7608   1.160   4.646   1.985
 2534TIP3    H2 7609   1.023   4.644   2.050
 2535TIP3   OH2 7610   1.166   3.689   1.332
 2535TIP3    H1 7611   1.084   3.673   1.379
 2535TIP3    H2 7612   1.195   3.603   1.302
 2536TIP3   OH2 7613   3.967   0.852   0.638
 2536TIP3    H1 7614   3.944   0.774   0.688
 2536TIP3    H2 7615   4.008   0.910   0.701
 2537TIP3   OH2 7616   5.274   4.626   3.338
 2537TIP3    H1 7617   5.211   4.555   3.324
 2537TIP3    H2 7618   5.219   4.701   3.362
 2538TIP3   OH2 7619   0.543   1.360   0.722
 2538TIP3    H1 7620   0.619   1.348   0.777
 2538TIP3    H2 7621   0.578   1.396   0.640
 2539TIP3   OH2 7622   3.120   2.002   3.667
 2539TIP3    H1 7623   3.098   2.026   3.757
 2539TIP3    H2 7624   3.213   1.980   3.670
 2540TIP3   OH2 7625   2.599   3.003   2.580
 2540TIP3    H1 7626   2.606   3.084   2.531
 2540TIP3    H2 7627   2.614   3.028   2.671
 2541TIP3   OH2 7628   5.118   5.337   1.249
 2541TIP3    H1 7629   5.145   5.300   1.165
 2541TIP3    H2 7630   5.118   5.432   1.234
 2542TIP3   OH2 7631   2.219   3.302   4.691
 2542TIP3    H1 7632   2.169   3.317   4.611
 2542TIP3    H2 7633   2.184   3.221   4.728
 2543TIP3   OH2 7634   1.498   0.306   4.313
 2543TIP3    H1 7635   1.457   0.390   4.294
 2543TIP3    H2 7636   1.425   0.247   4.332
 2544TIP3   OH2 7637   1.715   3.066   2.437
 2544TIP3    H1 7638   1.644   3.020   2.392
 2544TIP3    H2 7639   1.750   3.002   2.500
 2545TIP3   OH2 7640   4.013   0.495   2.808
 2545TIP3    H1 7641   4.095   0.467   2.850
 2545TIP3    H2 7642   3.979   0.416   2.766
 2546TIP3   OH2 7643   5.415   4.257   0.055
 2546TIP3    H1 7644   5.358   4.200   0.004
 2546TIP3    H2 7645   5.356   4.299   0.118
 2547TIP3   OH2 7646   0.181   5.764   5.058
 2547TIP3    H1 7647   0.138   5.679   5.049
 2547TIP3    H2 7648   0.247   5.750   5.126
 2548TIP3   OH2 7649   4.617   1.599   3.473
 2548TIP3    H1 7650   4.624   1.656   3.549
 2548TIP3    H2 7651   4.566   1.524   3.503
 2549TIP3   OH2 7652   1.834   0.519  -0.073
 2549TIP3    H1 7653   1.763   0.495  -0.013
 2549TIP3    H2 7654   1.829   0.614  -0.078
 2550TIP3   OH2 7655   1.091   0.847   0.474
 2550TIP3    H1 7656   1.109   0.795   0.396
 2550TIP3    H2 7657   1.167   0.905   0.482
 2551TIP3   OH2 7658   0.103   5.467   2.656
 2551TIP3    H1 7659   0.093   5.504   2.744
 2551TIP3    H2 7660   0.190   5.496   2.628
 2552TIP3   OH2 7661   3.113   1.939   1.476
 2552TIP3    H1 7662   3.037   1.965   1.530
 2552TIP3    H2 7663   3.145   1.860   1.518
 2553TIP3   OH2 7664   4.259   4.376   4.875
 2553TIP3    H1 7665   4.305   4.407   4.796
 2553TIP3    H2 7666   4.304   4.419   4.947
 2554TIP3   OH2 7667   4.121   3.686   4.451
 2554TIP3    H1 7668   4.088   3.768   4.487
 2554TIP3    H2 7669   4.195   3.663   4.508
 2555TIP3   OH2 7670   5.533   4.541   5.123
 2555TIP3    H1 7671   5.448   4.514   5.157
 2555TIP3    H2 7672   5.514   4.573   5.035
 2556TIP3   OH2 7673   4.570   2.956   3.962
 2556TIP3    H1 7674   4.499   3.010   3.997
 2556TIP3    H2 7675   4.547   2.941   3.870
 2557TIP3   OH2 7676   3.421   4.266   1.158
 2557TIP3    H1 7677   3.359   4.275   1.230
 2557TIP3    H2 7678   3.423   4.352   1.117
 2558TIP3   OH2 7679   2.048   1.021   2.294
 2558TIP3    H1 7680   2.001   1.102   2.311
 2558TIP3    H2 7681   1.992   0.952   2.330
 2559TIP3   OH2 7682   5.864   1.137   4.572
 2559TIP3    H1 7683   5.861   1.231   4.554
 2559TIP3    H2 7684   5.871   1.096   4.486
 2560TIP3   OH2 7685   3.051   2.874   1.780
 2560TIP3    H1 7686   3.092   2.812   1.840
 2560TIP3    H2 7687   2.958   2.870   1.801
 2561TIP3   OH2 7688   0.668   3.034   4.348
 2561TIP3    H1 7689   0.602   2.970   4.377
 2561TIP3    H2 7690   0.630   3.119   4.372
 2562TIP3   OH2 7691   3.043   1.948   1.128
 2562TIP3    H1 7692   3.139   1.947   1.119
 2562TIP3    H2 7693   3.018   1.856   1.123
 2563TIP3   OH2 7694   4.551   0.826   2.497
 2563TIP3    H1 7695   4.535   0.886   2.425
 2563TIP3    H2 7696   4.501   0.861   2.570
 2564TIP3   OH2 7697   2.874   4.199   3.709
 2564TIP3    H1 7698   2.851   4.149   3.631
 2564TIP3    H2 7699   2.968   4.214   3.702
 2565TIP3   OH2 7700   1.496   2.512   2.313
 2565TIP3    H1 7701   1.492   2.422   2.282
 2565TIP3    H2 7702   1.405   2.541   2.314
 2566TIP3   OH2 7703   5.851   2.398   2.148
 2566TIP3    H1 7704   5.885   2.313   2.177
 2566TIP3    H2 7705   5.929   2.454   2.143
 2567TIP3   OH2 7706   4.140   3.250   4.487
 2567TIP3    H1 7707   4.174   3.275   4.573
 2567TIP3    H2 7708   4.189   3.172   4.463
 2568TIP3   OH2 7709   4.057   2.325   4.907
 2568TIP3    H1 7710   4.114   2.274   4.850
 2568TIP3    H2 7711   4.008   2.260   4.958
 2569TIP3   OH2 7712   5.076   4.281   0.940
 2569TIP3    H1 7713   5.058   4.222   1.014
 2569TIP3    H2 7714   4.990   4.298   0.902
 2570TIP3   OH2 7715   3.482   1.813   0.804
 2570TIP3    H1 7716   3.572   1.826   0.834
 2570TIP3    H2 7717   3.448   1.743   0.860
 2571TIP3   OH2 7718   0.162   1.765   1.293
 2571TIP3    H1 7719   0.224   1.779   1.221
 2571TIP3    H2 7720   0.217   1.761   1.371
 2572TIP3   OH2 7721   4.402   1.858   3.073
 2572TIP3    H1 7722   4.312   1.886   3.084
 2572TIP3    H2 7723   4.439   1.860   3.161
 2573TIP3   OH2 7724   6.183   4.608   4.291
 2573TIP3    H1 7725   6.134   4.640   4.215
 2573TIP3    H2 7726   6.274   4.609   4.262
 2574TIP3   OH2 7727   0.941   3.988   5.071
 2574TIP3    H1 7728   0.933   3.912   5.013
 2574TIP3    H2 7729   0.854   3.997   5.110
 2575TIP3   OH2 7730   3.968   5.332   1.594
 2575TIP3    H1 7731   3.931   5.300   1.511
 2575TIP3    H2 7732   4.051   5.285   1.603
 2576TIP3   OH2 7733   3.259   1.156   3.641
 2576TIP3    H1 7734   3.180   1.174   3.692
 2576TIP3    H2 7735   3.301   1.242   3.631
 2577TIP3   OH2 7736   1.419   3.652   4.201
 2577TIP3    H1 7737   1.462   3.717   4.144
 2577TIP3    H2 7738   1.427   3.569   4.154
 2578TIP3   OH2 7739   1.906   4.583   3.056
 2578TIP3    H1 7740   1.939   4.639   3.126
 2578TIP3    H2 7741   1.812   4.603   3.053
 2579TIP3   OH2 7742   4.046   2.907   3.141
 2579TIP3    H1 7743   4.019   2.835   3.197
 2579TIP3    H2 7744   3.985   2.978   3.161
 2580TIP3   OH2 7745   1.905   4.320   3.833
 2580TIP3    H1 7746   1.871   4.389   3.889
 2580TIP3    H2 7747   1.966   4.272   3.888
 2581TIP3   OH2 7748   3.281   2.297   0.271
 2581TIP3    H1 7749   3.212   2.300   0.205
 2581TIP3    H2 7750   3.237   2.318   0.353
 2582TIP3   OH2 7751   0.041   5.215   0.456
 2582TIP3    H1 7752  -0.046   5.246   0.482
 2582TIP3    H2 7753   0.095   5.294   0.452
 2583TIP3   OH2 7754   5.726   4.880   0.959
 2583TIP3    H1 7755   5.707   4.855   1.049
 2583TIP3    H2 7756   5.820   4.895   0.957
 2584TIP3   OH2 7757   4.251   1.032   0.087
 2584TIP3    H1 7758   4.167   1.078   0.082
 2584TIP3    H2 7759   4.228   0.940   0.094
 2585TIP3   OH2 7760   6.351   0.398   1.341
 2585TIP3    H1 7761   6.301   0.474   1.309
 2585TIP3    H2 7762   6.380   0.353   1.262
 2586TIP3   OH2 7763   3.175   5.525   4.794
 2586TIP3    H1 7764   3.128   5.563   4.720
 2586TIP3    H2 7765   3.142   5.572   4.871
 2587TIP3   OH2 7766   2.314   3.049   3.604
 2587TIP3    H1 7767   2.269   3.133   3.616
 2587TIP3    H2 7768   2.330   3.018   3.692
 2588TIP3   OH2 7769   4.481   5.511   4.718
 2588TIP3    H1 7770   4.538   5.528   4.792
 2588TIP3    H2 7771   4.520   5.435   4.674
 2589TIP3   OH2 7772   4.626   3.386   3.896
 2589TIP3    H1 7773   4.680   3.453   3.937
 2589TIP3    H2 7774   4.625   3.409   3.804
 2590TIP3   OH2 7775   2.125   0.998   1.232
 2590TIP3    H1 7776   2.186   1.041   1.292
 2590TIP3    H2 7777   2.040   1.006   1.276
 2591TIP3   OH2 7778   3.014   3.297   3.499
 2591TIP3    H1 7779   2.922   3.307   3.522
 2591TIP3    H2 7780   3.062   3.331   3.575
 2592TIP3   OH2 7781   2.086   0.927   4.428
 2592TIP3    H1 7782   2.090   0.831   4.423
 2592TIP3    H2 7783   2.146   0.956   4.359
 2593TIP3   OH2 7784   5.521   3.427   2.484
 2593TIP3    H1 7785   5.609   3.438   2.520
 2593TIP3    H2 7786   5.465   3.483   2.538
 2594TIP3   OH2 7787   0.318   0.120   0.857
 2594TIP3    H1 7788   0.283   0.056   0.919
 2594TIP3    H2 7789   0.317   0.202   0.905
 2595TIP3   OH2 7790   4.701   5.259   3.167
 2595TIP3    H1 7791   4.762   5.196   3.130
 2595TIP3    H2 7792   4.685   5.321   3.096
 2596TIP3   OH2 7793   0.523   5.411   1.635
 2596TIP3    H1 7794   0.543   5.493   1.590
 2596TIP3    H2 7795   0.609   5.370   1.649
 2597TIP3   OH2 7796   4.655   4.738   1.747
 2597TIP3    H1 7797   4.617   4.784   1.822
 2597TIP3    H2 7798   4.584   4.733   1.683
 2598TIP3   OH2 7799   4.039   1.301   0.755
 2598TIP3    H1 7800   3.944   1.288   0.754
 2598TIP3    H2 7801   4.065   1.294   0.663
 2599TIP3   OH2 7802   3.647   3.158   2.526
 2599TIP3    H1 7803   3.649   3.118   2.613
 2599TIP3    H2 7804   3.557   3.144   2.495
 2600TIP3   OH2 7805   3.943   5.137   4.147
 2600TIP3    H1 7806   3.966   5.205   4.210
 2600TIP3    H2 7807   3.860   5.165   4.109
 2601TIP3   OH2 7808   4.761   1.993   0.484
 2601TIP3    H1 7809   4.813   1.950   0.416
 2601TIP3    H2 7810   4.699   2.047   0.435
 2602TIP3   OH2 7811   4.139   4.052   0.824
 2602TIP3    H1 7812   4.177   4.087   0.905
 2602TIP3    H2 7813   4.045   4.042   0.844
 2603TIP3   OH2 7814   2.597   4.149   4.559
 2603TIP3    H1 7815   2.633   4.081   4.502
 2603TIP3    H2 7816   2.585   4.106   4.643
 2604TIP3   OH2 7817   1.098   3.355   3.051
 2604TIP3    H1 7818   1.089   3.446   3.025
 2604TIP3    H2 7819   1.175   3.354   3.108
 2605TIP3   OH2 7820   0.855   3.651   2.979
 2605TIP3    H1 7821   0.787   3.718   2.989
 2605TIP3    H2 7822   0.821   3.575   3.027
 2606TIP3   OH2 7823   2.521   4.676   1.580
 2606TIP3    H1 7824   2.560   4.760   1.556
 2606TIP3    H2 7825   2.526   4.624   1.499
 2607TIP3   OH2 7826   3.724   1.796   4.104
 2607TIP3    H1 7827   3.735   1.860   4.033
 2607TIP3    H2 7828   3.712   1.849   4.183
 2608TIP3   OH2 7829   3.860   4.234   1.341
 2608TIP3    H1 7830   3.912   4.187   1.277
 2608TIP3    H2 7831   3.772   4.196   1.333
 2609TIP3   OH2 7832   0.765   2.510   3.112
 2609TIP3    H1 7833   0.710   2.587   3.124
 2609TIP3    H2 7834   0.853   2.545   3.101
 2610TIP3   OH2 7835   5.599   4.865   2.680
 2610TIP3    H1 7836   5.664   4.833   2.742
 2610TIP3    H2 7837   5.568   4.947   2.717
 2611TIP3   OH2 7838   5.305   4.235   4.305
 2611TIP3    H1 7839   5.303   4.142   4.283
 2611TIP3    H2 7840   5.214   4.264   4.296
 2612TIP3   OH2 7841   3.501   1.976   2.803
 2612TIP3    H1 7842   3.585   1.945   2.768
 2612TIP3    H2 7843   3.488   1.924   2.883
 2613TIP3   OH2 7844   0.312   3.590   3.853
 2613TIP3    H1 7845   0.233   3.577   3.906
 2613TIP3    H2 7846   0.282   3.578   3.763
 2614TIP3   OH2 7847   5.584   5.148   0.076
 2614TIP3    H1 7848   5.496   5.116   0.099
 2614TIP3    H2 7849   5.613   5.090   0.006
 2615TIP3   OH2 7850   3.657   2.546   3.273
 2615TIP3    H1 7851   3.682   2.522   3.362
 2615TIP3    H2 7852   3.733   2.523   3.220
 2616TIP3   OH2 7853   0.550   4.866   4.678
 2616TIP3    H1 7854   0.582   4.781   4.708
 2616TIP3    H2 7855   0.549   4.920   4.757
 2617TIP3   OH2 7856   2.418   5.098   3.280
 2617TIP3    H1 7857   2.488   5.098   3.215
 2617TIP3    H2 7858   2.448   5.037   3.348
 2618TIP3   OH2 7859   5.727   2.811   3.262
 2618TIP3    H1 7860   5.762   2.767   3.340
 2618TIP3    H2 7861   5.798   2.869   3.234
 2619TIP3   OH2 7862   4.447   1.119   2.839
 2619TIP3    H1 7863   4.466   1.162   2.923
 2619TIP3    H2 7864   4.533   1.088   2.808
 2620TIP3   OH2 7865   4.923   0.674   3.190
 2620TIP3    H1 7866   4.842   0.645   3.233
 2620TIP3    H2 7867   4.990   0.616   3.227
 2621TIP3   OH2 7868   5.258   0.629   3.675
 2621TIP3    H1 7869   5.178   0.576   3.670
 2621TIP3    H2 7870   5.270   0.647   3.768
 2622TIP3   OH2 7871   0.265   0.689   4.105
 2622TIP3    H1 7872   0.234   0.714   4.019
 2622TIP3    H2 7873   0.250   0.766   4.160
 2623TIP3   OH2 7874   1.056   2.991   3.747
 2623TIP3    H1 7875   0.984   3.038   3.789
 2623TIP3    H2 7876   1.023   2.967   3.661
 2624TIP3   OH2 7877   0.087   2.470   0.998
 2624TIP3    H1 7878   0.071   2.493   0.906
 2624TIP3    H2 7879   0.025   2.524   1.047
 2625TIP3   OH2 7880   3.939   4.644   2.528
 2625TIP3    H1 7881   3.985   4.610   2.604
 2625TIP3    H2 7882   3.850   4.608   2.536
 2626TIP3   OH2 7883   2.229   5.849   3.204
 2626TIP3    H1 7884   2.228   5.791   3.280
 2626TIP3    H2 7885   2.174   5.923   3.230
 2627TIP3   OH2 7886   6.295   4.138   4.287
 2627TIP3    H1 7887   6.224   4.193   4.319
 2627TIP3    H2 7888   6.259   4.049   4.290
 2628TIP3   OH2 7889   1.288   0.822   3.620
 2628TIP3    H1 7890   1.244   0.787   3.543
 2628TIP3    H2 7891   1.378   0.840   3.590
 2629TIP3   OH2 7892   3.906   0.595   1.666
 2629TIP3    H1 7893   3.838   0.530   1.648
 2629TIP3    H2 7894   3.955   0.602   1.584
 2630TIP3   OH2 7895   4.725   0.899   3.779
 2630TIP3    H1 7896   4.796   0.888   3.842
 2630TIP3    H2 7897   4.725   0.818   3.728
 2631TIP3   OH2 7898   0.749   1.705   0.187
 2631TIP3    H1 7899   0.771   1.698   0.280
 2631TIP3    H2 7900   0.677   1.768   0.184
 2632TIP3   OH2 7901   4.039   1.345   1.504
 2632TIP3    H1 7902   4.045   1.375   1.595
 2632TIP3    H2 7903   4.101   1.273   1.498
 2633TIP3   OH2 7904   3.926   4.169   3.945
 2633TIP3    H1 7905   4.010   4.122   3.944
 2633TIP3    H2 7906   3.946   4.254   3.907
 2634TIP3   OH2 7907   2.580   0.352   4.748
 2634TIP3    H1 7908   2.646   0.421   4.759
 2634TIP3    H2 7909   2.552   0.331   4.837
 2635TIP3   OH2 7910   1.318   4.320   1.585
 2635TIP3    H1 7911   1.271   4.352   1.508
 2635TIP3    H2 7912   1.268   4.244   1.613
 2636TIP3   OH2 7913   5.218   3.827   1.510
 2636TIP3    H1 7914   5.284   3.897   1.507
 2636TIP3    H2 7915   5.174   3.833   1.425
 2637TIP3   OH2 7916   1.055   0.108   0.010
 2637TIP3    H1 7917   0.976   0.105   0.064
 2637TIP3    H2 7918   1.107   0.033   0.040
 2638TIP3   OH2 7919   1.635   1.017   3.717
 2638TIP3    H1 7920   1.576   1.063   3.657
 2638TIP3    H2 7921   1.668   1.085   3.775
 2639TIP3   OH2 7922   2.598   4.043   1.003
 2639TIP3    H1 7923   2.521   4.027   1.057
 2639TIP3    H2 7924   2.598   3.972   0.939
 2640TIP3   OH2 7925   3.644   2.813   0.841
 2640TIP3    H1 7926   3.599   2.897   0.850
 2640TIP3    H2 7927   3.730   2.835   0.804
 2641TIP3   OH2 7928   4.984   5.777   2.236
 2641TIP3    H1 7929   4.944   5.748   2.154
 2641TIP3    H2 7930   4.941   5.725   2.303
 2642TIP3   OH2 7931   6.301   3.553   2.079
 2642TIP3    H1 7932   6.337   3.484   2.023
 2642TIP3    H2 7933   6.372   3.617   2.086
 2643TIP3   OH2 7934   5.693   1.121   2.318
 2643TIP3    H1 7935   5.641   1.044   2.341
 2643TIP3    H2 7936   5.761   1.087   2.260
 2644TIP3   OH2 7937   1.715   3.060   4.357
 2644TIP3    H1 7938   1.660   3.097   4.287
 2644TIP3    H2 7939   1.804   3.061   4.321
 2645TIP3   OH2 7940   4.850   3.174   4.505
 2645TIP3    H1 7941   4.943   3.183   4.482
 2645TIP3    H2 7942   4.833   3.247   4.565
 2646TIP3   OH2 7943   2.147   0.624   5.130
 2646TIP3    H1 7944   2.144   0.672   5.213
 2646TIP3    H2 7945   2.171   0.690   5.065
 2647TIP3   OH2 7946   2.711   4.306   1.788
 2647TIP3    H1 7947   2.679   4.224   1.825
 2647TIP3    H2 7948   2.806   4.297   1.788
 2648TIP3   OH2 7949   3.995   0.516   2.478
 2648TIP3    H1 7950   3.938   0.586   2.511
 2648TIP3    H2 7951   4.079   0.530   2.522
 2649TIP3   OH2 7952   2.686   3.731   2.278
 2649TIP3    H1 7953   2.715   3.752   2.366
 2649TIP3    H2 7954   2.747   3.664   2.247
 2650TIP3   OH2 7955   5.822   5.512   0.883
 2650TIP3    H1 7956   5.905   5.518   0.932
 2650TIP3    H2 7957   5.835   5.568   0.807
 2651TIP3   OH2 7958   1.487   5.660   3.337
 2651TIP3    H1 7959   1.416   5.638   3.397
 2651TIP3    H2 7960   1.442   5.692   3.258
 2652TIP3   OH2 7961   4.658   2.517   2.253
 2652TIP3    H1 7962   4.619   2.487   2.336
 2652TIP3    H2 7963   4.605   2.475   2.185
 2653TIP3   OH2 7964   3.957   4.282   4.501
 2653TIP3    H1 7965   3.940   4.240   4.417
 2653TIP3    H2 7966   4.046   4.254   4.524
 2654TIP3   OH2 7967   5.561   5.282   1.902
 2654TIP3    H1 7968   5.656   5.279   1.888
 2654TIP3    H2 7969   5.534   5.191   1.907
 2655TIP3   OH2 7970   6.344   2.575   5.092
 2655TIP3    H1 7971   6.401   2.559   5.168
 2655TIP3    H2 7972   6.342   2.670   5.084
 2656TIP3   OH2 7973   4.832   5.085   4.529
 2656TIP3    H1 7974   4.865   5.005   4.571
 2656TIP3    H2 7975   4.737   5.075   4.529
 2657TIP3   OH2 7976   0.487   5.748   1.043
 2657TIP3    H1 7977   0.558   5.694   1.010
 2657TIP3    H2 7978   0.507   5.762   1.135
 2658TIP3   OH2 7979   6.329   0.454   5.066
 2658TIP3    H1 7980   6.275   0.407   5.003
 2658TIP3    H2 7981   6.273   0.524   5.099
 2659TIP3   OH2 7982   2.687   5.872   3.668
 2659TIP3    H1 7983   2.746   5.945   3.648
 2659TIP3    H2 7984   2.680   5.824   3.585
 2660TIP3   OH2 7985   4.181   4.048   2.907
 2660TIP3    H1 7986   4.113   4.040   2.840
 2660TIP3    H2 7987   4.151   4.119   2.964
 2661TIP3   OH2 7988   6.018   0.209   5.193
 2661TIP3    H1 7989   5.994   0.125   5.231
 2661TIP3    H2 7990   5.959   0.272   5.234
 2662TIP3   OH2 7991   4.877   3.727   0.694
 2662TIP3    H1 7992   4.843   3.796   0.751
 2662TIP3    H2 7993   4.932   3.773   0.631
 2663TIP3   OH2 7994   0.061   5.203   1.662
 2663TIP3    H1 7995   0.062   5.251   1.578
 2663TIP3    H2 7996  -0.017   5.147   1.656
 2664TIP3   OH2 7997   2.057   5.443   1.619
 2664TIP3    H1 7998   2.039   5.407   1.533
 2664TIP3    H2 7999   2.150   5.464   1.617
 2665TIP3   OH2 8000   1.402   1.396   1.385
 2665TIP3    H1 8001   1.308   1.386   1.377
 2665TIP3    H2 8002   1.414   1.486   1.415
 2666TIP3   OH2 8003   4.622   4.180   0.636
 2666TIP3    H1 8004   4.613   4.084   0.633
 2666TIP3    H2 8005   4.543   4.213   0.594
 2667TIP3   OH2 8006   3.722   2.896   2.194
 2667TIP3    H1 8007   3.685   2.818   2.234
 2667TIP3    H2 8008   3.707   2.966   2.258
 2668TIP3   OH2 8009   1.133   1.348   0.987
 2668TIP3    H1 8010   1.176   1.392   0.914
 2668TIP3    H2 8011   1.071   1.287   0.946
 2669TIP3   OH2 8012   2.820   2.023   1.598
 2669TIP3    H1 8013   2.767   2.068   1.664
 2669TIP3    H2 8014   2.843   2.091   1.535
 2670TIP3   OH2 8015   3.645   1.601   3.237
 2670TIP3    H1 8016   3.626   1.684   3.281
 2670TIP3    H2 8017   3.569   1.586   3.181
 2671TIP3   OH2 8018   5.835   4.895   1.556
 2671TIP3    H1 8019   5.773   4.868   1.489
 2671TIP3    H2 8020   5.819   4.988   1.568
 2672TIP3   OH2 8021   0.666   3.966   3.694
 2672TIP3    H1 8022   0.727   4.039   3.702
 2672TIP3    H2 8023   0.616   3.985   3.614
 2673TIP3   OH2 8024   4.206   3.363   1.525
 2673TIP3    H1 8025   4.179   3.292   1.583
 2673TIP3    H2 8026   4.301   3.357   1.522
 2674TIP3   OH2 8027   2.617   2.578   2.798
 2674TIP3    H1 8028   2.688   2.641   2.791
 2674TIP3    H2 8029   2.660   2.496   2.821
 2675TIP3   OH2 8030   3.923   5.662   1.501
 2675TIP3    H1 8031   3.944   5.605   1.575
 2675TIP3    H2 8032   3.937   5.606   1.424
 2676TIP3   OH2 8033   3.950   3.776   5.024
 2676TIP3    H1 8034   3.909   3.855   4.989
 2676TIP3    H2 8035   4.026   3.761   4.967
 2677TIP3   OH2 8036   2.673   0.230   4.350
 2677TIP3    H1 8037   2.654   0.316   4.386
 2677TIP3    H2 8038   2.633   0.230   4.263
 2678TIP3   OH2 8039   2.724   2.148   3.766
 2678TIP3    H1 8040   2.695   2.128   3.855
 2678TIP3    H2 8041   2.733   2.063   3.723
 2679TIP3   OH2 8042   1.680   0.366   5.021
 2679TIP3    H1 8043   1.671   0.421   5.099
 2679TIP3    H2 8044   1.773   0.346   5.015
 2680TIP3   OH2 8045   4.558   3.162   1.998
 2680TIP3    H1 8046   4.650   3.153   2.021
 2680TIP3    H2 8047   4.536   3.081   1.952
 2681TIP3   OH2 8048   2.867   4.959   0.903
 2681TIP3    H1 8049   2.901   5.002   0.981
 2681TIP3    H2 8050   2.936   4.969   0.837
 2682TIP3   OH2 8051   5.966   0.629   1.733
 2682TIP3    H1 8052   5.900   0.565   1.760
 2682TIP3    H2 8053   6.048   0.597   1.769
 2683TIP3   OH2 8054   0.951   0.113   4.674
 2683TIP3    H1 8055   0.867   0.068   4.672
 2683TIP3    H2 8056   0.968   0.137   4.583
 2684TIP3   OH2 8057   3.152   1.464   3.831
 2684TIP3    H1 8058   3.235   1.422   3.854
 2684TIP3    H2 8059   3.168   1.557   3.846
 2685TIP3   OH2 8060   0.788   3.376   0.954
 2685TIP3    H1 8061   0.818   3.466   0.964
 2685TIP3    H2 8062   0.694   3.383   0.938
 2686TIP3   OH2 8063   1.457   4.918   4.558
 2686TIP3    H1 8064   1.444   4.890   4.649
 2686TIP3    H2 8065   1.549   4.901   4.540
 2687TIP3   OH2 8066   4.931   0.400   2.338
 2687TIP3    H1 8067   4.958   0.351   2.260
 2687TIP3    H2 8068   5.009   0.403   2.393
 2688TIP3   OH2 8069   3.194   5.507   3.594
 2688TIP3    H1 8070   3.126   5.509   3.526
 2688TIP3    H2 8071   3.155   5.458   3.666
 2689TIP3   OH2 8072   4.658   4.047   0.374
 2689TIP3    H1 8073   4.734   4.093   0.411
 2689TIP3    H2 8074   4.616   4.113   0.319
 2690TIP3   OH2 8075   0.831   5.814   5.056
 2690TIP3    H1 8076   0.860   5.775   5.139
 2690TIP3    H2 8077   0.891   5.887   5.042
 2691TIP3   OH2 8078   5.454   3.677   2.706
 2691TIP3    H1 8079   5.434   3.722   2.788
 2691TIP3    H2 8080   5.548   3.688   2.695
 2692TIP3   OH2 8081   4.735   5.699   5.170
 2692TIP3    H1 8082   4.828   5.710   5.149
 2692TIP3    H2 8083   4.698   5.787   5.162
 2693TIP3   OH2 8084   4.584   3.608   1.769
 2693TIP3    H1 8085   4.661   3.612   1.712
 2693TIP3    H2 8086   4.604   3.538   1.832
 2694TIP3   OH2 8087   3.333   4.421   0.724
 2694TIP3    H1 8088   3.245   4.407   0.690
 2694TIP3    H2 8089   3.360   4.505   0.686
 2695TIP3   OH2 8090   1.629   5.024   5.001
 2695TIP3    H1 8091   1.606   5.032   5.093
 2695TIP3    H2 8092   1.643   4.930   4.988
 2696TIP3   OH2 8093   6.272   1.171   1.786
 2696TIP3    H1 8094   6.307   1.127   1.709
 2696TIP3    H2 8095   6.273   1.264   1.763
 2697TIP3   OH2 8096   0.765   1.102   2.619
 2697TIP3    H1 8097   0.833   1.069   2.560
 2697TIP3    H2 8098   0.782   1.196   2.624
 2698TIP3   OH2 8099   1.917   1.864   1.506
 2698TIP3    H1 8100   1.949   1.915   1.580
 2698TIP3    H2 8101   1.828   1.838   1.532
 2699TIP3   OH2 8102   3.632   3.430   2.596
 2699TIP3    H1 8103   3.540   3.418   2.574
 2699TIP3    H2 8104   3.673   3.346   2.574
 2700TIP3   OH2 8105   4.249   5.613   1.447
 2700TIP3    H1 8106   4.265   5.610   1.353
 2700TIP3    H2 8107   4.233   5.521   1.471
 2701TIP3   OH2 8108   4.529   1.232   3.081
 2701TIP3    H1 8109   4.622   1.229   3.103
 2701TIP3    H2 8110   4.513   1.324   3.058
 2702TIP3   OH2 8111   5.728   3.275   3.327
 2702TIP3    H1 8112   5.725   3.231   3.412
 2702TIP3    H2 8113   5.820   3.301   3.317
 2703TIP3   OH2 8114   1.952   3.603   4.013
 2703TIP3    H1 8115   1.923   3.655   3.938
 2703TIP3    H2 8116   2.001   3.665   4.067
 2704TIP3   OH2 8117   0.887   1.071   5.009
 2704TIP3    H1 8118   0.849   1.093   4.924
 2704TIP3    H2 8119   0.819   1.021   5.054
 2705TIP3   OH2 8120   2.921   3.045   1.523
 2705TIP3    H1 8121   2.987   3.028   1.591
 2705TIP3    H2 8122   2.856   3.100   1.566
 2706TIP3   OH2 8123   5.556   4.911   2.997
 2706TIP3    H1 8124   5.579   4.984   3.056
 2706TIP3    H2 8125   5.556   4.834   3.054
 2707TIP3   OH2 8126   0.855   3.607   4.334
 2707TIP3    H1 8127   0.949   3.622   4.322
 2707TIP3    H2 8128   0.842   3.516   4.310
 2708TIP3   OH2 8129   1.563   3.134   0.936
 2708TIP3    H1 8130   1.656   3.117   0.923
 2708TIP3    H2 8131   1.519   3.067   0.884
 2709TIP3   OH2 8132   5.906   0.862   0.718
 2709TIP3    H1 8133   5.935   0.853   0.809
 2709TIP3    H2 8134   5.812   0.879   0.725
 2710TIP3   OH2 8135   2.519   3.193   3.461
 2710TIP3    H1 8136   2.452   3.234   3.407
 2710TIP3    H2 8137   2.476   3.114   3.497
 2711TIP3   OH2 8138   0.061   4.562   2.018
 2711TIP3    H1 8139   0.092   4.546   1.928
 2711TIP3    H2 8140   0.005   4.640   2.011
 2712TIP3   OH2 8141   1.049   4.561   0.989
 2712TIP3    H1 8142   1.045   4.514   0.906
 2712TIP3    H2 8143   1.043   4.493   1.056
 2713TIP3   OH2 8144   5.404   5.897   2.977
 2713TIP3    H1 8145   5.443   5.952   2.910
 2713TIP3    H2 8146   5.453   5.917   3.057
 2714TIP3   OH2 8147   2.423   4.720   4.551
 2714TIP3    H1 8148   2.329   4.734   4.563
 2714TIP3    H2 8149   2.438   4.735   4.458
 2715TIP3   OH2 8150   4.672   0.038   2.922
 2715TIP3    H1 8151   4.680   0.104   2.854
 2715TIP3    H2 8152   4.606  -0.023   2.890
 2716TIP3   OH2 8153   0.663   1.010   2.870
 2716TIP3    H1 8154   0.728   0.940   2.872
 2716TIP3    H2 8155   0.665   1.042   2.779
 2717TIP3   OH2 8156   0.848   5.153   0.744
 2717TIP3    H1 8157   0.898   5.085   0.698
 2717TIP3    H2 8158   0.914   5.203   0.791
 2718TIP3   OH2 8159   1.943   1.504   1.321
 2718TIP3    H1 8160   1.866   1.474   1.369
 2718TIP3    H2 8161   1.965   1.588   1.361
 2719TIP3   OH2 8162   3.911   0.051   1.219
 2719TIP3    H1 8163   3.837   0.072   1.276
 2719TIP3    H2 8164   3.985   0.040   1.279
 2720TIP3   OH2 8165   0.326   3.715   2.048
 2720TIP3    H1 8166   0.366   3.668   2.121
 2720TIP3    H2 8167   0.251   3.760   2.088
 2721TIP3   OH2 8168   1.400   1.387   0.821
 2721TIP3    H1 8169   1.347   1.460   0.789
 2721TIP3    H2 8170   1.450   1.358   0.745
 2722TIP3   OH2 8171   1.990   3.908   2.252
 2722TIP3    H1 8172   2.011   3.868   2.336
 2722TIP3    H2 8173   2.042   3.988   2.250
 2723TIP3   OH2 8174   4.141   0.961   2.406
 2723TIP3    H1 8175   4.220   0.928   2.364
 2723TIP3    H2 8176   4.143   1.055   2.389
 2724TIP3   OH2 8177   0.934   2.715   2.914
 2724TIP3    H1 8178   1.003   2.753   2.968
 2724TIP3    H2 8179   0.853   2.748   2.952
 2725TIP3   OH2 8180   3.586   3.308   2.052
 2725TIP3    H1 8181   3.569   3.391   2.009
 2725TIP3    H2 8182   3.679   3.312   2.077
 2726TIP3   OH2 8183   2.039   5.655   0.640
 2726TIP3    H1 8184   1.982   5.587   0.605
 2726TIP3    H2 8185   2.026   5.650   0.735
 2727TIP3   OH2 8186   0.258   2.594   0.529
 2727TIP3    H1 8187   0.214   2.599   0.444
 2727TIP3    H2 8188   0.280   2.502   0.540
 2728TIP3   OH2 8189   2.404   3.204   1.686
 2728TIP3    H1 8190   2.338   3.160   1.632
 2728TIP3    H2 8191   2.472   3.138   1.699
 2729TIP3   OH2 8192   2.810   2.291   3.370
 2729TIP3    H1 8193   2.884   2.270   3.427
 2729TIP3    H2 8194   2.846   2.350   3.303
 2730TIP3   OH2 8195   1.200   0.020   1.417
 2730TIP3    H1 8196   1.249   0.004   1.336
 2730TIP3    H2 8197   1.175  -0.067   1.447
 2731TIP3   OH2 8198   5.315   5.544   2.635
 2731TIP3    H1 8199   5.334   5.462   2.681
 2731TIP3    H2 8200   5.255   5.590   2.693
 2732TIP3   OH2 8201   2.615   1.973   2.277
 2732TIP3    H1 8202   2.545   2.008   2.331
 2732TIP3    H2 8203   2.574   1.900   2.230
 2733TIP3   OH2 8204   4.118   0.768   4.656
 2733TIP3    H1 8205   4.045   0.802   4.603
 2733TIP3    H2 8206   4.192   0.823   4.631
 2734TIP3   OH2 8207   2.496   4.929   3.471
 2734TIP3    H1 8208   2.479   4.837   3.452
 2734TIP3    H2 8209   2.471   4.940   3.563
 2735TIP3   OH2 8210   3.821   1.483   4.364
 2735TIP3    H1 8211   3.916   1.476   4.374
 2735TIP3    H2 8212   3.798   1.563   4.411
 2736TIP3   OH2 8213   2.737   0.378   3.510
 2736TIP3    H1 8214   2.755   0.438   3.437
 2736TIP3    H2 8215   2.811   0.389   3.569
 2737TIP3   OH2 8216   6.251   1.432   3.940
 2737TIP3    H1 8217   6.204   1.459   4.019
 2737TIP3    H2 8218   6.184   1.388   3.887
 2738TIP3   OH2 8219   4.823   5.005   3.135
 2738TIP3    H1 8220   4.882   4.972   3.067
 2738TIP3    H2 8221   4.879   5.015   3.212
 2739TIP3   OH2 8222   1.271   4.821   4.202
 2739TIP3    H1 8223   1.231   4.890   4.254
 2739TIP3    H2 8224   1.309   4.867   4.127
 2740TIP3   OH2 8225   6.021   5.215   1.697
 2740TIP3    H1 8226   6.065   5.271   1.761
 2740TIP3    H2 8227   5.929   5.216   1.723
 2741TIP3   OH2 8228   0.063   5.839   1.370
 2741TIP3    H1 8229  -0.028   5.851   1.344
 2741TIP3    H2 8230   0.091   5.925   1.400
 2742TIP3   OH2 8231   1.863   1.588   4.899
 2742TIP3    H1 8232   1.946   1.543   4.883
 2742TIP3    H2 8233   1.796   1.523   4.877
 2743TIP3   OH2 8234   2.285   3.420   4.212
 2743TIP3    H1 8235   2.344   3.459   4.276
 2743TIP3    H2 8236   2.263   3.335   4.249
 2744TIP3   OH2 8237   2.756   1.973   3.981
 2744TIP3    H1 8238   2.757   1.995   4.075
 2744TIP3    H2 8239   2.840   2.006   3.949
 2745TIP3   OH2 8240   6.230   1.045   2.033
 2745TIP3    H1 8241   6.218   1.084   1.946
 2745TIP3    H2 8242   6.247   1.120   2.091
 2746TIP3   OH2 8243   3.335   3.142   4.973
 2746TIP3    H1 8244   3.367   3.230   4.952
 2746TIP3    H2 8245   3.270   3.156   5.042
 2747TIP3   OH2 8246   3.160   3.436   2.009
 2747TIP3    H1 8247   3.128   3.525   2.005
 2747TIP3    H2 8248   3.170   3.418   2.103
 2748TIP3   OH2 8249   0.224   2.069   4.253
 2748TIP3    H1 8250   0.170   2.073   4.174
 2748TIP3    H2 8251   0.225   2.159   4.286
 2749TIP3   OH2 8252   3.168   0.111   3.915
 2749TIP3    H1 8253   3.207   0.112   4.002
 2749TIP3    H2 8254   3.240   0.136   3.857
 2750TIP3   OH2 8255   1.935   2.973   0.918
 2750TIP3    H1 8256   1.969   3.006   0.835
 2750TIP3    H2 8257   1.844   2.950   0.900
 2751TIP3   OH2 8258   4.677   1.934   2.997
 2751TIP3    H1 8259   4.768   1.906   3.009
 2751TIP3    H2 8260   4.627   1.875   3.054
 2752TIP3   OH2 8261   5.416   3.403   4.573
 2752TIP3    H1 8262   5.354   3.442   4.634
 2752TIP3    H2 8263   5.376   3.414   4.487
 2753TIP3   OH2 8264   2.378   3.384   2.876
 2753TIP3    H1 8265   2.310   3.443   2.844
 2753TIP3    H2 8266   2.388   3.406   2.969
 2754TIP3   OH2 8267   3.693   2.782   3.117
 2754TIP3    H1 8268   3.675   2.688   3.116
 2754TIP3    H2 8269   3.634   2.817   3.183
 2755TIP3   OH2 8270   6.205   4.562   4.801
 2755TIP3    H1 8271   6.232   4.475   4.831
 2755TIP3    H2 8272   6.246   4.572   4.715
 2756TIP3   OH2 8273   2.155   4.050   0.259
 2756TIP3    H1 8274   2.099   4.126   0.264
 2756TIP3    H2 8275   2.136   4.012   0.173
 2757TIP3   OH2 8276   5.574   0.392   3.772
 2757TIP3    H1 8277   5.583   0.439   3.689
 2757TIP3    H2 8278   5.636   0.436   3.831
 2758TIP3   OH2 8279   2.905   0.371   0.083
 2758TIP3    H1 8280   2.971   0.379   0.015
 2758TIP3    H2 8281   2.954   0.352   0.163
 2759TIP3   OH2 8282   2.376   5.694   3.623
 2759TIP3    H1 8283   2.437   5.682   3.696
 2759TIP3    H2 8284   2.431   5.688   3.545
 2760TIP3   OH2 8285   5.906   3.108   2.804
 2760TIP3    H1 8286   5.847   3.176   2.771
 2760TIP3    H2 8287   5.861   3.026   2.785
 2761TIP3   OH2 8288   2.644   0.231   3.785
 2761TIP3    H1 8289   2.665   0.323   3.772
 2761TIP3    H2 8290   2.700   0.204   3.858
 2762TIP3   OH2 8291   2.763   2.629   0.358
 2762TIP3    H1 8292   2.782   2.538   0.335
 2762TIP3    H2 8293   2.735   2.625   0.450
 2763TIP3   OH2 8294   4.197   4.689   4.722
 2763TIP3    H1 8295   4.217   4.686   4.816
 2763TIP3    H2 8296   4.167   4.779   4.707
 2764TIP3   OH2 8297   2.861   2.829   0.990
 2764TIP3    H1 8298   2.898   2.915   1.007
 2764TIP3    H2 8299   2.936   2.769   0.994
 2765TIP3   OH2 8300   5.945   5.545   0.149
 2765TIP3    H1 8301   5.855   5.577   0.135
 2765TIP3    H2 8302   5.995   5.585   0.078
 2766TIP3   OH2 8303   0.315   2.307  -0.015
 2766TIP3    H1 8304   0.320   2.285   0.078
 2766TIP3    H2 8305   0.271   2.231  -0.055
 2767TIP3   OH2 8306   3.794   0.335   1.608
 2767TIP3    H1 8307   3.820   0.339   1.516
 2767TIP3    H2 8308   3.842   0.260   1.643
 2768TIP3   OH2 8309   5.769   0.621   4.651
 2768TIP3    H1 8310   5.758   0.585   4.739
 2768TIP3    H2 8311   5.856   0.661   4.652
 2769TIP3   OH2 8312   2.860   5.672   0.652
 2769TIP3    H1 8313   2.912   5.610   0.601
 2769TIP3    H2 8314   2.785   5.692   0.595
 2770TIP3   OH2 8315   3.749   1.253   1.718
 2770TIP3    H1 8316   3.765   1.346   1.732
 2770TIP3    H2 8317   3.653   1.244   1.721
 2771TIP3   OH2 8318   1.905   2.133   3.129
 2771TIP3    H1 8319   1.993   2.170   3.123
 2771TIP3    H2 8320   1.901   2.071   3.056
 2772TIP3   OH2 8321   5.852   3.765   2.493
 2772TIP3    H1 8322   5.796   3.843   2.495
 2772TIP3    H2 8323   5.940   3.798   2.477
 2773TIP3   OH2 8324   0.266   2.140   4.677
 2773TIP3    H1 8325   0.313   2.064   4.712
 2773TIP3    H2 8326   0.173   2.121   4.695
 2774TIP3   OH2 8327   2.292   2.122   0.742
 2774TIP3    H1 8328   2.370   2.178   0.742
 2774TIP3    H2 8329   2.273   2.109   0.835
 2775TIP3   OH2 8330   3.833   4.931   2.044
 2775TIP3    H1 8331   3.810   4.909   1.954
 2775TIP3    H2 8332   3.883   5.012   2.037
 2776TIP3   OH2 8333   2.564   5.954   1.313
 2776TIP3    H1 8334   2.551   5.872   1.266
 2776TIP3    H2 8335   2.477   5.994   1.315
 2777TIP3   OH2 8336   1.312   4.778   1.997
 2777TIP3    H1 8337   1.287   4.788   2.089
 2777TIP3    H2 8338   1.386   4.838   1.986
 2778TIP3   OH2 8339   3.093   1.948   0.538
 2778TIP3    H1 8340   3.025   2.016   0.536
 2778TIP3    H2 8341   3.046   1.866   0.523
 2779TIP3   OH2 8342   4.985   4.873   3.894
 2779TIP3    H1 8343   4.948   4.851   3.979
 2779TIP3    H2 8344   5.006   4.788   3.854
 2780TIP3   OH2 8345   0.958   4.990   3.429
 2780TIP3    H1 8346   0.908   5.072   3.436
 2780TIP3    H2 8347   1.049   5.018   3.418
 2781TIP3   OH2 8348   4.944   4.170   0.520
 2781TIP3    H1 8349   4.971   4.082   0.496
 2781TIP3    H2 8350   5.020   4.225   0.500
 2782TIP3   OH2 8351   0.462   5.552   4.959
 2782TIP3    H1 8352   0.557   5.539   4.964
 2782TIP3    H2 8353   0.440   5.596   5.041
 2783TIP3   OH2 8354   3.558   4.081   1.755
 2783TIP3    H1 8355   3.489   4.147   1.747
 2783TIP3    H2 8356   3.521   4.003   1.715
 2784TIP3   OH2 8357   4.030   3.533   3.302
 2784TIP3    H1 8358   4.093   3.523   3.374
 2784TIP3    H2 8359   4.070   3.486   3.229
 2785TIP3   OH2 8360   4.310   3.759   0.929
 2785TIP3    H1 8361   4.345   3.683   0.883
 2785TIP3    H2 8362   4.219   3.735   0.949
 2786TIP3   OH2 8363   2.301   3.612   4.758
 2786TIP3    H1 8364   2.278   3.641   4.846
 2786TIP3    H2 8365   2.233   3.547   4.736
 2787TIP3   OH2 8366   1.120   4.353   2.155
 2787TIP3    H1 8367   1.128   4.369   2.249
 2787TIP3    H2 8368   1.088   4.436   2.119
 2788TIP3   OH2 8369   2.820   5.505   3.176
 2788TIP3    H1 8370   2.892   5.565   3.158
 2788TIP3    H2 8371   2.829   5.436   3.111
 2789TIP3   OH2 8372   4.042   5.402   2.797
 2789TIP3    H1 8373   4.002   5.374   2.715
 2789TIP3    H2 8374   4.004   5.346   2.863
 2790TIP3   OH2 8375   3.154   2.623   0.236
 2790TIP3    H1 8376   3.153   2.579   0.320
 2790TIP3    H2 8377   3.081   2.585   0.187
 2791TIP3   OH2 8378   3.635   0.302   2.644
 2791TIP3    H1 8379   3.604   0.212   2.634
 2791TIP3    H2 8380   3.729   0.296   2.625
 2792TIP3   OH2 8381   5.899   1.449   1.600
 2792TIP3    H1 8382   5.918   1.377   1.661
 2792TIP3    H2 8383   5.882   1.524   1.657
 2793TIP3   OH2 8384   3.612   1.982   3.566
 2793TIP3    H1 8385   3.679   1.924   3.601
 2793TIP3    H2 8386   3.534   1.964   3.619
 2794TIP3   OH2 8387   1.525   4.567   5.045
 2794TIP3    H1 8388   1.464   4.615   5.101
 2794TIP3    H2 8389   1.570   4.508   5.106
 2795TIP3   OH2 8390   2.863   2.615   3.891
 2795TIP3    H1 8391   2.807   2.639   3.964
 2795TIP3    H2 8392   2.830   2.531   3.861
 2796TIP3   OH2 8393   0.808   0.604   2.417
 2796TIP3    H1 8394   0.903   0.617   2.423
 2796TIP3    H2 8395   0.779   0.598   2.508
 2797TIP3   OH2 8396   2.156   2.997   1.116
 2797TIP3    H1 8397   2.178   3.070   1.058
 2797TIP3    H2 8398   2.108   2.936   1.060
 2798TIP3   OH2 8399   4.961   2.502   2.388
 2798TIP3    H1 8400   5.036   2.448   2.413
 2798TIP3    H2 8401   4.896   2.439   2.356
 2799TIP3   OH2 8402   5.265   2.277   3.074
 2799TIP3    H1 8403   5.302   2.365   3.077
 2799TIP3    H2 8404   5.287   2.245   2.987
 2800TIP3   OH2 8405   0.177   5.356   4.681
 2800TIP3    H1 8406   0.104   5.358   4.619
 2800TIP3    H2 8407   0.241   5.417   4.645
 2801TIP3   OH2 8408   3.086   2.291   2.856
 2801TIP3    H1 8409   3.098   2.378   2.817
 2801TIP3    H2 8410   3.142   2.291   2.934
 2802TIP3   OH2 8411   2.911   1.772   1.637
 2802TIP3    H1 8412   2.864   1.851   1.665
 2802TIP3    H2 8413   2.904   1.774   1.541
 2803TIP3   OH2 8414   6.263   3.828   2.360
 2803TIP3    H1 8415   6.186   3.882   2.339
 2803TIP3    H2 8416   6.229   3.757   2.414
 2804TIP3   OH2 8417   1.083   2.952   0.984
 2804TIP3    H1 8418   1.146   2.958   1.055
 2804TIP3    H2 8419   1.008   3.003   1.013
 2805TIP3   OH2 8420   3.643   5.212   1.203
 2805TIP3    H1 8421   3.700   5.233   1.130
 2805TIP3    H2 8422   3.562   5.260   1.186
 2806TIP3   OH2 8423   5.946   2.158   2.315
 2806TIP3    H1 8424   5.972   2.078   2.270
 2806TIP3    H2 8425   5.862   2.136   2.356
 2807TIP3   OH2 8426   3.800   1.654   5.105
 2807TIP3    H1 8427   3.715   1.668   5.146
 2807TIP3    H2 8428   3.819   1.561   5.121
 2808TIP3   OH2 8429   0.217   2.915   1.105
 2808TIP3    H1 8430   0.194   2.961   1.024
 2808TIP3    H2 8431   0.254   2.832   1.075
 2809TIP3   OH2 8432   1.309   5.347   2.972
 2809TIP3    H1 8433   1.268   5.285   2.911
 2809TIP3    H2 8434   1.403   5.328   2.965
 2810TIP3   OH2 8435   5.353   3.593   5.105
 2810TIP3    H1 8436   5.305   3.627   5.181
 2810TIP3    H2 8437   5.333   3.499   5.106
 2811TIP3   OH2 8438   1.785   1.571   3.821
 2811TIP3    H1 8439   1.877   1.557   3.798
 2811TIP3    H2 8440   1.749   1.482   3.826
 2812TIP3   OH2 8441   4.816   4.382   0.342
 2812TIP3    H1 8442   4.819   4.325   0.419
 2812TIP3    H2 8443   4.757   4.453   0.368
 2813TIP3   OH2 8444   4.774   2.473   3.040
 2813TIP3    H1 8445   4.868   2.491   3.036
 2813TIP3    H2 8446   4.733   2.557   3.058
 2814TIP3   OH2 8447   5.198   2.255   3.984
 2814TIP3    H1 8448   5.200   2.166   3.948
 2814TIP3    H2 8449   5.154   2.246   4.068
 2815TIP3   OH2 8450   3.145   0.971   2.372
 2815TIP3    H1 8451   3.161   0.878   2.358
 2815TIP3    H2 8452   3.147   0.983   2.467
 2816TIP3   OH2 8453   4.500   0.219   0.969
 2816TIP3    H1 8454   4.574   0.273   0.997
 2816TIP3    H2 8455   4.505   0.218   0.874
 2817TIP3   OH2 8456   1.001   4.504   1.730
 2817TIP3    H1 8457   1.035   4.524   1.818
 2817TIP3    H2 8458   0.966   4.416   1.737
 2818TIP3   OH2 8459   1.116   4.349   0.118
 2818TIP3    H1 8460   1.113   4.318   0.209
 2818TIP3    H2 8461   1.079   4.277   0.067
 2819TIP3   OH2 8462   3.804   0.664   0.365
 2819TIP3    H1 8463   3.742   0.717   0.314
 2819TIP3    H2 8464   3.751   0.624   0.434
 2820TIP3   OH2 8465   0.858   1.403   1.113
 2820TIP3    H1 8466   0.848   1.486   1.159
 2820TIP3    H2 8467   0.952   1.383   1.120
 2821TIP3   OH2 8468   4.110   5.127   5.066
 2821TIP3    H1 8469   4.169   5.074   5.120
 2821TIP3    H2 8470   4.067   5.185   5.128
 2822TIP3   OH2 8471   5.424   2.926   3.263
 2822TIP3    H1 8472   5.381   2.841   3.274
 2822TIP3    H2 8473   5.517   2.907   3.275
 2823TIP3   OH2 8474   2.945   5.844   2.906
 2823TIP3    H1 8475   2.926   5.933   2.936
 2823TIP3    H2 8476   2.866   5.794   2.927
 2824TIP3   OH2 8477   6.280   5.161   0.902
 2824TIP3    H1 8478   6.315   5.186   0.816
 2824TIP3    H2 8479   6.297   5.238   0.957
 2825TIP3   OH2 8480   3.401   4.745   5.022
 2825TIP3    H1 8481   3.476   4.802   5.040
 2825TIP3    H2 8482   3.439   4.657   5.018
 2826TIP3   OH2 8483   6.134   0.475   3.183
 2826TIP3    H1 8484   6.112   0.502   3.094
 2826TIP3    H2 8485   6.217   0.428   3.174
 2827TIP3   OH2 8486   4.757   5.884   3.148
 2827TIP3    H1 8487   4.847   5.857   3.130
 2827TIP3    H2 8488   4.740   5.852   3.237
 2828TIP3   OH2 8489   3.001   3.842   1.779
 2828TIP3    H1 8490   3.040   3.767   1.734
 2828TIP3    H2 8491   2.915   3.852   1.738
 2829TIP3   OH2 8492   0.480   2.040   0.901
 2829TIP3    H1 8493   0.542   2.090   0.848
 2829TIP3    H2 8494   0.431   2.107   0.949
 2830TIP3   OH2 8495   3.901   2.380   0.247
 2830TIP3    H1 8496   3.875   2.463   0.207
 2830TIP3    H2 8497   3.905   2.399   0.341
 2831TIP3   OH2 8498   3.708   1.954   1.325
 2831TIP3    H1 8499   3.688   2.047   1.327
 2831TIP3    H2 8500   3.788   1.944   1.377
 2832TIP3   OH2 8501   1.686   4.412   5.178
 2832TIP3    H1 8502   1.703   4.365   5.096
 2832TIP3    H2 8503   1.773   4.437   5.209
 2833TIP3   OH2 8504   0.475   2.322   2.962
 2833TIP3    H1 8505   0.503   2.330   3.053
 2833TIP3    H2 8506   0.380   2.308   2.967
 2834TIP3   OH2 8507   1.706   2.312   4.866
 2834TIP3    H1 8508   1.714   2.375   4.937
 2834TIP3    H2 8509   1.796   2.290   4.843
 2835TIP3   OH2 8510   3.821   4.538   1.538
 2835TIP3    H1 8511   3.793   4.626   1.566
 2835TIP3    H2 8512   3.805   4.482   1.614
 2836TIP3   OH2 8513   1.642   1.245   2.357
 2836TIP3    H1 8514   1.595   1.165   2.334
 2836TIP3    H2 8515   1.734   1.217   2.364
 2837TIP3   OH2 8516   3.187   4.872   5.212
 2837TIP3    H1 8517   3.108   4.857   5.161
 2837TIP3    H2 8518   3.253   4.817   5.171
 2838TIP3   OH2 8519   3.868   5.304   0.423
 2838TIP3    H1 8520   3.797   5.363   0.397
 2838TIP3    H2 8521   3.882   5.248   0.346
 2839TIP3   OH2 8522   5.777   5.131   2.665
 2839TIP3    H1 8523   5.744   5.092   2.584
 2839TIP3    H2 8524   5.698   5.152   2.716
 2840TIP3   OH2 8525   4.998   3.816   0.036
 2840TIP3    H1 8526   4.945   3.737   0.030
 2840TIP3    H2 8527   4.955   3.878  -0.023
 2841TIP3   OH2 8528   2.097   5.826   1.947
 2841TIP3    H1 8529   2.167   5.762   1.940
 2841TIP3    H2 8530   2.094   5.868   1.861
 2842TIP3   OH2 8531   3.815   0.176   0.048
 2842TIP3    H1 8532   3.746   0.111   0.044
 2842TIP3    H2 8533   3.772   0.255   0.080
 2843TIP3   OH2 8534   2.638   1.990   4.497
 2843TIP3    H1 8535   2.674   1.985   4.409
 2843TIP3    H2 8536   2.614   2.083   4.508
 2844TIP3   OH2 8537   0.240   5.200   2.565
 2844TIP3    H1 8538   0.287   5.283   2.559
 2844TIP3    H2 8539   0.185   5.198   2.487
 2845TIP3   OH2 8540   1.121   3.029   4.333
 2845TIP3    H1 8541   1.183   2.959   4.353
 2845TIP3    H2 8542   1.109   3.075   4.416
 2846TIP3   OH2 8543   0.755   5.075   4.572
 2846TIP3    H1 8544   0.776   4.988   4.608
 2846TIP3    H2 8545   0.840   5.110   4.545
 2847TIP3   OH2 8546   3.957   0.635   0.149
 2847TIP3    H1 8547   3.898   0.670   0.083
 2847TIP3    H2 8548   3.912   0.652   0.232
 2848TIP3   OH2 8549   2.108   2.388   0.972
 2848TIP3    H1 8550   2.113   2.420   0.882
 2848TIP3    H2 8551   2.111   2.468   1.026
 2849TIP3   OH2 8552   2.172   4.146   4.989
 2849TIP3    H1 8553   2.192   4.061   5.026
 2849TIP3    H2 8554   2.133   4.127   4.903
 2850TIP3   OH2 8555   2.204   1.431   1.986
 2850TIP3    H1 8556   2.152   1.458   2.062
 2850TIP3    H2 8557   2.168   1.345   1.962
 2851TIP3   OH2 8558   0.418   2.687   2.997
 2851TIP3    H1 8559   0.351   2.620   3.005
 2851TIP3    H2 8560   0.423   2.728   3.083
 2852TIP3   OH2 8561   1.363   2.633   1.481
 2852TIP3    H1 8562   1.315   2.709   1.448
 2852TIP3    H2 8563   1.302   2.590   1.540
 2853TIP3   OH2 8564   0.790   5.134   2.914
 2853TIP3    H1 8565   0.713   5.139   2.857
 2853TIP3    H2 8566   0.835   5.216   2.900
 2854TIP3   OH2 8567   2.320   1.546   2.324
 2854TIP3    H1 8568   2.322   1.523   2.417
 2854TIP3    H2 8569   2.336   1.464   2.278
 2855TIP3   OH2 8570   3.276   0.865   1.407
 2855TIP3    H1 8571   3.231   0.926   1.349
 2855TIP3    H2 8572   3.234   0.781   1.391
 2856TIP3   OH2 8573   3.711   3.859   4.538
 2856TIP3    H1 8574   3.806   3.856   4.549
 2856TIP3    H2 8575   3.698   3.858   4.443
 2857TIP3   OH2 8576   4.511   2.889   1.591
 2857TIP3    H1 8577   4.445   2.849   1.534
 2857TIP3    H2 8578   4.587   2.902   1.534
 2858TIP3   OH2 8579   4.172   1.240   4.180
 2858TIP3    H1 8580   4.082   1.249   4.150
 2858TIP3    H2 8581   4.206   1.330   4.180
 2859TIP3   OH2 8582   4.080   3.151   5.182
 2859TIP3    H1 8583   3.995   3.172   5.145
 2859TIP3    H2 8584   4.114   3.235   5.214
 2860TIP3   OH2 8585   3.532   0.389   4.505
 2860TIP3    H1 8586   3.441   0.417   4.516
 2860TIP3    H2 8587   3.536   0.358   4.414
 2861TIP3   OH2 8588   0.114   3.507   5.202
 2861TIP3    H1 8589   0.037   3.459   5.231
 2861TIP3    H2 8590   0.078   3.590   5.170
 2862TIP3   OH2 8591   1.949   4.564   0.451
 2862TIP3    H1 8592   1.859   4.584   0.477
 2862TIP3    H2 8593   1.963   4.613   0.371
 2863TIP3   OH2 8594   1.182   2.258   5.092
 2863TIP3    H1 8595   1.216   2.178   5.131
 2863TIP3    H2 8596   1.093   2.237   5.066
 2864TIP3   OH2 8597   0.523   3.504   0.430
 2864TIP3    H1 8598   0.463   3.579   0.436
 2864TIP3    H2 8599   0.469   3.429   0.454
 2865TIP3   OH2 8600   0.360   0.709   3.726
 2865TIP3    H1 8601   0.368   0.627   3.677
 2865TIP3    H2 8602   0.448   0.723   3.763
 2866TIP3   OH2 8603   1.200   5.204   1.101
 2866TIP3    H1 8604   1.111   5.199   1.138
 2866TIP3    H2 8605   1.252   5.244   1.170
 2867TIP3   OH2 8606   4.409   2.615   3.797
 2867TIP3    H1 8607   4.486   2.624   3.853
 2867TIP3    H2 8608   4.430   2.666   3.718
 2868TIP3   OH2 8609   3.467   4.967   3.460
 2868TIP3    H1 8610   3.398   4.935   3.402
 2868TIP3    H2 8611   3.505   5.042   3.413
 2869TIP3   OH2 8612   0.915   5.376   2.830
 2869TIP3    H1 8613   0.940   5.452   2.882
 2869TIP3    H2 8614   0.840   5.406   2.779
 2870TIP3   OH2 8615   2.093   4.792   2.026
 2870TIP3    H1 8616   2.050   4.823   1.946
 2870TIP3    H2 8617   2.178   4.759   1.997
 2871TIP3   OH2 8618   4.279   5.935   4.604
 2871TIP3    H1 8619   4.329   5.853   4.596
 2871TIP3    H2 8620   4.337   5.994   4.652
 2872TIP3   OH2 8621   6.344   1.138   1.500
 2872TIP3    H1 8622   6.272   1.201   1.497
 2872TIP3    H2 8623   6.363   1.118   1.409
 2873TIP3   OH2 8624   1.829   1.802   0.468
 2873TIP3    H1 8625   1.918   1.778   0.493
 2873TIP3    H2 8626   1.802   1.867   0.533
 2874TIP3   OH2 8627   0.940   4.104   4.525
 2874TIP3    H1 8628   0.907   4.032   4.579
 2874TIP3    H2 8629   1.019   4.068   4.484
 2875TIP3   OH2 8630   1.111   3.922   4.411
 2875TIP3    H1 8631   1.093   3.837   4.372
 2875TIP3    H2 8632   1.201   3.915   4.443
 2876TIP3   OH2 8633   2.026   3.320   3.551
 2876TIP3    H1 8634   1.972   3.250   3.587
 2876TIP3    H2 8635   2.026   3.304   3.457
 2877TIP3   OH2 8636   5.505   1.131   5.101
 2877TIP3    H1 8637   5.452   1.173   5.168
 2877TIP3    H2 8638   5.442   1.097   5.038
 2878TIP3   OH2 8639   0.456   0.398   2.598
 2878TIP3    H1 8640   0.433   0.404   2.506
 2878TIP3    H2 8641   0.436   0.307   2.622
 2879TIP3   OH2 8642   5.265   1.316   2.306
 2879TIP3    H1 8643   5.303   1.398   2.274
 2879TIP3    H2 8644   5.234   1.273   2.227
 2880TIP3   OH2 8645   2.271   0.368   2.668
 2880TIP3    H1 8646   2.303   0.299   2.611
 2880TIP3    H2 8647   2.175   0.361   2.663
 2881TIP3   OH2 8648   1.381   5.143   4.747
 2881TIP3    H1 8649   1.379   5.102   4.661
 2881TIP3    H2 8650   1.455   5.204   4.744
 2882TIP3   OH2 8651   0.584   3.251   2.676
 2882TIP3    H1 8652   0.663   3.203   2.699
 2882TIP3    H2 8653   0.614   3.320   2.616
 2883TIP3   OH2 8654   3.420   3.910   1.386
 2883TIP3    H1 8655   3.365   3.939   1.459
 2883TIP3    H2 8656   3.369   3.931   1.308
 2884TIP3   OH2 8657   5.900   4.857   4.871
 2884TIP3    H1 8658   5.867   4.943   4.898
 2884TIP3    H2 8659   5.982   4.877   4.825
 2885TIP3   OH2 8660   1.316   4.291   4.015
 2885TIP3    H1 8661   1.332   4.381   4.044
 2885TIP3    H2 8662   1.252   4.300   3.945
 2886TIP3   OH2 8663   1.830   2.509   3.162
 2886TIP3    H1 8664   1.773   2.438   3.131
 2886TIP3    H2 8665   1.919   2.473   3.156
 2887TIP3   OH2 8666   2.693   5.822   0.470
 2887TIP3    H1 8667   2.698   5.838   0.376
 2887TIP3    H2 8668   2.765   5.873   0.507
 2888TIP3   OH2 8669   4.373   3.124   4.028
 2888TIP3    H1 8670   4.378   3.212   4.065
 2888TIP3    H2 8671   4.339   3.137   3.939
 2889TIP3   OH2 8672   4.526   5.582   0.826
 2889TIP3    H1 8673   4.459   5.602   0.761
 2889TIP3    H2 8674   4.565   5.500   0.796
 2890TIP3   OH2 8675   3.033   4.244   0.203
 2890TIP3    H1 8676   2.994   4.188   0.271
 2890TIP3    H2 8677   3.012   4.200   0.121
 2891TIP3   OH2 8678   6.121   0.493   0.179
 2891TIP3    H1 8679   6.200   0.504   0.126
 2891TIP3    H2 8680   6.079   0.579   0.178
 2892TIP3   OH2 8681   0.699   3.608   2.339
 2892TIP3    H1 8682   0.791   3.588   2.323
 2892TIP3    H2 8683   0.700   3.693   2.383
 2893TIP3   OH2 8684   1.267   2.996   3.176
 2893TIP3    H1 8685   1.307   2.922   3.223
 2893TIP3    H2 8686   1.316   3.072   3.204
 2894TIP3   OH2 8687   2.732   4.716   3.228
 2894TIP3    H1 8688   2.780   4.750   3.152
 2894TIP3    H2 8689   2.782   4.746   3.304
 2895TIP3   OH2 8690   5.592   5.440   2.925
 2895TIP3    H1 8691   5.611   5.498   2.999
 2895TIP3    H2 8692   5.497   5.442   2.917
 2896TIP3   OH2 8693   5.482   1.727   1.661
 2896TIP3    H1 8694   5.414   1.689   1.716
 2896TIP3    H2 8695   5.534   1.653   1.631
 2897TIP3   OH2 8696   0.417   2.499   4.146
 2897TIP3    H1 8697   0.460   2.445   4.213
 2897TIP3    H2 8698   0.487   2.520   4.084
 2898TIP3   OH2 8699   1.974   5.266   4.070
 2898TIP3    H1 8700   1.976   5.235   4.161
 2898TIP3    H2 8701   1.992   5.360   4.076
 2899TIP3   OH2 8702   0.835   3.809   0.135
 2899TIP3    H1 8703   0.750   3.853   0.144
 2899TIP3    H2 8704   0.826   3.730   0.188
 2900TIP3   OH2 8705   0.482   0.220   4.517
 2900TIP3    H1 8706   0.415   0.152   4.509
 2900TIP3    H2 8707   0.562   0.173   4.541
 2901TIP3   OH2 8708   2.461   2.807   0.238
 2901TIP3    H1 8709   2.485   2.861   0.313
 2901TIP3    H2 8710   2.536   2.750   0.224
 2902TIP3   OH2 8711   5.995   1.142   4.964
 2902TIP3    H1 8712   6.014   1.070   4.905
 2902TIP3    H2 8713   5.902   1.135   4.983
 2903TIP3   OH2 8714   3.885   3.267   0.360
 2903TIP3    H1 8715   3.939   3.302   0.432
 2903TIP3    H2 8716   3.885   3.172   0.374
 2904TIP3   OH2 8717   1.404   2.443   3.156
 2904TIP3    H1 8718   1.466   2.496   3.106
 2904TIP3    H2 8719   1.396   2.362   3.105
 2905TIP3   OH2 8720   1.708   0.559   2.839
 2905TIP3    H1 8721   1.627   0.548   2.889
 2905TIP3    H2 8722   1.729   0.472   2.807
 2906TIP3   OH2 8723   3.332   2.144   3.957
 2906TIP3    H1 8724   3.402   2.154   4.021
 2906TIP3    H2 8725   3.355   2.066   3.908
 2907TIP3   OH2 8726   1.214   2.874   0.493
 2907TIP3    H1 8727   1.185   2.813   0.561
 2907TIP3    H2 8728   1.199   2.827   0.411
 2908TIP3   OH2 8729   3.041   3.827   4.632
 2908TIP3    H1 8730   3.007   3.901   4.683
 2908TIP3    H2 8731   3.136   3.841   4.631
 2909TIP3   OH2 8732   5.541   5.265   2.331
 2909TIP3    H1 8733   5.536   5.330   2.402
 2909TIP3    H2 8734   5.458   5.274   2.285
 2910TIP3   OH2 8735   4.292   0.383   2.564
 2910TIP3    H1 8736   4.257   0.348   2.646
 2910TIP3    H2 8737   4.347   0.313   2.529
 2911TIP3   OH2 8738   4.374   4.558   1.622
 2911TIP3    H1 8739   4.288   4.591   1.593
 2911TIP3    H2 8740   4.433   4.632   1.611
 2912TIP3   OH2 8741   1.387   3.911   4.408
 2912TIP3    H1 8742   1.376   3.998   4.369
 2912TIP3    H2 8743   1.481   3.903   4.424
 2913TIP3   OH2 8744   5.300   2.667   3.318
 2913TIP3    H1 8745   5.214   2.707   3.329
 2913TIP3    H2 8746   5.281   2.578   3.289
 2914TIP3   OH2 8747   2.199   3.670   4.424
 2914TIP3    H1 8748   2.243   3.585   4.430
 2914TIP3    H2 8749   2.267   3.733   4.448
 2915TIP3   OH2 8750   1.788   2.535   3.445
 2915TIP3    H1 8751   1.802   2.554   3.352
 2915TIP3    H2 8752   1.723   2.465   3.446
 2916TIP3   OH2 8753   5.428   4.898   4.626
 2916TIP3    H1 8754   5.405   4.903   4.719
 2916TIP3    H2 8755   5.391   4.979   4.589
 2917TIP3   OH2 8756   4.390   0.147   3.694
 2917TIP3    H1 8757   4.441   0.111   3.622
 2917TIP3    H2 8758   4.339   0.073   3.727
 2918TIP3   OH2 8759   4.996   3.662   1.467
 2918TIP3    H1 8760   5.041   3.698   1.544
 2918TIP3    H2 8761   5.009   3.728   1.399
 2919TIP3   OH2 8762   1.571   4.028   0.394
 2919TIP3    H1 8763   1.656   4.072   0.400
 2919TIP3    H2 8764   1.520   4.065   0.466
 2920TIP3   OH2 8765   0.338   5.671   2.596
 2920TIP3    H1 8766   0.298   5.756   2.615
 2920TIP3    H2 8767   0.413   5.665   2.655
 2921TIP3   OH2 8768  -0.012   2.833   0.814
 2921TIP3    H1 8769   0.071   2.856   0.857
 2921TIP3    H2 8770  -0.005   2.739   0.797
 2922TIP3   OH2 8771   5.996   1.751   4.247
 2922TIP3    H1 8772   5.976   1.845   4.249
 2922TIP3    H2 8773   5.996   1.725   4.339
 2923TIP3   OH2 8774   6.096   0.292   2.782
 2923TIP3    H1 8775   6.058   0.355   2.843
 2923TIP3    H2 8776   6.077   0.206   2.822
 2924TIP3   OH2 8777   5.807   1.553   3.245
 2924TIP3    H1 8778   5.724   1.573   3.288
 2924TIP3    H2 8779   5.874   1.592   3.302
 2925TIP3   OH2 8780   5.900   1.763   1.628
 2925TIP3    H1 8781   5.824   1.822   1.625
 2925TIP3    H2 8782   5.958   1.802   1.693
 2926TIP3   OH2 8783   3.070   3.899   3.000
 2926TIP3    H1 8784   3.101   3.833   3.063
 2926TIP3    H2 8785   3.137   3.900   2.932
 2927TIP3   OH2 8786   2.292   3.187   3.275
 2927TIP3    H1 8787   2.268   3.101   3.310
 2927TIP3    H2 8788   2.289   3.176   3.180
 2928TIP3   OH2 8789   5.500   5.565   4.866
 2928TIP3    H1 8790   5.434   5.579   4.933
 2928TIP3    H2 8791   5.459   5.505   4.803
 2929TIP3   OH2 8792   4.318   5.793   2.926
 2929TIP3    H1 8793   4.282   5.744   2.852
 2929TIP3    H2 8794   4.281   5.752   3.004
 2930TIP3   OH2 8795   3.493   0.474   2.859
 2930TIP3    H1 8796   3.531   0.416   2.792
 2930TIP3    H2 8797   3.557   0.545   2.868
 2931TIP3   OH2 8798   4.554   5.713   0.551
 2931TIP3    H1 8799   4.502   5.767   0.609
 2931TIP3    H2 8800   4.581   5.771   0.480
 2932TIP3   OH2 8801   5.914   5.161   0.308
 2932TIP3    H1 8802   5.929   5.173   0.215
 2932TIP3    H2 8803   5.827   5.121   0.313
 2933TIP3   OH2 8804   4.227   4.186   2.105
 2933TIP3    H1 8805   4.235   4.241   2.184
 2933TIP3    H2 8806   4.219   4.097   2.139
 2934TIP3   OH2 8807   4.038   5.444   3.509
 2934TIP3    H1 8808   4.019   5.520   3.565
 2934TIP3    H2 8809   3.999   5.370   3.554
 2935TIP3   OH2 8810   1.697   0.381   2.077
 2935TIP3    H1 8811   1.734   0.400   2.163
 2935TIP3    H2 8812   1.603   0.395   2.088
 2936TIP3   OH2 8813   1.309   4.228   4.884
 2936TIP3    H1 8814   1.278   4.137   4.886
 2936TIP3    H2 8815   1.257   4.272   4.951
 2937TIP3   OH2 8816   4.509   0.279   2.859
 2937TIP3    H1 8817   4.592   0.278   2.812
 2937TIP3    H2 8818   4.462   0.202   2.825
 2938TIP3   OH2 8819   5.685   2.673   1.544
 2938TIP3    H1 8820   5.651   2.684   1.455
 2938TIP3    H2 8821   5.678   2.580   1.561
 2939TIP3   OH2 8822   4.113   4.503   2.682
 2939TIP3    H1 8823   4.141   4.415   2.661
 2939TIP3    H2 8824   4.086   4.499   2.774
 2940TIP3   OH2 8825   1.355   2.021   4.938
 2940TIP3    H1 8826   1.320   2.021   5.027
 2940TIP3    H2 8827   1.385   1.931   4.924
 2941TIP3   OH2 8828   0.403   4.210   0.604
 2941TIP3    H1 8829   0.420   4.118   0.627
 2941TIP3    H2 8830   0.308   4.219   0.612
 2942TIP3   OH2 8831   0.642   1.910   1.238
 2942TIP3    H1 8832   0.736   1.893   1.234
 2942TIP3    H2 8833   0.636   2.004   1.258
 2943TIP3   OH2 8834   4.541   4.565   0.214
 2943TIP3    H1 8835   4.553   4.652   0.176
 2943TIP3    H2 8836   4.481   4.579   0.287
 2944TIP3   OH2 8837   4.063   3.140   3.429
 2944TIP3    H1 8838   4.133   3.079   3.410
 2944TIP3    H2 8839   3.992   3.115   3.370
 2945TIP3   OH2 8840   3.545   4.328   1.918
 2945TIP3    H1 8841   3.524   4.403   1.973
 2945TIP3    H2 8842   3.461   4.302   1.881
 2946TIP3   OH2 8843   3.977   2.692   3.282
 2946TIP3    H1 8844   3.921   2.672   3.357
 2946TIP3    H2 8845   3.990   2.607   3.239
 2947TIP3   OH2 8846   5.663   1.474   4.114
 2947TIP3    H1 8847   5.600   1.547   4.114
 2947TIP3    H2 8848   5.669   1.448   4.206
 2948TIP3   OH2 8849   1.508   0.881   4.198
 2948TIP3    H1 8850   1.588   0.856   4.244
 2948TIP3    H2 8851   1.527   0.867   4.105
 2949TIP3   OH2 8852   4.034   0.585   0.755
 2949TIP3    H1 8853   4.051   0.601   0.848
 2949TIP3    H2 8854   3.987   0.502   0.754
 2950TIP3   OH2 8855  -0.034   5.763   4.521
 2950TIP3    H1 8856  -0.046   5.740   4.429
 2950TIP3    H2 8857   0.056   5.794   4.526
 2951TIP3   OH2 8858   5.164   5.275   0.978
 2951TIP3    H1 8859   5.168   5.360   0.936
 2951TIP3    H2 8860   5.204   5.215   0.915
 2952TIP3   OH2 8861   2.714   4.134   2.253
 2952TIP3    H1 8862   2.666   4.098   2.328
 2952TIP3    H2 8863   2.749   4.217   2.284
 2953TIP3   OH2 8864   0.728   4.657   2.429
 2953TIP3    H1 8865   0.769   4.597   2.367
 2953TIP3    H2 8866   0.634   4.646   2.415
 2954TIP3   OH2 8867   5.157   1.958   3.455
 2954TIP3    H1 8868   5.114   1.893   3.511
 2954TIP3    H2 8869   5.103   1.959   3.375
 2955TIP3   OH2 8870   2.596   3.296   1.008
 2955TIP3    H1 8871   2.682   3.284   1.046
 2955TIP3    H2 8872   2.553   3.360   1.066
 2956TIP3   OH2 8873   4.622   3.840   4.555
 2956TIP3    H1 8874   4.527   3.853   4.548
 2956TIP3    H2 8875   4.657   3.927   4.575
 2957TIP3   OH2 8876   4.003   4.407   3.841
 2957TIP3    H1 8877   4.085   4.435   3.882
 2957TIP3    H2 8878   3.939   4.473   3.867
 2958TIP3   OH2 8879   5.730   0.525   3.022
 2958TIP3    H1 8880   5.695   0.612   3.039
 2958TIP3    H2 8881   5.807   0.518   3.080
 2959TIP3   OH2 8882   1.492   5.024   3.028
 2959TIP3    H1 8883   1.484   5.040   2.934
 2959TIP3    H2 8884   1.412   4.977   3.051
 2960TIP3   OH2 8885   5.109   4.004   2.957
 2960TIP3    H1 8886   5.177   4.026   2.893
 2960TIP3    H2 8887   5.088   3.912   2.939
 2961TIP3   OH2 8888   0.300   0.864   3.173
 2961TIP3    H1 8889   0.366   0.917   3.129
 2961TIP3    H2 8890   0.336   0.775   3.171
 2962TIP3   OH2 8891   5.326   5.274   2.192
 2962TIP3    H1 8892   5.280   5.340   2.141
 2962TIP3    H2 8893   5.277   5.194   2.178
 2963TIP3   OH2 8894   1.084   4.722   4.774
 2963TIP3    H1 8895   1.086   4.662   4.699
 2963TIP3    H2 8896   1.023   4.681   4.835
 2964TIP3   OH2 8897   3.400   2.484   1.191
 2964TIP3    H1 8898   3.448   2.501   1.110
 2964TIP3    H2 8899   3.407   2.566   1.239
 2965TIP3   OH2 8900   4.345   4.984   3.451
 2965TIP3    H1 8901   4.434   4.949   3.452
 2965TIP3    H2 8902   4.354   5.074   3.420
 2966TIP3   OH2 8903   5.183   0.229   4.782
 2966TIP3    H1 8904   5.223   0.184   4.708
 2966TIP3    H2 8905   5.199   0.322   4.766
 2967TIP3   OH2 8906   4.329   2.518   5.006
 2967TIP3    H1 8907   4.369   2.594   5.049
 2967TIP3    H2 8908   4.254   2.496   5.061
 2968TIP3   OH2 8909   0.500   2.847   4.480
 2968TIP3    H1 8910   0.428   2.901   4.512
 2968TIP3    H2 8911   0.469   2.757   4.490
 2969TIP3   OH2 8912   2.223   1.581   3.926
 2969TIP3    H1 8913   2.172   1.658   3.900
 2969TIP3    H2 8914   2.170   1.507   3.896
 2970TIP3   OH2 8915   3.333   5.434   0.732
 2970TIP3    H1 8916   3.389   5.500   0.772
 2970TIP3    H2 8917   3.391   5.359   0.719
 2971TIP3   OH2 8918   0.844   0.335   0.261
 2971TIP3    H1 8919   0.858   0.357   0.168
 2971TIP3    H2 8920   0.844   0.239   0.263
 2972TIP3   OH2 8921   1.384   5.363   0.915
 2972TIP3    H1 8922   1.401   5.352   0.821
 2972TIP3    H2 8923   1.328   5.289   0.938
 2973TIP3   OH2 8924   4.787   1.295   2.410
 2973TIP3    H1 8925   4.839   1.268   2.486
 2973TIP3    H2 8926   4.824   1.380   2.385
 2974TIP3   OH2 8927   6.217   1.785   3.602
 2974TIP3    H1 8928   6.245   1.709   3.653
 2974TIP3    H2 8929   6.276   1.787   3.527
 2975TIP3   OH2 8930   3.132   3.629   3.843
 2975TIP3    H1 8931   3.218   3.591   3.857
 2975TIP3    H2 8932   3.083   3.560   3.797
 2976TIP3   OH2 8933   5.633   4.955   0.303
 2976TIP3    H1 8934   5.570   4.970   0.374
 2976TIP3    H2 8935   5.606   5.015   0.234
 2977TIP3   OH2 8936   1.478   5.991   0.124
 2977TIP3    H1 8937   1.428   5.909   0.127
 2977TIP3    H2 8938   1.523   5.996   0.208
 2978TIP3   OH2 8939   0.920   0.211   1.756
 2978TIP3    H1 8940   0.999   0.210   1.703
 2978TIP3    H2 8941   0.848   0.213   1.693
 2979TIP3   OH2 8942   4.636   2.397   3.571
 2979TIP3    H1 8943   4.606   2.461   3.506
 2979TIP3    H2 8944   4.568   2.330   3.572
 2980TIP3   OH2 8945   3.802   4.049   0.852
 2980TIP3    H1 8946   3.724   4.067   0.905
 2980TIP3    H2 8947   3.834   3.965   0.886
 2981TIP3   OH2 8948   1.410   0.362   3.002
 2981TIP3    H1 8949   1.397   0.355   3.096
 2981TIP3    H2 8950   1.481   0.426   2.992
 2982TIP3   OH2 8951   2.300   2.100   4.611
 2982TIP3    H1 8952   2.384   2.129   4.576
 2982TIP3    H2 8953   2.305   2.004   4.608
 2983TIP3   OH2 8954   0.070   1.780   2.300
 2983TIP3    H1 8955   0.036   1.837   2.370
 2983TIP3    H2 8956   0.097   1.841   2.231
 2984TIP3   OH2 8957   6.259   0.769   4.169
 2984TIP3    H1 8958   6.316   0.842   4.149
 2984TIP3    H2 8959   6.254   0.767   4.265
 2985TIP3   OH2 8960   0.174   4.859   1.751
 2985TIP3    H1 8961   0.231   4.923   1.794
 2985TIP3    H2 8962   0.094   4.859   1.804
 2986TIP3   OH2 8963   2.990   3.105   4.334
 2986TIP3    H1 8964   2.969   3.088   4.242
 2986TIP3    H2 8965   2.910   3.144   4.369
 2987TIP3   OH2 8966   2.657   1.568   0.907
 2987TIP3    H1 8967   2.673   1.627   0.834
 2987TIP3    H2 8968   2.564   1.548   0.901
 2988TIP3   OH2 8969   3.813   4.843   2.348
 2988TIP3    H1 8970   3.808   4.844   2.253
 2988TIP3    H2 8971   3.851   4.758   2.369
 2989TIP3   OH2 8972   0.189   5.370   3.406
 2989TIP3    H1 8973   0.157   5.424   3.478
 2989TIP3    H2 8974   0.117   5.311   3.385
 2990TIP3   OH2 8975   5.340   0.445   4.318
 2990TIP3    H1 8976   5.378   0.495   4.391
 2990TIP3    H2 8977   5.367   0.355   4.334
 2991TIP3   OH2 8978   2.715   0.130   5.148
 2991TIP3    H1 8979   2.775   0.154   5.077
 2991TIP3    H2 8980   2.773   0.112   5.222
 2992TIP3   OH2 8981   2.390   5.519   4.840
 2992TIP3    H1 8982   2.387   5.428   4.810
 2992TIP3    H2 8983   2.351   5.569   4.768
 2993TIP3   OH2 8984   0.157   4.884   3.788
 2993TIP3    H1 8985   0.065   4.902   3.770
 2993TIP3    H2 8986   0.184   4.826   3.716
 2994TIP3   OH2 8987   1.363   5.588   1.647
 2994TIP3    H1 8988   1.459   5.583   1.640
 2994TIP3    H2 8989   1.347   5.670   1.695
 2995TIP3   OH2 8990   1.960   0.562   3.637
 2995TIP3    H1 8991   1.907   0.485   3.617
 2995TIP3    H2 8992   1.896   0.633   3.648
 2996TIP3   OH2 8993   2.794   3.281   3.236
 2996TIP3    H1 8994   2.745   3.299   3.316
 2996TIP3    H2 8995   2.876   3.330   3.247
 2997TIP3   OH2 8996   4.656   4.716   4.022
 2997TIP3    H1 8997   4.590   4.729   3.953
 2997TIP3    H2 8998   4.608   4.733   4.104
 2998TIP3   OH2 8999   2.653   2.452   0.891
 2998TIP3    H1 9000   2.644   2.546   0.872
 2998TIP3    H2 9001   2.713   2.448   0.965
 2999TIP3   OH2 9002   2.060   5.553   4.081
 2999TIP3    H1 9003   2.053   5.638   4.038
 2999TIP3    H2 9004   2.154   5.537   4.088
 3000TIP3   OH2 9005   0.695   4.704   0.925
 3000TIP3    H1 9006   0.731   4.646   0.858
 3000TIP3    H2 9007   0.766   4.764   0.947
 3001TIP3   OH2 9008   2.328   4.292   5.187
 3001TIP3    H1 9009   2.416   4.256   5.182
 3001TIP3    H2 9010   2.278   4.244   5.122
 3002TIP3   OH2 9011   4.967   0.670   4.838
 3002TIP3    H1 9012   4.885   0.681   4.888
 3002TIP3    H2 9013   5.033   0.653   4.905
 3003TIP3   OH2 9014   4.233   3.129   4.795
 3003TIP3    H1 9015   4.150   3.106   4.754
 3003TIP3    H2 9016   4.234   3.082   4.878
 3004TIP3   OH2 9017   2.525   0.545   4.960
 3004TIP3    H1 9018   2.605   0.495   4.975
 3004TIP3    H2 9019   2.474   0.533   5.040
 3005TIP3   OH2 9020   0.307   1.503   4.973
 3005TIP3    H1 9021   0.267   1.423   4.939
 3005TIP3    H2 9022   0.305   1.563   4.899
 3006TIP3   OH2 9023   4.721   1.446   1.172
 3006TIP3    H1 9024   4.696   1.482   1.257
 3006TIP3    H2 9025   4.700   1.516   1.109
 3007TIP3   OH2 9026   5.699   4.153   4.408
 3007TIP3    H1 9027   5.739   4.090   4.468
 3007TIP3    H2 9028   5.678   4.102   4.330
 3008TIP3   OH2 9029   1.163   3.035   2.594
 3008TIP3    H1 9030   1.149   2.942   2.613
 3008TIP3    H2 9031   1.179   3.037   2.499
 3009TIP3   OH2 9032   5.614   4.692   0.510
 3009TIP3    H1 9033   5.585   4.655   0.593
 3009TIP3    H2 9034   5.625   4.617   0.452
 3010TIP3   OH2 9035   5.063   5.359   3.146
 3010TIP3    H1 9036   4.987   5.394   3.193
 3010TIP3    H2 9037   5.099   5.293   3.206
 3011TIP3   OH2 9038   5.233   2.224   0.334
 3011TIP3    H1 9039   5.156   2.228   0.277
 3011TIP3    H2 9040   5.268   2.136   0.321
 3012TIP3   OH2 9041   2.389   0.306   3.513
 3012TIP3    H1 9042   2.480   0.334   3.510
 3012TIP3    H2 9043   2.338   0.387   3.516
 3013TIP3   OH2 9044   0.090   3.525   3.040
 3013TIP3    H1 9045   0.184   3.539   3.035
 3013TIP3    H2 9046   0.054   3.613   3.054
 3014TIP3   OH2 9047   2.492   3.699   2.901
 3014TIP3    H1 9048   2.415   3.654   2.936
 3014TIP3    H2 9049   2.550   3.628   2.871
 3015TIP3   OH2 9050   2.109   1.106   0.534
 3015TIP3    H1 9051   2.075   1.170   0.472
 3015TIP3    H2 9052   2.104   1.023   0.487
 3016TIP3   OH2 9053   4.934   1.151   4.157
 3016TIP3    H1 9054   4.975   1.081   4.107
 3016TIP3    H2 9055   4.875   1.106   4.217
 3017TIP3   OH2 9056   2.745   3.311   0.058
 3017TIP3    H1 9057   2.678   3.321   0.126
 3017TIP3    H2 9058   2.767   3.218   0.059
 3018TIP3   OH2 9059   2.130   4.270   0.045
 3018TIP3    H1 9060   2.083   4.211  -0.014
 3018TIP3    H2 9061   2.220   4.236   0.047
 3019TIP3   OH2 9062   2.057   2.540   0.726
 3019TIP3    H1 9063   1.964   2.524   0.737
 3019TIP3    H2 9064   2.064   2.591   0.645
 3020TIP3   OH2 9065   3.425   1.403   2.284
 3020TIP3    H1 9066   3.468   1.344   2.221
 3020TIP3    H2 9067   3.484   1.477   2.291
 3021TIP3   OH2 9068   5.033   5.737   1.392
 3021TIP3    H1 9069   5.110   5.725   1.336
 3021TIP3    H2 9070   4.966   5.772   1.333
 3022TIP3   OH2 9071   1.193   5.538   1.060
 3022TIP3    H1 9072   1.212   5.546   1.154
 3022TIP3    H2 9073   1.255   5.472   1.029
 3023TIP3   OH2 9074   0.829   1.098   0.009
 3023TIP3    H1 9075   0.851   1.185   0.042
 3023TIP3    H2 9076   0.914   1.053   0.002
 3024TIP3   OH2 9077   5.113   3.499   0.273
 3024TIP3    H1 9078   5.153   3.580   0.242
 3024TIP3    H2 9079   5.162   3.477   0.352
 3025TIP3   OH2 9080   1.254   3.303   2.499
 3025TIP3    H1 9081   1.251   3.289   2.405
 3025TIP3    H2 9082   1.184   3.366   2.517
 3026TIP3   OH2 9083   1.898   2.766   4.208
 3026TIP3    H1 9084   1.881   2.791   4.299
 3026TIP3    H2 9085   1.885   2.672   4.206
 3027TIP3   OH2 9086   2.422   1.070   0.881
 3027TIP3    H1 9087   2.339   1.047   0.923
 3027TIP3    H2 9088   2.474   1.110   0.950
 3028TIP3   OH2 9089   5.441   0.200   4.271
 3028TIP3    H1 9090   5.519   0.253   4.251
 3028TIP3    H2 9091   5.476   0.113   4.290
 3029TIP3   OH2 9092   1.748   1.848   3.833
 3029TIP3    H1 9093   1.827   1.862   3.781
 3029TIP3    H2 9094   1.752   1.757   3.860
 3030TIP3   OH2 9095   0.527   3.429   0.935
 3030TIP3    H1 9096   0.473   3.491   0.886
 3030TIP3    H2 9097   0.519   3.457   1.026
 3031TIP3   OH2 9098   0.577   4.361   4.192
 3031TIP3    H1 9099   0.631   4.312   4.253
 3031TIP3    H2 9100   0.495   4.311   4.186
 3032TIP3   OH2 9101   0.693   4.241   0.040
 3032TIP3    H1 9102   0.662   4.312  -0.017
 3032TIP3    H2 9103   0.704   4.282   0.125
 3033TIP3   OH2 9104   0.820   4.888   1.821
 3033TIP3    H1 9105   0.809   4.913   1.913
 3033TIP3    H2 9106   0.913   4.900   1.804
 3034TIP3   OH2 9107   5.845   2.553   4.072
 3034TIP3    H1 9108   5.909   2.572   4.141
 3034TIP3    H2 9109   5.846   2.458   4.063
 3035TIP3   OH2 9110   4.906   5.122   4.951
 3035TIP3    H1 9111   4.897   5.158   5.039
 3035TIP3    H2 9112   4.881   5.193   4.893
 3036TIP3   OH2 9113   2.462   4.536   1.299
 3036TIP3    H1 9114   2.551   4.570   1.308
 3036TIP3    H2 9115   2.430   4.575   1.218
 3037TIP3   OH2 9116   4.713   0.281   2.458
 3037TIP3    H1 9117   4.794   0.323   2.428
 3037TIP3    H2 9118   4.650   0.300   2.389
 3038TIP3   OH2 9119   3.256   4.807   3.552
 3038TIP3    H1 9120   3.258   4.725   3.602
 3038TIP3    H2 9121   3.340   4.809   3.507
 3039TIP3   OH2 9122   1.064   2.900   4.920
 3039TIP3    H1 9123   1.158   2.920   4.913
 3039TIP3    H2 9124   1.026   2.980   4.956
 3040TIP3   OH2 9125   1.914   3.082   0.333
 3040TIP3    H1 9126   1.910   3.098   0.239
 3040TIP3    H2 9127   1.826   3.105   0.365
 3041TIP3   OH2 9128   4.944   4.636   1.252
 3041TIP3    H1 9129   4.942   4.541   1.256
 3041TIP3    H2 9130   5.011   4.655   1.186
 3042TIP3   OH2 9131   6.207   3.163   1.112
 3042TIP3    H1 9132   6.138   3.132   1.053
 3042TIP3    H2 9133   6.205   3.102   1.185
 3043TIP3   OH2 9134   1.844   0.801   4.023
 3043TIP3    H1 9135   1.889   0.858   3.961
 3043TIP3    H2 9136   1.807   0.731   3.968
 3044TIP3   OH2 9137   2.535   4.027   1.693
 3044TIP3    H1 9138   2.450   4.045   1.652
 3044TIP3    H2 9139   2.528   3.936   1.722
 3045TIP3   OH2 9140   3.342   3.051   1.095
 3045TIP3    H1 9141   3.389   3.003   1.027
 3045TIP3    H2 9142   3.357   3.143   1.075
 3046TIP3   OH2 9143   1.897   5.778   5.156
 3046TIP3    H1 9144   1.952   5.853   5.178
 3046TIP3    H2 9145   1.861   5.799   5.070
 3047TIP3   OH2 9146   1.993   1.195   2.830
 3047TIP3    H1 9147   2.030   1.233   2.910
 3047TIP3    H2 9148   1.926   1.258   2.804
 3048TIP3   OH2 9149   5.819   4.689   1.306
 3048TIP3    H1 9150   5.912   4.709   1.292
 3048TIP3    H2 9151   5.775   4.772   1.289
 3049TIP3   OH2 9152   2.132   5.294   4.939
 3049TIP3    H1 9153   2.078   5.360   4.895
 3049TIP3    H2 9154   2.101   5.295   5.030
 3050TIP3   OH2 9155   5.331   5.277   2.761
 3050TIP3    H1 9156   5.241   5.279   2.793
 3050TIP3    H2 9157   5.323   5.277   2.666
 3051TIP3   OH2 9158   5.858   0.717   2.794
 3051TIP3    H1 9159   5.829   0.806   2.815
 3051TIP3    H2 9160   5.841   0.667   2.874
 3052TIP3   OH2 9161   1.016   1.407   3.550
 3052TIP3    H1 9162   1.060   1.335   3.596
 3052TIP3    H2 9163   1.065   1.418   3.469
 3053TIP3   OH2 9164   0.765   1.171   1.193
 3053TIP3    H1 9165   0.786   1.264   1.184
 3053TIP3    H2 9166   0.778   1.152   1.286
 3054TIP3   OH2 9167   4.454   2.385   2.837
 3054TIP3    H1 9168   4.510   2.455   2.802
 3054TIP3    H2 9169   4.509   2.307   2.834
 3055TIP3   OH2 9170   1.332   2.544   0.402
 3055TIP3    H1 9171   1.281   2.466   0.379
 3055TIP3    H2 9172   1.365   2.526   0.490
 3056TIP3   OH2 9173   0.123   4.296   2.117
 3056TIP3    H1 9174   0.118   4.390   2.105
 3056TIP3    H2 9175   0.211   4.272   2.087
 3057TIP3   OH2 9176   1.473   2.476   3.726
 3057TIP3    H1 9177   1.483   2.554   3.780
 3057TIP3    H2 9178   1.561   2.461   3.690
 3058TIP3   OH2 9179   0.358   2.882   0.370
 3058TIP3    H1 9180   0.331   2.897   0.279
 3058TIP3    H2 9181   0.328   2.960   0.417
 3059TIP3   OH2 9182   5.985   2.410   0.677
 3059TIP3    H1 9183   5.981   2.315   0.693
 3059TIP3    H2 9184   6.038   2.444   0.749
 3060TIP3   OH2 9185   1.924   3.470   1.811
 3060TIP3    H1 9186   1.851   3.528   1.792
 3060TIP3    H2 9187   1.992   3.495   1.749
 3061TIP3   OH2 9188   1.369   0.965   0.518
 3061TIP3    H1 9189   1.450   0.927   0.553
 3061TIP3    H2 9190   1.398   1.019   0.444
 3062TIP3   OH2 9191   4.333   5.166   3.041
 3062TIP3    H1 9192   4.406   5.114   3.007
 3062TIP3    H2 9193   4.260   5.104   3.048
 3063TIP3   OH2 9194   1.143   1.981   2.564
 3063TIP3    H1 9195   1.227   2.015   2.595
 3063TIP3    H2 9196   1.115   1.920   2.633
 3064TIP3   OH2 9197   5.214   4.965   3.589
 3064TIP3    H1 9198   5.296   4.917   3.601
 3064TIP3    H2 9199   5.163   4.944   3.667
 3065TIP3   OH2 9200   5.222   2.339   3.421
 3065TIP3    H1 9201   5.147   2.315   3.366
 3065TIP3    H2 9202   5.186   2.342   3.510
 3066TIP3   OH2 9203   1.081   4.127   1.598
 3066TIP3    H1 9204   1.036   4.142   1.681
 3066TIP3    H2 9205   1.021   4.159   1.531
 3067TIP3   OH2 9206   4.843   2.012   1.495
 3067TIP3    H1 9207   4.780   1.969   1.553
 3067TIP3    H2 9208   4.885   2.078   1.549
 3068TIP3   OH2 9209   3.607   0.857   4.493
 3068TIP3    H1 9210   3.634   0.911   4.567
 3068TIP3    H2 9211   3.534   0.906   4.453
 3069TIP3   OH2 9212   4.814   3.852   1.780
 3069TIP3    H1 9213   4.886   3.911   1.762
 3069TIP3    H2 9214   4.856   3.769   1.805
 3070TIP3   OH2 9215   3.235   3.967   0.255
 3070TIP3    H1 9216   3.194   3.883   0.231
 3070TIP3    H2 9217   3.210   4.026   0.185
 3071TIP3   OH2 9218   6.247   1.819   1.206
 3071TIP3    H1 9219   6.189   1.792   1.277
 3071TIP3    H2 9220   6.334   1.820   1.246
 3072TIP3   OH2 9221   0.984   5.254   4.531
 3072TIP3    H1 9222   0.994   5.346   4.556
 3072TIP3    H2 9223   1.039   5.245   4.453
 3073TIP3   OH2 9224   2.490   5.603   0.183
 3073TIP3    H1 9225   2.535   5.648   0.112
 3073TIP3    H2 9226   2.540   5.523   0.197
 3074TIP3   OH2 9227   5.276   5.116   2.502
 3074TIP3    H1 9228   5.211   5.046   2.506
 3074TIP3    H2 9229   5.232   5.186   2.455
 3075TIP3   OH2 9230   3.644   3.438   4.461
 3075TIP3    H1 9231   3.730   3.471   4.434
 3075TIP3    H2 9232   3.599   3.416   4.379
 3076TIP3   OH2 9233   2.554   5.550   3.787
 3076TIP3    H1 9234   2.536   5.583   3.875
 3076TIP3    H2 9235   2.647   5.568   3.773
 3077TIP3   OH2 9236   4.056   2.310   1.793
 3077TIP3    H1 9237   3.990   2.359   1.842
 3077TIP3    H2 9238   4.006   2.267   1.723
 3078TIP3   OH2 9239   6.154   3.866   5.169
 3078TIP3    H1 9240   6.121   3.914   5.245
 3078TIP3    H2 9241   6.179   3.934   5.106
 3079TIP3   OH2 9242   3.803   5.877   1.177
 3079TIP3    H1 9243   3.895   5.862   1.197
 3079TIP3    H2 9244   3.786   5.968   1.203
 3080TIP3   OH2 9245   4.072   2.519   1.567
 3080TIP3    H1 9246   4.073   2.602   1.519
 3080TIP3    H2 9247   3.989   2.520   1.615
 3081TIP3   OH2 9248   1.414   5.067   3.428
 3081TIP3    H1 9249   1.441   5.115   3.507
 3081TIP3    H2 9250   1.325   5.037   3.448
 3082TIP3   OH2 9251   2.602   1.938   3.595
 3082TIP3    H1 9252   2.595   1.996   3.520
 3082TIP3    H2 9253   2.695   1.931   3.613
 3083TIP3   OH2 9254   0.037   3.293   0.485
 3083TIP3    H1 9255  -0.041   3.250   0.520
 3083TIP3    H2 9256   0.070   3.345   0.558
 3084TIP3   OH2 9257   6.030   0.769   0.217
 3084TIP3    H1 9258   6.036   0.770   0.312
 3084TIP3    H2 9259   6.082   0.845   0.189
 3085TIP3   OH2 9260   3.486   0.209   1.251
 3085TIP3    H1 9261   3.435   0.183   1.174
 3085TIP3    H2 9262   3.438   0.283   1.288
 3086TIP3   OH2 9263   0.997   2.172   4.436
 3086TIP3    H1 9264   0.947   2.237   4.485
 3086TIP3    H2 9265   0.992   2.093   4.489
 3087TIP3   OH2 9266   4.734   1.512   4.612
 3087TIP3    H1 9267   4.809   1.527   4.671
 3087TIP3    H2 9268   4.660   1.550   4.659
 3088TIP3   OH2 9269   0.785   0.908   3.929
 3088TIP3    H1 9270   0.858   0.947   3.976
 3088TIP3    H2 9271   0.784   0.953   3.844
 3089TIP3   OH2 9272   0.239   2.518   1.223
 3089TIP3    H1 9273   0.185   2.507   1.145
 3089TIP3    H2 9274   0.317   2.565   1.191
 3090TIP3   OH2 9275   3.190   3.113   4.078
 3090TIP3    H1 9276   3.236   3.106   3.994
 3090TIP3    H2 9277   3.160   3.025   4.097
 3091TIP3   OH2 9278   3.719   1.733   3.561
 3091TIP3    H1 9279   3.699   1.688   3.643
 3091TIP3    H2 9280   3.754   1.664   3.504
 3092TIP3   OH2 9281   0.357   3.265   1.195
 3092TIP3    H1 9282   0.366   3.361   1.201
 3092TIP3    H2 9283   0.266   3.249   1.218
 3093TIP3   OH2 9284   2.027   4.973   4.851
 3093TIP3    H1 9285   2.091   5.041   4.833
 3093TIP3    H2 9286   2.046   4.945   4.940
 3094TIP3   OH2 9287   0.289   5.737   2.224
 3094TIP3    H1 9288   0.197   5.712   2.233
 3094TIP3    H2 9289   0.302   5.747   2.130
 3095TIP3   OH2 9290   5.172   0.733   4.410
 3095TIP3    H1 9291   5.226   0.738   4.489
 3095TIP3    H2 9292   5.082   0.746   4.441
 3096TIP3   OH2 9293   1.438   1.405   2.374
 3096TIP3    H1 9294   1.387   1.325   2.387
 3096TIP3    H2 9295   1.529   1.375   2.368
 3097TIP3   OH2 9296   0.452   2.350   4.373
 3097TIP3    H1 9297   0.525   2.287   4.372
 3097TIP3    H2 9298   0.378   2.299   4.405
 3098TIP3   OH2 9299   4.300   3.817   2.435
 3098TIP3    H1 9300   4.391   3.814   2.464
 3098TIP3    H2 9301   4.303   3.786   2.344
 3099TIP3   OH2 9302   6.011   1.047   4.355
 3099TIP3    H1 9303   6.007   1.142   4.346
 3099TIP3    H2 9304   6.008   1.014   4.265
 3100TIP3   OH2 9305   0.846   1.572   0.667
 3100TIP3    H1 9306   0.863   1.520   0.746
 3100TIP3    H2 9307   0.764   1.617   0.685
 3101TIP3   OH2 9308   4.563   1.119   2.448
 3101TIP3    H1 9309   4.597   1.082   2.530
 3101TIP3    H2 9310   4.637   1.165   2.410
 3102TIP3   OH2 9311   1.157   1.688   1.055
 3102TIP3    H1 9312   1.081   1.746   1.060
 3102TIP3    H2 9313   1.171   1.674   0.961
 3103TIP3   OH2 9314   3.579   6.006   4.552
 3103TIP3    H1 9315   3.517   5.935   4.540
 3103TIP3    H2 9316   3.617   6.021   4.465
 3104TIP3   OH2 9317   2.071   1.265   0.083
 3104TIP3    H1 9318   2.106   1.322   0.151
 3104TIP3    H2 9319   2.079   1.316   0.002
 3105TIP3   OH2 9320   3.300   5.690   0.604
 3105TIP3    H1 9321   3.266   5.736   0.681
 3105TIP3    H2 9322   3.355   5.621   0.640
 3106TIP3   OH2 9323   4.836   2.775   1.980
 3106TIP3    H1 9324   4.747   2.793   2.011
 3106TIP3    H2 9325   4.826   2.760   1.886
 3107TIP3   OH2 9326   5.849   5.261   2.972
 3107TIP3    H1 9327   5.827   5.294   3.059
 3107TIP3    H2 9328   5.768   5.270   2.921
 3108TIP3   OH2 9329   6.187   2.024   2.036
 3108TIP3    H1 9330   6.133   2.088   1.990
 3108TIP3    H2 9331   6.141   2.008   2.119
 3109TIP3   OH2 9332   6.008   3.425   2.716
 3109TIP3    H1 9333   5.937   3.367   2.690
 3109TIP3    H2 9334   5.989   3.445   2.808
 3110TIP3   OH2 9335   1.746   0.056   1.970
 3110TIP3    H1 9336   1.779   0.120   2.033
 3110TIP3    H2 9337   1.773  -0.028   2.005
 3111TIP3   OH2 9338   4.689   1.779   3.680
 3111TIP3    H1 9339   4.627   1.757   3.750
 3111TIP3    H2 9340   4.680   1.874   3.669
 3112TIP3   OH2 9341   3.064   3.800   2.252
 3112TIP3    H1 9342   3.047   3.891   2.231
 3112TIP3    H2 9343   3.107   3.803   2.338
 3113TIP3   OH2 9344   4.390   5.442   3.030
 3113TIP3    H1 9345   4.339   5.363   3.048
 3113TIP3    H2 9346   4.392   5.489   3.113
 3114TIP3   OH2 9347   1.732   0.041   2.858
 3114TIP3    H1 9348   1.716  -0.052   2.843
 3114TIP3    H2 9349   1.787   0.068   2.785
 3115TIP3   OH2 9350   2.749   2.663   4.139
 3115TIP3    H1 9351   2.798   2.690   4.217
 3115TIP3    H2 9352   2.722   2.574   4.158
 3116TIP3   OH2 9353   4.904   4.490   4.285
 3116TIP3    H1 9354   4.968   4.560   4.274
 3116TIP3    H2 9355   4.916   4.433   4.209
 3117TIP3   OH2 9356   5.544   2.532   0.552
 3117TIP3    H1 9357   5.495   2.452   0.571
 3117TIP3    H2 9358   5.503   2.599   0.607
 3118TIP3   OH2 9359   4.234   3.652   0.574
 3118TIP3    H1 9360   4.237   3.592   0.499
 3118TIP3    H2 9361   4.302   3.621   0.633
 3119TIP3   OH2 9362   5.772   3.355   2.363
 3119TIP3    H1 9363   5.822   3.284   2.323
 3119TIP3    H2 9364   5.698   3.369   2.303
 3120TIP3   OH2 9365   1.761   2.122   4.588
 3120TIP3    H1 9366   1.824   2.051   4.604
 3120TIP3    H2 9367   1.686   2.100   4.643
 3121TIP3   OH2 9368   2.142   2.998   2.503
 3121TIP3    H1 9369   2.064   2.945   2.523
 3121TIP3    H2 9370   2.215   2.936   2.507
 3122TIP3   OH2 9371   5.093   2.226   1.505
 3122TIP3    H1 9372   5.029   2.297   1.499
 3122TIP3    H2 9373   5.041   2.146   1.493
 3123TIP3   OH2 9374   4.587   3.316   0.808
 3123TIP3    H1 9375   4.518   3.251   0.823
 3123TIP3    H2 9376   4.609   3.347   0.896
 3124TIP3   OH2 9377   2.776   2.224   4.362
 3124TIP3    H1 9378   2.845   2.185   4.417
 3124TIP3    H2 9379   2.713   2.259   4.424
 3125TIP3   OH2 9380   5.286   0.851   2.942
 3125TIP3    H1 9381   5.346   0.779   2.960
 3125TIP3    H2 9382   5.340   0.919   2.902
 3126TIP3   OH2 9383   0.664   5.633   2.479
 3126TIP3    H1 9384   0.683   5.707   2.536
 3126TIP3    H2 9385   0.641   5.672   2.395
 3127TIP3   OH2 9386   3.861   2.553   2.559
 3127TIP3    H1 9387   3.797   2.490   2.591
 3127TIP3    H2 9388   3.942   2.531   2.605
 3128TIP3   OH2 9389   2.070   0.630   2.124
 3128TIP3    H1 9390   2.133   0.684   2.077
 3128TIP3    H2 9391   2.083   0.653   2.216
 3129TIP3   OH2 9392   4.904   0.967   1.775
 3129TIP3    H1 9393   4.996   0.973   1.803
 3129TIP3    H2 9394   4.883   1.055   1.745
 3130TIP3   OH2 9395   0.925   5.192   2.588
 3130TIP3    H1 9396   0.987   5.185   2.515
 3130TIP3    H2 9397   0.840   5.204   2.545
 3131TIP3   OH2 9398   4.463   2.437   4.777
 3131TIP3    H1 9399   4.439   2.344   4.777
 3131TIP3    H2 9400   4.409   2.475   4.847
 3132TIP3   OH2 9401   3.103   4.476   2.846
 3132TIP3    H1 9402   3.008   4.480   2.854
 3132TIP3    H2 9403   3.118   4.428   2.765
 3133TIP3   OH2 9404   1.636   1.210   5.062
 3133TIP3    H1 9405   1.647   1.141   5.127
 3133TIP3    H2 9406   1.598   1.165   4.986
 3134TIP3   OH2 9407   4.018   2.631   0.547
 3134TIP3    H1 9408   3.928   2.646   0.520
 3134TIP3    H2 9409   4.012   2.597   0.636
 3135TIP3   OH2 9410   5.215   5.648   2.370
 3135TIP3    H1 9411   5.153   5.687   2.308
 3135TIP3    H2 9412   5.282   5.608   2.315
 3136TIP3   OH2 9413   0.132   3.958   3.303
 3136TIP3    H1 9414   0.192   3.905   3.355
 3136TIP3    H2 9415   0.059   3.977   3.363
 3137TIP3   OH2 9416   2.260   4.786   3.831
 3137TIP3    H1 9417   2.223   4.699   3.821
 3137TIP3    H2 9418   2.301   4.805   3.747
 3138TIP3   OH2 9419   4.376   1.916   3.376
 3138TIP3    H1 9420   4.425   1.995   3.353
 3138TIP3    H2 9421   4.392   1.905   3.470
 3139TIP3   OH2 9422   3.844   2.950   0.705
 3139TIP3    H1 9423   3.818   3.042   0.706
 3139TIP3    H2 9424   3.928   2.948   0.749
 3140TIP3   OH2 9425   4.174   1.716   2.228
 3140TIP3    H1 9426   4.171   1.620   2.232
 3140TIP3    H2 9427   4.239   1.740   2.294
 3141TIP3   OH2 9428   1.526   2.547   0.956
 3141TIP3    H1 9429   1.504   2.473   0.898
 3141TIP3    H2 9430   1.523   2.510   1.044
 3142TIP3   OH2 9431   4.877   4.833   4.144
 3142TIP3    H1 9432   4.825   4.871   4.214
 3142TIP3    H2 9433   4.830   4.753   4.120
 3143TIP3   OH2 9434   0.529   2.500   0.824
 3143TIP3    H1 9435   0.524   2.525   0.917
 3143TIP3    H2 9436   0.463   2.431   0.815
 3144TIP3   OH2 9437   5.413   4.611   3.917
 3144TIP3    H1 9438   5.384   4.658   3.995
 3144TIP3    H2 9439   5.442   4.526   3.949
 3145TIP3   OH2 9440   4.222   5.818   1.675
 3145TIP3    H1 9441   4.144   5.785   1.720
 3145TIP3    H2 9442   4.243   5.749   1.611
 3146TIP3   OH2 9443   2.127   3.554   0.817
 3146TIP3    H1 9444   2.036   3.529   0.803
 3146TIP3    H2 9445   2.136   3.638   0.771
 3147TIP3   OH2 9446   4.392   1.400   4.709
 3147TIP3    H1 9447   4.430   1.320   4.745
 3147TIP3    H2 9448   4.318   1.369   4.656
 3148TIP3   OH2 9449   0.805   0.445   0.776
 3148TIP3    H1 9450   0.892   0.482   0.759
 3148TIP3    H2 9451   0.822   0.371   0.834
 3149TIP3   OH2 9452   1.942   4.324   3.553
 3149TIP3    H1 9453   1.959   4.233   3.530
 3149TIP3    H2 9454   1.935   4.325   3.648
 3150TIP3   OH2 9455   0.233   2.241   3.983
 3150TIP3    H1 9456   0.251   2.165   3.929
 3150TIP3    H2 9457   0.303   2.242   4.048
 3151TIP3   OH2 9458   0.756   2.761   2.599
 3151TIP3    H1 9459   0.732   2.789   2.687
 3151TIP3    H2 9460   0.759   2.666   2.604
 3152TIP3   OH2 9461   5.875   4.010   4.237
 3152TIP3    H1 9462   5.877   4.065   4.159
 3152TIP3    H2 9463   5.931   4.055   4.300
 3153TIP3   OH2 9464   4.533   3.591   3.152
 3153TIP3    H1 9465   4.594   3.547   3.210
 3153TIP3    H2 9466   4.456   3.608   3.206
 3154TIP3   OH2 9467   5.017   4.442   5.049
 3154TIP3    H1 9468   5.101   4.407   5.019
 3154TIP3    H2 9469   4.991   4.504   4.981
 3155TIP3   OH2 9470   1.905   0.187   5.028
 3155TIP3    H1 9471   1.906   0.134   4.948
 3155TIP3    H2 9472   1.971   0.255   5.012
 3156TIP3   OH2 9473   5.208   1.633   3.144
 3156TIP3    H1 9474   5.114   1.629   3.124
 3156TIP3    H2 9475   5.245   1.560   3.095
 3157TIP3   OH2 9476   1.599   1.764   4.114
 3157TIP3    H1 9477   1.615   1.670   4.103
 3157TIP3    H2 9478   1.571   1.772   4.205
 3158TIP3   OH2 9479   5.547   5.501   2.499
 3158TIP3    H1 9480   5.570   5.566   2.432
 3158TIP3    H2 9481   5.455   5.519   2.519
 3159TIP3   OH2 9482   0.944   2.107   5.057
 3159TIP3    H1 9483   0.870   2.127   5.114
 3159TIP3    H2 9484   0.967   2.017   5.079
 3160TIP3   OH2 9485   0.736   3.409   0.014
 3160TIP3    H1 9486   0.705   3.354   0.086
 3160TIP3    H2 9487   0.729   3.354  -0.064
 3161TIP3   OH2 9488   5.142   3.325   2.454
 3161TIP3    H1 9489   5.173   3.243   2.416
 3161TIP3    H2 9490   5.131   3.306   2.547
 3162TIP3   OH2 9491   0.526   1.603   1.689
 3162TIP3    H1 9492   0.539   1.509   1.685
 3162TIP3    H2 9493   0.614   1.640   1.698
 3163TIP3   OH2 9494   4.899   0.198   1.851
 3163TIP3    H1 9495   4.857   0.243   1.778
 3163TIP3    H2 9496   4.867   0.108   1.845
 3164TIP3   OH2 9497   0.908   1.975   1.166
 3164TIP3    H1 9498   0.932   2.042   1.103
 3164TIP3    H2 9499   0.927   2.013   1.251
 3165TIP3   OH2 9500   2.583   2.203   1.551
 3165TIP3    H1 9501   2.497   2.241   1.537
 3165TIP3    H2 9502   2.566   2.122   1.599
 3166TIP3   OH2 9503   5.230   1.008   3.179
 3166TIP3    H1 9504   5.307   1.010   3.237
 3166TIP3    H2 9505   5.253   0.943   3.112
 3167TIP3   OH2 9506   3.222   1.957   2.055
 3167TIP3    H1 9507   3.176   1.874   2.045
 3167TIP3    H2 9508   3.257   1.954   2.144
 3168TIP3   OH2 9509   2.120   1.122   3.998
 3168TIP3    H1 9510   2.034   1.083   4.011
 3168TIP3    H2 9511   2.176   1.079   4.063
 3169TIP3   OH2 9512   1.092   5.187   4.779
 3169TIP3    H1 9513   1.185   5.162   4.773
 3169TIP3    H2 9514   1.065   5.199   4.689
 3170TIP3   OH2 9515   2.194   5.727   2.947
 3170TIP3    H1 9516   2.281   5.692   2.926
 3170TIP3    H2 9517   2.202   5.759   3.037
 3171TIP3   OH2 9518   5.183   1.321   3.418
 3171TIP3    H1 9519   5.122   1.378   3.465
 3171TIP3    H2 9520   5.269   1.342   3.454
 3172TIP3   OH2 9521   1.313   4.180   4.390
 3172TIP3    H1 9522   1.249   4.212   4.326
 3172TIP3    H2 9523   1.271   4.197   4.475
 3173TIP3   OH2 9524   5.328   5.756   5.091
 3173TIP3    H1 9525   5.312   5.799   5.007
 3173TIP3    H2 9526   5.311   5.825   5.156
 3174TIP3   OH2 9527   0.324   1.778   1.822
 3174TIP3    H1 9528   0.312   1.734   1.906
 3174TIP3    H2 9529   0.377   1.718   1.771
 3175TIP3   OH2 9530   1.859   4.119   4.346
 3175TIP3    H1 9531   1.823   4.168   4.272
 3175TIP3    H2 9532   1.782   4.096   4.399
 3176TIP3   OH2 9533   0.347   1.155   2.520
 3176TIP3    H1 9534   0.291   1.132   2.446
 3176TIP3    H2 9535   0.434   1.121   2.496
 3177TIP3   OH2 9536   0.678   2.078   4.586
 3177TIP3    H1 9537   0.760   2.098   4.630
 3177TIP3    H2 9538   0.610   2.105   4.648
 3178TIP3   OH2 9539   6.253   0.150   3.452
 3178TIP3    H1 9540   6.262   0.105   3.368
 3178TIP3    H2 9541   6.320   0.219   3.449
 3179TIP3   OH2 9542   5.922   1.800   0.447
 3179TIP3    H1 9543   5.882   1.752   0.520
 3179TIP3    H2 9544   5.858   1.867   0.424
 3180TIP3   OH2 9545   1.333   2.624   2.654
 3180TIP3    H1 9546   1.369   2.546   2.696
 3180TIP3    H2 9547   1.369   2.622   2.565
 3181TIP3   OH2 9548   0.736   3.194   3.571
 3181TIP3    H1 9549   0.693   3.259   3.626
 3181TIP3    H2 9550   0.672   3.174   3.503
 3182TIP3   OH2 9551   6.061   4.180   5.044
 3182TIP3    H1 9552   6.000   4.252   5.024
 3182TIP3    H2 9553   6.050   4.164   5.138
 3183TIP3   OH2 9554   2.730   4.910   3.842
 3183TIP3    H1 9555   2.650   4.860   3.856
 3183TIP3    H2 9556   2.719   4.987   3.898
 3184TIP3   OH2 9557   0.681   0.516   0.537
 3184TIP3    H1 9558   0.592   0.549   0.524
 3184TIP3    H2 9559   0.690   0.506   0.631
 3185TIP3   OH2 9560   3.524   3.261   0.172
 3185TIP3    H1 9561   3.439   3.297   0.145
 3185TIP3    H2 9562   3.572   3.335   0.207
 3186TIP3   OH2 9563   0.038   4.264   1.821
 3186TIP3    H1 9564   0.049   4.352   1.785
 3186TIP3    H2 9565   0.124   4.224   1.813
 3187TIP3   OH2 9566   0.709   0.539   1.927
 3187TIP3    H1 9567   0.715   0.631   1.952
 3187TIP3    H2 9568   0.615   0.522   1.922
 3188TIP3   OH2 9569   4.652   2.029   1.297
 3188TIP3    H1 9570   4.589   2.067   1.359
 3188TIP3    H2 9571   4.726   2.001   1.352
 3189TIP3   OH2 9572   4.322   4.573   0.404
 3189TIP3    H1 9573   4.228   4.591   0.415
 3189TIP3    H2 9574   4.364   4.658   0.413
 3190TIP3   OH2 9575   5.052   1.198   3.199
 3190TIP3    H1 9576   5.112   1.264   3.234
 3190TIP3    H2 9577   5.101   1.116   3.203
 3191TIP3   OH2 9578   0.681   4.983   2.257
 3191TIP3    H1 9579   0.623   4.946   2.191
 3191TIP3    H2 9580   0.638   5.064   2.284
 3192TIP3   OH2 9581   3.703   0.658   2.942
 3192TIP3    H1 9582   3.686   0.739   2.992
 3192TIP3    H2 9583   3.755   0.604   3.002
 3193TIP3   OH2 9584   5.479   3.123   4.239
 3193TIP3    H1 9585   5.457   3.040   4.281
 3193TIP3    H2 9586   5.574   3.121   4.230
 3194TIP3   OH2 9587   3.995   1.173   3.775
 3194TIP3    H1 9588   4.048   1.252   3.769
 3194TIP3    H2 9589   3.954   1.164   3.689
 3195TIP3   OH2 9590   0.380   3.610   3.024
 3195TIP3    H1 9591   0.409   3.700   3.039
 3195TIP3    H2 9592   0.417   3.560   3.096
 3196TIP3   OH2 9593   5.980   5.378   4.856
 3196TIP3    H1 9594   5.913   5.412   4.797
 3196TIP3    H2 9595   6.017   5.456   4.897
 3197TIP3   OH2 9596   2.314   1.701   1.634
 3197TIP3    H1 9597   2.275   1.630   1.582
 3197TIP3    H2 9598   2.371   1.657   1.696
 3198TIP3   OH2 9599   4.678   3.581   4.268
 3198TIP3    H1 9600   4.604   3.638   4.246
 3198TIP3    H2 9601   4.639   3.506   4.312
 3199TIP3   OH2 9602   0.071   3.376   1.854
 3199TIP3    H1 9603   0.044   3.433   1.781
 3199TIP3    H2 9604   0.021   3.296   1.842
 3200TIP3   OH2 9605   3.857   1.101   0.534
 3200TIP3    H1 9606   3.813   1.121   0.617
 3200TIP3    H2 9607   3.902   1.018   0.550
 3201TIP3   OH2 9608   1.399   5.151   3.947
 3201TIP3    H1 9609   1.475   5.127   4.000
 3201TIP3    H2 9610   1.325   5.145   4.008
 3202TIP3   OH2 9611   0.127   3.033   4.631
 3202TIP3    H1 9612   0.204   3.083   4.660
 3202TIP3    H2 9613   0.145   3.014   4.539
 3203TIP3   OH2 9614   4.038   5.839   1.300
 3203TIP3    H1 9615   4.052   5.745   1.300
 3203TIP3    H2 9616   3.994   5.857   1.383
 3204TIP3   OH2 9617   4.513   1.578   0.050
 3204TIP3    H1 9618   4.464   1.551  -0.028
 3204TIP3    H2 9619   4.490   1.514   0.117
 3205TIP3   OH2 9620   0.505   2.825   4.859
 3205TIP3    H1 9621   0.481   2.735   4.837
 3205TIP3    H2 9622   0.571   2.850   4.794
 3206TIP3   OH2 9623   5.841   4.464   2.764
 3206TIP3    H1 9624   5.835   4.417   2.682
 3206TIP3    H2 9625   5.887   4.545   2.743
 3207TIP3   OH2 9626   2.722   5.358   2.943
 3207TIP3    H1 9627   2.634   5.384   2.968
 3207TIP3    H2 9628   2.739   5.406   2.861
 3208TIP3   OH2 9629   5.299   3.144   1.682
 3208TIP3    H1 9630   5.238   3.162   1.753
 3208TIP3    H2 9631   5.303   3.048   1.678
 3209TIP3   OH2 9632   5.578   3.136   1.536
 3209TIP3    H1 9633   5.501   3.172   1.494
 3209TIP3    H2 9634   5.544   3.070   1.597
 3210TIP3   OH2 9635   6.247   0.803   2.580
 3210TIP3    H1 9636   6.336   0.837   2.576
 3210TIP3    H2 9637   6.241   0.760   2.666
 3211TIP3   OH2 9638   0.556   5.184   2.762
 3211TIP3    H1 9639   0.530   5.094   2.777
 3211TIP3    H2 9640   0.475   5.235   2.771
 3212TIP3   OH2 9641   3.268   2.533   2.158
 3212TIP3    H1 9642   3.321   2.552   2.235
 3212TIP3    H2 9643   3.292   2.444   2.133
 3213TIP3   OH2 9644   0.383   4.905   3.313
 3213TIP3    H1 9645   0.440   4.898   3.390
 3213TIP3    H2 9646   0.441   4.883   3.240
 3214TIP3   OH2 9647   1.102   3.554   0.949
 3214TIP3    H1 9648   1.097   3.532   0.856
 3214TIP3    H2 9649   1.155   3.483   0.987
 3215TIP3   OH2 9650   1.435   5.643   2.868
 3215TIP3    H1 9651   1.506   5.661   2.807
 3215TIP3    H2 9652   1.388   5.569   2.830
 3216TIP3   OH2 9653   2.495   5.622   0.450
 3216TIP3    H1 9654   2.556   5.696   0.459
 3216TIP3    H2 9655   2.490   5.608   0.355
 3217TIP3   OH2 9656   1.733   4.063   3.880
 3217TIP3    H1 9657   1.664   4.118   3.843
 3217TIP3    H2 9658   1.802   4.124   3.905
 3218TIP3   OH2 9659   0.537   4.027   1.081
 3218TIP3    H1 9660   0.520   4.118   1.104
 3218TIP3    H2 9661   0.461   4.000   1.028
 3219TIP3   OH2 9662   2.552   1.324   2.774
 3219TIP3    H1 9663   2.462   1.296   2.790
 3219TIP3    H2 9664   2.595   1.247   2.738
 3220TIP3   OH2 9665   6.084   1.867   0.790
 3220TIP3    H1 9666   5.998   1.835   0.817
 3220TIP3    H2 9667   6.082   1.866   0.695
 3221TIP3   OH2 9668   3.198   0.532   4.680
 3221TIP3    H1 9669   3.208   0.624   4.655
 3221TIP3    H2 9670   3.266   0.518   4.746
 3222TIP3   OH2 9671   4.432   4.602   3.021
 3222TIP3    H1 9672   4.510   4.616   3.075
 3222TIP3    H2 9673   4.396   4.519   3.052
 3223TIP3   OH2 9674   0.616   5.292   4.679
 3223TIP3    H1 9675   0.655   5.220   4.630
 3223TIP3    H2 9676   0.690   5.343   4.712
 3224TIP3   OH2 9677   2.886   3.608   0.205
 3224TIP3    H1 9678   2.827   3.612   0.280
 3224TIP3    H2 9679   2.849   3.542   0.148
 3225TIP3   OH2 9680   6.079   4.943   2.375
 3225TIP3    H1 9681   6.020   4.937   2.450
 3225TIP3    H2 9682   6.045   4.880   2.312
 3226TIP3   OH2 9683   5.959   0.866   1.870
 3226TIP3    H1 9684   6.040   0.915   1.852
 3226TIP3    H2 9685   5.952   0.804   1.797
 3227TIP3   OH2 9686   6.157   1.899   4.857
 3227TIP3    H1 9687   6.066   1.896   4.828
 3227TIP3    H2 9688   6.167   1.820   4.911
 3228TIP3   OH2 9689   1.087   5.173   3.628
 3228TIP3    H1 9690   1.137   5.224   3.564
 3228TIP3    H2 9691   1.145   5.100   3.651
 3229TIP3   OH2 9692   1.823   1.281   3.965
 3229TIP3    H1 9693   1.736   1.312   3.988
 3229TIP3    H2 9694   1.842   1.212   4.029
 3230TIP3   OH2 9695   4.438   4.139   1.006
 3230TIP3    H1 9696   4.406   4.107   1.090
 3230TIP3    H2 9697   4.475   4.062   0.963
 3231TIP3   OH2 9698   0.406   3.259   2.291
 3231TIP3    H1 9699   0.366   3.306   2.364
 3231TIP3    H2 9700   0.341   3.262   2.221
 3232TIP3   OH2 9701   1.292   5.196   0.283
 3232TIP3    H1 9702   1.309   5.286   0.257
 3232TIP3    H2 9703   1.243   5.159   0.210
 3233TIP3   OH2 9704   0.534   4.450   3.923
 3233TIP3    H1 9705   0.609   4.411   3.880
 3233TIP3    H2 9706   0.542   4.424   4.015
 3234TIP3   OH2 9707   4.572   1.537   2.746
 3234TIP3    H1 9708   4.611   1.578   2.669
 3234TIP3    H2 9709   4.532   1.456   2.713
 3235TIP3   OH2 9710   2.684   3.007   5.152
 3235TIP3    H1 9711   2.628   2.947   5.103
 3235TIP3    H2 9712   2.624   3.071   5.190
 3236TIP3   OH2 9713   0.159   4.556   3.015
 3236TIP3    H1 9714   0.088   4.502   2.981
 3236TIP3    H2 9715   0.115   4.625   3.065
 3237TIP3   OH2 9716   4.886   1.765   4.603
 3237TIP3    H1 9717   4.965   1.710   4.609
 3237TIP3    H2 9718   4.841   1.733   4.524
 3238TIP3   OH2 9719   2.983   0.178   5.006
 3238TIP3    H1 9720   3.012   0.168   4.916
 3238TIP3    H2 9721   3.042   0.122   5.057
 3239TIP3   OH2 9722   4.989   4.208   0.209
 3239TIP3    H1 9723   4.928   4.256   0.265
 3239TIP3    H2 9724   4.971   4.241   0.121
 3240TIP3   OH2 9725   3.469   5.175   1.457
 3240TIP3    H1 9726   3.377   5.201   1.453
 3240TIP3    H2 9727   3.491   5.149   1.368
 3241TIP3   OH2 9728   5.786   0.773   0.092
 3241TIP3    H1 9729   5.798   0.857   0.048
 3241TIP3    H2 9730   5.869   0.757   0.137
 3242TIP3   OH2 9731   0.532   1.386   3.076
 3242TIP3    H1 9732   0.441   1.396   3.049
 3242TIP3    H2 9733   0.547   1.292   3.075
 3243TIP3   OH2 9734   4.992   0.588   3.770
 3243TIP3    H1 9735   4.995   0.682   3.792
 3243TIP3    H2 9736   4.899   0.565   3.780
 3244TIP3   OH2 9737   0.702   4.542   2.721
 3244TIP3    H1 9738   0.653   4.511   2.645
 3244TIP3    H2 9739   0.753   4.616   2.689
 3245TIP3   OH2 9740   4.271   3.832   1.673
 3245TIP3    H1 9741   4.284   3.772   1.600
 3245TIP3    H2 9742   4.319   3.792   1.746
 3246TIP3   OH2 9743   4.286   5.625   0.011
 3246TIP3    H1 9744   4.202   5.586  -0.012
 3246TIP3    H2 9745   4.274   5.659   0.100
 3247TIP3   OH2 9746   4.678   1.510   1.425
 3247TIP3    H1 9747   4.608   1.446   1.439
 3247TIP3    H2 9748   4.676   1.564   1.505
 3248TIP3   OH2 9749   1.623   4.767   4.878
 3248TIP3    H1 9750   1.620   4.687   4.930
 3248TIP3    H2 9751   1.531   4.790   4.863
 3249TIP3   OH2 9752   3.253   4.549   3.664
 3249TIP3    H1 9753   3.223   4.499   3.589
 3249TIP3    H2 9754   3.259   4.486   3.735
 3250TIP3   OH2 9755   4.793   0.875   1.512
 3250TIP3    H1 9756   4.777   0.783   1.533
 3250TIP3    H2 9757   4.873   0.897   1.559
 3251TIP3   OH2 9758   0.797   2.492   2.544
 3251TIP3    H1 9759   0.796   2.424   2.612
 3251TIP3    H2 9760   0.883   2.484   2.504
 3252TIP3   OH2 9761   5.135   3.386   0.674
 3252TIP3    H1 9762   5.085   3.317   0.631
 3252TIP3    H2 9763   5.222   3.380   0.635
 3253TIP3   OH2 9764   0.228   0.372   5.010
 3253TIP3    H1 9765   0.137   0.395   5.029
 3253TIP3    H2 9766   0.243   0.291   5.059
 3254TIP3   OH2 9767   3.594   0.149   4.212
 3254TIP3    H1 9768   3.644   0.175   4.135
 3254TIP3    H2 9769   3.520   0.208   4.215
 3255TIP3   OH2 9770   0.459   2.184   5.135
 3255TIP3    H1 9771   0.430   2.093   5.144
 3255TIP3    H2 9772   0.382   2.237   5.156
 3256TIP3   OH2 9773   1.878   1.012   1.304
 3256TIP3    H1 9774   1.837   1.029   1.219
 3256TIP3    H2 9775   1.825   1.062   1.367
 3257TIP3   OH2 9776   3.285   0.767   4.561
 3257TIP3    H1 9777   3.314   0.842   4.613
 3257TIP3    H2 9778   3.365   0.731   4.523
 3258TIP3   OH2 9779   3.076   1.161   3.302
 3258TIP3    H1 9780   3.028   1.220   3.243
 3258TIP3    H2 9781   3.137   1.219   3.349
 3259TIP3   OH2 9782   0.217   0.646   4.489
 3259TIP3    H1 9783   0.161   0.607   4.423
 3259TIP3    H2 9784   0.213   0.584   4.563
 3260TIP3   OH2 9785   6.040   0.559   4.851
 3260TIP3    H1 9786   5.996   0.642   4.865
 3260TIP3    H2 9787   6.119   0.581   4.802
 3261TIP3   OH2 9788   1.290   0.759   3.918
 3261TIP3    H1 9789   1.296   0.842   3.871
 3261TIP3    H2 9790   1.258   0.783   4.005
 3262TIP3   OH2 9791   1.606   2.485   4.649
 3262TIP3    H1 9792   1.611   2.495   4.744
 3262TIP3    H2 9793   1.644   2.399   4.632
 3263TIP3   OH2 9794   5.980   4.694   2.748
 3263TIP3    H1 9795   5.924   4.766   2.776
 3263TIP3    H2 9796   6.063   4.736   2.724
 3264TIP3   OH2 9797   2.524   5.190   2.408
 3264TIP3    H1 9798   2.579   5.118   2.437
 3264TIP3    H2 9799   2.585   5.263   2.396
 3265TIP3   OH2 9800   0.311   4.195   1.795
 3265TIP3    H1 9801   0.370   4.229   1.862
 3265TIP3    H2 9802   0.331   4.246   1.716
 3266TIP3   OH2 9803   0.722   3.277   2.057
 3266TIP3    H1 9804   0.789   3.343   2.076
 3266TIP3    H2 9805   0.734   3.210   2.124
 3267TIP3   OH2 9806   0.556   3.426   4.861
 3267TIP3    H1 9807   0.523   3.481   4.932
 3267TIP3    H2 9808   0.507   3.344   4.869
 3268TIP3   OH2 9809   2.232   5.487   0.152
 3268TIP3    H1 9810   2.238   5.414   0.214
 3268TIP3    H2 9811   2.313   5.536   0.166
 3269TIP3   OH2 9812   4.409   1.181   3.905
 3269TIP3    H1 9813   4.396   1.119   3.834
 3269TIP3    H2 9814   4.504   1.191   3.911
 3270TIP3   OH2 9815   3.183   1.938   5.028
 3270TIP3    H1 9816   3.230   1.991   5.093
 3270TIP3    H2 9817   3.095   1.977   5.024
 3271TIP3   OH2 9818   4.053   4.452   3.566
 3271TIP3    H1 9819   4.073   4.434   3.658
 3271TIP3    H2 9820   3.991   4.383   3.542
 3272TIP3   OH2 9821   2.144   1.718   5.076
 3272TIP3    H1 9822   2.129   1.803   5.034
 3272TIP3    H2 9823   2.068   1.704   5.131
 3273TIP3   OH2 9824   4.675   4.538   0.574
 3273TIP3    H1 9825   4.592   4.540   0.622
 3273TIP3    H2 9826   4.723   4.464   0.611
 3274TIP3   OH2 9827   4.675   0.609   3.283
 3274TIP3    H1 9828   4.654   0.676   3.218
 3274TIP3    H2 9829   4.626   0.532   3.256
 3275TIP3   OH2 9830   4.189   4.972   3.692
 3275TIP3    H1 9831   4.114   4.914   3.702
 3275TIP3    H2 9832   4.223   4.954   3.605
 3276TIP3   OH2 9833   4.439   4.843   0.419
 3276TIP3    H1 9834   4.416   4.910   0.485
 3276TIP3    H2 9835   4.412   4.881   0.336
 3277TIP3   OH2 9836   3.624   2.141   0.517
 3277TIP3    H1 9837   3.558   2.072   0.512
 3277TIP3    H2 9838   3.702   2.096   0.552
 3278TIP3   OH2 9839   0.428   4.024   5.125
 3278TIP3    H1 9840   0.345   4.071   5.112
 3278TIP3    H2 9841   0.402   3.941   5.165
 3279TIP3   OH2 9842   1.648   0.452   3.117
 3279TIP3    H1 9843   1.696   0.531   3.141
 3279TIP3    H2 9844   1.612   0.420   3.200
 3280TIP3   OH2 9845   5.350   4.001   2.833
 3280TIP3    H1 9846   5.442   4.020   2.812
 3280TIP3    H2 9847   5.353   3.915   2.875
 3281TIP3   OH2 9848   0.209   0.956   3.687
 3281TIP3    H1 9849   0.219   0.877   3.740
 3281TIP3    H2 9850   0.253   0.936   3.604
 3282TIP3   OH2 9851   6.310   4.763   3.407
 3282TIP3    H1 9852   6.238   4.730   3.463
 3282TIP3    H2 9853   6.324   4.852   3.438
 3283TIP3   OH2 9854   1.996   5.686   0.900
 3283TIP3    H1 9855   1.986   5.780   0.914
 3283TIP3    H2 9856   2.047   5.656   0.975
 3284TIP3   OH2 9857   6.031   5.565   3.381
 3284TIP3    H1 9858   6.104   5.527   3.332
 3284TIP3    H2 9859   6.025   5.512   3.460
 3285TIP3   OH2 9860   5.139   0.943   4.103
 3285TIP3    H1 9861   5.136   0.854   4.138
 3285TIP3    H2 9862   5.177   0.995   4.174
 3286TIP3   OH2 9863   0.118   5.834   0.390
 3286TIP3    H1 9864   0.069   5.757   0.362
 3286TIP3    H2 9865   0.140   5.816   0.482
 3287TIP3   OH2 9866   3.159   2.661   1.931
 3287TIP3    H1 9867   3.187   2.640   2.019
 3287TIP3    H2 9868   3.139   2.576   1.891
 3288TIP3   OH2 9869   0.259   3.045   1.418
 3288TIP3    H1 9870   0.336   3.028   1.363
 3288TIP3    H2 9871   0.237   3.136   1.401
 3289TIP3   OH2 9872   1.154   0.961   0.888
 3289TIP3    H1 9873   1.215   1.029   0.861
 3289TIP3    H2 9874   1.188   0.881   0.847
 3290TIP3   OH2 9875   5.773   2.609   0.765
 3290TIP3    H1 9876   5.838   2.541   0.751
 3290TIP3    H2 9877   5.760   2.649   0.679
 3291TIP3   OH2 9878   3.776   4.794   0.824
 3291TIP3    H1 9879   3.713   4.798   0.897
 3291TIP3    H2 9880   3.793   4.886   0.803
 3292TIP3   OH2 9881   3.319   1.990   2.535
 3292TIP3    H1 9882   3.361   2.014   2.617
 3292TIP3    H2 9883   3.230   2.026   2.541
 3293TIP3   OH2 9884   3.269   3.043   3.119
 3293TIP3    H1 9885   3.262   2.947   3.121
 3293TIP3    H2 9886   3.240   3.070   3.206
 3294TIP3   OH2 9887   5.542   2.119   1.194
 3294TIP3    H1 9888   5.456   2.155   1.217
 3294TIP3    H2 9889   5.557   2.051   1.260
 3295TIP3   OH2 9890   3.164   4.162   2.093
 3295TIP3    H1 9891   3.125   4.248   2.108
 3295TIP3    H2 9892   3.251   4.167   2.131
 3296TIP3   OH2 9893   5.706   0.682   3.295
 3296TIP3    H1 9894   5.737   0.772   3.307
 3296TIP3    H2 9895   5.786   0.630   3.286
 3297TIP3   OH2 9896   2.273   5.233   4.513
 3297TIP3    H1 9897   2.251   5.183   4.592
 3297TIP3    H2 9898   2.313   5.169   4.454
 3298TIP3   OH2 9899   1.287   0.163   4.398
 3298TIP3    H1 9900   1.218   0.222   4.428
 3298TIP3    H2 9901   1.263   0.078   4.435
 3299TIP3   OH2 9902   1.197   5.863   2.851
 3299TIP3    H1 9903   1.183   5.927   2.920
 3299TIP3    H2 9904   1.210   5.780   2.898
 3300TIP3   OH2 9905   5.258   3.985   4.171
 3300TIP3    H1 9906   5.288   3.961   4.258
 3300TIP3    H2 9907   5.164   4.002   4.181
 3301TIP3   OH2 9908   0.078   2.820   5.044
 3301TIP3    H1 9909   0.036   2.866   4.972
 3301TIP3    H2 9910   0.150   2.877   5.071
 3302TIP3   OH2 9911   5.636   3.757   1.012
 3302TIP3    H1 9912   5.545   3.776   0.987
 3302TIP3    H2 9913   5.630   3.677   1.064
 3303TIP3   OH2 9914   0.760   2.685   4.386
 3303TIP3    H1 9915   0.718   2.613   4.433
 3303TIP3    H2 9916   0.692   2.753   4.382
 3304TIP3   OH2 9917   6.102   5.716   0.511
 3304TIP3    H1 9918   6.131   5.759   0.430
 3304TIP3    H2 9919   6.101   5.623   0.490
 3305TIP3   OH2 9920   2.090   5.869   2.714
 3305TIP3    H1 9921   2.114   5.808   2.784
 3305TIP3    H2 9922   2.072   5.813   2.639
 3306TIP3   OH2 9923   3.124   3.355   2.274
 3306TIP3    H1 9924   3.149   3.264   2.258
 3306TIP3    H2 9925   3.046   3.348   2.330
 3307TIP3   OH2 9926   5.044   4.136   1.313
 3307TIP3    H1 9927   5.133   4.109   1.291
 3307TIP3    H2 9928   5.054   4.189   1.392
 3308TIP3   OH2 9929   5.560   5.139   2.824
 3308TIP3    H1 9930   5.476   5.180   2.803
 3308TIP3    H2 9931   5.539   5.074   2.891
 3309TIP3   OH2 9932   5.582   2.116   2.930
 3309TIP3    H1 9933   5.555   2.072   3.010
 3309TIP3    H2 9934   5.672   2.143   2.946
 3310TIP3   OH2 9935   5.497   5.900   4.095
 3310TIP3    H1 9936   5.442   5.975   4.072
 3310TIP3    H2 9937   5.585   5.936   4.105
 3311TIP3   OH2 9938   0.007   3.286   4.677
 3311TIP3    H1 9939   0.002   3.280   4.772
 3311TIP3    H2 9940   0.050   3.205   4.650
 3312TIP3   OH2 9941   1.897   2.240   1.346
 3312TIP3    H1 9942   1.960   2.182   1.303
 3312TIP3    H2 9943   1.951   2.310   1.383
 3313TIP3   OH2 9944   5.978   5.191   3.879
 3313TIP3    H1 9945   5.918   5.125   3.912
 3313TIP3    H2 9946   5.997   5.164   3.789
 3314TIP3   OH2 9947   4.383   1.395   1.408
 3314TIP3    H1 9948   4.368   1.408   1.314
 3314TIP3    H2 9949   4.369   1.302   1.422
 3315TIP3   OH2 9950   3.011   5.404   1.956
 3315TIP3    H1 9951   3.073   5.408   2.029
 3315TIP3    H2 9952   2.935   5.359   1.991
 3316TIP3   OH2 9953   5.100   2.912   1.932
 3316TIP3    H1 9954   5.015   2.877   1.958
 3316TIP3    H2 9955   5.086   3.006   1.924
 3317TIP3   OH2 9956   3.575   1.230   3.771
 3317TIP3    H1 9957   3.572   1.237   3.675
 3317TIP3    H2 9958   3.602   1.139   3.787
 3318TIP3   OH2 9959   6.178   1.202   0.568
 3318TIP3    H1 9960   6.127   1.187   0.488
 3318TIP3    H2 9961   6.165   1.295   0.587
 3319TIP3   OH2 9962   1.221   4.648   3.779
 3319TIP3    H1 9963   1.259   4.652   3.691
 3319TIP3    H2 9964   1.277   4.706   3.832
 3320TIP3   OH2 9965   2.389   1.658   3.703
 3320TIP3    H1 9966   2.336   1.639   3.781
 3320TIP3    H2 9967   2.459   1.715   3.735
 3321TIP3   OH2 9968   6.141   3.196   2.949
 3321TIP3    H1 9969   6.070   3.163   2.893
 3321TIP3    H2 9970   6.161   3.123   3.008
 3322TIP3   OH2 9971   2.105   2.200   3.785
 3322TIP3    H1 9972   2.142   2.158   3.862
 3322TIP3    H2 9973   2.181   2.233   3.737
 3323TIP3   OH2 9974   6.016   3.188   3.943
 3323TIP3    H1 9975   5.995   3.146   4.026
 3323TIP3    H2 9976   6.033   3.115   3.883
 3324TIP3   OH2 9977   4.328   3.596   3.344
 3324TIP3    H1 9978   4.367   3.651   3.411
 3324TIP3    H2 9979   4.299   3.517   3.390
 3325TIP3   OH2 9980   4.031   1.934   0.814
 3325TIP3    H1 9981   4.125   1.915   0.807
 3325TIP3    H2 9982   3.994   1.856   0.855
 3326TIP3   OH2 9983   1.455   4.802   3.875
 3326TIP3    H1 9984   1.500   4.771   3.796
 3326TIP3    H2 9985   1.522   4.804   3.942
 3327TIP3   OH2 9986   2.802   2.706   2.288
 3327TIP3    H1 9987   2.813   2.775   2.223
 3327TIP3    H2 9988   2.796   2.752   2.371
 3328TIP3   OH2 9989   5.529   2.190   2.133
 3328TIP3    H1 9990   5.436   2.170   2.144
 3328TIP3    H2 9991   5.549   2.249   2.206
 3329TIP3   OH2 9992   4.449   1.928   4.800
 3329TIP3    H1 9993   4.363   1.907   4.836
 3329TIP3    H2 9994   4.485   1.844   4.771
 3330TIP3   OH2 9995   0.385   5.967   0.762
 3330TIP3    H1 9996   0.437   5.925   0.694
 3330TIP3    H2 9997   0.299   5.925   0.756
 3331TIP3   OH2 9998   2.013   3.397   2.359
 3331TIP3    H1 9999   2.018   3.386   2.264
 3331TIP3    H210000   2.088   3.347   2.393
 3332TIP3   OH210001   1.001   1.726   4.827
 3332TIP3    H110002   0.947   1.647   4.831
 3332TIP3    H210003   1.008   1.755   4.918
 3333TIP3   OH210004   0.413   3.689   4.596
 3333TIP3    H110005   0.375   3.777   4.597
 3333TIP3    H210006   0.507   3.703   4.608
 3334TIP3   OH210007   3.423   1.023   1.866
 3334TIP3    H110008   3.403   0.929   1.872
 3334TIP3    H210009   3.431   1.039   1.772
 3335TIP3   OH210010   4.841   3.185   3.286
 3335TIP3    H110011   4.842   3.224   3.374
 3335TIP3    H210012   4.749   3.162   3.271
 3336TIP3   OH210013   4.326   2.680   1.302
 3336TIP3    H110014   4.233   2.678   1.280
 3336TIP3    H210015   4.361   2.598   1.269
 3337TIP3   OH210016   4.913   5.526   1.514
 3337TIP3    H110017   4.821   5.502   1.525
 3337TIP3    H210018   4.910   5.614   1.477
 3338TIP3   OH210019   0.782   2.254   2.130
 3338TIP3    H110020   0.735   2.242   2.213
 3338TIP3    H210021   0.823   2.169   2.114
 3339TIP3   OH210022   2.587   0.984   4.855
 3339TIP3    H110023   2.535   1.056   4.819
 3339TIP3    H210024   2.659   0.973   4.793
 3340TIP3   OH210025   1.916   3.720   0.211
 3340TIP3    H110026   1.966   3.640   0.221
 3340TIP3    H210027   1.866   3.728   0.292
 3341TIP3   OH210028  -0.003   2.932   0.128
 3341TIP3    H110029   0.014   2.909   0.219
 3341TIP3    H210030   0.080   2.965   0.095
 3342TIP3   OH210031   6.101   5.126   2.143
 3342TIP3    H110032   6.133   5.050   2.191
 3342TIP3    H210033   6.024   5.094   2.097
 3343TIP3   OH210034   3.756   5.363   2.372
 3343TIP3    H110035   3.784   5.381   2.462
 3343TIP3    H210036   3.737   5.450   2.336
 3344TIP3   OH210037   4.477   4.808   0.761
 3344TIP3    H110038   4.485   4.766   0.847
 3344TIP3    H210039   4.391   4.780   0.729
 3345TIP3   OH210040   5.538   4.074   4.155
 3345TIP3    H110041   5.508   4.155   4.112
 3345TIP3    H210042   5.457   4.024   4.168
 3346TIP3   OH210043   5.737   3.067   0.113
 3346TIP3    H110044   5.819   3.025   0.139
 3346TIP3    H210045   5.690   3.000   0.063
 3347TIP3   OH210046   4.751   0.689   3.530
 3347TIP3    H110047   4.701   0.682   3.448
 3347TIP3    H210048   4.827   0.742   3.507
 3348TIP3   OH210049   3.582   3.122   4.186
 3348TIP3    H110050   3.649   3.078   4.134
 3348TIP3    H210051   3.557   3.057   4.252
 3349TIP3   OH210052   4.313   5.333   4.415
 3349TIP3    H110053   4.268   5.335   4.499
 3349TIP3    H210054   4.267   5.266   4.365
 3350TIP3   OH210055   3.175   2.329   0.506
 3350TIP3    H110056   3.221   2.408   0.536
 3350TIP3    H210057   3.164   2.276   0.585
 3351TIP3   OH210058   5.718   5.149   4.626
 3351TIP3    H110059   5.807   5.120   4.645
 3351TIP3    H210060   5.707   5.228   4.678
 3352TIP3   OH210061   3.325   3.229   4.303
 3352TIP3    H110062   3.409   3.203   4.264
 3352TIP3    H210063   3.260   3.179   4.255
 3353TIP3   OH210064   4.140   3.946   2.198
 3353TIP3    H110065   4.046   3.959   2.183
 3353TIP3    H210066   4.148   3.938   2.293
 3354TIP3   OH210067   0.874   5.585   3.001
 3354TIP3    H110068   0.900   5.657   2.943
 3354TIP3    H210069   0.852   5.628   3.084
 3355TIP3   OH210070   5.008   5.743   3.212
 3355TIP3    H110071   5.053   5.826   3.229
 3355TIP3    H210072   5.079   5.680   3.198
 3356TIP3   OH210073   1.919   1.267   1.807
 3356TIP3    H110074   1.909   1.304   1.720
 3356TIP3    H210075   1.833   1.231   1.828
 3357TIP3   OH210076   2.800   4.489   4.119
 3357TIP3    H110077   2.840   4.548   4.056
 3357TIP3    H210078   2.731   4.542   4.161
 3358TIP3   OH210079   3.314   4.948   0.473
 3358TIP3    H110080   3.315   4.877   0.409
 3358TIP3    H210081   3.406   4.958   0.498
 3359TIP3   OH210082   3.508   3.126   2.980
 3359TIP3    H110083   3.432   3.089   3.026
 3359TIP3    H210084   3.471   3.186   2.915
 3360TIP3   OH210085   6.075   3.071   4.766
 3360TIP3    H110086   6.038   3.059   4.854
 3360TIP3    H210087   6.042   3.156   4.737
 3361TIP3   OH210088   5.380   0.305   2.571
 3361TIP3    H110089   5.361   0.251   2.495
 3361TIP3    H210090   5.459   0.354   2.548
 3362TIP3   OH210091   5.939   2.782   5.149
 3362TIP3    H110092   5.994   2.785   5.228
 3362TIP3    H210093   5.894   2.697   5.155
 3363TIP3   OH210094   3.612   1.750   0.390
 3363TIP3    H110095   3.585   1.817   0.328
 3363TIP3    H210096   3.652   1.798   0.462
 3364TIP3   OH210097   0.239   5.648   0.983
 3364TIP3    H110098   0.324   5.678   1.016
 3364TIP3    H210099   0.258   5.614   0.895
 3365TIP3   OH210100   5.720   2.885   0.438
 3365TIP3    H110101   5.784   2.884   0.367
 3365TIP3    H210102   5.768   2.854   0.514
 3366TIP3   OH210103   6.083   5.513   3.845
 3366TIP3    H110104   6.097   5.465   3.763
 3366TIP3    H210105   6.047   5.597   3.818
 3367TIP3   OH210106   0.577   5.869   4.951
 3367TIP3    H110107   0.666   5.854   4.983
 3367TIP3    H210108   0.524   5.876   5.030
 3368TIP3   OH210109   0.952   2.663   2.027
 3368TIP3    H110110   0.866   2.679   1.989
 3368TIP3    H210111   0.952   2.715   2.107
 3369TIP3   OH210112   2.378   4.407   0.480
 3369TIP3    H110113   2.421   4.356   0.412
 3369TIP3    H210114   2.440   4.477   0.500
 3370TIP3   OH210115   0.208   0.005   1.857
 3370TIP3    H110116   0.188   0.092   1.823
 3370TIP3    H210117   0.279  -0.027   1.801
 3371TIP3   OH210118   1.806   3.875   0.584
 3371TIP3    H110119   1.720   3.917   0.577
 3371TIP3    H210120   1.858   3.915   0.515
 3372TIP3   OH210121   5.961   3.984   0.760
 3372TIP3    H110122   6.027   3.948   0.702
 3372TIP3    H210123   6.011   4.029   0.828
 3373TIP3   OH210124   4.364   0.273   3.332
 3373TIP3    H110125   4.299   0.243   3.395
 3373TIP3    H210126   4.329   0.356   3.299
 3374TIP3   OH210127   1.108   5.214   0.508
 3374TIP3    H110128   1.025   5.241   0.468
 3374TIP3    H210129   1.168   5.204   0.434
 3375TIP3   OH210130   2.853   1.806   2.007
 3375TIP3    H110131   2.928   1.771   1.959
 3375TIP3    H210132   2.823   1.733   2.062
 3376TIP3   OH210133   4.708   5.174   1.190
 3376TIP3    H110134   4.727   5.141   1.102
 3376TIP3    H210135   4.716   5.097   1.246
 3377TIP3   OH210136   0.302   4.998   1.035
 3377TIP3    H110137   0.274   5.049   1.111
 3377TIP3    H210138   0.389   4.965   1.057
 3378TIP3   OH210139   1.551   5.619   3.710
 3378TIP3    H110140   1.491   5.556   3.752
 3378TIP3    H210141   1.503   5.702   3.710
 3379TIP3   OH210142   4.541   1.022   4.625
 3379TIP3    H110143   4.535   1.065   4.539
 3379TIP3    H210144   4.518   0.931   4.608
 3380TIP3   OH210145   4.098   4.615   1.561
 3380TIP3    H110146   4.106   4.624   1.656
 3380TIP3    H210147   4.017   4.565   1.549
 3381TIP3   OH210148   4.349   3.905   4.594
 3381TIP3    H110149   4.290   3.962   4.643
 3381TIP3    H210150   4.343   3.820   4.639
 3382TIP3   OH210151   1.369   2.015   0.219
 3382TIP3    H110152   1.358   2.093   0.165
 3382TIP3    H210153   1.279   1.986   0.237
 3383TIP3   OH210154   6.331   2.047   3.089
 3383TIP3    H110155   6.392   2.028   3.019
 3383TIP3    H210156   6.269   2.109   3.051
 3384TIP3   OH210157   0.571   4.986   1.125
 3384TIP3    H110158   0.628   5.062   1.119
 3384TIP3    H210159   0.631   4.911   1.126
 3385TIP3   OH210160   4.838   2.178   1.160
 3385TIP3    H110161   4.775   2.125   1.210
 3385TIP3    H210162   4.823   2.152   1.069
 3386TIP3   OH210163   3.845   1.306   4.134
 3386TIP3    H110164   3.855   1.372   4.203
 3386TIP3    H210165   3.801   1.352   4.063
 3387TIP3   OH210166   0.719   5.610   1.460
 3387TIP3    H110167   0.717   5.656   1.543
 3387TIP3    H210168   0.803   5.564   1.460
 3388TIP3   OH210169   1.818   5.358   1.733
 3388TIP3    H110170   1.897   5.379   1.683
 3388TIP3    H210171   1.746   5.376   1.673
 3389TIP3   OH210172   2.335   4.103   4.116
 3389TIP3    H110173   2.288   4.022   4.098
 3389TIP3    H210174   2.395   4.113   4.042
 3390TIP3   OH210175   0.241   5.658   4.271
 3390TIP3    H110176   0.277   5.710   4.344
 3390TIP3    H210177   0.293   5.578   4.272
 3391TIP3   OH210178   2.780   0.796   1.664
 3391TIP3    H110179   2.688   0.780   1.644
 3391TIP3    H210180   2.780   0.813   1.758
 3392TIP3   OH210181   5.275   3.857   2.246
 3392TIP3    H110182   5.261   3.839   2.339
 3392TIP3    H210183   5.357   3.906   2.244
 3393TIP3   OH210184   1.572   0.796   2.494
 3393TIP3    H110185   1.486   0.755   2.483
 3393TIP3    H210186   1.613   0.747   2.565
 3394TIP3   OH210187   0.397   2.315   1.575
 3394TIP3    H110188   0.390   2.220   1.587
 3394TIP3    H210189   0.312   2.342   1.542
 3395TIP3   OH210190   3.478   0.888   4.825
 3395TIP3    H110191   3.448   0.914   4.912
 3395TIP3    H210192   3.570   0.862   4.837
 3396TIP3   OH210193   3.604   0.515   3.260
 3396TIP3    H110194   3.626   0.606   3.280
 3396TIP3    H210195   3.614   0.469   3.343
 3397TIP3   OH210196   3.782   5.335   4.736
 3397TIP3    H110197   3.699   5.372   4.767
 3397TIP3    H210198   3.820   5.293   4.813
 3398TIP3   OH210199   3.173   3.156   2.569
 3398TIP3    H110200   3.086   3.194   2.580
 3398TIP3    H210201   3.164   3.094   2.497
 3399TIP3   OH210202   0.760   0.868   2.424
 3399TIP3    H110203   0.737   0.853   2.515
 3399TIP3    H210204   0.769   0.780   2.387
 3400TIP3   OH210205   5.722   3.000   4.450
 3400TIP3    H110206   5.775   2.953   4.514
 3400TIP3    H210207   5.678   2.931   4.401
 3401TIP3   OH210208   3.098   1.704   4.586
 3401TIP3    H110209   3.141   1.788   4.601
 3401TIP3    H210210   3.049   1.687   4.666
 3402TIP3   OH210211   0.939   0.566   4.364
 3402TIP3    H110212   0.917   0.609   4.447
 3402TIP3    H210213   0.858   0.570   4.313
 3403TIP3   OH210214   3.500   1.198   4.758
 3403TIP3    H110215   3.499   1.123   4.699
 3403TIP3    H210216   3.456   1.167   4.837
 3404TIP3   OH210217   3.101   2.863   4.156
 3404TIP3    H110218   3.114   2.774   4.125
 3404TIP3    H210219   3.110   2.857   4.251
 3405TIP3   OH210220   2.735   5.096   3.603
 3405TIP3    H110221   2.736   5.049   3.686
 3405TIP3    H210222   2.679   5.043   3.546
 3406TIP3   OH210223   0.938   3.198   3.370
 3406TIP3    H110224   0.860   3.191   3.426
 3406TIP3    H210225   0.993   3.125   3.398
 3407TIP3   OH210226   3.823   3.851   3.896
 3407TIP3    H110227   3.761   3.796   3.849
 3407TIP3    H210228   3.909   3.828   3.860
 3408TIP3   OH210229   3.114   1.552   2.436
 3408TIP3    H110230   3.030   1.596   2.422
 3408TIP3    H210231   3.154   1.550   2.349
 3409TIP3   OH210232   3.590   4.456   4.497
 3409TIP3    H110233   3.619   4.437   4.408
 3409TIP3    H210234   3.511   4.509   4.486
 3410TIP3   OH210235   6.121   2.819   2.381
 3410TIP3    H110236   6.044   2.868   2.412
 3410TIP3    H210237   6.195   2.869   2.414
 3411TIP3   OH210238   0.366   1.882   4.741
 3411TIP3    H110239   0.413   1.861   4.661
 3411TIP3    H210240   0.406   1.827   4.808
 3412TIP3   OH210241   2.846   3.485   3.000
 3412TIP3    H110242   2.895   3.532   3.067
 3412TIP3    H210243   2.769   3.450   3.047
 3413TIP3   OH210244   1.048   1.577   0.088
 3413TIP3    H110245   1.128   1.618   0.120
 3413TIP3    H210246   0.977   1.628   0.128
 3414TIP3   OH210247   1.626   2.724   0.129
 3414TIP3    H110248   1.659   2.645   0.172
 3414TIP3    H210249   1.531   2.714   0.132
 3415TIP3   OH210250   2.657   2.327   2.407
 3415TIP3    H110251   2.589   2.297   2.346
 3415TIP3    H210252   2.628   2.414   2.434
 3416TIP3   OH210253   0.047   2.836   1.755
 3416TIP3    H110254   0.058   2.833   1.850
 3416TIP3    H210255   0.137   2.840   1.721
 3417TIP3   OH210256   3.052   0.488   3.029
 3417TIP3    H110257   3.139   0.519   3.006
 3417TIP3    H210258   3.050   0.397   2.999
 3418TIP3   OH210259   3.436   5.060   3.705
 3418TIP3    H110260   3.455   5.017   3.622
 3418TIP3    H210261   3.472   5.002   3.772
 3419TIP3   OH210262   0.921   4.248   1.801
 3419TIP3    H110263   0.854   4.218   1.863
 3419TIP3    H210264   1.002   4.248   1.852
 3420TIP3   OH210265   4.034   5.457   1.922
 3420TIP3    H110266   3.961   5.395   1.917
 3420TIP3    H210267   4.107   5.411   1.881
 3421TIP3   OH210268   3.080   4.507   5.012
 3421TIP3    H110269   3.113   4.516   5.102
 3421TIP3    H210270   3.148   4.546   4.957
 3422TIP3   OH210271   3.423   1.860   1.458
 3422TIP3    H110272   3.512   1.874   1.492
 3422TIP3    H210273   3.373   1.833   1.535
 3423TIP3   OH210274   5.113   5.193   4.193
 3423TIP3    H110275   5.124   5.127   4.124
 3423TIP3    H210276   5.159   5.270   4.160
 3424TIP3   OH210277   3.489   0.831   1.237
 3424TIP3    H110278   3.457   0.798   1.152
 3424TIP3    H210279   3.410   0.841   1.290
 3425TIP3   OH210280   1.519   2.301   4.112
 3425TIP3    H110281   1.609   2.316   4.084
 3425TIP3    H210282   1.504   2.208   4.096
 3426TIP3   OH210283   6.051   5.808   4.019
 3426TIP3    H110284   5.989   5.740   3.992
 3426TIP3    H210285   6.083   5.778   4.104
 3427TIP3   OH210286   3.286   2.579   0.577
 3427TIP3    H110287   3.258   2.600   0.666
 3427TIP3    H210288   3.379   2.601   0.576
 3428TIP3   OH210289   3.227   5.739   1.417
 3428TIP3    H110290   3.264   5.781   1.339
 3428TIP3    H210291   3.178   5.808   1.461
 3429TIP3   OH210292   1.566   0.590   4.480
 3429TIP3    H110293   1.481   0.568   4.443
 3429TIP3    H210294   1.557   0.572   4.574
 3430TIP3   OH210295   2.588   1.738   3.921
 3430TIP3    H110296   2.513   1.764   3.975
 3430TIP3    H210297   2.654   1.805   3.939
 3431TIP3   OH210298   5.292   1.138   2.515
 3431TIP3    H110299   5.367   1.084   2.491
 3431TIP3    H210300   5.274   1.190   2.436
 3432TIP3   OH210301   1.179   3.183   1.991
 3432TIP3    H110302   1.184   3.266   1.945
 3432TIP3    H210303   1.119   3.130   1.940
 3433TIP3   OH210304   3.078   4.228   1.143
 3433TIP3    H110305   3.063   4.316   1.175
 3433TIP3    H210306   3.035   4.225   1.057
 3434TIP3   OH210307   3.663   2.238   4.351
 3434TIP3    H110308   3.657   2.332   4.370
 3434TIP3    H210309   3.618   2.196   4.424
 3435TIP3   OH210310   3.394   4.483   4.198
 3435TIP3    H110311   3.387   4.551   4.131
 3435TIP3    H210312   3.442   4.412   4.155
 3436TIP3   OH210313   6.314   2.167   0.041
 3436TIP3    H110314   6.343   2.213   0.120
 3436TIP3    H210315   6.230   2.129   0.065
 3437TIP3   OH210316   0.961   5.432   1.454
 3437TIP3    H110317   0.958   5.379   1.375
 3437TIP3    H210318   1.029   5.497   1.437
 3438TIP3   OH210319   2.984   2.543   5.185
 3438TIP3    H110320   3.025   2.478   5.242
 3438TIP3    H210321   2.977   2.500   5.100
 3439TIP3   OH210322   0.280   4.246   3.386
 3439TIP3    H110323   0.207   4.308   3.378
 3439TIP3    H210324   0.242   4.171   3.431
 3440TIP3   OH210325   5.738   3.112   3.544
 3440TIP3    H110326   5.705   3.023   3.552
 3440TIP3    H210327   5.671   3.167   3.584
 3441TIP3   OH210328   5.766   3.681   0.735
 3441TIP3    H110329   5.673   3.663   0.747
 3441TIP3    H210330   5.769   3.747   0.665
 3442TIP3   OH210331   1.127   0.280   4.906
 3442TIP3    H110332   1.164   0.364   4.936
 3442TIP3    H210333   1.064   0.257   4.974
 3443TIP3   OH210334   4.972   4.270   2.875
 3443TIP3    H110335   4.971   4.174   2.870
 3443TIP3    H210336   5.027   4.289   2.951
 3444TIP3   OH210337   2.574   2.882   4.127
 3444TIP3    H110338   2.607   2.792   4.130
 3444TIP3    H210339   2.587   2.909   4.036
 3445TIP3   OH210340   2.814   2.466   4.718
 3445TIP3    H110341   2.738   2.439   4.666
 3445TIP3    H210342   2.795   2.556   4.744
 3446TIP3   OH210343   2.861   2.663   3.092
 3446TIP3    H110344   2.790   2.663   3.155
 3446TIP3    H210345   2.927   2.721   3.131
 3447TIP3   OH210346   5.676   2.707   2.332
 3447TIP3    H110347   5.724   2.638   2.378
 3447TIP3    H210348   5.739   2.743   2.271
 3448TIP3   OH210349   1.193   4.204   2.943
 3448TIP3    H110350   1.102   4.206   2.913
 3448TIP3    H210351   1.235   4.277   2.899
 3449TIP3   OH210352   4.122   3.584   4.145
 3449TIP3    H110353   4.081   3.604   4.229
 3449TIP3    H210354   4.141   3.670   4.107
 3450TIP3   OH210355   5.851   2.067   3.019
 3450TIP3    H110356   5.833   2.030   3.106
 3450TIP3    H210357   5.897   1.998   2.972
 3451TIP3   OH210358   1.345   3.478   1.275
 3451TIP3    H110359   1.416   3.433   1.322
 3451TIP3    H210360   1.390   3.533   1.211
 3452TIP3   OH210361   6.362   3.920   1.812
 3452TIP3    H110362   6.291   3.856   1.819
 3452TIP3    H210363   6.330   3.996   1.861
 3453TIP3   OH210364   0.788   3.116   2.336
 3453TIP3    H110365   0.723   3.184   2.349
 3453TIP3    H210366   0.826   3.102   2.423
 3454TIP3   OH210367   4.665   0.995   2.708
 3454TIP3    H110368   4.722   0.954   2.643
 3454TIP3    H210369   4.725   1.026   2.776
 3455TIP3   OH210370   4.745   4.540   0.047
 3455TIP3    H110371   4.762   4.633   0.060
 3455TIP3    H210372   4.672   4.521   0.106
 3456TIP3   OH210373   1.286   3.736   3.614
 3456TIP3    H110374   1.325   3.712   3.530
 3456TIP3    H210375   1.286   3.655   3.665
 3457TIP3   OH210376   3.270   4.924   3.274
 3457TIP3    H110377   3.315   4.947   3.193
 3457TIP3    H210378   3.178   4.945   3.257
 3458TIP3   OH210379   3.251   2.394   1.407
 3458TIP3    H110380   3.309   2.415   1.333
 3458TIP3    H210381   3.263   2.301   1.422
 3459TIP3   OH210382   4.546   0.630   1.826
 3459TIP3    H110383   4.614   0.589   1.774
 3459TIP3    H210384   4.581   0.630   1.915
 3460TIP3   OH210385   0.476   1.863   3.848
 3460TIP3    H110386   0.480   1.955   3.823
 3460TIP3    H210387   0.383   1.840   3.842
 3461TIP3   OH210388   0.135   0.865   2.961
 3461TIP3    H110389   0.151   0.951   2.920
 3461TIP3    H210390   0.211   0.850   3.016
 3462TIP3   OH210391   3.805   2.088   0.248
 3462TIP3    H110392   3.847   2.054   0.327
 3462TIP3    H210393   3.715   2.057   0.252
 3463TIP3   OH210394   4.577   3.851   1.437
 3463TIP3    H110395   4.489   3.818   1.421
 3463TIP3    H210396   4.628   3.772   1.457
 3464TIP3   OH210397   1.057   1.409   4.515
 3464TIP3    H110398   1.004   1.481   4.481
 3464TIP3    H210399   1.145   1.426   4.481
 3465TIP3   OH210400   3.471   5.391   0.277
 3465TIP3    H110401   3.445   5.300   0.290
 3465TIP3    H210402   3.391   5.434   0.247
 3466TIP3   OH210403   2.133   1.772   1.374
 3466TIP3    H110404   2.061   1.774   1.437
 3466TIP3    H210405   2.097   1.810   1.294
 3467TIP3   OH210406   6.201   4.989   4.552
 3467TIP3    H110407   6.160   4.919   4.500
 3467TIP3    H210408   6.295   4.974   4.541
 3468TIP3   OH210409   2.925   5.881   0.928
 3468TIP3    H110410   2.833   5.907   0.928
 3468TIP3    H210411   2.963   5.927   1.003
 3469TIP3   OH210412   3.456   3.546   0.078
 3469TIP3    H110413   3.381   3.486   0.085
 3469TIP3    H210414   3.479   3.544  -0.015
 3470TIP3   OH210415   2.262   1.604   4.222
 3470TIP3    H110416   2.356   1.625   4.220
 3470TIP3    H210417   2.241   1.579   4.132
 3471TIP3   OH210418   2.785   3.207   4.463
 3471TIP3    H110419   2.712   3.227   4.404
 3471TIP3    H210420   2.750   3.221   4.551
 3472TIP3   OH210421   1.513   4.851   1.228
 3472TIP3    H110422   1.442   4.900   1.187
 3472TIP3    H210423   1.578   4.842   1.158
 3473TIP3   OH210424   1.735   5.634   4.675
 3473TIP3    H110425   1.710   5.568   4.609
 3473TIP3    H210426   1.724   5.718   4.630
 3474TIP3   OH210427   6.058   2.825   0.455
 3474TIP3    H110428   6.150   2.799   0.454
 3474TIP3    H210429   6.010   2.742   0.464
 3475TIP3   OH210430   4.757   1.013   4.317
 3475TIP3    H110431   4.733   0.956   4.244
 3475TIP3    H210432   4.674   1.051   4.346
 3476TIP3   OH210433   1.156   2.325   0.977
 3476TIP3    H110434   1.111   2.393   1.028
 3476TIP3    H210435   1.208   2.372   0.913
 3477TIP3   OH210436   1.413   0.654   0.318
 3477TIP3    H110437   1.398   0.687   0.229
 3477TIP3    H210438   1.333   0.605   0.339
 3478TIP3   OH210439   5.406   3.373   0.583
 3478TIP3    H110440   5.447   3.393   0.499
 3478TIP3    H210441   5.383   3.280   0.577
 3479TIP3   OH210442   2.980   2.503   2.365
 3479TIP3    H110443   2.900   2.555   2.377
 3479TIP3    H210444   3.024   2.542   2.290
 3480TIP3   OH210445   4.202   2.132   3.397
 3480TIP3    H110446   4.199   2.054   3.341
 3480TIP3    H210447   4.215   2.205   3.337
 3481TIP3   OH210448   5.061   5.225   4.461
 3481TIP3    H110449   4.990   5.174   4.499
 3481TIP3    H210450   5.054   5.211   4.367
 3482TIP3   OH210451   2.922   5.285   1.661
 3482TIP3    H110452   2.911   5.277   1.756
 3482TIP3    H210453   3.011   5.254   1.645
 3483TIP3   OH210454   4.767   1.461   5.081
 3483TIP3    H110455   4.672   1.466   5.081
 3483TIP3    H210456   4.794   1.514   5.006
 3484TIP3   OH210457   3.067   1.275   4.899
 3484TIP3    H110458   3.035   1.292   4.810
 3484TIP3    H210459   2.989   1.280   4.954
 3485TIP3   OH210460   4.057   5.800   0.620
 3485TIP3    H110461   4.039   5.807   0.526
 3485TIP3    H210462   4.061   5.705   0.636
 3486TIP3   OH210463   4.319   1.872   0.784
 3486TIP3    H110464   4.406   1.885   0.823
 3486TIP3    H210465   4.317   1.932   0.709
 3487TIP3   OH210466   0.328   2.938   5.052
 3487TIP3    H110467   0.381   2.886   4.992
 3487TIP3    H210468   0.308   2.879   5.125
 3488TIP3   OH210469   2.588   5.498   5.050
 3488TIP3    H110470   2.559   5.417   5.092
 3488TIP3    H210471   2.522   5.516   4.983
 3489TIP3   OH210472   2.871   3.745   1.327
 3489TIP3    H110473   2.796   3.785   1.372
 3489TIP3    H210474   2.832   3.694   1.256
 3490TIP3   OH210475   4.951   4.980   0.590
 3490TIP3    H110476   4.861   4.970   0.619
 3490TIP3    H210477   4.976   5.068   0.619
 3491TIP3   OH210478   0.626   2.451   0.570
 3491TIP3    H110479   0.606   2.474   0.660
 3491TIP3    H210480   0.591   2.523   0.518
 3492TIP3   OH210481   4.118   1.425   3.725
 3492TIP3    H110482   4.206   1.398   3.700
 3492TIP3    H210483   4.082   1.467   3.647
 3493TIP3   OH210484   1.763   2.708   1.953
 3493TIP3    H110485   1.803   2.728   2.038
 3493TIP3    H210486   1.710   2.629   1.969
 3494TIP3   OH210487   4.158   1.304   4.552
 3494TIP3    H110488   4.074   1.272   4.585
 3494TIP3    H210489   4.197   1.228   4.508
 3495TIP3   OH210490   2.639   2.874   1.395
 3495TIP3    H110491   2.728   2.906   1.412
 3495TIP3    H210492   2.605   2.934   1.329
 3496TIP3   OH210493   4.573   5.874   4.882
 3496TIP3    H110494   4.659   5.866   4.840
 3496TIP3    H210495   4.593   5.883   4.976
 3497TIP3   OH210496   3.882   4.276   0.660
 3497TIP3    H110497   3.833   4.199   0.690
 3497TIP3    H210498   3.926   4.308   0.739
 3498TIP3   OH210499   3.020   5.054   2.688
 3498TIP3    H110500   2.934   5.094   2.678
 3498TIP3    H210501   3.046   5.077   2.777
 3499TIP3   OH210502   0.700   2.168   0.793
 3499TIP3    H110503   0.792   2.152   0.814
 3499TIP3    H210504   0.698   2.177   0.697
 3500TIP3   OH210505   0.923   3.830   3.799
 3500TIP3    H110506   0.870   3.905   3.772
 3500TIP3    H210507   0.978   3.810   3.723
 3501TIP3   OH210508   2.276   5.081   2.908
 3501TIP3    H110509   2.229   5.145   2.855
 3501TIP3    H210510   2.255   5.104   2.998
 3502TIP3   OH210511   3.779   2.558   4.905
 3502TIP3    H110512   3.736   2.601   4.980
 3502TIP3    H210513   3.807   2.474   4.939
 3503TIP3   OH210514   3.510   4.487   4.938
 3503TIP3    H110515   3.585   4.513   4.992
 3503TIP3    H210516   3.548   4.429   4.871
 3504TIP3   OH210517   3.849   4.903   3.937
 3504TIP3    H110518   3.874   4.973   3.998
 3504TIP3    H210519   3.754   4.899   3.942
 3505TIP3   OH210520   1.869   3.891   1.772
 3505TIP3    H110521   1.952   3.850   1.792
 3505TIP3    H210522   1.842   3.851   1.688
 3506TIP3   OH210523   3.980   3.002   4.107
 3506TIP3    H110524   3.933   3.054   4.172
 3506TIP3    H210525   4.063   2.979   4.149
 3507TIP3   OH210526   2.686   3.798   3.066
 3507TIP3    H110527   2.681   3.884   3.109
 3507TIP3    H210528   2.601   3.787   3.024
 3508TIP3   OH210529   4.453   2.650   0.713
 3508TIP3    H110530   4.386   2.604   0.764
 3508TIP3    H210531   4.405   2.715   0.662
 3509TIP3   OH210532   5.859   4.959   3.970
 3509TIP3    H110533   5.827   4.960   4.061
 3509TIP3    H210534   5.934   4.900   3.973
 3510TIP3   OH210535   4.204   3.254   2.876
 3510TIP3    H110536   4.115   3.222   2.865
 3510TIP3    H210537   4.242   3.253   2.788
 3511TIP3   OH210538   1.074   0.152   3.634
 3511TIP3    H110539   1.012   0.086   3.606
 3511TIP3    H210540   1.090   0.133   3.726
 3512TIP3   OH210541   5.537   0.621   3.595
 3512TIP3    H110542   5.442   0.614   3.608
 3512TIP3    H210543   5.552   0.715   3.580
 3513TIP3   OH210544   2.061   5.022   2.657
 3513TIP3    H110545   1.967   5.008   2.659
 3513TIP3    H210546   2.085   5.010   2.565
 3514TIP3   OH210547   2.365   5.423   4.109
 3514TIP3    H110548   2.434   5.362   4.137
 3514TIP3    H210549   2.370   5.495   4.172
 3515TIP3   OH210550   2.845   4.747   3.647
 3515TIP3    H110551   2.757   4.717   3.622
 3515TIP3    H210552   2.830   4.821   3.705
 3516TIP3   OH210553   4.637   1.659   2.486
 3516TIP3    H110554   4.600   1.704   2.411
 3516TIP3    H210555   4.721   1.625   2.455
 3517TIP3   OH210556   5.789   2.669   1.790
 3517TIP3    H110557   5.742   2.666   1.706
 3517TIP3    H210558   5.723   2.643   1.855
 3518TIP3   OH210559   5.959   0.400   4.303
 3518TIP3    H110560   5.950   0.495   4.293
 3518TIP3    H210561   6.044   0.380   4.264
 3519TIP3   OH210562   3.567   5.502   4.086
 3519TIP3    H110563   3.486   5.546   4.061
 3519TIP3    H210564   3.568   5.421   4.035
 3520TIP3   OH210565   2.175   4.215   2.277
 3520TIP3    H110566   2.237   4.283   2.303
 3520TIP3    H210567   2.161   4.231   2.183
 3521TIP3   OH210568   3.896   4.120   4.746
 3521TIP3    H110569   3.906   4.173   4.667
 3521TIP3    H210570   3.955   4.160   4.810
 3522TIP3   OH210571   2.208   5.104   4.112
 3522TIP3    H110572   2.245   5.176   4.163
 3522TIP3    H210573   2.141   5.145   4.057
 3523TIP3   OH210574   1.618   3.472   4.088
 3523TIP3    H110575   1.634   3.478   3.994
 3523TIP3    H210576   1.600   3.379   4.104
 3524TIP3   OH210577   4.319   3.377   4.143
 3524TIP3    H110578   4.383   3.371   4.214
 3524TIP3    H210579   4.244   3.422   4.183
 3525TIP3   OH210580   6.372   5.948   2.263
 3525TIP3    H110581   6.369   5.853   2.279
 3525TIP3    H210582   6.372   5.987   2.350
 3526TIP3   OH210583   3.420   0.096   1.652
 3526TIP3    H110584   3.432   0.002   1.664
 3526TIP3    H210585   3.352   0.103   1.585
 3527TIP3   OH210586   0.226   2.223   2.709
 3527TIP3    H110587   0.144   2.271   2.715
 3527TIP3    H210588   0.286   2.283   2.665
 3528TIP3   OH210589   2.394   0.678   1.041
 3528TIP3    H110590   2.428   0.590   1.055
 3528TIP3    H210591   2.300   0.667   1.032
 3529TIP3   OH210592   5.323   4.287   0.497
 3529TIP3    H110593   5.245   4.342   0.510
 3529TIP3    H210594   5.346   4.257   0.585
 3530TIP3   OH210595   2.909   1.150   1.618
 3530TIP3    H110596   2.885   1.171   1.709
 3530TIP3    H210597   2.988   1.096   1.626
 3531TIP3   OH210598   2.029   3.065   3.246
 3531TIP3    H110599   2.084   2.998   3.207
 3531TIP3    H210600   2.055   3.146   3.203
 3532TIP3   OH210601   4.997   5.746   4.106
 3532TIP3    H110602   4.927   5.811   4.108
 3532TIP3    H210603   4.977   5.687   4.178
 3533TIP3   OH210604   4.106   1.887   3.744
 3533TIP3    H110605   4.089   1.874   3.650
 3533TIP3    H210606   4.071   1.809   3.786
 3534TIP3   OH210607   5.965   4.504   0.458
 3534TIP3    H110608   5.954   4.425   0.510
 3534TIP3    H210609   5.927   4.481   0.373
 3535TIP3   OH210610   3.880   2.489   3.104
 3535TIP3    H110611   3.955   2.512   3.048
 3535TIP3    H210612   3.899   2.400   3.135
 3536TIP3   OH210613   5.242   6.006   0.930
 3536TIP3    H110614   5.316   6.008   0.869
 3536TIP3    H210615   5.243   6.091   0.973
 3537TIP3   OH210616   3.763   5.680   4.054
 3537TIP3    H110617   3.761   5.695   3.959
 3537TIP3    H210618   3.689   5.620   4.069
 3538TIP3   OH210619   1.265   5.600   0.616
 3538TIP3    H110620   1.226   5.547   0.546
 3538TIP3    H210621   1.359   5.586   0.607
 3539TIP3   OH210622   2.077   0.788   1.692
 3539TIP3    H110623   2.005   0.785   1.630
 3539TIP3    H210624   2.036   0.774   1.777
 3540TIP3   OH210625   1.443   2.117   0.692
 3540TIP3    H110626   1.404   2.081   0.613
 3540TIP3    H210627   1.433   2.211   0.684
 3541TIP3   OH210628   1.139   0.237   1.579
 3541TIP3    H110629   1.136   0.322   1.534
 3541TIP3    H210630   1.167   0.175   1.512
 3542TIP3   OH210631   6.256   5.563   4.699
 3542TIP3    H110632   6.305   5.624   4.643
 3542TIP3    H210633   6.242   5.486   4.644
 3543TIP3   OH210634   5.470   3.939   0.093
 3543TIP3    H110635   5.437   4.012   0.145
 3543TIP3    H210636   5.411   3.934   0.018
 3544TIP3   OH210637   5.492   2.887   1.149
 3544TIP3    H110638   5.529   2.889   1.061
 3544TIP3    H210639   5.397   2.894   1.134
 3545TIP3   OH210640   4.389   3.327   2.188
 3545TIP3    H110641   4.430   3.271   2.254
 3545TIP3    H210642   4.437   3.310   2.108
 3546TIP3   OH210643   5.226   4.500   4.154
 3546TIP3    H110644   5.183   4.581   4.180
 3546TIP3    H210645   5.314   4.505   4.193
 3547TIP3   OH210646   4.813   3.104   2.062
 3547TIP3    H110647   4.881   3.169   2.046
 3547TIP3    H210648   4.845   3.052   2.135
 3548TIP3   OH210649   3.785   3.996   4.956
 3548TIP3    H110650   3.731   4.074   4.969
 3548TIP3    H210651   3.847   4.020   4.888
 3549TIP3   OH210652   5.419   1.272   0.923
 3549TIP3    H110653   5.442   1.277   0.831
 3549TIP3    H210654   5.424   1.179   0.945
 3550TIP3   OH210655   3.165   3.180   1.706
 3550TIP3    H110656   3.145   3.221   1.622
 3550TIP3    H210657   3.250   3.216   1.731
 3551TIP3   OH210658   2.624   0.084   4.667
 3551TIP3    H110659   2.596   0.163   4.713
 3551TIP3    H210660   2.676   0.115   4.593
 3552TIP3   OH210661   0.063   5.108   0.046
 3552TIP3    H110662   0.008   5.168   0.097
 3552TIP3    H210663   0.116   5.166  -0.009
 3553TIP3   OH210664   1.673   5.700   3.049
 3553TIP3    H110665   1.700   5.613   3.078
 3553TIP3    H210666   1.610   5.683   2.978
 3554TIP3   OH210667   3.261   3.148   3.382
 3554TIP3    H110668   3.335   3.207   3.368
 3554TIP3    H210669   3.187   3.205   3.401
 3555TIP3   OH210670   0.928   2.759   1.218
 3555TIP3    H110671   1.003   2.808   1.252
 3555TIP3    H210672   0.869   2.751   1.293
 3556TIP3   OH210673   0.353   4.758   1.552
 3556TIP3    H110674   0.290   4.807   1.605
 3556TIP3    H210675   0.410   4.825   1.515
 3557TIP3   OH210676   0.715   0.429   3.269
 3557TIP3    H110677   0.665   0.403   3.192
 3557TIP3    H210678   0.717   0.524   3.266
 3558TIP3   OH210679   0.999   0.094   4.401
 3558TIP3    H110680   0.965   0.180   4.377
 3558TIP3    H210681   0.980   0.039   4.326
 3559TIP3   OH210682   4.398   5.072   5.129
 3559TIP3    H110683   4.404   5.157   5.174
 3559TIP3    H210684   4.348   5.016   5.188
 3560TIP3   OH210685   5.234   3.860   3.195
 3560TIP3    H110686   5.262   3.946   3.162
 3560TIP3    H210687   5.202   3.814   3.118
 3561TIP3   OH210688   0.980   1.678   3.436
 3561TIP3    H110689   0.941   1.665   3.523
 3561TIP3    H210690   0.959   1.768   3.414
 3562TIP3   OH210691   0.433   3.155   1.946
 3562TIP3    H110692   0.441   3.060   1.955
 3562TIP3    H210693   0.511   3.189   1.990
 3563TIP3   OH210694   5.191   3.189   0.281
 3563TIP3    H110695   5.177   3.220   0.371
 3563TIP3    H210696   5.279   3.220   0.259
 3564TIP3   OH210697   0.280   4.158   3.937
 3564TIP3    H110698   0.359   4.135   3.888
 3564TIP3    H210699   0.277   4.254   3.935
 3565TIP3   OH210700   4.793   1.166   3.156
 3565TIP3    H110701   4.881   1.197   3.177
 3565TIP3    H210702   4.767   1.114   3.232
 3566TIP3   OH210703   5.869   3.162   1.953
 3566TIP3    H110704   5.804   3.194   1.890
 3566TIP3    H210705   5.817   3.128   2.026
 3567TIP3   OH210706   5.635   1.532   1.489
 3567TIP3    H110707   5.709   1.527   1.550
 3567TIP3    H210708   5.675   1.543   1.403
 3568TIP3   OH210709   3.898   4.865   0.252
 3568TIP3    H110710   3.904   4.947   0.203
 3568TIP3    H210711   3.804   4.854   0.269
 3569TIP3   OH210712   3.715   4.605   4.174
 3569TIP3    H110713   3.697   4.660   4.250
 3569TIP3    H210714   3.696   4.516   4.202
 3570TIP3   OH210715   3.764   3.000   1.091
 3570TIP3    H110716   3.690   3.017   1.033
 3570TIP3    H210717   3.745   3.050   1.170
 3571TIP3   OH210718   2.348   3.935   2.075
 3571TIP3    H110719   2.289   3.861   2.060
 3571TIP3    H210720   2.342   3.952   2.169
 3572TIP3   OH210721   0.675   4.509   1.134
 3572TIP3    H110722   0.663   4.574   1.202
 3572TIP3    H210723   0.659   4.557   1.052
 3573TIP3   OH210724   0.092   4.450   5.084
 3573TIP3    H110725   0.038   4.524   5.111
 3573TIP3    H210726   0.043   4.410   5.012
 3574TIP3   OH210727   4.461   5.325   1.125
 3574TIP3    H110728   4.529   5.361   1.068
 3574TIP3    H210729   4.496   5.240   1.153
 3575TIP3   OH210730   2.585   0.691   3.243
 3575TIP3    H110731   2.523   0.641   3.191
 3575TIP3    H210732   2.663   0.635   3.247
 3576TIP3   OH210733   5.494   5.913   0.113
 3576TIP3    H110734   5.577   5.876   0.082
 3576TIP3    H210735   5.514   5.946   0.201
 3577TIP3   OH210736   2.583   0.704   4.751
 3577TIP3    H110737   2.556   0.634   4.811
 3577TIP3    H210738   2.578   0.784   4.804
 3578TIP3   OH210739   3.763   5.884   2.799
 3578TIP3    H110740   3.777   5.792   2.778
 3578TIP3    H210741   3.668   5.891   2.812
 3579TIP3   OH210742   3.462   5.182   0.945
 3579TIP3    H110743   3.394   5.127   0.982
 3579TIP3    H210744   3.467   5.156   0.853
 3580TIP3   OH210745   4.684   3.189   4.282
 3580TIP3    H110746   4.723   3.195   4.194
 3580TIP3    H210747   4.759   3.177   4.340
 3581TIP3   OH210748   3.628   3.495   2.986
 3581TIP3    H110749   3.611   3.583   2.953
 3581TIP3    H210750   3.595   3.437   2.917
 3582TIP3   OH210751   4.782   1.809   5.121
 3582TIP3    H110752   4.782   1.848   5.033
 3582TIP3    H210753   4.697   1.834   5.157
 3583TIP3   OH210754   0.381   2.179   1.943
 3583TIP3    H110755   0.419   2.123   1.876
 3583TIP3    H210756   0.379   2.266   1.903
 3584TIP3   OH210757   5.690   2.376   3.183
 3584TIP3    H110758   5.618   2.408   3.236
 3584TIP3    H210759   5.719   2.452   3.133
 3585TIP3   OH210760   2.972   5.196   3.458
 3585TIP3    H110761   2.885   5.184   3.497
 3585TIP3    H210762   3.032   5.159   3.523
 3586TIP3   OH210763   2.987   1.573   0.236
 3586TIP3    H110764   2.965   1.484   0.263
 3586TIP3    H210765   2.968   1.627   0.312
 3587TIP3   OH210766   0.677   2.306   1.056
 3587TIP3    H110767   0.720   2.385   1.025
 3587TIP3    H210768   0.687   2.243   0.984
 3588TIP3   OH210769   2.032   1.635   3.664
 3588TIP3    H110770   1.997   1.704   3.720
 3588TIP3    H210771   2.082   1.682   3.597
 3589TIP3   OH210772   4.949   1.405   3.527
 3589TIP3    H110773   4.908   1.406   3.440
 3589TIP3    H210774   4.877   1.416   3.588
 3590TIP3   OH210775   4.567   0.146   1.785
 3590TIP3    H110776   4.494   0.203   1.760
 3590TIP3    H210777   4.554   0.131   1.879
 3591TIP3   OH210778   0.742   3.911   2.974
 3591TIP3    H110779   0.808   3.908   3.043
 3591TIP3    H210780   0.792   3.928   2.894
 3592TIP3   OH210781   1.854   2.312   4.431
 3592TIP3    H110782   1.947   2.300   4.451
 3592TIP3    H210783   1.812   2.233   4.465
 3593TIP3   OH210784   0.964   5.023   2.045
 3593TIP3    H110785   1.015   4.971   1.982
 3593TIP3    H210786   0.983   5.114   2.022
 3594TIP3   OH210787   3.687   4.748   1.676
 3594TIP3    H110788   3.658   4.744   1.767
 3594TIP3    H210789   3.696   4.841   1.657
 3595TIP3   OH210790   6.163   1.860   0.513
 3595TIP3    H110791   6.230   1.822   0.456
 3595TIP3    H210792   6.083   1.856   0.460
 3596TIP3   OH210793   3.444   1.763   5.151
 3596TIP3    H110794   3.499   1.727   5.221
 3596TIP3    H210795   3.375   1.811   5.198
 3597TIP3   OH210796   5.513   3.233   3.636
 3597TIP3    H110797   5.435   3.177   3.634
 3597TIP3    H210798   5.544   3.228   3.726
 3598TIP3   OH210799   6.024   1.730   4.535
 3598TIP3    H110800   5.943   1.680   4.518
 3598TIP3    H210801   6.065   1.685   4.608
 3599TIP3   OH210802   5.243   5.519   4.956
 3599TIP3    H110803   5.208   5.543   4.870
 3599TIP3    H210804   5.237   5.600   5.007
 3600TIP3   OH210805   0.030   5.611   2.199
 3600TIP3    H110806  -0.021   5.569   2.130
 3600TIP3    H210807  -0.015   5.586   2.280
 3601TIP3   OH210808   3.309   5.543   2.476
 3601TIP3    H110809   3.384   5.584   2.520
 3601TIP3    H210810   3.341   5.458   2.448
 3602TIP3   OH210811   1.498   2.650   3.411
 3602TIP3    H110812   1.453   2.567   3.394
 3602TIP3    H210813   1.587   2.624   3.435
 3603TIP3   OH210814   3.493   3.793   2.586
 3603TIP3    H110815   3.584   3.785   2.615
 3603TIP3    H210816   3.494   3.763   2.495
 3604TIP3   OH210817   6.025   0.999   3.062
 3604TIP3    H110818   5.985   1.025   2.979
 3604TIP3    H210819   5.953   1.006   3.125
 3605TIP3   OH210820   0.783   2.129   0.510
 3605TIP3    H110821   0.876   2.136   0.486
 3605TIP3    H210822   0.766   2.035   0.509
 3606TIP3   OH210823   3.567   3.494   3.575
 3606TIP3    H110824   3.627   3.522   3.506
 3606TIP3    H210825   3.623   3.480   3.652
 3607TIP3   OH210826   5.654   3.929   0.793
 3607TIP3    H110827   5.640   3.888   0.878
 3607TIP3    H210828   5.750   3.939   0.787
 3608TIP3   OH210829   4.158   0.232   3.519
 3608TIP3    H110830   4.070   0.249   3.552
 3608TIP3    H210831   4.214   0.236   3.597
 3609TIP3   OH210832   0.542   4.948   3.083
 3609TIP3    H110833   0.493   5.031   3.080
 3609TIP3    H210834   0.555   4.925   2.991
 3610TIP3   OH210835   3.485   5.692   1.962
 3610TIP3    H110836   3.476   5.640   2.042
 3610TIP3    H210837   3.457   5.780   1.987
 3611TIP3   OH210838   2.392   5.921   4.047
 3611TIP3    H110839   2.396   6.017   4.042
 3611TIP3    H210840   2.318   5.904   4.105
 3612TIP3   OH210841   1.442   0.353   3.283
 3612TIP3    H110842   1.469   0.432   3.330
 3612TIP3    H210843   1.412   0.293   3.351
 3613TIP3   OH210844   2.790   2.822   1.862
 3613TIP3    H110845   2.727   2.810   1.792
 3613TIP3    H210846   2.775   2.748   1.921
 3614TIP3   OH210847   2.521   5.576   1.402
 3614TIP3    H110848   2.603   5.543   1.367
 3614TIP3    H210849   2.483   5.627   1.331
 3615TIP3   OH210850   2.263   3.014   1.556
 3615TIP3    H110851   2.170   2.992   1.555
 3615TIP3    H210852   2.299   2.970   1.479
 3616TIP3   OH210853   1.188   3.372   4.609
 3616TIP3    H110854   1.198   3.463   4.580
 3616TIP3    H210855   1.252   3.323   4.558
 3617TIP3   OH210856   5.996   1.553   3.703
 3617TIP3    H110857   5.994   1.572   3.797
 3617TIP3    H210858   6.030   1.464   3.697
 3618TIP3   OH210859   6.268   5.620   1.914
 3618TIP3    H110860   6.237   5.698   1.868
 3618TIP3    H210861   6.340   5.587   1.861
 3619TIP3   OH210862   5.935   5.092   0.766
 3619TIP3    H110863   5.925   5.026   0.835
 3619TIP3    H210864   5.971   5.168   0.811
 3620TIP3   OH210865   5.396   3.873   4.436
 3620TIP3    H110866   5.474   3.819   4.447
 3620TIP3    H210867   5.372   3.898   4.525
 3621TIP3   OH210868   3.182   5.500   0.307
 3621TIP3    H110869   3.198   5.504   0.212
 3621TIP3    H210870   3.162   5.590   0.331
 3622TIP3   OH210871   1.028   3.829   2.568
 3622TIP3    H110872   0.974   3.758   2.602
 3622TIP3    H210873   1.011   3.903   2.626
 3623TIP3   OH210874   1.711   5.118   4.437
 3623TIP3    H110875   1.783   5.100   4.377
 3623TIP3    H210876   1.752   5.123   4.523
 3624TIP3   OH210877   0.104   0.086   0.251
 3624TIP3    H110878   0.017   0.049   0.240
 3624TIP3    H210879   0.094   0.153   0.319
 3625TIP3   OH210880   2.936   3.632   3.233
 3625TIP3    H110881   2.953   3.618   3.326
 3625TIP3    H210882   2.855   3.684   3.231
 3626TIP3   OH210883   4.239   0.391   0.511
 3626TIP3    H110884   4.158   0.439   0.497
 3626TIP3    H210885   4.216   0.299   0.497
 3627TIP3   OH210886   1.400   2.291   2.086
 3627TIP3    H110887   1.377   2.230   2.016
 3627TIP3    H210888   1.438   2.235   2.154
 3628TIP3   OH210889   1.789   0.676   2.618
 3628TIP3    H110890   1.874   0.712   2.642
 3628TIP3    H210891   1.753   0.642   2.700
 3629TIP3   OH210892   2.454   3.956   2.735
 3629TIP3    H110893   2.460   4.028   2.797
 3629TIP3    H210894   2.473   3.878   2.786
 3630TIP3   OH210895   5.493   4.295   4.518
 3630TIP3    H110896   5.429   4.268   4.452
 3630TIP3    H210897   5.578   4.283   4.475
 3631TIP3   OH210898   0.320   0.936   0.955
 3631TIP3    H110899   0.226   0.920   0.946
 3631TIP3    H210900   0.336   1.011   0.898
 3632TIP3   OH210901   4.597   5.908   2.070
 3632TIP3    H110902   4.684   5.929   2.036
 3632TIP3    H210903   4.537   5.939   2.002
 3633TIP3   OH210904   6.289   0.512   4.399
 3633TIP3    H110905   6.367   0.509   4.343
 3633TIP3    H210906   6.232   0.443   4.365
 3634TIP3   OH210907   0.233   0.102   2.339
 3634TIP3    H110908   0.264   0.093   2.429
 3634TIP3    H210909   0.212   0.013   2.312
 3635TIP3   OH210910   1.280   0.140   0.612
 3635TIP3    H110911   1.207   0.192   0.579
 3635TIP3    H210912   1.342   0.136   0.539
 3636TIP3   OH210913   1.551   4.426   1.266
 3636TIP3    H110914   1.481   4.483   1.297
 3636TIP3    H210915   1.510   4.370   1.201
 3637TIP3   OH210916   3.840   3.801   0.997
 3637TIP3    H110917   3.762   3.807   1.051
 3637TIP3    H210918   3.821   3.730   0.935
 3638TIP3   OH210919   2.375   1.425   0.458
 3638TIP3    H110920   2.338   1.351   0.504
 3638TIP3    H210921   2.300   1.470   0.420
 3639TIP3   OH210922   0.901   4.098   1.201
 3639TIP3    H110923   0.835   4.029   1.195
 3639TIP3    H210924   0.899   4.124   1.293
 3640TIP3   OH210925   5.532   0.962   4.359
 3640TIP3    H110926   5.531   1.022   4.434
 3640TIP3    H210927   5.609   0.907   4.374
 3641TIP3   OH210928   0.484   5.756   4.655
 3641TIP3    H110929   0.510   5.728   4.568
 3641TIP3    H210930   0.435   5.681   4.690
 3642TIP3   OH210931   1.712   1.890   2.140
 3642TIP3    H110932   1.651   1.959   2.115
 3642TIP3    H210933   1.779   1.891   2.072
 3643TIP3   OH210934   4.131   0.310   1.207
 3643TIP3    H110935   4.181   0.302   1.126
 3643TIP3    H210936   4.168   0.242   1.264
 3644TIP3   OH210937   5.696   3.826   2.103
 3644TIP3    H110938   5.736   3.910   2.082
 3644TIP3    H210939   5.769   3.766   2.115
 3645TIP3   OH210940   0.510   6.015   0.317
 3645TIP3    H110941   0.512   5.963   0.236
 3645TIP3    H210942   0.438   6.077   0.303
 3646TIP3   OH210943   3.998   3.998   2.710
 3646TIP3    H110944   4.017   3.931   2.644
 3646TIP3    H210945   3.904   4.014   2.702
 3647TIP3   OH210946   3.676   0.322   0.603
 3647TIP3    H110947   3.723   0.325   0.686
 3647TIP3    H210948   3.603   0.262   0.619
 3648TIP3   OH210949   4.137   2.526   0.352
 3648TIP3    H110950   4.099   2.560   0.433
 3648TIP3    H210951   4.072   2.544   0.284
 3649TIP3   OH210952   4.203   5.628   2.411
 3649TIP3    H110953   4.238   5.711   2.381
 3649TIP3    H210954   4.268   5.595   2.474
 3650TIP3   OH210955   5.798   5.916   4.310
 3650TIP3    H110956   5.779   5.828   4.344
 3650TIP3    H210957   5.818   5.967   4.388
 3651TIP3   OH210958   0.995   4.048   0.872
 3651TIP3    H110959   0.904   4.067   0.895
 3651TIP3    H210960   1.037   4.024   0.955
 3652TIP3   OH210961   0.141   2.248   2.168
 3652TIP3    H110962   0.089   2.247   2.088
 3652TIP3    H210963   0.197   2.325   2.160
 3653TIP3   OH210964   6.013   0.734   0.510
 3653TIP3    H110965   6.008   0.786   0.590
 3653TIP3    H210966   5.991   0.645   0.537
 3654TIP3   OH210967   3.444  -0.007   3.455
 3654TIP3    H110968   3.370   0.027   3.406
 3654TIP3    H210969   3.521   0.029   3.411
 3655TIP3   OH210970   5.860   3.771   0.249
 3655TIP3    H110971   5.864   3.776   0.345
 3655TIP3    H210972   5.950   3.754   0.222
 3656TIP3   OH210973   5.739   5.878   2.226
 3656TIP3    H110974   5.701   5.965   2.212
 3656TIP3    H210975   5.736   5.836   2.140
 3657TIP3   OH210976   5.723   5.161   0.623
 3657TIP3    H110977   5.660   5.120   0.682
 3657TIP3    H210978   5.807   5.153   0.668
 3658TIP3   OH210979   0.106   4.498   1.695
 3658TIP3    H110980   0.143   4.437   1.631
 3658TIP3    H210981   0.113   4.584   1.654
 3659TIP3   OH210982   4.912   0.685   0.728
 3659TIP3    H110983   4.840   0.621   0.735
 3659TIP3    H210984   4.900   0.743   0.803
 3660TIP3   OH210985   0.992   0.310   2.291
 3660TIP3    H110986   1.036   0.308   2.376
 3660TIP3    H210987   1.061   0.334   2.229
 3661TIP3   OH210988   5.412   4.589   2.319
 3661TIP3    H110989   5.480   4.639   2.364
 3661TIP3    H210990   5.371   4.652   2.259
 3662TIP3   OH210991   3.502   1.222   2.581
 3662TIP3    H110992   3.481   1.132   2.558
 3662TIP3    H210993   3.546   1.257   2.504
 3663TIP3   OH210994   1.494   5.674   4.158
 3663TIP3    H110995   1.407   5.644   4.135
 3663TIP3    H210996   1.480   5.755   4.207
 3664TIP3   OH210997   0.147   4.402   2.387
 3664TIP3    H110998   0.190   4.330   2.432
 3664TIP3    H210999   0.104   4.362   2.312
 3665TIP3   OH211000   4.591   1.225   0.458
 3665TIP3    H111001   4.682   1.224   0.430
 3665TIP3    H211002   4.565   1.133   0.459
 3666TIP3   OH211003   2.904   0.090   3.849
 3666TIP3    H111004   2.874   0.035   3.921
 3666TIP3    H211005   2.997   0.106   3.867
 3667TIP3   OH211006   3.318   2.722   4.428
 3667TIP3    H111007   3.285   2.632   4.426
 3667TIP3    H211008   3.253   2.770   4.478
 3668TIP3   OH211009   2.894   1.418   1.602
 3668TIP3    H111010   2.823   1.355   1.585
 3668TIP3    H211011   2.973   1.364   1.606
 3669TIP3   OH211012   3.995   3.935   4.333
 3669TIP3    H111013   4.088   3.916   4.331
 3669TIP3    H211014   3.974   3.942   4.426
 3670TIP3   OH211015   1.714   0.770   4.350
 3670TIP3    H111016   1.802   0.735   4.361
 3670TIP3    H211017   1.657   0.709   4.397
 3671TIP3   OH211018   0.156   1.675   2.782
 3671TIP3    H111019   0.248   1.699   2.798
 3671TIP3    H211020   0.152   1.656   2.689
 3672TIP3   OH211021   3.336   3.799  -0.009
 3672TIP3    H111022   3.310   3.769   0.078
 3672TIP3    H211023   3.422   3.839   0.005
 3673TIP3   OH211024   2.329   0.150   0.994
 3673TIP3    H111025   2.270   0.076   1.007
 3673TIP3    H211026   2.401   0.115   0.942
 3674TIP3   OH211027   2.828   4.947   4.825
 3674TIP3    H111028   2.771   4.902   4.763
 3674TIP3    H211029   2.911   4.898   4.821
 3675TIP3   OH211030   3.460   2.529   1.800
 3675TIP3    H111031   3.390   2.567   1.747
 3675TIP3    H211032   3.420   2.451   1.840
 3676TIP3   OH211033   0.229   3.064   3.005
 3676TIP3    H111034   0.227   3.143   2.951
 3676TIP3    H211035   0.231   2.992   2.941
 3677TIP3   OH211036   1.160   5.034   2.544
 3677TIP3    H111037   1.142   5.016   2.452
 3677TIP3    H211038   1.093   4.985   2.591
 3678TIP3   OH211039   5.525   4.131   1.109
 3678TIP3    H111040   5.574   4.209   1.084
 3678TIP3    H211041   5.577   4.090   1.178
 3679TIP3   OH211042   0.395   3.778   0.501
 3679TIP3    H111043   0.378   3.835   0.427
 3679TIP3    H211044   0.408   3.838   0.575
 3680TIP3   OH211045   0.665   4.195   1.642
 3680TIP3    H111046   0.708   4.213   1.725
 3680TIP3    H211047   0.589   4.253   1.641
 3681TIP3   OH211048   2.894   5.593   2.244
 3681TIP3    H111049   2.960   5.530   2.272
 3681TIP3    H211050   2.928   5.629   2.162
 3682TIP3   OH211051   1.573   1.767   0.693
 3682TIP3    H111052   1.507   1.776   0.624
 3682TIP3    H211053   1.633   1.840   0.678
 3683TIP3   OH211054   1.757   4.903   1.047
 3683TIP3    H111055   1.845   4.923   1.080
 3683TIP3    H211056   1.712   4.988   1.049
 3684TIP3   OH211057   0.700   0.256   2.315
 3684TIP3    H111058   0.662   0.344   2.316
 3684TIP3    H211059   0.664   0.213   2.392
 3685TIP3   OH211060   4.515   3.381   4.365
 3685TIP3    H111061   4.488   3.364   4.455
 3685TIP3    H211062   4.576   3.310   4.344
 3686TIP3   OH211063   3.724   5.586   0.718
 3686TIP3    H111064   3.666   5.536   0.661
 3686TIP3    H211065   3.737   5.670   0.673
 3687TIP3   OH211066   5.311   2.197   1.317
 3687TIP3    H111067   5.263   2.224   1.395
 3687TIP3    H211068   5.257   2.129   1.278
 3688TIP3   OH211069   3.669   0.821   1.436
 3688TIP3    H111070   3.763   0.821   1.415
 3688TIP3    H211071   3.627   0.783   1.360
 3689TIP3   OH211072   3.250   3.497   4.358
 3689TIP3    H111073   3.169   3.473   4.402
 3689TIP3    H211074   3.284   3.415   4.324
 3690TIP3   OH211075   2.550   2.268   0.706
 3690TIP3    H111076   2.613   2.307   0.767
 3690TIP3    H211077   2.526   2.340   0.647
 3691TIP3   OH211078   5.719   4.941   3.762
 3691TIP3    H111079   5.758   4.925   3.848
 3691TIP3    H211080   5.646   5.002   3.780
 3692TIP3   OH211081   3.552   3.710   0.425
 3692TIP3    H111082   3.527   3.802   0.426
 3692TIP3    H211083   3.648   3.710   0.433
 3693TIP3   OH211084   4.313   5.911   0.787
 3693TIP3    H111085   4.268   5.832   0.758
 3693TIP3    H211086   4.318   5.903   0.882
 3694TIP3   OH211087   0.105   3.851   4.630
 3694TIP3    H111088   0.103   3.783   4.562
 3694TIP3    H211089   0.117   3.802   4.712
 3695TIP3   OH211090   0.622   0.514   0.082
 3695TIP3    H111091   0.573   0.528   0.164
 3695TIP3    H211092   0.714   0.517   0.109
 3696TIP3   OH211093   3.594   2.378   1.609
 3696TIP3    H111094   3.566   2.425   1.686
 3696TIP3    H211095   3.620   2.446   1.547
 3697TIP3   OH211096   2.162   2.681   1.713
 3697TIP3    H111097   2.213   2.656   1.635
 3697TIP3    H211098   2.220   2.740   1.761
 3698TIP3   OH211099   4.930   5.867   1.652
 3698TIP3    H111100   4.954   5.863   1.559
 3698TIP3    H211101   5.013   5.854   1.699
 3699TIP3   OH211102   3.711   2.710   2.841
 3699TIP3    H111103   3.714   2.726   2.936
 3699TIP3    H211104   3.799   2.731   2.811
 3700TIP3   OH211105   1.733   0.267   4.198
 3700TIP3    H111106   1.767   0.356   4.191
 3700TIP3    H211107   1.644   0.278   4.231
 3701TIP3   OH211108   1.629   5.684   0.404
 3701TIP3    H111109   1.585   5.647   0.481
 3701TIP3    H211110   1.656   5.772   0.432
 3702TIP3   OH211111   6.154   3.764   3.566
 3702TIP3    H111112   6.196   3.849   3.578
 3702TIP3    H211113   6.193   3.729   3.487
 3703TIP3   OH211114   2.998   0.233   2.090
 3703TIP3    H111115   3.046   0.232   2.007
 3703TIP3    H211116   2.958   0.320   2.094
 3704TIP3   OH211117   0.795   2.873   1.765
 3704TIP3    H111118   0.749   2.789   1.768
 3704TIP3    H211119   0.729   2.936   1.738
 3705TIP3   OH211120   2.014   3.682   2.471
 3705TIP3    H111121   2.023   3.599   2.425
 3705TIP3    H211122   1.920   3.693   2.484
 3706TIP3   OH211123   1.400   3.114   1.152
 3706TIP3    H111124   1.463   3.123   1.223
 3706TIP3    H211125   1.454   3.111   1.072
 3707TIP3   OH211126   1.119   0.046   2.457
 3707TIP3    H111127   1.178   0.083   2.523
 3707TIP3    H211128   1.067  -0.018   2.505
 3708TIP3   OH211129   6.133   3.139   3.495
 3708TIP3    H111130   6.193   3.210   3.472
 3708TIP3    H211131   6.185   3.059   3.481
 3709TIP3   OH211132   2.435   3.595   1.931
 3709TIP3    H111133   2.389   3.598   2.015
 3709TIP3    H211134   2.394   3.522   1.884
 3710TIP3   OH211135   3.137   2.133   0.928
 3710TIP3    H111136   3.113   2.086   1.008
 3710TIP3    H211137   3.193   2.204   0.958
 3711TIP3   OH211138   2.031   1.486   2.190
 3711TIP3    H111139   2.031   1.447   2.277
 3711TIP3    H211140   1.961   1.551   2.192
 3712TIP3   OH211141   2.083   3.998   4.225
 3712TIP3    H111142   2.153   4.019   4.288
 3712TIP3    H211143   2.003   4.029   4.267
 3713TIP3   OH211144   1.405   2.560   4.123
 3713TIP3    H111145   1.420   2.596   4.035
 3713TIP3    H211146   1.432   2.468   4.116
 3714TIP3   OH211147   1.787   0.463   1.092
 3714TIP3    H111148   1.844   0.459   1.169
 3714TIP3    H211149   1.838   0.510   1.026
 3715TIP3   OH211150   1.135   2.160   1.685
 3715TIP3    H111151   1.108   2.120   1.602
 3715TIP3    H211152   1.129   2.254   1.670
 3716TIP3   OH211153   3.802   1.320   2.114
 3716TIP3    H111154   3.724   1.339   2.062
 3716TIP3    H211155   3.871   1.303   2.049
 3717TIP3   OH211156   1.616   5.248   4.852
 3717TIP3    H111157   1.704   5.250   4.815
 3717TIP3    H211158   1.621   5.185   4.924
 3718TIP3   OH211159   2.948   5.476   0.928
 3718TIP3    H111160   3.001   5.420   0.872
 3718TIP3    H211161   2.932   5.554   0.875
 3719TIP3   OH211162   6.013   1.309   2.422
 3719TIP3    H111163   6.039   1.303   2.330
 3719TIP3    H211164   6.056   1.388   2.454
 3720TIP3   OH211165   6.017   2.151   4.562
 3720TIP3    H111166   5.979   2.206   4.494
 3720TIP3    H211167   6.080   2.095   4.516
 3721TIP3   OH211168   3.061   3.191   4.820
 3721TIP3    H111169   2.990   3.176   4.882
 3721TIP3    H211170   3.017   3.205   4.736
 3722TIP3   OH211171   1.858   2.941   1.772
 3722TIP3    H111172   1.908   2.955   1.692
 3722TIP3    H211173   1.854   3.028   1.814
 3723TIP3   OH211174   0.370   4.182   4.213
 3723TIP3    H111175   0.347   4.159   4.123
 3723TIP3    H211176   0.431   4.113   4.240
 3724TIP3   OH211177   1.169   5.219   2.751
 3724TIP3    H111178   1.159   5.164   2.674
 3724TIP3    H211179   1.079   5.234   2.782
 3725TIP3   OH211180   2.691   4.611   1.810
 3725TIP3    H111181   2.652   4.630   1.724
 3725TIP3    H211182   2.669   4.519   1.825
 3726TIP3   OH211183   4.790   5.706   1.248
 3726TIP3    H111184   4.701   5.698   1.214
 3726TIP3    H211185   4.831   5.621   1.228
 3727TIP3   OH211186   3.775   2.187   3.689
 3727TIP3    H111187   3.754   2.160   3.600
 3727TIP3    H211188   3.692   2.219   3.725
 3728TIP3   OH211189   0.851   4.852   0.673
 3728TIP3    H111190   0.946   4.849   0.684
 3728TIP3    H211191   0.839   4.875   0.581
 3729TIP3   OH211192   6.047   3.989   2.199
 3729TIP3    H111193   5.957   4.020   2.204
 3729TIP3    H211194   6.095   4.061   2.158
 3730TIP3   OH211195   2.904   0.298   1.239
 3730TIP3    H111196   2.914   0.206   1.214
 3730TIP3    H211197   2.970   0.344   1.186
 3731TIP3   OH211198   5.405   4.053   0.885
 3731TIP3    H111199   5.474   4.036   0.822
 3731TIP3    H211200   5.449   4.100   0.956
 3732TIP3   OH211201   2.561   4.028   2.494
 3732TIP3    H111202   2.543   3.956   2.555
 3732TIP3    H211203   2.514   4.103   2.531
 3733TIP3   OH211204   3.736   1.419   1.397
 3733TIP3    H111205   3.644   1.407   1.375
 3733TIP3    H211206   3.738   1.419   1.493
 3734TIP3   OH211207   4.505   0.256   0.695
 3734TIP3    H111208   4.567   0.302   0.639
 3734TIP3    H211209   4.490   0.172   0.651
 3735TIP3   OH211210   6.001   3.820   4.086
 3735TIP3    H111211   5.950   3.873   4.147
 3735TIP3    H211212   6.027   3.880   4.016
 3736TIP3   OH211213   4.155   3.394   2.329
 3736TIP3    H111214   4.166   3.332   2.401
 3736TIP3    H211215   4.230   3.378   2.272
 3737TIP3   OH211216   3.455   0.150   0.630
 3737TIP3    H111217   3.377   0.168   0.682
 3737TIP3    H211218   3.447   0.057   0.606
 3738TIP3   OH211219   1.622   4.222   4.649
 3738TIP3    H111220   1.703   4.231   4.600
 3738TIP3    H211221   1.592   4.312   4.663
 3739TIP3   OH211222   4.837   5.102   0.053
 3739TIP3    H111223   4.916   5.153   0.071
 3739TIP3    H211224   4.776   5.165   0.016
 3740TIP3   OH211225   0.514   5.600   2.787
 3740TIP3    H111226   0.600   5.564   2.764
 3740TIP3    H211227   0.484   5.546   2.860
 3741TIP3   OH211228   3.697   2.552   0.010
 3741TIP3    H111229   3.679   2.584  -0.079
 3741TIP3    H211230   3.687   2.630   0.065
 3742TIP3   OH211231   3.520   4.502   1.576
 3742TIP3    H111232   3.566   4.459   1.649
 3742TIP3    H211233   3.569   4.583   1.561
 3743TIP3   OH211234   5.737   2.053   1.720
 3743TIP3    H111235   5.658   2.036   1.669
 3743TIP3    H211236   5.717   2.133   1.770
 3744TIP3   OH211237   4.776   3.302   2.938
 3744TIP3    H111238   4.830   3.238   2.982
 3744TIP3    H211239   4.708   3.251   2.894
 3745TIP3   OH211240   0.359   3.700   4.247
 3745TIP3    H111241   0.454   3.699   4.260
 3745TIP3    H211242   0.345   3.775   4.188
 3746TIP3   OH211243   5.378   0.077   1.800
 3746TIP3    H111244   5.386  -0.018   1.791
 3746TIP3    H211245   5.419   0.113   1.721
 3747TIP3   OH211246   1.040   5.498   2.602
 3747TIP3    H111247   1.055   5.580   2.649
 3747TIP3    H211248   1.018   5.435   2.671
 3748TIP3   OH211249   2.316   2.451   5.080
 3748TIP3    H111250   2.272   2.386   5.026
 3748TIP3    H211251   2.245   2.499   5.122
 3749TIP3   OH211252   1.846   1.903   1.900
 3749TIP3    H111253   1.895   1.821   1.902
 3749TIP3    H211254   1.867   1.941   1.814
 3750TIP3   OH211255   0.944   4.949   2.328
 3750TIP3    H111256   0.848   4.941   2.321
 3750TIP3    H211257   0.970   4.990   2.245
 3751TIP3   OH211258   1.666   3.175   2.117
 3751TIP3    H111259   1.586   3.145   2.075
 3751TIP3    H211260   1.637   3.225   2.193
 3752TIP3   OH211261   4.114   2.942   2.643
 3752TIP3    H111262   4.048   2.894   2.592
 3752TIP3    H211263   4.096   2.919   2.734
 3753TIP3   OH211264   1.944   2.028   3.379
 3753TIP3    H111265   1.913   2.069   3.298
 3753TIP3    H211266   2.034   2.058   3.388
 3754TIP3   OH211267   2.614   0.471   0.684
 3754TIP3    H111268   2.662   0.547   0.717
 3754TIP3    H211269   2.677   0.424   0.631
 3755TIP3   OH211270   1.017   2.399   2.080
 3755TIP3    H111271   0.987   2.488   2.062
 3755TIP3    H211272   0.937   2.346   2.077
 3756TIP3   OH211273   5.413   5.453   4.596
 3756TIP3    H111274   5.489   5.431   4.542
 3756TIP3    H211275   5.345   5.478   4.534
 3757TIP3   OH211276   4.570   0.537   0.177
 3757TIP3    H111277   4.489   0.572   0.141
 3757TIP3    H211278   4.549   0.515   0.268
 3758TIP3   OH211279   0.314   3.662   2.727
 3758TIP3    H111280   0.243   3.626   2.674
 3758TIP3    H211281   0.307   3.618   2.811
 3759TIP3   OH211282   3.410   4.648   3.210
 3759TIP3    H111283   3.317   4.639   3.191
 3759TIP3    H211284   3.419   4.619   3.301
 3760TIP3   OH211285   3.360   2.929   1.703
 3760TIP3    H111286   3.338   2.911   1.612
 3760TIP3    H211287   3.275   2.928   1.749
 3761TIP3   OH211288   4.195   0.775   2.149
 3761TIP3    H111289   4.257   0.783   2.222
 3761TIP3    H211290   4.232   0.706   2.094
 3762TIP3   OH211291   1.678   0.527   2.404
 3762TIP3    H111292   1.631   0.605   2.373
 3762TIP3    H211293   1.704   0.550   2.494
 3763TIP3   OH211294   1.409   5.441   3.853
 3763TIP3    H111295   1.332   5.387   3.835
 3763TIP3    H211296   1.379   5.503   3.919
 3764TIP3   OH211297   1.795   1.620   2.567
 3764TIP3    H111298   1.704   1.592   2.573
 3764TIP3    H211299   1.791   1.712   2.540
 3765TIP3   OH211300   1.302   1.859   4.195
 3765TIP3    H111301   1.345   1.858   4.109
 3765TIP3    H211302   1.231   1.923   4.186
 3766TIP3   OH211303   1.309   5.868   0.573
 3766TIP3    H111304   1.300   5.862   0.477
 3766TIP3    H211305   1.360   5.790   0.597
 3767TIP3   OH211306   6.079   5.867   4.587
 3767TIP3    H111307   6.084   5.958   4.557
 3767TIP3    H211308   6.166   5.831   4.570
 3768TIP3   OH211309   4.903   2.043   4.642
 3768TIP3    H111310   4.910   1.951   4.616
 3768TIP3    H211311   4.992   2.069   4.665
 3769TIP3   OH211312   1.775   1.361   0.296
 3769TIP3    H111313   1.714   1.287   0.306
 3769TIP3    H211314   1.771   1.383   0.203
 3770TIP3   OH211315  -0.038   4.078   2.515
 3770TIP3    H111316   0.008   3.994   2.511
 3770TIP3    H211317   0.014   4.131   2.575
 3771TIP3   OH211318   5.290   3.698   0.167
 3771TIP3    H111319   5.301   3.755   0.091
 3771TIP3    H211320   5.350   3.626   0.152
 3772TIP3   OH211321   5.660   5.870   1.657
 3772TIP3    H111322   5.685   5.778   1.665
 3772TIP3    H211323   5.694   5.911   1.736
 3773TIP3   OH211324   5.649   2.549   1.252
 3773TIP3    H111325   5.647   2.548   1.157
 3773TIP3    H211326   5.703   2.474   1.276
 3774TIP3   OH211327   0.059   1.628   4.546
 3774TIP3    H111328   0.052   1.652   4.454
 3774TIP3    H211329  -0.014   1.568   4.560
 3775TIP3   OH211330   3.611   2.532   0.334
 3775TIP3    H111331   3.565   2.573   0.260
 3775TIP3    H211332   3.616   2.440   0.310
 3776TIP3   OH211333   3.496   5.123   4.144
 3776TIP3    H111334   3.460   5.186   4.207
 3776TIP3    H211335   3.562   5.075   4.194
 3777TIP3   OH211336   6.092   3.604   0.490
 3777TIP3    H111337   6.084   3.536   0.558
 3777TIP3    H211338   6.006   3.608   0.450
 3778TIP3   OH211339   5.744   5.733   5.008
 3778TIP3    H111340   5.744   5.675   4.932
 3778TIP3    H211341   5.673   5.794   4.991
 3779TIP3   OH211342   0.598   0.269   3.488
 3779TIP3    H111343   0.646   0.330   3.432
 3779TIP3    H211344   0.662   0.242   3.554
 3780TIP3   OH211345   0.917   2.158   3.836
 3780TIP3    H111346   0.852   2.134   3.770
 3780TIP3    H211347   0.913   2.087   3.900
 3781TIP3   OH211348   4.721   2.781   4.381
 3781TIP3    H111349   4.766   2.769   4.465
 3781TIP3    H211350   4.736   2.699   4.334
 3782TIP3   OH211351   1.232   2.615   2.321
 3782TIP3    H111352   1.280   2.696   2.338
 3782TIP3    H211353   1.142   2.644   2.306
 3783TIP3   OH211354   0.896   1.761   0.446
 3783TIP3    H111355   0.984   1.725   0.462
 3783TIP3    H211356   0.859   1.775   0.533
 3784TIP3   OH211357   5.690   0.331   4.211
 3784TIP3    H111358   5.674   0.372   4.126
 3784TIP3    H211359   5.756   0.387   4.253
 3785TIP3   OH211360   1.853   3.299   4.765
 3785TIP3    H111361   1.892   3.355   4.698
 3785TIP3    H211362   1.873   3.343   4.847
 3786TIP3   OH211363   4.218   3.162   1.072
 3786TIP3    H111364   4.291   3.100   1.061
 3786TIP3    H211365   4.261   3.247   1.080
 3787TIP3   OH211366   4.290   5.868   2.311
 3787TIP3    H111367   4.205   5.907   2.329
 3787TIP3    H211368   4.285   5.841   2.219
 3788TIP3   OH211369   1.298   1.690   0.179
 3788TIP3    H111370   1.371   1.722   0.126
 3788TIP3    H211371   1.340   1.655   0.258
 3789TIP3   OH211372   6.396   1.071   0.396
 3789TIP3    H111373   6.418   1.153   0.353
 3789TIP3    H211374   6.370   1.096   0.485
 3790TIP3   OH211375   2.671   5.276   3.320
 3790TIP3    H111376   2.625   5.286   3.403
 3790TIP3    H211377   2.699   5.365   3.297
 3791TIP3   OH211378   4.744   5.068   4.047
 3791TIP3    H111379   4.807   5.012   4.093
 3791TIP3    H211380   4.679   5.091   4.112
 3792TIP3   OH211381   2.486   2.243   5.139
 3792TIP3    H111382   2.436   2.324   5.135
 3792TIP3    H211383   2.493   2.214   5.048
 3793TIP3   OH211384   5.653   1.623   0.106
 3793TIP3    H111385   5.629   1.599   0.196
 3793TIP3    H211386   5.749   1.620   0.105
 3794TIP3   OH211387   1.940   4.602   3.528
 3794TIP3    H111388   1.941   4.508   3.543
 3794TIP3    H211389   1.966   4.612   3.436
 3795TIP3   OH211390   0.504   3.986   4.360
 3795TIP3    H111391   0.537   3.898   4.340
 3795TIP3    H211392   0.495   3.987   4.455
 3796TIP3   OH211393   0.100   1.992   2.821
 3796TIP3    H111394   0.051   2.062   2.777
 3796TIP3    H211395   0.192   2.018   2.812
 3797TIP3   OH211396   5.694   3.943   3.943
 3797TIP3    H111397   5.720   3.856   3.974
 3797TIP3    H211398   5.668   3.989   4.023
 3798TIP3   OH211399   4.210   0.989   4.474
 3798TIP3    H111400   4.298   0.964   4.444
 3798TIP3    H211401   4.156   0.989   4.396
 3799TIP3   OH211402   5.978   5.389   4.095
 3799TIP3    H111403   5.979   5.318   4.030
 3799TIP3    H211404   5.962   5.468   4.044
 3800TIP3   OH211405   6.209   4.272   3.567
 3800TIP3    H111406   6.183   4.317   3.487
 3800TIP3    H211407   6.272   4.331   3.608
 3801TIP3   OH211408   6.069   1.604   0.302
 3801TIP3    H111409   6.093   1.545   0.372
 3801TIP3    H211410   6.020   1.674   0.345
 3802TIP3   OH211411   5.428   2.608   2.248
 3802TIP3    H111412   5.376   2.610   2.328
 3802TIP3    H211413   5.506   2.660   2.267
 3803TIP3   OH211414   3.461   0.858   2.189
 3803TIP3    H111415   3.550   0.863   2.153
 3803TIP3    H211416   3.404   0.866   2.112
 3804TIP3   OH211417   6.336   4.181   4.003
 3804TIP3    H111418   6.312   4.142   4.087
 3804TIP3    H211419   6.431   4.174   3.999
 3805TIP3   OH211420   1.879   5.022   1.847
 3805TIP3    H111421   1.915   5.095   1.898
 3805TIP3    H211422   1.785   5.028   1.860
 3806TIP3   OH211423   0.572   1.907   0.155
 3806TIP3    H111424   0.520   1.896   0.235
 3806TIP3    H211425   0.598   1.999   0.155
 3807TIP3   OH211426   2.724   5.572   1.182
 3807TIP3    H111427   2.810   5.613   1.191
 3807TIP3    H211428   2.743   5.480   1.162
 3808TIP3   OH211429   6.268   5.324   4.532
 3808TIP3    H111430   6.319   5.249   4.501
 3808TIP3    H211431   6.193   5.329   4.472
 3809TIP3   OH211432   3.142   3.911   3.761
 3809TIP3    H111433   3.145   3.970   3.836
 3809TIP3    H211434   3.165   3.825   3.797
 3810TIP3   OH211435   4.738   2.509   4.286
 3810TIP3    H111436   4.766   2.449   4.356
 3810TIP3    H211437   4.774   2.470   4.206
 3811TIP3   OH211438   2.416   2.402   1.059
 3811TIP3    H111439   2.352   2.474   1.050
 3811TIP3    H211440   2.477   2.416   0.986
 3812TIP3   OH211441   3.555   0.353   0.330
 3812TIP3    H111442   3.629   0.338   0.270
 3812TIP3    H211443   3.595   0.349   0.417
 3813TIP3   OH211444   5.171   2.954   0.852
 3813TIP3    H111445   5.213   2.869   0.869
 3813TIP3    H211446   5.212   3.014   0.915
 3814TIP3   OH211447   0.499   1.904   3.039
 3814TIP3    H111448   0.483   1.815   3.072
 3814TIP3    H211449   0.442   1.959   3.092
 3815TIP3   OH211450   4.874   1.219   0.331
 3815TIP3    H111451   4.877   1.257   0.243
 3815TIP3    H211452   4.916   1.134   0.322
 3816TIP3   OH211453   1.149   4.030   4.132
 3816TIP3    H111454   1.129   3.999   4.221
 3816TIP3    H211455   1.148   4.125   4.139
 3817TIP3   OH211456   0.443   2.017   2.211
 3817TIP3    H111457   0.390   2.044   2.136
 3817TIP3    H211458   0.382   2.015   2.285
 3818TIP3   OH211459   5.060   4.360   4.633
 3818TIP3    H111460   5.052   4.436   4.691
 3818TIP3    H211461   5.128   4.306   4.672
 3819TIP3   OH211462   5.209   5.905   4.201
 3819TIP3    H111463   5.148   5.845   4.158
 3819TIP3    H211464   5.291   5.894   4.152
 3820TIP3   OH211465   3.049   1.633   1.132
 3820TIP3    H111466   2.992   1.574   1.183
 3820TIP3    H211467   3.120   1.576   1.101
 3821TIP3   OH211468   0.737   4.091   0.913
 3821TIP3    H111469   0.685   4.168   0.890
 3821TIP3    H211470   0.677   4.036   0.963
 3822TIP3   OH211471   6.001   3.232   0.391
 3822TIP3    H111472   6.072   3.190   0.439
 3822TIP3    H211473   6.013   3.202   0.301
 3823TIP3   OH211474   5.360   0.650   2.545
 3823TIP3    H111475   5.373   0.745   2.541
 3823TIP3    H211476   5.374   0.620   2.455
 3824TIP3   OH211477   0.139   4.772   0.958
 3824TIP3    H111478   0.147   4.834   1.031
 3824TIP3    H211479   0.228   4.766   0.922
 3825TIP3   OH211480   2.888   3.571   2.159
 3825TIP3    H111481   2.879   3.612   2.073
 3825TIP3    H211482   2.949   3.627   2.206
 3826TIP3   OH211483   2.544   4.752   2.139
 3826TIP3    H111484   2.490   4.765   2.061
 3826TIP3    H211485   2.613   4.817   2.131
 3827TIP3   OH211486   1.995   3.617   3.128
 3827TIP3    H111487   1.939   3.694   3.138
 3827TIP3    H211488   2.079   3.643   3.168
 3828TIP3   OH211489   3.912   1.505   0.164
 3828TIP3    H111490   3.997   1.461   0.167
 3828TIP3    H211491   3.876   1.480   0.079
 3829TIP3   OH211492   2.992   2.119   1.894
 3829TIP3    H111493   2.902   2.098   1.920
 3829TIP3    H211494   3.047   2.069   1.954
 3830TIP3   OH211495   3.494   2.743   4.723
 3830TIP3    H111496   3.435   2.760   4.796
 3830TIP3    H211497   3.474   2.653   4.697
 3831TIP3   OH211498   4.953   2.114   2.885
 3831TIP3    H111499   4.880   2.061   2.915
 3831TIP3    H211500   5.031   2.071   2.921
 3832TIP3   OH211501   0.221   0.595   1.235
 3832TIP3    H111502   0.134   0.600   1.274
 3832TIP3    H211503   0.211   0.534   1.162
 3833TIP3   OH211504   0.851   1.759   1.433
 3833TIP3    H111505   0.832   1.735   1.524
 3833TIP3    H211506   0.924   1.702   1.408
 3834TIP3   OH211507   3.418   6.015   0.799
 3834TIP3    H111508   3.475   5.956   0.749
 3834TIP3    H211509   3.331   5.978   0.788
 3835TIP3   OH211510   2.077   0.556   3.059
 3835TIP3    H111511   2.058   0.622   2.992
 3835TIP3    H211512   2.172   0.548   3.058
 3836TIP3   OH211513   0.046   1.277   2.145
 3836TIP3    H111514   0.081   1.322   2.068
 3836TIP3    H211515  -0.047   1.300   2.145
 3837TIP3   OH211516   5.798   1.216   2.578
 3837TIP3    H111517   5.850   1.267   2.515
 3837TIP3    H211518   5.791   1.129   2.539
 3838TIP3   OH211519   4.525   3.926   0.813
 3838TIP3    H111520   4.449   3.878   0.845
 3838TIP3    H211521   4.533   3.901   0.721
 3839TIP3   OH211522   1.368   3.729   5.065
 3839TIP3    H111523   1.435   3.748   5.000
 3839TIP3    H211524   1.414   3.731   5.149
 3840TIP3   OH211525   5.648   4.243   0.193
 3840TIP3    H111526   5.566   4.221   0.149
 3840TIP3    H211527   5.700   4.288   0.126
 3841TIP3   OH211528   5.712   4.799   2.182
 3841TIP3    H111529   5.664   4.767   2.258
 3841TIP3    H211530   5.801   4.814   2.214
 3842TIP3   OH211531   5.186   3.664   4.213
 3842TIP3    H111532   5.113   3.615   4.251
 3842TIP3    H211533   5.146   3.743   4.177
 3843TIP3   OH211534   1.649   5.964   2.332
 3843TIP3    H111535   1.731   5.988   2.376
 3843TIP3    H211536   1.641   6.028   2.261
 3844TIP3   OH211537   2.895   0.293   2.810
 3844TIP3    H111538   2.984   0.268   2.783
 3844TIP3    H211539   2.882   0.248   2.893
 3845TIP3   OH211540   0.797   0.291   2.002
 3845TIP3    H111541   0.782   0.383   1.979
 3845TIP3    H211542   0.845   0.255   1.928
 3846TIP3   OH211543   1.592   5.703   2.235
 3846TIP3    H111544   1.615   5.788   2.272
 3846TIP3    H211545   1.548   5.657   2.307
 3847TIP3   OH211546   4.543   0.434   3.104
 3847TIP3    H111547   4.549   0.510   3.047
 3847TIP3    H211548   4.514   0.363   3.047
 3848TIP3   OH211549   6.319   4.329   4.853
 3848TIP3    H111550   6.317   4.242   4.893
 3848TIP3    H211551   6.341   4.313   4.762
 3849TIP3   OH211552   3.001   0.898   1.892
 3849TIP3    H111553   2.917   0.865   1.860
 3849TIP3    H211554   2.981   0.985   1.925
 3850TIP3   OH211555   2.237   3.247   2.434
 3850TIP3    H111556   2.223   3.161   2.473
 3850TIP3    H211557   2.325   3.272   2.463
 3851TIP3   OH211558   6.299   3.425   0.929
 3851TIP3    H111559   6.210   3.453   0.947
 3851TIP3    H211560   6.294   3.329   0.923
 3852TIP3   OH211561   0.384   3.297   0.536
 3852TIP3    H111562   0.415   3.219   0.582
 3852TIP3    H211563   0.304   3.322   0.583
 3853TIP3   OH211564   0.612   1.352   1.693
 3853TIP3    H111565   0.706   1.371   1.703
 3853TIP3    H211566   0.609   1.272   1.641
 3854TIP3   OH211567   1.613   1.306   3.361
 3854TIP3    H111568   1.681   1.291   3.295
 3854TIP3    H211569   1.639   1.387   3.405
 3855TIP3   OH211570   0.751   5.066   3.953
 3855TIP3    H111571   0.656   5.070   3.940
 3855TIP3    H211572   0.787   5.052   3.865
 3856TIP3   OH211573   3.445   2.992   2.426
 3856TIP3    H111574   3.357   2.983   2.387
 3856TIP3    H211575   3.440   2.940   2.506
 3857TIP3   OH211576   3.279   1.115   4.956
 3857TIP3    H111577   3.210   1.181   4.946
 3857TIP3    H211578   3.232   1.032   4.964
 3858TIP3   OH211579   4.632   1.199   5.086
 3858TIP3    H111580   4.725   1.211   5.106
 3858TIP3    H211581   4.602   1.287   5.060
 3859TIP3   OH211582   5.580   0.741   1.021
 3859TIP3    H111583   5.601   0.791   1.100
 3859TIP3    H211584   5.547   0.806   0.959
 3860TIP3   OH211585   3.688   2.226   1.358
 3860TIP3    H111586   3.651   2.250   1.443
 3860TIP3    H211587   3.731   2.306   1.327
 3861TIP3   OH211588   3.130   4.442   3.437
 3861TIP3    H111589   3.105   4.468   3.348
 3861TIP3    H211590   3.047   4.436   3.484
 3862TIP3   OH211591   0.488   1.812   2.554
 3862TIP3    H111592   0.551   1.879   2.580
 3862TIP3    H211593   0.523   1.778   2.471
 3863TIP3   OH211594   5.123   0.874   2.627
 3863TIP3    H111595   5.215   0.881   2.601
 3863TIP3    H211596   5.090   0.963   2.622
 3864TIP3   OH211597   2.697   2.403   4.149
 3864TIP3    H111598   2.752   2.344   4.202
 3864TIP3    H211599   2.629   2.346   4.114
 3865TIP3   OH211600   1.895   0.439   0.617
 3865TIP3    H111601   1.842   0.462   0.540
 3865TIP3    H211602   1.965   0.383   0.582
 3866TIP3   OH211603   2.644  -0.029   1.725
 3866TIP3    H111604   2.640   0.012   1.812
 3866TIP3    H211605   2.711   0.021   1.678
 3867TIP3   OH211606   1.294   4.762   0.535
 3867TIP3    H111607   1.295   4.782   0.441
 3867TIP3    H211608   1.341   4.679   0.541
 3868TIP3   OH211609   1.985   1.692   3.369
 3868TIP3    H111610   1.919   1.733   3.425
 3868TIP3    H211611   1.938   1.670   3.289
 3869TIP3   OH211612   4.354   2.031   0.554
 3869TIP3    H111613   4.306   2.058   0.476
 3869TIP3    H211614   4.431   2.088   0.556
 3870TIP3   OH211615   1.790   3.542   4.952
 3870TIP3    H111616   1.811   3.594   4.875
 3870TIP3    H211617   1.831   3.589   5.025
 3871TIP3   OH211618   2.358   2.223   4.260
 3871TIP3    H111619   2.432   2.224   4.320
 3871TIP3    H211620   2.284   2.253   4.312
 3872TIP3   OH211621   1.319   2.867   1.155
 3872TIP3    H111622   1.358   2.954   1.155
 3872TIP3    H211623   1.286   2.856   1.245
 3873TIP3   OH211624   0.902   2.010   2.364
 3873TIP3    H111625   0.982   2.057   2.342
 3873TIP3    H211626   0.929   1.943   2.427
 3874TIP3   OH211627   1.996   0.820   3.018
 3874TIP3    H111628   1.944   0.859   3.089
 3874TIP3    H211629   2.082   0.863   3.025
 3875TIP3   OH211630   1.462   4.109   1.264
 3875TIP3    H111631   1.434   4.021   1.289
 3875TIP3    H211632   1.382   4.161   1.264
 3876TIP3   OH211633   0.439   3.904   2.755
 3876TIP3    H111634   0.402   3.816   2.751
 3876TIP3    H211635   0.416   3.936   2.842
 3877TIP3   OH211636   3.816   4.966   3.467
 3877TIP3    H111637   3.895   5.002   3.506
 3877TIP3    H211638   3.803   4.882   3.511
 3878TIP3   OH211639   5.292   2.580   2.493
 3878TIP3    H111640   5.247   2.495   2.495
 3878TIP3    H211641   5.339   2.584   2.576
 3879TIP3   OH211642   4.113   4.158   3.217
 3879TIP3    H111643   4.193   4.113   3.189
 3879TIP3    H211644   4.071   4.096   3.276
 3880TIP3   OH211645   3.268   2.606   1.593
 3880TIP3    H111646   3.272   2.529   1.536
 3880TIP3    H211647   3.184   2.646   1.574
 3881TIP3   OH211648   0.175   0.675   0.229
 3881TIP3    H111649   0.144   0.655   0.317
 3881TIP3    H211650   0.193   0.769   0.231
 3882TIP3   OH211651   3.127   4.703   0.819
 3882TIP3    H111652   3.092   4.653   0.893
 3882TIP3    H211653   3.148   4.638   0.753
 3883TIP3   OH211654   6.258   5.837   0.830
 3883TIP3    H111655   6.291   5.923   0.807
 3883TIP3    H211656   6.229   5.846   0.921
 3884TIP3   OH211657   6.287   5.250   2.660
 3884TIP3    H111658   6.306   5.188   2.590
 3884TIP3    H211659   6.345   5.324   2.643
 3885TIP3   OH211660   4.752   2.036   3.743
 3885TIP3    H111661   4.839   2.007   3.770
 3885TIP3    H211662   4.724   2.097   3.812
 3886TIP3   OH211663   1.323   3.421   3.172
 3886TIP3    H111664   1.299   3.513   3.159
 3886TIP3    H211665   1.398   3.408   3.114
 3887TIP3   OH211666   2.913   1.408   4.491
 3887TIP3    H111667   3.005   1.424   4.512
 3887TIP3    H211668   2.894   1.470   4.420
 3888TIP3   OH211669   3.954   1.415   1.211
 3888TIP3    H111670   3.863   1.441   1.224
 3888TIP3    H211671   3.981   1.378   1.295
 3889TIP3   OH211672   5.123   2.601   1.329
 3889TIP3    H111673   5.077   2.529   1.284
 3889TIP3    H211674   5.216   2.576   1.325
 3890TIP3   OH211675   0.150   1.552   0.006
 3890TIP3    H111676   0.179   1.464  -0.019
 3890TIP3    H211677   0.230   1.595   0.037
 3891TIP3   OH211678   2.361   0.470   2.099
 3891TIP3    H111679   2.336   0.504   2.013
 3891TIP3    H211680   2.339   0.377   2.095
 3892TIP3   OH211681   5.093   2.854   2.841
 3892TIP3    H111682   5.030   2.923   2.865
 3892TIP3    H211683   5.171   2.875   2.891
 3893TIP3   OH211684   4.578   3.080   2.728
 3893TIP3    H111685   4.516   3.010   2.707
 3893TIP3    H211686   4.641   3.079   2.656
 3894TIP3   OH211687   2.140   3.047   4.739
 3894TIP3    H111688   2.196   2.991   4.685
 3894TIP3    H211689   2.057   3.000   4.744
 3895TIP3   OH211690   0.177   2.497   1.796
 3895TIP3    H111691   0.118   2.509   1.722
 3895TIP3    H211692   0.174   2.581   1.843
 3896TIP3   OH211693   4.343   3.824   2.862
 3896TIP3    H111694   4.283   3.897   2.876
 3896TIP3    H211695   4.423   3.849   2.907
 3897TIP3   OH211696   4.366   4.486   4.621
 3897TIP3    H111697   4.446   4.538   4.625
 3897TIP3    H211698   4.296   4.548   4.641
 3898TIP3   OH211699   1.160   5.929   4.191
 3898TIP3    H111700   1.241   5.881   4.206
 3898TIP3    H211701   1.178   6.018   4.222
 3899TIP3   OH211702   1.376   5.155   5.082
 3899TIP3    H111703   1.346   5.243   5.060
 3899TIP3    H211704   1.428   5.127   5.006
 3900TIP3   OH211705   0.137   2.794   1.997
 3900TIP3    H111706   0.207   2.733   2.020
 3900TIP3    H211707   0.101   2.822   2.082
 3901TIP3   OH211708   3.000   2.966   0.325
 3901TIP3    H111709   3.005   2.925   0.411
 3901TIP3    H211710   2.964   2.899   0.268
 3902TIP3   OH211711   0.421   4.551   3.339
 3902TIP3    H111712   0.328   4.550   3.364
 3902TIP3    H211713   0.421   4.592   3.252
 3903TIP3   OH211714   6.330   2.587   1.611
 3903TIP3    H111715   6.351   2.672   1.651
 3903TIP3    H211716   6.318   2.606   1.518
 3904TIP3   OH211717   1.862   1.066   0.155
 3904TIP3    H111718   1.919   1.006   0.107
 3904TIP3    H211719   1.903   1.152   0.144
 3905TIP3   OH211720   2.201   3.830   0.032
 3905TIP3    H111721   2.258   3.774  -0.022
 3905TIP3    H211722   2.134   3.770   0.065
 3906TIP3   OH211723   4.842   0.953   2.490
 3906TIP3    H111724   4.912   1.018   2.502
 3906TIP3    H211725   4.878   0.891   2.426
 3907TIP3   OH211726   6.033   2.749   1.595
 3907TIP3    H111727   6.006   2.706   1.677
 3907TIP3    H211728   5.962   2.811   1.576
 3908TIP3   OH211729   5.470   4.688   3.122
 3908TIP3    H111730   5.413   4.671   3.197
 3908TIP3    H211731   5.557   4.665   3.153
 3909TIP3   OH211732   3.960   1.719   1.691
 3909TIP3    H111733   3.967   1.799   1.742
 3909TIP3    H211734   4.051   1.692   1.675
 3910TIP3   OH211735   3.569   1.292   4.284
 3910TIP3    H111736   3.561   1.357   4.214
 3910TIP3    H211737   3.646   1.320   4.334
 3911TIP3   OH211738   2.339   0.362   1.599
 3911TIP3    H111739   2.307   0.422   1.531
 3911TIP3    H211740   2.426   0.337   1.571
 3912TIP3   OH211741   1.697   5.475   4.238
 3912TIP3    H111742   1.702   5.413   4.165
 3912TIP3    H211743   1.603   5.492   4.248
 3913TIP3   OH211744   3.105   1.044   1.272
 3913TIP3    H111745   3.073   1.129   1.244
 3913TIP3    H211746   3.048   0.981   1.228
 3914TIP3   OH211747   2.983   5.881   2.491
 3914TIP3    H111748   3.024   5.921   2.568
 3914TIP3    H211749   2.956   5.955   2.436
 3915TIP3   OH211750   1.305   5.831   2.607
 3915TIP3    H111751   1.231   5.849   2.549
 3915TIP3    H211752   1.270   5.842   2.695
 3916TIP3   OH211753   4.054   2.650   1.288
 3916TIP3    H111754   3.998   2.686   1.219
 3916TIP3    H211755   4.000   2.583   1.329
 3917TIP3   OH211756   0.632   3.360   2.414
 3917TIP3    H111757   0.553   3.329   2.370
 3917TIP3    H211758   0.672   3.421   2.353
 3918TIP3   OH211759   0.853   5.581   0.438
 3918TIP3    H111760   0.780   5.541   0.486
 3918TIP3    H211761   0.910   5.617   0.506
 3919TIP3   OH211762   2.152   3.553   2.844
 3919TIP3    H111763   2.184   3.610   2.774
 3919TIP3    H211764   2.117   3.613   2.910
 3920TIP3   OH211765   5.580  -0.009   2.559
 3920TIP3    H111766   5.508  -0.012   2.496
 3920TIP3    H211767   5.657   0.009   2.505
 3921TIP3   OH211768   3.342   2.203   1.085
 3921TIP3    H111769   3.327   2.143   1.158
 3921TIP3    H211770   3.318   2.289   1.119
 3922TIP3   OH211771   3.554   0.416   2.147
 3922TIP3    H111772   3.600   0.499   2.138
 3922TIP3    H211773   3.502   0.426   2.227
 3923TIP3   OH211774   2.735   0.504   1.545
 3923TIP3    H111775   2.802   0.572   1.546
 3923TIP3    H211776   2.655   0.548   1.572
 3924TIP3   OH211777   4.664   5.070   2.638
 3924TIP3    H111778   4.714   5.107   2.565
 3924TIP3    H211779   4.576   5.107   2.628
 3925TIP3   OH211780   3.083   1.952   3.131
 3925TIP3    H111781   3.010   1.996   3.088
 3925TIP3    H211782   3.116   2.016   3.194
 3926TIP3   OH211783   5.880   2.693   0.062
 3926TIP3    H111784   5.953   2.715   0.004
 3926TIP3    H211785   5.892   2.751   0.138
 3927TIP3   OH211786   6.029   3.147   2.370
 3927TIP3    H111787   6.083   3.204   2.425
 3927TIP3    H211788   6.092   3.103   2.313
 3928TIP3   OH211789   2.729   0.373   4.994
 3928TIP3    H111790   2.785   0.305   4.957
 3928TIP3    H211791   2.784   0.415   5.060
 3929TIP3   OH211792   0.195   0.555   0.647
 3929TIP3    H111793   0.175   0.616   0.718
 3929TIP3    H211794   0.159   0.597   0.569
 3930TIP3   OH211795   1.127   1.379   5.183
 3930TIP3    H111796   1.187   1.330   5.127
 3930TIP3    H211797   1.052   1.320   5.194
 3931TIP3   OH211798   3.492   1.261   1.637
 3931TIP3    H111799   3.468   1.175   1.603
 3931TIP3    H211800   3.531   1.307   1.563
 3932TIP3   OH211801   4.034   5.717   3.501
 3932TIP3    H111802   4.118   5.746   3.468
 3932TIP3    H211803   3.980   5.706   3.423
 3933TIP3   OH211804   2.291   3.135   0.445
 3933TIP3    H111805   2.236   3.202   0.486
 3933TIP3    H211806   2.359   3.184   0.399
 3934TIP3   OH211807   0.919   2.737   2.302
 3934TIP3    H111808   0.883   2.666   2.354
 3934TIP3    H211809   0.923   2.811   2.362
 3935TIP3   OH211810   1.483   1.862   0.428
 3935TIP3    H111811   1.439   1.907   0.355
 3935TIP3    H211812   1.576   1.873   0.409
 3936TIP3   OH211813   0.131   1.355   2.403
 3936TIP3    H111814   0.201   1.290   2.395
 3936TIP3    H211815   0.084   1.349   2.319
 3937TIP3   OH211816   4.717   0.537   3.754
 3937TIP3    H111817   4.735   0.583   3.673
 3937TIP3    H211818   4.693   0.449   3.727
 3938TIP3   OH211819   4.353   4.488   3.900
 3938TIP3    H111820   4.377   4.499   3.991
 3938TIP3    H211821   4.370   4.573   3.860
 3939TIP3   OH211822   0.216   1.181   3.888
 3939TIP3    H111823   0.284   1.122   3.921
 3939TIP3    H211824   0.217   1.255   3.949
 3940TIP3   OH211825   4.267   0.700   5.151
 3940TIP3    H111826   4.284   0.771   5.088
 3940TIP3    H211827   4.305   0.622   5.110
 3941TIP3   OH211828   6.126   3.018   1.399
 3941TIP3    H111829   6.175   3.088   1.442
 3941TIP3    H211830   6.099   2.961   1.471
 3942TIP3   OH211831   2.683   3.381   1.914
 3942TIP3    H111832   2.689   3.473   1.890
 3942TIP3    H211833   2.674   3.335   1.831
 3943TIP3   OH211834   4.569   1.788   1.965
 3943TIP3    H111835   4.664   1.772   1.971
 3943TIP3    H211836   4.530   1.704   1.989
 3944TIP3   OH211837   2.422   0.094   3.713
 3944TIP3    H111838   2.400   0.157   3.645
 3944TIP3    H211839   2.511   0.117   3.740
 3945TIP3   OH211840   0.419   1.023   4.244
 3945TIP3    H111841   0.408   1.093   4.308
 3945TIP3    H211842   0.482   0.963   4.284
 3946TIP3   OH211843   5.333   0.333   3.502
 3946TIP3    H111844   5.367   0.265   3.560
 3946TIP3    H211845   5.250   0.359   3.541
 3947TIP3   OH211846   4.147   5.012   0.367
 3947TIP3    H111847   4.096   5.059   0.301
 3947TIP3    H211848   4.084   4.954   0.410
 3948TIP3   OH211849   0.628   3.063   3.097
 3948TIP3    H111850   0.575   3.114   3.036
 3948TIP3    H211851   0.707   3.115   3.109
 3949TIP3   OH211852   0.880   5.897   0.951
 3949TIP3    H111853   0.963   5.901   0.903
 3949TIP3    H211854   0.888   5.965   1.018
 3950TIP3   OH211855   6.334   4.688   5.142
 3950TIP3    H111856   6.385   4.734   5.075
 3950TIP3    H211857   6.265   4.749   5.166
 3951TIP3   OH211858   2.192   4.338   4.138
 3951TIP3    H111859   2.252   4.265   4.153
 3951TIP3    H211860   2.174   4.373   4.225
 3952TIP3   OH211861   6.327   2.736   4.629
 3952TIP3    H111862   6.325   2.817   4.681
 3952TIP3    H211863   6.299   2.668   4.689
 3953TIP3   OH211864   4.498   4.785   0.037
 3953TIP3    H111865   4.436   4.838   0.087
 3953TIP3    H211866   4.444   4.728  -0.017
 3954TIP3   OH211867   0.992   0.727   3.534
 3954TIP3    H111868   1.002   0.811   3.489
 3954TIP3    H211869   0.899   0.707   3.526
 3955TIP3   OH211870   2.978   5.742   3.223
 3955TIP3    H111871   2.983   5.720   3.316
 3955TIP3    H211872   2.987   5.837   3.219
 3956TIP3   OH211873   5.876   4.368   4.862
 3956TIP3    H111874   5.938   4.314   4.814
 3956TIP3    H211875   5.871   4.449   4.812
 3957TIP3   OH211876   2.354   5.761   2.628
 3957TIP3    H111877   2.446   5.786   2.637
 3957TIP3    H211878   2.347   5.679   2.676
 3958TIP3   OH211879   2.329   2.142   1.021
 3958TIP3    H111880   2.367   2.228   1.041
 3958TIP3    H211881   2.393   2.079   1.054
 3959TIP3   OH211882   3.167   1.745   3.522
 3959TIP3    H111883   3.248   1.694   3.521
 3959TIP3    H211884   3.189   1.824   3.571
 3960TIP3   OH211885   2.374   0.717   0.122
 3960TIP3    H111886   2.354   0.685   0.033
 3960TIP3    H211887   2.356   0.642   0.178
 3961TIP3   OH211888   2.715   5.381   1.457
 3961TIP3    H111889   2.754   5.351   1.375
 3961TIP3    H211890   2.776   5.352   1.525
 3962TIP3   OH211891   3.831   2.379   0.512
 3962TIP3    H111892   3.738   2.365   0.524
 3962TIP3    H211893   3.871   2.348   0.593
 3963TIP3   OH211894   0.570   1.508   4.512
 3963TIP3    H111895   0.488   1.557   4.508
 3963TIP3    H211896   0.574   1.475   4.602
 3964TIP3   OH211897   3.840   4.040   1.706
 3964TIP3    H111898   3.747   4.047   1.728
 3964TIP3    H211899   3.856   4.114   1.647
 3965TIP3   OH211900   5.924   3.225   1.043
 3965TIP3    H111901   5.886   3.177   1.116
 3965TIP3    H211902   5.856   3.287   1.017
 3966TIP3   OH211903   5.784   2.290   3.976
 3966TIP3    H111904   5.780   2.316   3.884
 3966TIP3    H211905   5.716   2.223   3.985
 3967TIP3   OH211906   3.635   2.845   3.503
 3967TIP3    H111907   3.588   2.859   3.421
 3967TIP3    H211908   3.714   2.797   3.477
 3968TIP3   OH211909   0.059   5.523   4.934
 3968TIP3    H111910   0.008   5.539   4.855
 3968TIP3    H211911   0.094   5.434   4.923
 3969TIP3   OH211912   5.536   3.937   3.696
 3969TIP3    H111913   5.469   3.868   3.698
 3969TIP3    H211914   5.565   3.945   3.786
 3970TIP3   OH211915   1.507   3.989   3.002
 3970TIP3    H111916   1.510   4.039   2.920
 3970TIP3    H211917   1.598   3.964   3.018
 3971TIP3   OH211918   4.519   0.421   0.477
 3971TIP3    H111919   4.510   0.517   0.473
 3971TIP3    H211920   4.430   0.390   0.492
 3972TIP3   OH211921   4.494   0.101   4.390
 3972TIP3    H111922   4.454   0.173   4.441
 3972TIP3    H211923   4.502   0.137   4.302
 3973TIP3   OH211924   3.821   1.087   2.326
 3973TIP3    H111925   3.799   1.175   2.297
 3973TIP3    H211926   3.841   1.097   2.419
 3974TIP3   OH211927   2.256   5.852   4.350
 3974TIP3    H111928   2.298   5.936   4.371
 3974TIP3    H211929   2.164   5.873   4.339
 3975TIP3   OH211930   3.301   4.715   4.617
 3975TIP3    H111931   3.375   4.770   4.643
 3975TIP3    H211932   3.273   4.750   4.533
 3976TIP3   OH211933   1.574   2.366   3.423
 3976TIP3    H111934   1.590   2.328   3.337
 3976TIP3    H211935   1.513   2.306   3.466
 3977TIP3   OH211936   1.743   1.896   0.215
 3977TIP3    H111937   1.719   1.819   0.164
 3977TIP3    H211938   1.776   1.861   0.298
 3978TIP3   OH211939   0.374   4.774   0.335
 3978TIP3    H111940   0.326   4.696   0.363
 3978TIP3    H211941   0.316   4.819   0.274
 3979TIP3   OH211942   3.490   1.755   2.145
 3979TIP3    H111943   3.412   1.786   2.190
 3979TIP3    H211944   3.499   1.815   2.070
 3980TIP3   OH211945   3.157   3.760   3.194
 3980TIP3    H111946   3.230   3.700   3.208
 3980TIP3    H211947   3.078   3.706   3.206
 3981TIP3   OH211948   1.137   3.561   5.078
 3981TIP3    H111949   1.204   3.493   5.075
 3981TIP3    H211950   1.185   3.643   5.062
 3982TIP3   OH211951   4.260   3.144   3.782
 3982TIP3    H111952   4.183   3.133   3.726
 3982TIP3    H211953   4.324   3.082   3.748
 3983TIP3   OH211954   3.413   5.776   3.102
 3983TIP3    H111955   3.403   5.865   3.068
 3983TIP3    H211956   3.327   5.736   3.089
 3984TIP3   OH211957   0.280   4.836   5.193
 3984TIP3    H111958   0.270   4.744   5.219
 3984TIP3    H211959   0.254   4.837   5.101
 3985TIP3   OH211960   3.364   5.510   2.828
 3985TIP3    H111961   3.288   5.563   2.851
 3985TIP3    H211962   3.438   5.571   2.834
 3986TIP3   OH211963   3.331   0.448   3.864
 3986TIP3    H111964   3.271   0.422   3.934
 3986TIP3    H211965   3.279   0.506   3.808
 3987TIP3   OH211966   1.587   4.290   3.834
 3987TIP3    H111967   1.651   4.361   3.837
 3987TIP3    H211968   1.507   4.327   3.870
 3988TIP3   OH211969   3.571   1.022   0.866
 3988TIP3    H111970   3.545   0.971   0.789
 3988TIP3    H211971   3.488   1.052   0.903
 3989TIP3   OH211972   5.271   1.072   1.573
 3989TIP3    H111973   5.217   1.007   1.618
 3989TIP3    H211974   5.210   1.119   1.516
 3990TIP3   OH211975   5.007   2.719   1.563
 3990TIP3    H111976   5.081   2.745   1.618
 3990TIP3    H211977   5.048   2.684   1.484
 3991TIP3   OH211978   5.607   1.603   0.433
 3991TIP3    H111979   5.554   1.624   0.510
 3991TIP3    H211980   5.612   1.507   0.433
 3992TIP3   OH211981   2.633   0.102   3.426
 3992TIP3    H111982   2.692   0.046   3.476
 3992TIP3    H211983   2.652   0.190   3.457
 3993TIP3   OH211984   0.911   4.107   3.710
 3993TIP3    H111985   0.976   4.053   3.665
 3993TIP3    H211986   0.919   4.193   3.670
 3994TIP3   OH211987   5.738   5.186   1.584
 3994TIP3    H111988   5.651   5.193   1.546
 3994TIP3    H211989   5.786   5.262   1.550
 3995TIP3   OH211990   2.183   2.968   0.201
 3995TIP3    H111991   2.206   2.878   0.226
 3995TIP3    H211992   2.127   2.999   0.272
 3996TIP3   OH211993   5.427   5.452   0.203
 3996TIP3    H111994   5.503   5.413   0.247
 3996TIP3    H211995   5.395   5.382   0.146
 3997TIP3   OH211996   5.983   3.235   3.251
 3997TIP3    H111997   5.963   3.146   3.221
 3997TIP3    H211998   6.025   3.223   3.336
 3998TIP3   OH211999   3.255   4.943   4.879
 3998TIP3    H112000   3.183   4.884   4.858
 3998TIP3    H212001   3.309   4.894   4.941
 3999TIP3   OH212002   4.128   0.204   3.971
 3999TIP3    H112003   4.202   0.217   3.912
 3999TIP3    H212004   4.077   0.134   3.931
 4000TIP3   OH212005   4.893   4.127   1.071
 4000TIP3    H112006   4.916   4.101   1.160
 4000TIP3    H212007   4.810   4.174   1.081
 4001TIP3   OH212008   0.288   3.381   4.980
 4001TIP3    H112009   0.218   3.416   5.035
 4001TIP3    H212010   0.246   3.311   4.930
 4002TIP3   OH212011   3.436   1.248   3.195
 4002TIP3    H112012   3.367   1.289   3.247
 4002TIP3    H212013   3.423   1.154   3.208
 4003TIP3   OH212014   2.706   1.054   3.551
 4003TIP3    H112015   2.782   1.014   3.508
 4003TIP3    H212016   2.698   1.140   3.509
 4004TIP3   OH212017   2.309   0.503   0.277
 4004TIP3    H112018   2.249   0.502   0.352
 4004TIP3    H212019   2.386   0.457   0.309
 4005TIP3   OH212020   4.838   5.421   1.193
 4005TIP3    H112021   4.900   5.383   1.256
 4005TIP3    H212022   4.782   5.348   1.167
 4006TIP3   OH212023   4.518   4.249   0.171
 4006TIP3    H112024   4.441   4.285   0.127
 4006TIP3    H212025   4.559   4.325   0.213
 4007TIP3   OH212026   0.116   4.380   0.174
 4007TIP3    H112027   0.151   4.300   0.214
 4007TIP3    H212028   0.023   4.361   0.161
 4008TIP3   OH212029   0.419   1.735   2.832
 4008TIP3    H112030   0.457   1.796   2.896
 4008TIP3    H212031   0.444   1.771   2.747
 4009TIP3   OH212032   6.180   5.397   5.080
 4009TIP3    H112033   6.199   5.491   5.083
 4009TIP3    H212034   6.262   5.355   5.109
 4010TIP3   OH212035   1.422   2.273   1.504
 4010TIP3    H112036   1.482   2.338   1.541
 4010TIP3    H212037   1.480   2.213   1.456
 4011TIP3   OH212038   5.994   3.497   4.330
 4011TIP3    H112039   5.921   3.444   4.297
 4011TIP3    H212040   6.037   3.530   4.251
 4012TIP3   OH212041   5.564   2.026   0.918
 4012TIP3    H112042   5.591   2.085   0.989
 4012TIP3    H212043   5.506   1.963   0.961
 4013TIP3   OH212044   6.116   2.478   0.918
 4013TIP3    H112045   6.097   2.489   1.011
 4013TIP3    H212046   6.160   2.559   0.892
 4014TIP3   OH212047   0.574   0.127   2.517
 4014TIP3    H112048   0.627   0.126   2.597
 4014TIP3    H212049   0.499   0.072   2.538
 4015TIP3   OH212050   5.476   5.118   1.584
 4015TIP3    H112051   5.480   5.039   1.531
 4015TIP3    H212052   5.437   5.183   1.526
 4016TIP3   OH212053   2.333   2.908   1.313
 4016TIP3    H112054   2.414   2.886   1.267
 4016TIP3    H212055   2.265   2.899   1.246
 4017TIP3   OH212056   1.427   3.711   3.393
 4017TIP3    H112057   1.506   3.733   3.344
 4017TIP3    H212058   1.356   3.715   3.329
 4018TIP3   OH212059   5.071   0.942   4.803
 4018TIP3    H112060   5.031   0.978   4.881
 4018TIP3    H212061   5.008   0.878   4.770
 4019TIP3   OH212062   3.784   2.282   2.087
 4019TIP3    H112063   3.767   2.367   2.045
 4019TIP3    H212064   3.840   2.304   2.162
 4020TIP3   OH212065   0.887   0.993   4.227
 4020TIP3    H112066   0.823   0.933   4.265
 4020TIP3    H212067   0.837   1.045   4.164
 4021TIP3   OH212068   4.238   1.515   2.854
 4021TIP3    H112069   4.239   1.575   2.779
 4021TIP3    H212070   4.279   1.435   2.821
 4022TIP3   OH212071   1.439   4.408   2.805
 4022TIP3    H112072   1.527   4.437   2.831
 4022TIP3    H212073   1.389   4.489   2.797
 4023TIP3   OH212074   5.334   5.143   4.517
 4023TIP3    H112075   5.364   5.226   4.555
 4023TIP3    H212076   5.241   5.156   4.500
 4024TIP3   OH212077   0.030   0.696   3.472
 4024TIP3    H112078   0.105   0.657   3.427
 4024TIP3    H212079  -0.021   0.736   3.402
 4025TIP3   OH212080   6.273   4.817   1.994
 4025TIP3    H112081   6.282   4.907   2.025
 4025TIP3    H212082   6.206   4.822   1.926
 4026TIP3   OH212083   6.312   5.023   2.494
 4026TIP3    H112084   6.236   4.986   2.450
 4026TIP3    H212085   6.385   5.008   2.434
 4027TIP3   OH212086   0.900   2.006   2.070
 4027TIP3    H112087   0.964   1.947   2.030
 4027TIP3    H212088   0.824   1.951   2.087
 4028TIP3   OH212089   1.899   2.355   0.054
 4028TIP3    H112090   1.851   2.282   0.094
 4028TIP3    H212091   1.831   2.417   0.027
 4029TIP3   OH212092   5.439   2.207   2.535
 4029TIP3    H112093   5.455   2.113   2.525
 4029TIP3    H212094   5.491   2.248   2.466
 4030TIP3   OH212095   3.893   3.020   0.055
 4030TIP3    H112096   3.803   3.052   0.045
 4030TIP3    H212097   3.939   3.055  -0.022
 4031TIP3   OH212098   0.625   0.518   2.211
 4031TIP3    H112099   0.655   0.508   2.121
 4031TIP3    H212100   0.698   0.558   2.256
 4032TIP3   OH212101   3.829   1.154   3.544
 4032TIP3    H112102   3.760   1.098   3.579
 4032TIP3    H212103   3.782   1.217   3.489
 4033TIP3   OH212104   2.064   0.400   4.978
 4033TIP3    H112105   2.085   0.462   5.048
 4033TIP3    H212106   2.149   0.370   4.946
 4034TIP3   OH212107   3.033   2.752   1.516
 4034TIP3    H112108   3.014   2.778   1.606
 4034TIP3    H212109   2.955   2.705   1.487
 4035TIP3   OH212110   4.674   0.706   0.383
 4035TIP3    H112111   4.654   0.696   0.477
 4035TIP3    H212112   4.721   0.625   0.360
 4036TIP3   OH212113   3.478   4.577   2.111
 4036TIP3    H112114   3.526   4.524   2.175
 4036TIP3    H212115   3.386   4.568   2.137
 4037TIP3   OH212116   0.958   4.700   4.236
 4037TIP3    H112117   1.007   4.636   4.184
 4037TIP3    H212118   1.004   4.703   4.320
 4038TIP3   OH212119   1.167   4.596   5.176
 4038TIP3    H112120   1.125   4.678   5.148
 4038TIP3    H212121   1.253   4.622   5.208
 4039TIP3   OH212122   4.621   2.517   1.148
 4039TIP3    H112123   4.629   2.511   1.053
 4039TIP3    H212124   4.566   2.442   1.173
 4040TIP3   OH212125   5.788   0.528   3.555
 4040TIP3    H112126   5.716   0.577   3.595
 4040TIP3    H212127   5.791   0.560   3.465
 4041TIP3   OH212128   1.995   4.700   0.227
 4041TIP3    H112129   1.960   4.780   0.266
 4041TIP3    H212130   1.925   4.667   0.171
 4042TIP3   OH212131   2.521   4.773   5.139
 4042TIP3    H112132   2.577   4.721   5.083
 4042TIP3    H212133   2.581   4.826   5.191
 4043TIP3   OH212134   2.790   0.906   3.766
 4043TIP3    H112135   2.728   0.969   3.728
 4043TIP3    H212136   2.876   0.939   3.740
 4044TIP3   OH212137   3.655   2.446   4.074
 4044TIP3    H112138   3.649   2.539   4.095
 4044TIP3    H212139   3.745   2.433   4.044
 4045TIP3   OH212140   5.239   4.650   1.726
 4045TIP3    H112141   5.218   4.742   1.710
 4045TIP3    H212142   5.165   4.601   1.690
 4046TIP3   OH212143   2.827   0.272   3.093
 4046TIP3    H112144   2.753   0.212   3.104
 4046TIP3    H212145   2.894   0.239   3.152
 4047TIP3   OH212146   2.069   0.733   1.268
 4047TIP3    H112147   2.115   0.816   1.256
 4047TIP3    H212148   2.070   0.692   1.182
 4048TIP3   OH212149   1.036   4.954   4.602
 4048TIP3    H112150   0.959   4.911   4.563
 4048TIP3    H212151   1.064   4.893   4.670
 4049TIP3   OH212152   2.933   4.663   1.489
 4049TIP3    H112153   2.908   4.755   1.498
 4049TIP3    H212154   2.979   4.643   1.570
 4050TIP3   OH212155   1.147   0.355   2.007
 4050TIP3    H112156   1.151   0.442   1.968
 4050TIP3    H212157   1.123   0.297   1.935
 4051TIP3   OH212158   3.256   5.238   5.028
 4051TIP3    H112159   3.272   5.172   4.961
 4051TIP3    H212160   3.336   5.240   5.080
 4052TIP3   OH212161   4.722   4.784   0.438
 4052TIP3    H112162   4.710   4.705   0.490
 4052TIP3    H212163   4.634   4.821   0.430
 4053TIP3   OH212164   6.218   2.727   1.397
 4053TIP3    H112165   6.265   2.804   1.366
 4053TIP3    H212166   6.151   2.761   1.456
 4054TIP3   OH212167   3.036   4.955   0.503
 4054TIP3    H112168   2.993   4.870   0.497
 4054TIP3    H212169   3.128   4.937   0.482
 4055TIP3   OH212170   5.483   0.789   2.126
 4055TIP3    H112171   5.396   0.830   2.120
 4055TIP3    H212172   5.540   0.846   2.075
 4056TIP3   OH212173   2.146  -0.024   0.102
 4056TIP3    H112174   2.183   0.020   0.178
 4056TIP3    H212175   2.094   0.043   0.057
 4057TIP3   OH212176   0.581   4.581   4.746
 4057TIP3    H112177   0.603   4.517   4.678
 4057TIP3    H212178   0.494   4.555   4.776
 4058TIP3   OH212179   2.809   5.747   4.216
 4058TIP3    H112180   2.728   5.788   4.246
 4058TIP3    H212181   2.812   5.765   4.122
 4059TIP3   OH212182   5.932   5.044   1.943
 4059TIP3    H112183   5.989   5.009   1.873
 4059TIP3    H212184   5.846   5.006   1.924
 4060TIP3   OH212185   4.403   3.344   1.871
 4060TIP3    H112186   4.461   3.274   1.901
 4060TIP3    H212187   4.389   3.326   1.778
 4061TIP3   OH212188   5.450   2.731   0.716
 4061TIP3    H112189   5.537   2.749   0.753
 4061TIP3    H212190   5.392   2.725   0.792
 4062TIP3   OH212191   3.729   0.969   2.087
 4062TIP3    H112192   3.765   1.001   2.170
 4062TIP3    H212193   3.690   1.047   2.047
 4063TIP3   OH212194   4.410   5.812   4.245
 4063TIP3    H112195   4.402   5.720   4.218
 4063TIP3    H212196   4.383   5.862   4.168
 4064TIP3   OH212197   5.603   0.848   2.718
 4064TIP3    H112198   5.619   0.769   2.666
 4064TIP3    H212199   5.631   0.824   2.806
 4065TIP3   OH212200   3.754   5.488   2.639
 4065TIP3    H112201   3.698   5.566   2.642
 4065TIP3    H212202   3.709   5.425   2.695
 4066TIP3   OH212203   4.329   3.329   0.131
 4066TIP3    H112204   4.250   3.346   0.080
 4066TIP3    H212205   4.331   3.234   0.142
 4067TIP3   OH212206   3.151   4.313   3.784
 4067TIP3    H112207   3.084   4.315   3.852
 4067TIP3    H212208   3.212   4.244   3.811
 4068TIP3   OH212209   0.336   1.324   0.510
 4068TIP3    H112210   0.409   1.387   0.509
 4068TIP3    H212211   0.362   1.256   0.448
 4069TIP3   OH212212   2.290   2.060   2.161
 4069TIP3    H112213   2.314   2.039   2.251
 4069TIP3    H212214   2.195   2.053   2.159
 4070TIP3   OH212215   5.499   4.455   1.459
 4070TIP3    H112216   5.551   4.477   1.537
 4070TIP3    H212217   5.559   4.466   1.386
 4071TIP3   OH212218   5.163   5.525   4.013
 4071TIP3    H112219   5.130   5.611   4.037
 4071TIP3    H212220   5.239   5.511   4.069
 4072TIP3   OH212221   1.808   5.051   2.182
 4072TIP3    H112222   1.868   5.099   2.124
 4072TIP3    H212223   1.824   5.088   2.269
 4073TIP3   OH212224   2.345   2.974   5.099
 4073TIP3    H112225   2.378   3.034   5.033
 4073TIP3    H212226   2.369   3.015   5.183
 4074TIP3   OH212227   0.947   2.128   0.927
 4074TIP3    H112228   1.024   2.177   0.957
 4074TIP3    H212229   0.980   2.076   0.853
 4075TIP3   OH212230   0.864   5.431   0.196
 4075TIP3    H112231   0.856   5.504   0.134
 4075TIP3    H212232   0.878   5.474   0.280
 4076TIP3   OH212233   5.230   1.526   4.121
 4076TIP3    H112234   5.188   1.479   4.194
 4076TIP3    H212235   5.296   1.464   4.089
 4077TIP3   OH212236   2.565   4.845   1.175
 4077TIP3    H112237   2.480   4.803   1.164
 4077TIP3    H212238   2.626   4.785   1.132
 4078TIP3   OH212239   1.117   2.545   1.200
 4078TIP3    H112240   1.172   2.596   1.140
 4078TIP3    H212241   1.054   2.608   1.235
 4079TIP3   OH212242   5.872   0.851   5.162
 4079TIP3    H112243   5.891   0.758   5.170
 4079TIP3    H212244   5.783   0.861   5.195
 4080TIP3   OH212245   1.644   1.777   1.541
 4080TIP3    H112246   1.631   1.701   1.598
 4080TIP3    H212247   1.635   1.743   1.452
 4081TIP3   OH212248   1.337   5.381   2.543
 4081TIP3    H112249   1.313   5.375   2.636
 4081TIP3    H212250   1.415   5.327   2.535
 4082TIP3   OH212251   4.288   3.406   3.722
 4082TIP3    H112252   4.332   3.469   3.780
 4082TIP3    H212253   4.308   3.321   3.760
 4083TIP3   OH212254   6.207   2.950   2.626
 4083TIP3    H112255   6.284   3.006   2.613
 4083TIP3    H212256   6.135   3.012   2.640
 4084TIP3   OH212257   5.624   2.915   0.897
 4084TIP3    H112258   5.708   2.893   0.857
 4084TIP3    H212259   5.616   3.009   0.884
 4085TIP3   OH212260   0.846   3.608   1.394
 4085TIP3    H112261   0.859   3.573   1.482
 4085TIP3    H212262   0.812   3.534   1.344
 4086TIP3   OH212263   1.578   3.541   3.560
 4086TIP3    H112264   1.670   3.560   3.541
 4086TIP3    H212265   1.530   3.601   3.503
 4087TIP3   OH212266   4.050   1.379   4.911
 4087TIP3    H112267   4.128   1.433   4.921
 4087TIP3    H212268   4.082   1.297   4.872
 4088TIP3   OH212269   3.607   3.045   4.973
 4088TIP3    H112270   3.521   3.084   4.957
 4088TIP3    H212271   3.664   3.082   4.906
 4089TIP3   OH212272   5.179   0.198   0.806
 4089TIP3    H112273   5.202   0.252   0.731
 4089TIP3    H212274   5.095   0.232   0.836
 4090TIP3   OH212275   1.752   4.769   0.505
 4090TIP3    H112276   1.745   4.806   0.593
 4090TIP3    H212277   1.815   4.825   0.460
 4091TIP3   OH212278   4.109   0.161   0.205
 4091TIP3    H112279   4.121   0.126   0.116
 4091TIP3    H212280   4.025   0.206   0.202
 4092TIP3   OH212281   0.713   5.760   0.798
 4092TIP3    H112282   0.638   5.818   0.785
 4092TIP3    H212283   0.762   5.800   0.869
 4093TIP3   OH212284   5.108   0.276   1.265
 4093TIP3    H112285   5.127   0.363   1.300
 4093TIP3    H212286   5.071   0.228   1.339
 4094TIP3   OH212287   2.731   0.111   1.974
 4094TIP3    H112288   2.650   0.121   2.025
 4094TIP3    H212289   2.800   0.104   2.040
 4095TIP3   OH212290   4.627   0.157   4.998
 4095TIP3    H112291   4.639   0.223   5.065
 4095TIP3    H212292   4.575   0.201   4.930
 4096TIP3   OH212293   3.447   4.177   0.663
 4096TIP3    H112294   3.413   4.266   0.649
 4096TIP3    H212295   3.481   4.151   0.577
 4097TIP3   OH212296   6.268   1.418   1.584
 4097TIP3    H112297   6.319   1.482   1.535
 4097TIP3    H212298   6.234   1.466   1.660
 4098TIP3   OH212299   4.175   4.055   3.890
 4098TIP3    H112300   4.172   4.093   3.803
 4098TIP3    H212301   4.268   4.034   3.904
 4099TIP3   OH212302   2.765   0.810   4.545
 4099TIP3    H112303   2.836   0.748   4.562
 4099TIP3    H212304   2.690   0.774   4.593
 4100TIP3   OH212305   3.742   3.765   3.567
 4100TIP3    H112306   3.719   3.782   3.475
 4100TIP3    H212307   3.833   3.735   3.564
 4101TIP3   OH212308   5.009   2.597   2.936
 4101TIP3    H112309   5.044   2.521   2.888
 4101TIP3    H212310   5.040   2.672   2.886
 4102TIP3   OH212311   4.205   0.943   1.602
 4102TIP3    H112312   4.179   0.852   1.585
 4102TIP3    H212313   4.136   0.978   1.657
 4103TIP3   OH212314   6.177   1.505   0.061
 4103TIP3    H112315   6.150   1.530   0.149
 4103TIP3    H212316   6.273   1.503   0.065
 4104TIP3   OH212317   2.987   4.048   2.241
 4104TIP3    H112318   3.050   4.100   2.190
 4104TIP3    H212319   2.903   4.091   2.226
 4105TIP3   OH212320   2.775   4.341   0.288
 4105TIP3    H112321   2.684   4.316   0.270
 4105TIP3    H212322   2.801   4.391   0.210
 4106TIP3   OH212323   2.797   3.738   1.631
 4106TIP3    H112324   2.808   3.697   1.545
 4106TIP3    H212325   2.748   3.819   1.614
 4107TIP3   OH212326   2.047   0.297   1.345
 4107TIP3    H112327   2.109   0.345   1.290
 4107TIP3    H212328   1.979   0.361   1.364
 4108TIP3   OH212329   0.250   1.659   2.049
 4108TIP3    H112330   0.288   1.633   2.133
 4108TIP3    H212331   0.222   1.749   2.063
 4109TIP3   OH212332   1.891   1.850   2.415
 4109TIP3    H112333   1.944   1.783   2.459
 4109TIP3    H212334   1.919   1.844   2.323
 4110TIP3   OH212335   5.277   3.262   4.122
 4110TIP3    H112336   5.349   3.203   4.144
 4110TIP3    H212337   5.282   3.271   4.027
 4111TIP3   OH212338   1.875   2.877   2.563
 4111TIP3    H112339   1.847   2.803   2.615
 4111TIP3    H212340   1.915   2.838   2.485
 4112TIP3   OH212341   2.268   0.737   3.953
 4112TIP3    H112342   2.356   0.761   3.923
 4112TIP3    H212343   2.248   0.799   4.022
 4113TIP3   OH212344   2.121   1.934   4.884
 4113TIP3    H112345   2.203   1.971   4.918
 4113TIP3    H212346   2.147   1.890   4.803
 4114TIP3   OH212347   0.298   1.826   4.335
 4114TIP3    H112348   0.383   1.820   4.291
 4114TIP3    H212349   0.262   1.910   4.308
 4115TIP3   OH212350   3.257   2.316   2.476
 4115TIP3    H112351   3.214   2.402   2.472
 4115TIP3    H212352   3.192   2.259   2.517
 4116TIP3   OH212353   1.603   3.765   1.360
 4116TIP3    H112354   1.521   3.814   1.349
 4116TIP3    H212355   1.602   3.701   1.289
 4117TIP3   OH212356   0.797   4.530   2.149
 4117TIP3    H112357   0.732   4.573   2.093
 4117TIP3    H212358   0.855   4.601   2.177
 4118TIP3   OH212359   0.372   2.717   3.275
 4118TIP3    H112360   0.411   2.785   3.330
 4118TIP3    H212361   0.364   2.641   3.332
 4119TIP3   OH212362   1.897   5.677   1.263
 4119TIP3    H112363   1.952   5.691   1.340
 4119TIP3    H212364   1.958   5.652   1.194
 4120TIP3   OH212365   1.688   4.716   1.888
 4120TIP3    H112366   1.717   4.752   1.972
 4120TIP3    H212367   1.769   4.707   1.837
 4121TIP3   OH212368   2.579   3.139   2.840
 4121TIP3    H112369   2.556   3.199   2.912
 4121TIP3    H212370   2.567   3.052   2.877
 4122TIP3   OH212371   2.510   2.694   3.883
 4122TIP3    H112372   2.470   2.630   3.824
 4122TIP3    H212373   2.547   2.640   3.953
 4123TIP3   OH212374   0.200   1.773   3.840
 4123TIP3    H112375   0.149   1.723   3.777
 4123TIP3    H212376   0.185   1.730   3.923
 4124TIP3   OH212377   5.727   4.021   2.592
 4124TIP3    H112378   5.672   4.018   2.670
 4124TIP3    H212379   5.766   4.109   2.593
 4125TIP3   OH212380   4.806   2.365   0.651
 4125TIP3    H112381   4.876   2.427   0.632
 4125TIP3    H212382   4.745   2.414   0.707
 4126TIP3   OH212383   4.408   0.963   2.271
 4126TIP3    H112384   4.448   1.037   2.317
 4126TIP3    H212385   4.464   0.949   2.195
 4127TIP3   OH212386   6.219   4.963   1.072
 4127TIP3    H112387   6.223   5.007   1.157
 4127TIP3    H212388   6.241   5.031   1.009
 4128TIP3   OH212389   3.729   3.858   2.815
 4128TIP3    H112390   3.763   3.789   2.758
 4128TIP3    H212391   3.790   3.860   2.889
 4129TIP3   OH212392   3.904   4.873   2.698
 4129TIP3    H112393   3.959   4.843   2.625
 4129TIP3    H212394   3.823   4.823   2.689
 4130TIP3   OH212395   4.447   3.902   2.102
 4130TIP3    H112396   4.434   3.996   2.115
 4130TIP3    H212397   4.541   3.893   2.086
 4131TIP3   OH212398   3.844   1.793   2.375
 4131TIP3    H112399   3.912   1.846   2.332
 4131TIP3    H212400   3.892   1.735   2.433
 4132TIP3   OH212401   4.450   2.819   2.373
 4132TIP3    H112402   4.416   2.734   2.345
 4132TIP3    H212403   4.512   2.798   2.443
 4133TIP3   OH212404   3.402   4.514   1.026
 4133TIP3    H112405   3.369   4.484   0.941
 4133TIP3    H212406   3.337   4.577   1.056
 4134TIP3   OH212407   2.588   3.789   0.852
 4134TIP3    H112408   2.623   3.754   0.770
 4134TIP3    H212409   2.511   3.735   0.871
 4135TIP3   OH212410   0.077   0.812   4.655
 4135TIP3    H112411   0.160   0.765   4.652
 4135TIP3    H212412   0.100   0.903   4.667
 4136TIP3   OH212413   0.844   1.603   4.512
 4136TIP3    H112414   0.860   1.573   4.601
 4136TIP3    H212415   0.751   1.586   4.497
 4137TIP3   OH212416   2.177   0.353   4.089
 4137TIP3    H112417   2.144   0.274   4.045
 4137TIP3    H212418   2.176   0.330   4.182
 4138TIP3   OH212419   3.059   4.474   0.605
 4138TIP3    H112420   3.023   4.396   0.563
 4138TIP3    H212421   3.013   4.547   0.565
 4139TIP3   OH212422   4.495   1.740   3.874
 4139TIP3    H112423   4.422   1.802   3.882
 4139TIP3    H212424   4.530   1.732   3.963
 4140TIP3   OH212425   5.810   1.652   0.651
 4140TIP3    H112426   5.728   1.634   0.605
 4140TIP3    H212427   5.826   1.574   0.705
 4141TIP3   OH212428   2.036   5.482   2.942
 4141TIP3    H112429   2.045   5.463   3.036
 4141TIP3    H212430   2.076   5.568   2.931
 4142TIP3   OH212431   4.430   3.806   4.965
 4142TIP3    H112432   4.516   3.798   4.923
 4142TIP3    H212433   4.434   3.887   5.014
 4143TIP3   OH212434   5.105   2.157   4.291
 4143TIP3    H112435   5.012   2.133   4.293
 4143TIP3    H212436   5.111   2.233   4.349
 4144TIP3   OH212437   3.567   2.605   0.998
 4144TIP3    H112438   3.529   2.544   0.934
 4144TIP3    H212439   3.616   2.668   0.945
 4145TIP3   OH212440   2.223   3.512   3.652
 4145TIP3    H112441   2.182   3.487   3.735
 4145TIP3    H212442   2.180   3.456   3.587
 4146TIP3   OH212443   4.378   4.103   3.139
 4146TIP3    H112444   4.333   4.020   3.123
 4146TIP3    H212445   4.422   4.123   3.056
 4147TIP3   OH212446   1.513   3.451   4.377
 4147TIP3    H112447   1.608   3.449   4.373
 4147TIP3    H212448   1.489   3.539   4.347
 4148TIP3   OH212449   4.296   4.960   3.952
 4148TIP3    H112450   4.204   4.945   3.929
 4148TIP3    H212451   4.303   5.055   3.963
 4149TIP3   OH212452   4.301   1.549   4.933
 4149TIP3    H112453   4.273   1.641   4.927
 4149TIP3    H212454   4.361   1.537   4.859
 4150TIP3   OH212455   2.706   5.276   2.042
 4150TIP3    H112456   2.751   5.212   1.986
 4150TIP3    H212457   2.620   5.236   2.059
 4151TIP3   OH212458   4.145   1.392   0.208
 4151TIP3    H112459   4.217   1.455   0.203
 4151TIP3    H212460   4.138   1.371   0.301
 4152TIP3   OH212461   3.448   3.759   2.908
 4152TIP3    H112462   3.408   3.844   2.925
 4152TIP3    H212463   3.493   3.769   2.824
 4153TIP3   OH212464   5.996   4.890   0.944
 4153TIP3    H112465   6.072   4.925   0.991
 4153TIP3    H212466   6.015   4.796   0.935
 4154TIP3   OH212467   2.532   1.945   3.066
 4154TIP3    H112468   2.555   1.877   3.004
 4154TIP3    H212469   2.610   2.001   3.071
 4155TIP3   OH212470   0.265   5.667   3.738
 4155TIP3    H112471   0.254   5.683   3.831
 4155TIP3    H212472   0.329   5.596   3.733
 4156TIP3   OH212473   0.502   1.882   1.485
 4156TIP3    H112474   0.571   1.849   1.428
 4156TIP3    H212475   0.438   1.811   1.489
 4157TIP3   OH212476   1.064   1.067   2.868
 4157TIP3    H112477   1.043   1.160   2.880
 4157TIP3    H212478   0.996   1.034   2.809
 4158TIP3   OH212479   0.878   3.620   5.146
 4158TIP3    H112480   0.974   3.611   5.139
 4158TIP3    H212481   0.857   3.694   5.090
 4159TIP3   OH212482   2.543   0.169   1.235
 4159TIP3    H112483   2.567   0.131   1.150
 4159TIP3    H212484   2.450   0.149   1.245
 4160TIP3   OH212485   1.134   4.668   2.582
 4160TIP3    H112486   1.215   4.702   2.621
 4160TIP3    H212487   1.065   4.722   2.621
 4161TIP3   OH212488   1.199   4.315   1.892
 4161TIP3    H112489   1.230   4.242   1.945
 4161TIP3    H212490   1.160   4.375   1.954
 4162TIP3   OH212491   0.604   1.429   0.071
 4162TIP3    H112492   0.534   1.447   0.133
 4162TIP3    H212493   0.684   1.425   0.125
 4163TIP3   OH212494   1.027   2.270   1.303
 4163TIP3    H112495   0.943   2.288   1.344
 4163TIP3    H212496   1.063   2.357   1.283
 4164TIP3   OH212497   0.253   0.108   4.749
 4164TIP3    H112498   0.256   0.017   4.779
 4164TIP3    H212499   0.335   0.147   4.780
 4165TIP3   OH212500   5.356   4.229   1.411
 4165TIP3    H112501   5.416   4.155   1.409
 4165TIP3    H212502   5.403   4.296   1.461
 4166TIP3   OH212503   0.974   4.550   0.480
 4166TIP3    H112504   0.951   4.636   0.446
 4166TIP3    H212505   0.942   4.488   0.415
 4167TIP3   OH212506   3.257   0.626   3.668
 4167TIP3    H112507   3.331   0.626   3.606
 4167TIP3    H212508   3.199   0.695   3.635
 4168TIP3   OH212509   3.323   3.703   4.165
 4168TIP3    H112510   3.228   3.698   4.151
 4168TIP3    H212511   3.341   3.641   4.235
 4169TIP3   OH212512   0.162   3.418   4.173
 4169TIP3    H112513   0.082   3.387   4.131
 4169TIP3    H212514   0.142   3.417   4.267
 4170TIP3   OH212515   1.971   4.309   0.264
 4170TIP3    H112516   2.027   4.306   0.186
 4170TIP3    H212517   1.984   4.397   0.300
 4171TIP3   OH212518   2.367   1.779   4.398
 4171TIP3    H112519   2.434   1.792   4.465
 4171TIP3    H212520   2.357   1.684   4.391
 4172TIP3   OH212521   0.481   1.039   3.976
 4172TIP3    H112522   0.446   1.044   4.065
 4172TIP3    H212523   0.573   1.064   3.986
 4173TIP3   OH212524   4.543   2.161   1.503
 4173TIP3    H112525   4.593   2.234   1.540
 4173TIP3    H212526   4.455   2.171   1.539
 4174TIP3   OH212527   2.269   2.679   3.071
 4174TIP3    H112528   2.201   2.692   3.005
 4174TIP3    H212529   2.237   2.728   3.148
 4175TIP3   OH212530   1.887   1.586   4.140
 4175TIP3    H112531   1.801   1.548   4.121
 4175TIP3    H212532   1.908   1.554   4.227
 4176TIP3   OH212533   1.148   1.463   4.026
 4176TIP3    H112534   1.129   1.373   4.051
 4176TIP3    H212535   1.241   1.474   4.046
 4177TIP3   OH212536   3.091   3.037   0.643
 4177TIP3    H112537   3.055   2.952   0.617
 4177TIP3    H212538   3.014   3.088   0.670
 4178TIP3   OH212539   1.515   0.221   0.167
 4178TIP3    H112540   1.510   0.137   0.212
 4178TIP3    H212541   1.426   0.255   0.170
 4179TIP3   OH212542   5.913   0.199   0.682
 4179TIP3    H112543   5.974   0.172   0.613
 4179TIP3    H212544   5.942   0.152   0.760
 4180TIP3   OH212545   4.560   3.488   0.061
 4180TIP3    H112546   4.606   3.456   0.139
 4180TIP3    H212547   4.483   3.431   0.054
 4181TIP3   OH212548   1.734   4.438   2.522
 4181TIP3    H112549   1.645   4.441   2.487
 4181TIP3    H212550   1.782   4.505   2.473
 4182TIP3   OH212551   1.834   3.498   3.444
 4182TIP3    H112552   1.889   3.448   3.504
 4182TIP3    H212553   1.853   3.590   3.465
 4183TIP3   OH212554   4.410   3.127   2.408
 4183TIP3    H112555   4.318   3.108   2.428
 4183TIP3    H212556   4.448   3.042   2.387
 4184TIP3   OH212557   2.083   3.859   1.253
 4184TIP3    H112558   2.038   3.930   1.298
 4184TIP3    H212559   2.048   3.861   1.164
 4185TIP3   OH212560   5.571   3.481   1.091
 4185TIP3    H112561   5.563   3.386   1.095
 4185TIP3    H212562   5.481   3.514   1.103
 4186TIP3   OH212563   0.954   1.358   0.531
 4186TIP3    H112564   0.909   1.433   0.569
 4186TIP3    H212565   0.916   1.282   0.574
 4187TIP3   OH212566   1.721   2.075   3.551
 4187TIP3    H112567   1.778   2.047   3.480
 4187TIP3    H212568   1.657   2.133   3.509
 4188TIP3   OH212569   5.268   4.441   4.906
 4188TIP3    H112570   5.249   4.524   4.950
 4188TIP3    H212571   5.283   4.465   4.814
 4189TIP3   OH212572   3.648   0.360   3.480
 4189TIP3    H112573   3.631   0.371   3.573
 4189TIP3    H212574   3.678   0.269   3.472
 4190TIP3   OH212575   0.788   0.756   2.118
 4190TIP3    H112576   0.870   0.771   2.165
 4190TIP3    H212577   0.762   0.843   2.088
 4191TIP3   OH212578   2.737   4.682   4.687
 4191TIP3    H112579   2.795   4.613   4.719
 4191TIP3    H212580   2.735   4.670   4.592
 4192TIP3   OH212581   2.507   3.808   4.442
 4192TIP3    H112582   2.554   3.725   4.434
 4192TIP3    H212583   2.570   3.873   4.412
 4193TIP3   OH212584   0.188   2.828   2.862
 4193TIP3    H112585   0.234   2.752   2.896
 4193TIP3    H212586   0.099   2.798   2.846
 4194TIP3   OH212587   5.666   3.165   0.564
 4194TIP3    H112588   5.731   3.218   0.518
 4194TIP3    H212589   5.659   3.084   0.513
 4195TIP3   OH212590   1.778   0.417   0.374
 4195TIP3    H112591   1.825   0.337   0.351
 4195TIP3    H212592   1.746   0.450   0.290
 4196TIP3   OH212593   3.017   1.141   4.015
 4196TIP3    H112594   3.096   1.092   4.039
 4196TIP3    H212595   2.979   1.167   4.098
 4197TIP3   OH212596   6.147   2.917   2.999
 4197TIP3    H112597   6.193   2.880   2.923
 4197TIP3    H212598   6.178   2.864   3.073
 4198TIP3   OH212599   3.919   0.876   4.528
 4198TIP3    H112600   3.936   0.936   4.455
 4198TIP3    H212601   3.834   0.836   4.507
 4199TIP3   OH212602   4.811   5.360   4.001
 4199TIP3    H112603   4.880   5.345   3.936
 4199TIP3    H212604   4.782   5.273   4.026
 4200TIP3   OH212605   6.213   0.486   0.437
 4200TIP3    H112606   6.135   0.489   0.493
 4200TIP3    H212607   6.178   0.478   0.349
 4201TIP3   OH212608   2.257   4.759   3.545
 4201TIP3    H112609   2.213   4.838   3.516
 4201TIP3    H212610   2.202   4.687   3.512
 4202TIP3   OH212611   3.476   4.573   2.491
 4202TIP3    H112612   3.528   4.523   2.428
 4202TIP3    H212613   3.430   4.639   2.438
 4203TIP3   OH212614   6.331   3.239   4.945
 4203TIP3    H112615   6.292   3.152   4.943
 4203TIP3    H212616   6.259   3.296   4.972
 4204TIP3   OH212617   4.622   0.911   1.764
 4204TIP3    H112618   4.715   0.920   1.742
 4204TIP3    H212619   4.616   0.826   1.808
 4205TIP3   OH212620   2.782   1.584   4.961
 4205TIP3    H112621   2.790   1.673   4.994
 4205TIP3    H212622   2.855   1.575   4.899
 4206TIP3   OH212623   6.189   4.336   0.150
 4206TIP3    H112624   6.155   4.269   0.091
 4206TIP3    H212625   6.111   4.376   0.188
 4207TIP3   OH212626   1.353   3.241   4.413
 4207TIP3    H112627   1.364   3.183   4.337
 4207TIP3    H212628   1.422   3.307   4.402
 4208TIP3   OH212629   1.116   3.809   4.750
 4208TIP3    H112630   1.071   3.725   4.753
 4208TIP3    H212631   1.075   3.856   4.678
 4209TIP3   OH212632   6.323   4.280   2.697
 4209TIP3    H112633   6.389   4.338   2.734
 4209TIP3    H212634   6.246   4.335   2.684
 4210TIP3   OH212635   4.640   4.912   4.279
 4210TIP3    H112636   4.614   5.001   4.306
 4210TIP3    H212637   4.565   4.879   4.230
 4211TIP3   OH212638   1.213   5.361   1.709
 4211TIP3    H112639   1.210   5.402   1.795
 4211TIP3    H212640   1.270   5.417   1.657
 4212TIP3   OH212641   2.283   1.235   2.749
 4212TIP3    H112642   2.205   1.201   2.793
 4212TIP3    H212643   2.287   1.187   2.666
 4213TIP3   OH212644   5.912   0.866   4.875
 4213TIP3    H112645   5.891   0.862   4.968
 4213TIP3    H212646   5.828   0.852   4.831
 4214TIP3   OH212647   5.433   1.329   3.520
 4214TIP3    H112648   5.430   1.249   3.572
 4214TIP3    H212649   5.462   1.397   3.581
 4215TIP3   OH212650   2.596   3.337   3.048
 4215TIP3    H112651   2.657   3.307   3.116
 4215TIP3    H212652   2.579   3.428   3.071
 4216TIP3   OH212653   3.509   3.562   1.940
 4216TIP3    H112654   3.464   3.564   1.855
 4216TIP3    H212655   3.586   3.619   1.928
 4217TIP3   OH212656   5.760   1.919   0.716
 4217TIP3    H112657   5.717   1.936   0.800
 4217TIP3    H212658   5.792   1.829   0.724
 4218TIP3   OH212659   1.101   2.213   2.916
 4218TIP3    H112660   1.195   2.197   2.929
 4218TIP3    H212661   1.094   2.308   2.908
 4219TIP3   OH212662   4.684   2.872   3.351
 4219TIP3    H112663   4.664   2.963   3.331
 4219TIP3    H212664   4.616   2.845   3.413
 4220TIP3   OH212665   6.046   0.348   4.610
 4220TIP3    H112666   6.104   0.279   4.578
 4220TIP3    H212667   5.988   0.368   4.537
 4221TIP3   OH212668   2.788   3.660   0.651
 4221TIP3    H112669   2.767   3.570   0.677
 4221TIP3    H212670   2.873   3.677   0.692
 4222TIP3   OH212671   6.073   1.209   3.928
 4222TIP3    H112672   6.064   1.150   4.003
 4222TIP3    H212673   5.991   1.200   3.880
 4223TIP3   OH212674   2.762   2.057   2.004
 4223TIP3    H112675   2.781   1.964   2.009
 4223TIP3    H212676   2.751   2.085   2.095
 4224TIP3   OH212677   6.307   5.396   1.069
 4224TIP3    H112678   6.323   5.393   1.163
 4224TIP3    H212679   6.392   5.413   1.030
 4225TIP3   OH212680   4.302   0.642   0.665
 4225TIP3    H112681   4.223   0.613   0.710
 4225TIP3    H212682   4.374   0.607   0.717
 4226TIP3   OH212683   1.658   3.143   1.270
 4226TIP3    H112684   1.633   3.079   1.336
 4226TIP3    H212685   1.752   3.128   1.255
 4227TIP3   OH212686   4.704   1.216   4.718
 4227TIP3    H112687   4.714   1.295   4.665
 4227TIP3    H212688   4.664   1.152   4.659
 4228TIP3   OH212689   3.563   0.482   1.608
 4228TIP3    H112690   3.575   0.563   1.658
 4228TIP3    H212691   3.638   0.427   1.632
 4229TIP3   OH212692   0.489   0.464   4.907
 4229TIP3    H112693   0.422   0.473   4.975
 4229TIP3    H212694   0.478   0.375   4.874
 4230TIP3   OH212695   6.287   5.309   2.055
 4230TIP3    H112696   6.363   5.264   2.018
 4230TIP3    H212697   6.223   5.240   2.070
 4231TIP3   OH212698   1.117   5.626   2.116
 4231TIP3    H112699   1.107   5.721   2.121
 4231TIP3    H212700   1.097   5.596   2.205
 4232TIP3   OH212701   5.598   3.311   3.887
 4232TIP3    H112702   5.683   3.355   3.886
 4232TIP3    H212703   5.600   3.258   3.966
 4233TIP3   OH212704   3.897   0.451   4.972
 4233TIP3    H112705   3.954   0.425   5.045
 4233TIP3    H212706   3.911   0.384   4.906
 4234TIP3   OH212707   1.247   2.077   1.255
 4234TIP3    H112708   1.331   2.096   1.296
 4234TIP3    H212709   1.189   2.147   1.285
 4235TIP3   OH212710   1.472   1.437   3.695
 4235TIP3    H112711   1.449   1.510   3.752
 4235TIP3    H212712   1.547   1.469   3.644
 4236TIP3   OH212713   2.137   1.617   4.558
 4236TIP3    H112714   2.046   1.616   4.527
 4236TIP3    H212715   2.138   1.558   4.633
 4237TIP3   OH212716   4.947   1.535   3.939
 4237TIP3    H112717   4.983   1.522   4.027
 4237TIP3    H212718   4.947   1.448   3.899
 4238TIP3   OH212719   2.307   2.892   3.368
 4238TIP3    H112720   2.371   2.823   3.387
 4238TIP3    H212721   2.277   2.921   3.454
 4239TIP3   OH212722   4.859   1.487   2.826
 4239TIP3    H112723   4.769   1.502   2.798
 4239TIP3    H212724   4.906   1.567   2.802
 4240TIP3   OH212725   1.490   0.280   1.556
 4240TIP3    H112726   1.575   0.323   1.566
 4240TIP3    H212727   1.431   0.328   1.614
 4241TIP3   OH212728   0.692   2.739   2.122
 4241TIP3    H112729   0.701   2.644   2.110
 4241TIP3    H212730   0.657   2.748   2.211
 4242TIP3   OH212731   1.889   3.993   5.120
 4242TIP3    H112732   1.795   3.989   5.104
 4242TIP3    H212733   1.897   4.018   5.212
 4243TIP3   OH212734   5.881   0.405   1.506
 4243TIP3    H112735   5.911   0.476   1.450
 4243TIP3    H212736   5.959   0.352   1.522
 4244TIP3   OH212737   4.357   5.111   2.170
 4244TIP3    H112738   4.334   5.162   2.248
 4244TIP3    H212739   4.389   5.176   2.108
 4245TIP3   OH212740   4.349   1.397   3.394
 4245TIP3    H112741   4.354   1.492   3.400
 4245TIP3    H212742   4.295   1.380   3.317
 4246TIP3   OH212743   5.016   0.984   0.309
 4246TIP3    H112744   5.008   0.928   0.386
 4246TIP3    H212745   4.997   0.926   0.235
 4247TIP3   OH212746   1.669   5.660   2.685
 4247TIP3    H112747   1.758   5.649   2.653
 4247TIP3    H212748   1.614   5.660   2.607
 4248TIP3   OH212749   2.370   0.218   0.048
 4248TIP3    H112750   2.450   0.268   0.067
 4248TIP3    H212751   2.358   0.162   0.125
 4249TIP3   OH212752   4.797   6.020   2.811
 4249TIP3    H112753   4.717   6.041   2.859
 4249TIP3    H212754   4.850   5.970   2.873
 4250TIP3   OH212755   2.712   0.307   0.934
 4250TIP3    H112756   2.654   0.309   0.857
 4250TIP3    H212757   2.718   0.214   0.956
 4251TIP3   OH212758   5.409   3.282   1.941
 4251TIP3    H112759   5.413   3.236   2.025
 4251TIP3    H212760   5.495   3.266   1.901
 4252TIP3   OH212761   3.326   2.045   1.751
 4252TIP3    H112762   3.335   1.978   1.820
 4252TIP3    H212763   3.242   2.025   1.709
 4253TIP3   OH212764   0.024   3.268   3.125
 4253TIP3    H112765  -0.044   3.290   3.062
 4253TIP3    H212766   0.079   3.345   3.131
 4254TIP3   OH212767   2.084   3.146   3.858
 4254TIP3    H112768   2.028   3.211   3.901
 4254TIP3    H212769   2.035   3.122   3.779
 4255TIP3   OH212770   2.831   6.043   5.045
 4255TIP3    H112771   2.826   5.981   4.971
 4255TIP3    H212772   2.885   5.999   5.109
 4256TIP3   OH212773   2.126   3.746   4.175
 4256TIP3    H112774   2.143   3.691   4.252
 4256TIP3    H212775   2.097   3.830   4.212
 4257TIP3   OH212776   3.104   1.764   4.142
 4257TIP3    H112777   3.172   1.804   4.197
 4257TIP3    H212778   3.153   1.714   4.077
 4258TIP3   OH212779   3.157   4.257   1.519
 4258TIP3    H112780   3.066   4.271   1.492
 4258TIP3    H212781   3.170   4.162   1.513
 4259TIP3   OH212782   3.250   1.343   3.377
 4259TIP3    H112783   3.173   1.400   3.381
 4259TIP3    H212784   3.315   1.386   3.433
 4260TIP3   OH212785   2.404   3.128   4.824
 4260TIP3    H112786   2.330   3.068   4.833
 4260TIP3    H212787   2.366   3.204   4.779
 4261TIP3   OH212788   0.667   3.766   4.248
 4261TIP3    H112789   0.743   3.714   4.274
 4261TIP3    H212790   0.652   3.742   4.156
 4262TIP3   OH212791   1.098   0.798   1.264
 4262TIP3    H112792   1.124   0.734   1.198
 4262TIP3    H212793   1.021   0.841   1.226
 4263TIP3   OH212794   4.533   4.137   2.908
 4263TIP3    H112795   4.556   4.045   2.923
 4263TIP3    H212796   4.556   4.153   2.817
 4264TIP3   OH212797   5.829   4.290   0.730
 4264TIP3    H112798   5.757   4.236   0.698
 4264TIP3    H212799   5.907   4.241   0.709
 4265TIP3   OH212800   4.660   4.952   3.780
 4265TIP3    H112801   4.702   4.979   3.861
 4265TIP3    H212802   4.731   4.947   3.716
 4266TIP3   OH212803   1.274   2.899   1.749
 4266TIP3    H112804   1.222   2.975   1.775
 4266TIP3    H212805   1.210   2.829   1.738
 4267TIP3   OH212806   4.773   4.105   2.369
 4267TIP3    H112807   4.864   4.107   2.340
 4267TIP3    H212808   4.755   4.195   2.399
 4268TIP3   OH212809   5.218   4.697   3.732
 4268TIP3    H112810   5.276   4.666   3.801
 4268TIP3    H212811   5.254   4.661   3.651
 4269TIP3   OH212812   3.277   1.833   4.349
 4269TIP3    H112813   3.323   1.749   4.348
 4269TIP3    H212814   3.338   1.894   4.389
 4270TIP3   OH212815   6.226   1.805   4.101
 4270TIP3    H112816   6.140   1.803   4.142
 4270TIP3    H212817   6.208   1.825   4.009
 4271TIP3   OH212818   1.027   2.154   3.541
 4271TIP3    H112819   0.963   2.223   3.558
 4271TIP3    H212820   1.020   2.138   3.446
 4272TIP3   OH212821   4.396   4.305   0.559
 4272TIP3    H112822   4.387   4.376   0.496
 4272TIP3    H212823   4.306   4.280   0.581
 4273TIP3   OH212824   5.873   4.214   4.049
 4273TIP3    H112825   5.859   4.283   4.114
 4273TIP3    H212826   5.793   4.214   3.997
 4274TIP3   OH212827   0.288   3.912   2.468
 4274TIP3    H112828   0.252   3.987   2.419
 4274TIP3    H212829   0.319   3.853   2.400
 4275TIP3   OH212830   1.187   0.125   3.294
 4275TIP3    H112831   1.118   0.192   3.292
 4275TIP3    H212832   1.225   0.132   3.381
 4276TIP3   OH212833   1.798   4.586   4.709
 4276TIP3    H112834   1.775   4.677   4.727
 4276TIP3    H212835   1.852   4.560   4.783
 4277TIP3   OH212836   4.662   1.660   1.656
 4277TIP3    H112837   4.571   1.647   1.681
 4277TIP3    H212838   4.673   1.755   1.651
 4278TIP3   OH212839   1.003   5.760   1.846
 4278TIP3    H112840   1.023   5.806   1.927
 4278TIP3    H212841   1.006   5.667   1.869
 4279TIP3   OH212842   2.382   5.041   0.232
 4279TIP3    H112843   2.361   5.043   0.139
 4279TIP3    H212844   2.472   5.009   0.235
 4280TIP3   OH212845   5.734   0.525   0.661
 4280TIP3    H112846   5.805   0.509   0.598
 4280TIP3    H212847   5.705   0.437   0.686
 4281TIP3   OH212848   1.080   0.948   2.547
 4281TIP3    H112849   1.097   1.004   2.471
 4281TIP3    H212850   1.078   0.859   2.511
 4282TIP3   OH212851   1.949   3.112   2.230
 4282TIP3    H112852   1.977   3.129   2.320
 4282TIP3    H212853   1.856   3.091   2.237
 4283TIP3   OH212854   2.911   0.161   0.331
 4283TIP3    H112855   2.927   0.141   0.239
 4283TIP3    H212856   2.833   0.109   0.354
 4284TIP3   OH212857   0.417   4.976   2.558
 4284TIP3    H112858   0.349   5.040   2.579
 4284TIP3    H212859   0.371   4.891   2.560
 4285TIP3   OH212860   3.177   2.171   4.262
 4285TIP3    H112861   3.169   2.155   4.168
 4285TIP3    H212862   3.157   2.087   4.303
 4286TIP3   OH212863   4.689   0.658   0.983
 4286TIP3    H112864   4.695   0.752   1.001
 4286TIP3    H212865   4.612   0.629   1.032
 4287TIP3   OH212866   5.376   4.776   1.073
 4287TIP3    H112867   5.309   4.739   1.015
 4287TIP3    H212868   5.430   4.702   1.098
 4288TIP3   OH212869   4.550   5.641   0.237
 4288TIP3    H112870   4.578   5.650   0.146
 4288TIP3    H212871   4.606   5.572   0.272
 4289TIP3   OH212872   3.825   0.384   1.949
 4289TIP3    H112873   3.733   0.357   1.939
 4289TIP3    H212874   3.869   0.346   1.873
 4290TIP3   OH212875   3.523   1.865   3.049
 4290TIP3    H112876   3.497   1.914   3.127
 4290TIP3    H212877   3.503   1.774   3.071
 4291TIP3   OH212878   3.156   2.178   3.275
 4291TIP3    H112879   3.127   2.249   3.218
 4291TIP3    H212880   3.098   2.184   3.352
 4292TIP3   OH212881   5.143   1.690   2.230
 4292TIP3    H112882   5.211   1.633   2.195
 4292TIP3    H212883   5.139   1.763   2.168
 4293TIP3   OH212884   0.374   2.798   0.667
 4293TIP3    H112885   0.342   2.728   0.610
 4293TIP3    H212886   0.467   2.807   0.644
 4294TIP3   OH212887   2.360   2.674   4.468
 4294TIP3    H112888   2.309   2.685   4.549
 4294TIP3    H212889   2.345   2.755   4.419
 4295TIP3   OH212890   0.887   0.880   0.300
 4295TIP3    H112891   0.939   0.869   0.379
 4295TIP3    H212892   0.796   0.874   0.330
 4296TIP3   OH212893   2.174   5.733   1.444
 4296TIP3    H112894   2.256   5.757   1.402
 4296TIP3    H212895   2.200   5.688   1.524
 4297TIP3   OH212896   4.058   3.844   0.664
 4297TIP3    H112897   4.122   3.905   0.702
 4297TIP3    H212898   4.111   3.773   0.628
 4298TIP3   OH212899   5.266   1.684   4.405
 4298TIP3    H112900   5.288   1.739   4.480
 4298TIP3    H212901   5.216   1.741   4.346
 4299TIP3   OH212902   0.433   4.308   3.096
 4299TIP3    H112903   0.516   4.350   3.075
 4299TIP3    H212904   0.407   4.346   3.179
 4300TIP3   OH212905   5.810   4.056   1.972
 4300TIP3    H112906   5.810   4.116   1.898
 4300TIP3    H212907   5.824   4.112   2.049
 4301TIP3   OH212908   6.112   3.432   2.267
 4301TIP3    H112909   6.187   3.424   2.208
 4301TIP3    H212910   6.136   3.379   2.343
 4302TIP3   OH212911   0.240   0.351   0.292
 4302TIP3    H112912   0.309   0.389   0.346
 4302TIP3    H212913   0.167   0.338   0.351
 4303TIP3   OH212914   3.550   5.938   1.443
 4303TIP3    H112915   3.639   5.916   1.471
 4303TIP3    H212916   3.524   6.009   1.502
 4304TIP3   OH212917   5.380   1.849   4.596
 4304TIP3    H112918   5.342   1.812   4.676
 4304TIP3    H212919   5.436   1.920   4.627
 4305TIP3   OH212920   4.194   4.097   1.786
 4305TIP3    H112921   4.229   4.023   1.735
 4305TIP3    H212922   4.116   4.124   1.737
 4306TIP3   OH212923   6.258   6.007   0.470
 4306TIP3    H112924   6.197   5.955   0.523
 4306TIP3    H212925   6.317   5.942   0.431
 4307TIP3   OH212926   4.295   5.380   2.078
 4307TIP3    H112927   4.365   5.442   2.056
 4307TIP3    H212928   4.250   5.365   1.995
 4308TIP3   OH212929   3.234   3.338   3.093
 4308TIP3    H112930   3.174   3.331   3.018
 4308TIP3    H212931   3.258   3.247   3.112
 4309TIP3   OH212932   3.151   5.926   0.794
 4309TIP3    H112933   3.106   6.010   0.797
 4309TIP3    H212934   3.091   5.865   0.838
 4310TIP3   OH212935   2.234   0.543   1.428
 4310TIP3    H112936   2.171   0.579   1.366
 4310TIP3    H212937   2.267   0.619   1.476
 4311TIP3   OH212938   5.121   5.085   0.221
 4311TIP3    H112939   5.056   5.147   0.255
 4311TIP3    H212940   5.109   5.006   0.273
 4312TIP3   OH212941   4.397   2.792   5.109
 4312TIP3    H112942   4.481   2.805   5.154
 4312TIP3    H212943   4.335   2.843   5.160
 4313TIP3   OH212944   3.338   4.247   1.754
 4313TIP3    H112945   3.276   4.187   1.796
 4313TIP3    H212946   3.305   4.257   1.665
 4314TIP3   OH212947   2.319   5.388   3.485
 4314TIP3    H112948   2.409   5.369   3.515
 4314TIP3    H212949   2.267   5.390   3.566
 4315TIP3   OH212950   3.710   4.036   0.078
 4315TIP3    H112951   3.715   3.942   0.059
 4315TIP3    H212952   3.617   4.054   0.089
 4316TIP3   OH212953   6.370   4.718   1.488
 4316TIP3    H112954   6.369   4.810   1.514
 4316TIP3    H212955   6.300   4.677   1.539
 4317TIP3   OH212956   3.260   0.416   0.572
 4317TIP3    H112957   3.289   0.352   0.507
 4317TIP3    H212958   3.206   0.365   0.633
 4318TIP3   OH212959   4.947   5.300   0.588
 4318TIP3    H112960   4.898   5.283   0.507
 4318TIP3    H212961   4.891   5.360   0.638
 4319TIP3   OH212962   2.292   4.433   3.708
 4319TIP3    H112963   2.232   4.438   3.634
 4319TIP3    H212964   2.247   4.477   3.779
 4320TIP3   OH212965   3.633   1.704   3.814
 4320TIP3    H112966   3.675   1.749   3.888
 4320TIP3    H212967   3.558   1.758   3.792
 4321TIP3   OH212968   2.486   2.524   0.130
 4321TIP3    H112969   2.507   2.587   0.061
 4321TIP3    H212970   2.572   2.495   0.162
 4322TIP3   OH212971   1.610   4.512   1.616
 4322TIP3    H112972   1.637   4.600   1.588
 4322TIP3    H212973   1.684   4.456   1.593
 4323TIP3   OH212974   2.937   2.823   0.570
 4323TIP3    H112975   2.925   2.737   0.530
 4323TIP3    H212976   2.855   2.841   0.615
 4324TIP3   OH212977   3.030   4.762   4.842
 4324TIP3    H112978   2.990   4.738   4.926
 4324TIP3    H212979   3.017   4.685   4.786
 4325TIP3   OH212980   0.061   0.435   1.036
 4325TIP3    H112981   0.014   0.422   0.954
 4325TIP3    H212982   0.010   0.499   1.084
 4326TIP3   OH212983   5.948   3.944   1.230
 4326TIP3    H112984   5.986   3.923   1.315
 4326TIP3    H212985   5.938   3.859   1.186
 4327TIP3   OH212986   3.471   3.398   0.783
 4327TIP3    H112987   3.535   3.366   0.720
 4327TIP3    H212988   3.475   3.493   0.776
 4328TIP3   OH212989   0.258   0.870   1.272
 4328TIP3    H112990   0.297   0.879   1.359
 4328TIP3    H212991   0.267   0.777   1.251
 4329TIP3   OH212992   2.855   5.938   1.383
 4329TIP3    H112993   2.881   5.982   1.464
 4329TIP3    H212994   2.759   5.941   1.384
 4330TIP3   OH212995   2.557   0.633   1.966
 4330TIP3    H112996   2.592   0.697   2.028
 4330TIP3    H212997   2.502   0.576   2.019
 4331TIP3   OH212998   1.094   0.614   1.066
 4331TIP3    H112999   1.138   0.545   1.116
 4331TIP3    H213000   1.110   0.591   0.974
 4332TIP3   OH213001   5.190   5.371   2.442
 4332TIP3    H113002   5.134   5.396   2.369
 4332TIP3    H213003   5.210   5.453   2.487
 4333TIP3   OH213004   0.746   4.534   0.701
 4333TIP3    H113005   0.662   4.489   0.702
 4333TIP3    H213006   0.747   4.580   0.617
 4334TIP3   OH213007   2.702   2.915   0.664
 4334TIP3    H113008   2.657   2.940   0.583
 4334TIP3    H213009   2.649   2.844   0.700
 4335TIP3   OH213010   5.166   4.983   2.871
 4335TIP3    H113011   5.197   5.062   2.827
 4335TIP3    H213012   5.178   4.914   2.806
 4336TIP3   OH213013   0.013   1.807   0.330
 4336TIP3    H113014   0.080   1.875   0.332
 4336TIP3    H213015  -0.044   1.831   0.257
 4337TIP3   OH213016   5.372   3.392   3.055
 4337TIP3    H113017   5.311   3.446   3.004
 4337TIP3    H213018   5.413   3.454   3.115
 4338TIP3   OH213019   1.030   1.276   3.155
 4338TIP3    H113020   0.943   1.312   3.173
 4338TIP3    H213021   1.068   1.336   3.091
 4339TIP3   OH213022   2.515   0.214   4.098
 4339TIP3    H113023   2.518   0.159   4.020
 4339TIP3    H213024   2.503   0.303   4.065
 4340TIP3   OH213025   4.994   4.589   4.782
 4340TIP3    H113026   5.021   4.671   4.822
 4340TIP3    H213027   4.900   4.600   4.767
 4341TIP3   OH213028   2.890   1.053   1.002
 4341TIP3    H113029   2.802   1.082   1.026
 4341TIP3    H213030   2.925   1.125   0.949
 4342TIP3   OH213031   0.910   1.793   0.963
 4342TIP3    H113032   0.923   1.852   0.889
 4342TIP3    H213033   0.897   1.851   1.038
 4343TIP3   OH213034   5.842   4.355   4.274
 4343TIP3    H113035   5.775   4.292   4.301
 4343TIP3    H213036   5.825   4.433   4.326
 4344TIP3   OH213037   2.458   0.935   1.165
 4344TIP3    H113038   2.478   0.874   1.093
 4344TIP3    H213039   2.364   0.924   1.179
 4345TIP3   OH213040   6.225   2.524   3.899
 4345TIP3    H113041   6.169   2.452   3.929
 4345TIP3    H213042   6.216   2.523   3.803
 4346TIP3   OH213043   0.818   5.107   4.925
 4346TIP3    H113044   0.874   5.058   4.865
 4346TIP3    H213045   0.865   5.190   4.939
 4347TIP3   OH213046   3.166  -0.007   5.115
 4347TIP3    H113047   3.238   0.048   5.086
 4347TIP3    H213048   3.184  -0.024   5.207
 4348TIP3   OH213049   5.648   0.942   3.934
 4348TIP3    H113050   5.628   0.976   4.021
 4348TIP3    H213051   5.639   1.017   3.876
 4349TIP3   OH213052   4.143   2.107   4.545
 4349TIP3    H113053   4.067   2.165   4.554
 4349TIP3    H213054   4.218   2.166   4.543
 4350TIP3   OH213055   3.886   2.094   3.339
 4350TIP3    H113056   3.937   2.161   3.292
 4350TIP3    H213057   3.795   2.119   3.324
 4351TIP3   OH213058   0.592   4.006   0.164
 4351TIP3    H113059   0.538   3.999   0.242
 4351TIP3    H213060   0.642   4.087   0.176
 4352TIP3   OH213061   0.855   3.028   1.392
 4352TIP3    H113062   0.769   3.031   1.351
 4352TIP3    H213063   0.841   2.985   1.477
 4353TIP3   OH213064   4.303   1.438   3.956
 4353TIP3    H113065   4.356   1.471   4.028
 4353TIP3    H213066   4.321   1.344   3.954
 4354TIP3   OH213067   0.332   1.148   0.751
 4354TIP3    H113068   0.315   1.091   0.676
 4354TIP3    H213069   0.381   1.222   0.714
 4355TIP3   OH213070   5.942   2.295   4.345
 4355TIP3    H113071   5.895   2.377   4.360
 4355TIP3    H213072   6.028   2.323   4.313
 4356TIP3   OH213073   4.491   3.445   1.538
 4356TIP3    H113074   4.528   3.362   1.567
 4356TIP3    H213075   4.529   3.511   1.597
 4357TIP3   OH213076   6.105   4.685   1.252
 4357TIP3    H113077   6.129   4.677   1.159
 4357TIP3    H213078   6.186   4.714   1.295
 4358TIP3   OH213079   2.386   0.532   3.095
 4358TIP3    H113080   2.470   0.506   3.057
 4358TIP3    H213081   2.351   0.452   3.134
 4359TIP3   OH213082   0.500   0.239   0.596
 4359TIP3    H113083   0.575   0.207   0.645
 4359TIP3    H213084   0.431   0.176   0.614
 4360TIP3   OH213085   0.844   4.326   3.535
 4360TIP3    H113086   0.919   4.379   3.508
 4360TIP3    H213087   0.820   4.276   3.457
 4361TIP3   OH213088   1.089   4.121   2.597
 4361TIP3    H113089   1.151   4.194   2.607
 4361TIP3    H213090   1.129   4.066   2.530
 4362TIP3   OH213091   1.522   2.820   2.730
 4362TIP3    H113092   1.503   2.741   2.678
 4362TIP3    H213093   1.505   2.892   2.670
 4363TIP3   OH213094   3.113   0.653   0.165
 4363TIP3    H113095   3.162   0.735   0.154
 4363TIP3    H213096   3.150   0.613   0.244
 4364TIP3   OH213097   1.560   5.278   2.846
 4364TIP3    H113098   1.640   5.300   2.894
 4364TIP3    H213099   1.584   5.283   2.754
 4365TIP3   OH213100   6.074   2.561   5.001
 4365TIP3    H113101   6.163   2.580   5.029
 4365TIP3    H213102   6.052   2.478   5.044
 4366TIP3   OH213103   2.703   1.289   0.709
 4366TIP3    H113104   2.665   1.358   0.763
 4366TIP3    H213105   2.703   1.325   0.620
 4367TIP3   OH213106   4.400   4.105   2.630
 4367TIP3    H113107   4.473   4.048   2.605
 4367TIP3    H213108   4.377   4.077   2.718
 4368TIP3   OH213109   0.216   1.358   1.498
 4368TIP3    H113110   0.127   1.323   1.489
 4368TIP3    H213111   0.240   1.341   1.589
 4369TIP3   OH213112   3.253   0.851   0.597
 4369TIP3    H113113   3.216   0.901   0.669
 4369TIP3    H213114   3.347   0.853   0.612
 4370TIP3   OH213115   2.870   5.958   0.617
 4370TIP3    H113116   2.957   5.999   0.617
 4370TIP3    H213117   2.879   5.883   0.676
 4371TIP3   OH213118   2.180   2.188   5.080
 4371TIP3    H113119   2.256   2.131   5.070
 4371TIP3    H213120   2.126   2.171   5.002
 4372TIP3   OH213121   4.370   0.632   0.377
 4372TIP3    H113122   4.340   0.635   0.468
 4372TIP3    H213123   4.340   0.715   0.340
 4373TIP3   OH213124   0.846   0.395   4.738
 4373TIP3    H113125   0.803   0.403   4.823
 4373TIP3    H213126   0.874   0.304   4.734
 4374TIP3   OH213127   2.050   5.325   0.860
 4374TIP3    H113128   2.011   5.242   0.834
 4374TIP3    H213129   2.092   5.358   0.781
 4375TIP3   OH213130   5.487   5.760   3.714
 4375TIP3    H113131   5.479   5.794   3.803
 4375TIP3    H213132   5.448   5.828   3.659
 4376TIP3   OH213133   4.910   2.334   4.835
 4376TIP3    H113134   4.918   2.287   4.918
 4376TIP3    H213135   5.000   2.357   4.811
 4377TIP3   OH213136   0.781   2.929   3.636
 4377TIP3    H113137   0.802   2.882   3.555
 4377TIP3    H213138   0.740   3.010   3.606
 4378TIP3   OH213139   1.620   4.563   0.379
 4378TIP3    H113140   1.625   4.497   0.448
 4378TIP3    H213141   1.661   4.640   0.417
 4379TIP3   OH213142   5.484   3.978   0.575
 4379TIP3    H113143   5.559   3.947   0.626
 4379TIP3    H213144   5.430   3.900   0.560
 4380TIP3   OH213145   2.155   3.163   4.316
 4380TIP3    H113146   2.075   3.125   4.279
 4380TIP3    H213147   2.225   3.134   4.258
 4381TIP3   OH213148   0.124   1.219   3.569
 4381TIP3    H113149   0.057   1.203   3.503
 4381TIP3    H213150   0.206   1.222   3.519
 4382TIP3   OH213151   5.091   4.838   3.340
 4382TIP3    H113152   5.112   4.930   3.351
 4382TIP3    H213153   5.072   4.829   3.247
 4383TIP3   OH213154   3.450   2.252   4.926
 4383TIP3    H113155   3.472   2.301   5.005
 4383TIP3    H213156   3.509   2.176   4.928
 4384TIP3   OH213157   0.705   3.687   1.994
 4384TIP3    H113158   0.659   3.657   2.073
 4384TIP3    H213159   0.695   3.616   1.931
 4385TIP3   OH213160   6.259   5.031   4.184
 4385TIP3    H113161   6.305   5.056   4.264
 4385TIP3    H213162   6.314   4.963   4.145
 4386TIP3   OH213163   6.189   0.059   0.172
 4386TIP3    H113164   6.120   0.126   0.164
 4386TIP3    H213165   6.205   0.031   0.081
 4387TIP3   OH213166   0.172   5.736   1.762
 4387TIP3    H113167   0.086   5.774   1.775
 4387TIP3    H213168   0.203   5.773   1.679
 4388TIP3   OH213169   5.709   3.225   3.047
 4388TIP3    H113170   5.763   3.299   3.019
 4388TIP3    H213171   5.704   3.235   3.142
 4389TIP3   OH213172   2.411   0.379   0.835
 4389TIP3    H113173   2.347   0.449   0.847
 4389TIP3    H213174   2.483   0.421   0.788
 4390TIP3   OH213175   2.168   1.205   1.712
 4390TIP3    H113176   2.080   1.215   1.749
 4390TIP3    H213177   2.209   1.136   1.764
 4391TIP3   OH213178   3.670   5.402   4.341
 4391TIP3    H113179   3.670   5.308   4.359
 4391TIP3    H213180   3.642   5.409   4.249
 4392TIP3   OH213181   2.301   0.792   3.650
 4392TIP3    H113182   2.347   0.862   3.604
 4392TIP3    H213183   2.359   0.770   3.724
 4393TIP3   OH213184   5.942   5.112   3.599
 4393TIP3    H113185   6.036   5.122   3.582
 4393TIP3    H213186   5.922   5.022   3.571
 4394TIP3   OH213187   3.166   0.170   0.387
 4394TIP3    H113188   3.181   0.076   0.379
 4394TIP3    H213189   3.073   0.181   0.370
 4395TIP3   OH213190   3.158   5.488   1.110
 4395TIP3    H113191   3.159   5.577   1.077
 4395TIP3    H213192   3.066   5.461   1.105
 4396TIP3   OH213193   1.050   3.445   1.900
 4396TIP3    H113194   1.009   3.427   1.984
 4396TIP3    H213195   1.047   3.541   1.891
 4397TIP3   OH213196   5.148   1.141   2.093
 4397TIP3    H113197   5.202   1.094   2.030
 4397TIP3    H213198   5.153   1.088   2.173
 4398TIP3   OH213199   2.951   2.403   3.105
 4398TIP3    H113200   2.907   2.488   3.102
 4398TIP3    H213201   3.044   2.424   3.105
 4399TIP3   OH213202   2.301   2.664   1.421
 4399TIP3    H113203   2.358   2.741   1.414
 4399TIP3    H213204   2.258   2.659   1.336
 4400TIP3   OH213205   2.218   3.713   3.276
 4400TIP3    H113206   2.179   3.741   3.359
 4400TIP3    H213207   2.287   3.776   3.259
 4401TIP3   OH213208   5.861   1.562   3.944
 4401TIP3    H113209   5.826   1.649   3.963
 4401TIP3    H213210   5.791   1.502   3.966
 4402TIP3   OH213211   4.543   4.781   5.092
 4402TIP3    H113212   4.554   4.783   5.187
 4402TIP3    H213213   4.587   4.861   5.061
 4403TIP3   OH213214   4.643   5.956   5.130
 4403TIP3    H113215   4.701   5.976   5.203
 4403TIP3    H213216   4.578   6.027   5.131
 4404TIP3   OH213217   3.698   2.299   2.617
 4404TIP3    H113218   3.742   2.253   2.688
 4404TIP3    H213219   3.724   2.253   2.538
 4405TIP3   OH213220   2.102   2.636   2.635
 4405TIP3    H113221   2.064   2.582   2.704
 4405TIP3    H213222   2.142   2.710   2.682
 4406TIP3   OH213223   0.817   3.324   4.369
 4406TIP3    H113224   0.722   3.315   4.378
 4406TIP3    H213225   0.831   3.333   4.275
 4407TIP3   OH213226   3.659   5.924   1.901
 4407TIP3    H113227   3.632   5.835   1.923
 4407TIP3    H213228   3.753   5.916   1.883
 4408TIP3   OH213229   0.626   2.857   2.369
 4408TIP3    H113230   0.659   2.825   2.452
 4408TIP3    H213231   0.673   2.939   2.354
 4409TIP3   OH213232   2.130   0.628   1.042
 4409TIP3    H113233   2.072   0.660   0.972
 4409TIP3    H213234   2.125   0.533   1.034
 4410TIP3   OH213235   1.833   2.883   3.427
 4410TIP3    H113236   1.912   2.935   3.438
 4410TIP3    H213237   1.837   2.817   3.496
 4411TIP3   OH213238   0.761   3.840   1.288
 4411TIP3    H113239   0.717   3.878   1.364
 4411TIP3    H213240   0.796   3.756   1.320
 4412TIP3   OH213241   3.426   2.056   3.219
 4412TIP3    H113242   3.349   2.100   3.254
 4412TIP3    H213243   3.472   2.123   3.169
 4413TIP3   OH213244   0.523   2.109   4.129
 4413TIP3    H113245   0.511   2.014   4.117
 4413TIP3    H213246   0.562   2.117   4.216
 4414TIP3   OH213247   5.792   2.299   1.232
 4414TIP3    H113248   5.842   2.222   1.204
 4414TIP3    H213249   5.700   2.272   1.220
 4415TIP3   OH213250   3.077   2.720   4.687
 4415TIP3    H113251   2.993   2.734   4.643
 4415TIP3    H213252   3.120   2.805   4.684
 4416TIP3   OH213253   3.077   4.532   0.187
 4416TIP3    H113254   3.007   4.555   0.125
 4416TIP3    H213255   3.083   4.437   0.182
 4417TIP3   OH213256   4.782   2.338   2.669
 4417TIP3    H113257   4.751   2.272   2.731
 4417TIP3    H213258   4.707   2.355   2.612
 4418TIP3   OH213259   1.149   1.223   3.701
 4418TIP3    H113260   1.234   1.214   3.659
 4418TIP3    H213261   1.126   1.134   3.728
 4419TIP3   OH213262   3.892   3.279   1.107
 4419TIP3    H113263   3.925   3.347   1.165
 4419TIP3    H213264   3.816   3.243   1.153
 4420TIP3   OH213265   0.722   0.659   3.602
 4420TIP3    H113266   0.646   0.607   3.575
 4420TIP3    H213267   0.698   0.692   3.689
 4421TIP3   OH213268   0.685   5.767   0.134
 4421TIP3    H113269   0.681   5.686   0.083
 4421TIP3    H213270   0.653   5.743   0.221
 4422TIP3   OH213271   2.162   0.371   0.525
 4422TIP3    H113272   2.167   0.451   0.576
 4422TIP3    H213273   2.238   0.319   0.553
 4423TIP3   OH213274   0.284   1.535   3.674
 4423TIP3    H113275   0.335   1.614   3.691
 4423TIP3    H213276   0.341   1.480   3.620
 4424TIP3   OH213277   2.220   1.200   4.781
 4424TIP3    H113278   2.210   1.228   4.690
 4424TIP3    H213279   2.167   1.121   4.788
 4425TIP3   OH213280   4.481   4.148   1.906
 4425TIP3    H113281   4.485   4.073   1.847
 4425TIP3    H213282   4.568   4.153   1.944
 4426TIP3   OH213283   0.712   5.558   5.086
 4426TIP3    H113284   0.751   5.645   5.090
 4426TIP3    H213285   0.758   5.507   5.152
 4427TIP3   OH213286   0.967   4.870   2.685
 4427TIP3    H113287   0.942   4.881   2.777
 4427TIP3    H213288   0.893   4.905   2.636
 4428TIP3   OH213289   3.689   1.617   0.743
 4428TIP3    H113290   3.767   1.578   0.703
 4428TIP3    H213291   3.721   1.659   0.823
 4429TIP3   OH213292   4.693   5.365   0.921
 4429TIP3    H113293   4.768   5.425   0.920
 4429TIP3    H213294   4.731   5.279   0.908
 4430TIP3   OH213295   4.180   1.678   3.479
 4430TIP3    H113296   4.125   1.752   3.453
 4430TIP3    H213297   4.261   1.717   3.511
 4431TIP3   OH213298   3.273   2.044   0.702
 4431TIP3    H113299   3.199   2.009   0.652
 4431TIP3    H213300   3.234   2.074   0.784
 4432TIP3   OH213301   5.696   3.262   1.768
 4432TIP3    H113302   5.699   3.340   1.713
 4432TIP3    H213303   5.674   3.191   1.708
 4433TIP3   OH213304   1.668   3.112   5.164
 4433TIP3    H113305   1.714   3.160   5.233
 4433TIP3    H213306   1.664   3.173   5.090
 4434TIP3   OH213307   0.828   1.713   3.686
 4434TIP3    H113308   0.860   1.682   3.770
 4434TIP3    H213309   0.740   1.676   3.678
 4435TIP3   OH213310   3.227   1.405   1.266
 4435TIP3    H113311   3.219   1.497   1.292
 4435TIP3    H213312   3.138   1.371   1.273
 4436TIP3   OH213313   0.333   3.098   3.716
 4436TIP3    H113314   0.409   3.051   3.750
 4436TIP3    H213315   0.300   3.148   3.791
 4437TIP3   OH213316   1.071   3.467   3.360
 4437TIP3    H113317   1.147   3.409   3.372
 4437TIP3    H213318   0.996   3.413   3.382
 4438TIP3   OH213319   1.638   2.433   0.566
 4438TIP3    H113320   1.701   2.444   0.637
 4438TIP3    H213321   1.552   2.439   0.608
 4439TIP3   OH213322   3.273   0.235   5.032
 4439TIP3    H113323   3.351   0.255   4.980
 4439TIP3    H213324   3.238   0.320   5.059
 4440TIP3   OH213325   1.721   1.763   1.098
 4440TIP3    H113326   1.658   1.762   1.026
 4440TIP3    H213327   1.739   1.856   1.112
 4441TIP3   OH213328   4.946   4.284   3.484
 4441TIP3    H113329   4.955   4.321   3.397
 4441TIP3    H213330   5.035   4.263   3.511
 4442TIP3   OH213331   4.513   1.164   4.380
 4442TIP3    H113332   4.509   1.258   4.367
 4442TIP3    H213333   4.453   1.128   4.315
 4443TIP3   OH213334   2.784   4.445   0.717
 4443TIP3    H113335   2.749   4.534   0.726
 4443TIP3    H213336   2.765   4.420   0.627
 4444TIP3   OH213337   4.142   1.515   4.370
 4444TIP3    H113338   4.085   1.560   4.433
 4444TIP3    H213339   4.150   1.426   4.405
 4445TIP3   OH213340   5.910   3.655   3.628
 4445TIP3    H113341   5.936   3.566   3.654
 4445TIP3    H213342   5.993   3.701   3.616
 4446TIP3   OH213343   5.738   4.565   1.540
 4446TIP3    H113344   5.750   4.611   1.623
 4446TIP3    H213345   5.780   4.623   1.475
 4447TIP3   OH213346   4.773   2.922   1.448
 4447TIP3    H113347   4.749   2.956   1.362
 4447TIP3    H213348   4.852   2.970   1.473
 4448TIP3   OH213349   2.973   0.490   4.380
 4448TIP3    H113350   2.961   0.544   4.458
 4448TIP3    H213351   2.957   0.401   4.410
 4449TIP3   OH213352   4.136   0.203   3.022
 4449TIP3    H113353   4.191   0.278   3.046
 4449TIP3    H213354   4.049   0.242   3.008
 4450TIP3   OH213355   2.575   0.907   4.128
 4450TIP3    H113356   2.627   0.935   4.203
 4450TIP3    H213357   2.484   0.914   4.157
 4451TIP3   OH213358   0.673   4.194   4.406
 4451TIP3    H113359   0.755   4.152   4.431
 4451TIP3    H213360   0.610   4.121   4.400
 4452TIP3   OH213361   2.081   2.316   4.121
 4452TIP3    H113362   2.058   2.367   4.199
 4452TIP3    H213363   2.120   2.236   4.155
 4453TIP3   OH213364   5.669   0.074   0.070
 4453TIP3    H113365   5.758   0.086   0.036
 4453TIP3    H213366   5.639   0.163   0.090
 4454TIP3   OH213367   5.289   2.119   3.696
 4454TIP3    H113368   5.366   2.075   3.733
 4454TIP3    H213369   5.268   2.068   3.618
 4455TIP3   OH213370   5.888   4.238   2.606
 4455TIP3    H113371   5.960   4.258   2.546
 4455TIP3    H213372   5.930   4.189   2.677
 4456TIP3   OH213373   3.085   4.532   2.458
 4456TIP3    H113374   3.104   4.614   2.504
 4456TIP3    H213375   3.085   4.466   2.528
 4457TIP3   OH213376   0.567   3.847   4.925
 4457TIP3    H113377   0.524   3.915   4.977
 4457TIP3    H213378   0.508   3.772   4.932
 4458TIP3   OH213379   3.428   0.485   1.359
 4458TIP3    H113380   3.349   0.521   1.397
 4458TIP3    H213381   3.487   0.472   1.433
 4459TIP3   OH213382   4.792   1.031   2.215
 4459TIP3    H113383   4.767   1.112   2.170
 4459TIP3    H213384   4.807   1.058   2.305
 4460TIP3   OH213385   4.613   4.948   3.341
 4460TIP3    H113386   4.674   4.945   3.267
 4460TIP3    H213387   4.545   5.009   3.312
 4461TIP3   OH213388   4.347   3.065   0.074
 4461TIP3    H113389   4.419   3.044   0.133
 4461TIP3    H213390   4.319   2.979   0.040
 4462TIP3   OH213391   2.401   2.288   3.739
 4462TIP3    H113392   2.427   2.269   3.829
 4462TIP3    H213393   2.406   2.203   3.695
 4463TIP3   OH213394   2.011   0.767   2.738
 4463TIP3    H113395   1.987   0.793   2.827
 4463TIP3    H213396   2.101   0.735   2.747
 4464TIP3   OH213397   1.000   4.686   2.265
 4464TIP3    H113398   1.079   4.648   2.303
 4464TIP3    H213399   0.991   4.770   2.308
 4465TIP3   OH213400   0.672   4.332   1.908
 4465TIP3    H113401   0.654   4.283   1.988
 4465TIP3    H213402   0.693   4.420   1.938
 4466TIP3   OH213403   4.575   2.397   2.505
 4466TIP3    H113404   4.544   2.481   2.540
 4466TIP3    H213405   4.497   2.358   2.467
 4467TIP3   OH213406   2.010   2.560   4.538
 4467TIP3    H113407   2.001   2.654   4.556
 4467TIP3    H213408   1.951   2.544   4.464
 4468TIP3   OH213409   1.166   3.857   0.370
 4468TIP3    H113410   1.209   3.906   0.300
 4468TIP3    H213411   1.074   3.854   0.344
 4469TIP3   OH213412   3.463   4.291   0.298
 4469TIP3    H113413   3.375   4.314   0.329
 4469TIP3    H213414   3.522   4.340   0.355
 4470TIP3   OH213415   2.655   1.521   0.207
 4470TIP3    H113416   2.717   1.578   0.162
 4470TIP3    H213417   2.674   1.433   0.174
 4471TIP3   OH213418   2.446   4.552   3.330
 4471TIP3    H113419   2.361   4.512   3.350
 4471TIP3    H213420   2.438   4.581   3.239
 4472TIP3   OH213421   2.571   5.322   3.560
 4472TIP3    H113422   2.591   5.234   3.592
 4472TIP3    H213423   2.645   5.375   3.591
 4473TIP3   OH213424   2.059   4.885   2.889
 4473TIP3    H113425   2.048   4.965   2.941
 4473TIP3    H213426   2.083   4.916   2.802
 4474TIP3   OH213427   2.436   0.144   5.050
 4474TIP3    H113428   2.524   0.134   5.088
 4474TIP3    H213429   2.376   0.126   5.123
 4475TIP3   OH213430   0.866   3.132   1.066
 4475TIP3    H113431   0.792   3.071   1.057
 4475TIP3    H213432   0.829   3.217   1.046
 4476TIP3   OH213433   3.465   5.126   4.708
 4476TIP3    H113434   3.450   5.219   4.727
 4476TIP3    H213435   3.419   5.080   4.778
 4477TIP3   OH213436   3.898   5.717   3.259
 4477TIP3    H113437   3.940   5.657   3.198
 4477TIP3    H213438   3.804   5.706   3.243
 4478TIP3   OH213439   2.441   1.466   3.419
 4478TIP3    H113440   2.535   1.478   3.428
 4478TIP3    H213441   2.429   1.438   3.328
 4479TIP3   OH213442   1.627   5.454   0.266
 4479TIP3    H113443   1.630   5.542   0.305
 4479TIP3    H213444   1.681   5.400   0.324
 4480TIP3   OH213445   0.692   4.887   5.021
 4480TIP3    H113446   0.738   4.969   5.003
 4480TIP3    H213447   0.626   4.910   5.086
 4481TIP3   OH213448   1.764   3.781   4.703
 4481TIP3    H113449   1.846   3.789   4.654
 4481TIP3    H213450   1.720   3.707   4.662
 4482TIP3   OH213451   1.500   5.172   3.665
 4482TIP3    H113452   1.459   5.258   3.656
 4482TIP3    H213453   1.483   5.147   3.756
 4483TIP3   OH213454   0.225   0.646   5.052
 4483TIP3    H113455   0.265   0.633   4.966
 4483TIP3    H213456   0.164   0.573   5.061
 4484TIP3   OH213457   0.179   5.734   3.998
 4484TIP3    H113458   0.193   5.682   4.077
 4484TIP3    H213459   0.084   5.732   3.985
 4485TIP3   OH213460   3.183   1.480   1.799
 4485TIP3    H113461   3.271   1.515   1.812
 4485TIP3    H213462   3.196   1.400   1.748
 4486TIP3   OH213463   4.489   2.354   0.101
 4486TIP3    H113464   4.413   2.312   0.059
 4486TIP3    H213465   4.556   2.354   0.033
 4487TIP3   OH213466   4.556   0.180   4.107
 4487TIP3    H113467   4.541   0.274   4.117
 4487TIP3    H213468   4.651   0.171   4.095
 4488TIP3   OH213469   3.993   2.742   5.172
 4488TIP3    H113470   4.032   2.659   5.147
 4488TIP3    H213471   4.022   2.803   5.104
 4489TIP3   OH213472   2.518   1.271   1.639
 4489TIP3    H113473   2.462   1.330   1.689
 4489TIP3    H213474   2.537   1.319   1.558
 4490TIP3   OH213475   3.512   3.845   3.191
 4490TIP3    H113476   3.427   3.836   3.147
 4490TIP3    H213477   3.499   3.801   3.275
 4491TIP3   OH213478   2.607   0.810   0.038
 4491TIP3    H113479   2.681   0.786   0.094
 4491TIP3    H213480   2.532   0.765   0.077
 4492TIP3   OH213481   0.459   3.946   0.718
 4492TIP3    H113482   0.418   3.954   0.804
 4492TIP3    H213483   0.531   3.885   0.731
 4493TIP3   OH213484   4.852   0.039   2.438
 4493TIP3    H113485   4.841   0.004   2.526
 4493TIP3    H213486   4.794   0.115   2.434
 4494TIP3   OH213487   2.024   1.266   0.764
 4494TIP3    H113488   1.978   1.206   0.822
 4494TIP3    H213489   2.062   1.211   0.696
 4495TIP3   OH213490   5.556   4.465   4.198
 4495TIP3    H113491   5.548   4.382   4.150
 4495TIP3    H213492   5.638   4.503   4.166
 4496TIP3   OH213493   2.347   5.551   1.599
 4496TIP3    H113494   2.370   5.584   1.686
 4496TIP3    H213495   2.411   5.592   1.540
 4497TIP3   OH213496   1.270   5.237   2.204
 4497TIP3    H113497   1.233   5.261   2.289
 4497TIP3    H213498   1.224   5.293   2.141
 4498TIP3   OH213499   0.540   3.843   1.777
 4498TIP3    H113500   0.451   3.876   1.771
 4498TIP3    H213501   0.556   3.834   1.871
 4499TIP3   OH213502   3.500   3.873   4.027
 4499TIP3    H113503   3.430   3.825   4.071
 4499TIP3    H213504   3.515   3.825   3.946
 4500TIP3   OH213505   5.068   3.399   0.993
 4500TIP3    H113506   5.034   3.323   0.946
 4500TIP3    H213507   4.991   3.438   1.034
 4501TIP3   OH213508   4.535   4.237   3.921
 4501TIP3    H113509   4.609   4.283   3.882
 4501TIP3    H213510   4.461   4.297   3.909
 4502TIP3   OH213511   5.189   5.815   0.019
 4502TIP3    H113512   5.160   5.724   0.022
 4502TIP3    H213513   5.178   5.841  -0.072
 4503TIP3   OH213514   3.556   4.878   4.622
 4503TIP3    H113515   3.613   4.843   4.690
 4503TIP3    H213516   3.526   4.962   4.657
 4504TIP3   OH213517   5.969   4.213   0.493
 4504TIP3    H113518   6.030   4.179   0.428
 4504TIP3    H213519   5.883   4.187   0.460
 4505TIP3   OH213520   1.856   2.824   2.181
 4505TIP3    H113521   1.912   2.889   2.138
 4505TIP3    H213522   1.913   2.783   2.246
 4506TIP3   OH213523   2.282   4.110   3.271
 4506TIP3    H113524   2.272   4.060   3.190
 4506TIP3    H213525   2.362   4.160   3.260
 4507TIP3   OH213526   4.963   2.814   3.104
 4507TIP3    H113527   4.981   2.815   3.198
 4507TIP3    H213528   4.976   2.723   3.078
 4508TIP3   OH213529   4.675   2.788   3.716
 4508TIP3    H113530   4.738   2.841   3.667
 4508TIP3    H213531   4.626   2.742   3.647
 4509TIP3   OH213532   4.404   4.420   1.219
 4509TIP3    H113533   4.326   4.381   1.180
 4509TIP3    H213534   4.421   4.498   1.167
 4510TIP3   OH213535   1.759   2.962   0.116
 4510TIP3    H113536   1.732   2.870   0.112
 4510TIP3    H213537   1.705   3.000   0.186
 4511TIP3   OH213538   2.771   0.522   2.602
 4511TIP3    H113539   2.841   0.548   2.662
 4511TIP3    H213540   2.813   0.517   2.516
 4512TIP3   OH213541   2.179   5.431   4.360
 4512TIP3    H113542   2.257   5.480   4.335
 4512TIP3    H213543   2.212   5.360   4.416
 4513TIP3   OH213544   4.928   0.829   0.116
 4513TIP3    H113545   4.839   0.823   0.080
 4513TIP3    H213546   4.963   0.741   0.107
 4514TIP3   OH213547   3.116   2.635   4.012
 4514TIP3    H113548   3.032   2.636   3.966
 4514TIP3    H213549   3.157   2.552   3.987
 4515TIP3   OH213550   3.731   5.418   3.542
 4515TIP3    H113551   3.807   5.382   3.586
 4515TIP3    H213552   3.707   5.495   3.593
 4516TIP3   OH213553   5.291   5.261   4.880
 4516TIP3    H113554   5.385   5.250   4.869
 4516TIP3    H213555   5.280   5.354   4.901
 4517TIP3   OH213556   2.378   1.690   0.268
 4517TIP3    H113557   2.438   1.619   0.245
 4517TIP3    H213558   2.433   1.769   0.269
 4518TIP3   OH213559   2.466   0.967   3.343
 4518TIP3    H113560   2.412   0.895   3.310
 4518TIP3    H213561   2.528   0.985   3.272
 4519TIP3   OH213562   5.740   0.458   1.184
 4519TIP3    H113563   5.710   0.397   1.252
 4519TIP3    H213564   5.775   0.402   1.115
 4520TIP3   OH213565   3.665   5.714   0.131
 4520TIP3    H113566   3.612   5.735   0.055
 4520TIP3    H213567   3.749   5.758   0.114
 4521TIP3   OH213568   1.756   3.072   4.634
 4521TIP3    H113569   1.789   3.161   4.648
 4521TIP3    H213570   1.731   3.070   4.541
 4522TIP3   OH213571   4.433   1.397   0.267
 4522TIP3    H113572   4.488   1.324   0.297
 4522TIP3    H213573   4.398   1.436   0.347
 4523TIP3   OH213574   4.514   3.411   2.474
 4523TIP3    H113575   4.530   3.483   2.413
 4523TIP3    H213576   4.484   3.339   2.418
 4524TIP3   OH213577   6.085   1.209   2.809
 4524TIP3    H113578   6.143   1.283   2.793
 4524TIP3    H213579   6.012   1.245   2.858
 4525TIP3   OH213580   1.898   2.096   1.718
 4525TIP3    H113581   1.815   2.118   1.676
 4525TIP3    H213582   1.961   2.158   1.681
 4526TIP3   OH213583   0.695   2.931   4.685
 4526TIP3    H113584   0.644   2.930   4.604
 4526TIP3    H213585   0.705   3.024   4.706
 4527TIP3   OH213586   3.486   3.013   4.636
 4527TIP3    H113587   3.519   2.931   4.673
 4527TIP3    H213588   3.396   3.019   4.668
 4528TIP3   OH213589   5.695   3.424   4.515
 4528TIP3    H113590   5.690   3.423   4.419
 4528TIP3    H213591   5.617   3.377   4.543
 4529TIP3   OH213592   0.372   1.514   0.871
 4529TIP3    H113593   0.428   1.469   0.809
 4529TIP3    H213594   0.427   1.526   0.949
 4530TIP3   OH213595   4.868   2.554   5.142
 4530TIP3    H113596   4.809   2.529   5.070
 4530TIP3    H213597   4.842   2.498   5.215
 4531TIP3   OH213598   3.436   0.936   2.629
 4531TIP3    H113599   3.502   0.967   2.690
 4531TIP3    H213600   3.473   0.855   2.592
 4532TIP3   OH213601   3.989   4.932   0.589
 4532TIP3    H113602   3.954   4.845   0.569
 4532TIP3    H213603   3.913   4.989   0.586
 4533TIP3   OH213604   0.252   2.943   0.107
 4533TIP3    H113605   0.315   2.925   0.038
 4533TIP3    H213606   0.293   3.012   0.159
 4534TIP3   OH213607   2.836   2.997   4.129
 4534TIP3    H113608   2.886   2.933   4.078
 4534TIP3    H213609   2.793   2.946   4.196
 4535TIP3   OH213610   1.831   3.491   0.838
 4535TIP3    H113611   1.822   3.571   0.889
 4535TIP3    H213612   1.744   3.475   0.803
 4536TIP3   OH213613   3.212   2.979   4.698
 4536TIP3    H113614   3.162   3.051   4.738
 4536TIP3    H213615   3.242   2.926   4.771
 4537TIP3   OH213616   3.030   1.562   4.848
 4537TIP3    H113617   3.064   1.475   4.868
 4537TIP3    H213618   3.077   1.621   4.908
 4538TIP3   OH213619   1.198   3.841   0.921
 4538TIP3    H113620   1.162   3.753   0.909
 4538TIP3    H213621   1.176   3.864   1.011
 4539TIP3   OH213622   2.700   2.488   3.519
 4539TIP3    H113623   2.728   2.412   3.468
 4539TIP3    H213624   2.666   2.550   3.454
 4540TIP3   OH213625   2.184   3.327   0.128
 4540TIP3    H113626   2.131   3.375   0.063
 4540TIP3    H213627   2.142   3.347   0.212
 4541TIP3   OH213628   2.469   5.405   1.040
 4541TIP3    H113629   2.532   5.346   0.998
 4541TIP3    H213630   2.517   5.487   1.050
 4542TIP3   OH213631   2.125   4.373   0.552
 4542TIP3    H113632   2.214   4.388   0.520
 4542TIP3    H213633   2.074   4.444   0.514
 4543TIP3   OH213634   5.786   3.965   0.098
 4543TIP3    H113635   5.820   3.886   0.140
 4543TIP3    H213636   5.716   3.995   0.156
 4544TIP3   OH213637   0.775   0.917   4.555
 4544TIP3    H113638   0.828   0.848   4.595
 4544TIP3    H213639   0.797   0.995   4.605
 4545TIP3   OH213640   0.231   3.319   2.085
 4545TIP3    H113641   0.164   3.318   2.017
 4545TIP3    H213642   0.308   3.280   2.043
 4546TIP3   OH213643   0.578   3.707   1.096
 4546TIP3    H113644   0.568   3.793   1.138
 4546TIP3    H213645   0.671   3.685   1.109
 4547TIP3   OH213646   1.921   1.036   2.616
 4547TIP3    H113647   1.948   1.084   2.694
 4547TIP3    H213648   1.954   0.947   2.630
 4548TIP3   OH213649   2.278   1.488   5.069
 4548TIP3    H113650   2.236   1.571   5.045
 4548TIP3    H213651   2.232   1.460   5.148
 4549TIP3   OH213652   3.973   4.547   4.267
 4549TIP3    H113653   3.895   4.578   4.221
 4549TIP3    H213654   4.005   4.624   4.315
 4550TIP3   OH213655   2.298   2.448   2.366
 4550TIP3    H113656   2.349   2.509   2.420
 4550TIP3    H213657   2.335   2.456   2.278
 4551TIP3   OH213658   2.672   4.895   1.479
 4551TIP3    H113659   2.704   4.869   1.393
 4551TIP3    H213660   2.748   4.930   1.524
 4552TIP3   OH213661   5.195   2.628   4.749
 4552TIP3    H113662   5.122   2.678   4.711
 4552TIP3    H213663   5.257   2.695   4.779
 4553TIP3   OH213664   4.874   5.408   2.633
 4553TIP3    H113665   4.881   5.328   2.581
 4553TIP3    H213666   4.895   5.379   2.722
 4554TIP3   OH213667   5.010   3.410   0.036
 4554TIP3    H113668   5.039   3.446   0.120
 4554TIP3    H213669   5.070   3.336   0.021
 4555TIP3   OH213670   5.582   4.356   2.870
 4555TIP3    H113671   5.536   4.374   2.787
 4555TIP3    H213672   5.654   4.418   2.871
 4556TIP3   OH213673   5.545   1.787   5.123
 4556TIP3    H113674   5.477   1.745   5.175
 4556TIP3    H213675   5.604   1.715   5.099
 4557TIP3   OH213676   5.240   3.792   4.940
 4557TIP3    H113677   5.258   3.712   4.990
 4557TIP3    H213678   5.155   3.822   4.973
 4558TIP3   OH213679   0.674   1.878   5.039
 4558TIP3    H113680   0.763   1.893   5.008
 4558TIP3    H213681   0.621   1.941   4.991
 4559TIP3   OH213682   2.220   3.628   2.105
 4559TIP3    H113683   2.197   3.538   2.082
 4559TIP3    H213684   2.276   3.620   2.182
 4560TIP3   OH213685   6.275   2.686   4.123
 4560TIP3    H113686   6.352   2.643   4.160
 4560TIP3    H213687   6.253   2.635   4.045
 4561TIP3   OH213688   6.044   4.324   1.884
 4561TIP3    H113689   6.004   4.335   1.798
 4561TIP3    H213690   6.133   4.294   1.865
 4562TIP3   OH213691   4.206   2.382   1.272
 4562TIP3    H113692   4.143   2.325   1.227
 4562TIP3    H213693   4.190   2.469   1.235
 4563TIP3   OH213694   0.484   1.419   2.444
 4563TIP3    H113695   0.454   1.343   2.494
 4563TIP3    H213696   0.575   1.399   2.422
 4564TIP3   OH213697   3.669   4.116   3.996
 4564TIP3    H113698   3.647   4.024   3.979
 4564TIP3    H213699   3.765   4.119   3.990
 4565TIP3   OH213700   1.723   4.910   0.755
 4565TIP3    H113701   1.742   4.832   0.808
 4565TIP3    H213702   1.649   4.951   0.800
 4566TIP3   OH213703   0.094   5.783   2.463
 4566TIP3    H113704   0.052   5.699   2.479
 4566TIP3    H213705   0.175   5.762   2.417
 4567TIP3   OH213706   4.571   3.824   2.493
 4567TIP3    H113707   4.651   3.875   2.504
 4567TIP3    H213708   4.595   3.753   2.434
 4568TIP3   OH213709   3.383   4.150   2.646
 4568TIP3    H113710   3.434   4.149   2.565
 4568TIP3    H213711   3.384   4.242   2.673
 4569TIP3   OH213712   3.271   3.709   0.583
 4569TIP3    H113713   3.245   3.801   0.579
 4569TIP3    H213714   3.202   3.666   0.634
 4570TIP3   OH213715   2.481   4.478   3.898
 4570TIP3    H113716   2.428   4.450   3.823
 4570TIP3    H213717   2.565   4.435   3.886
 4571TIP3   OH213718   3.513   2.432   3.548
 4571TIP3    H113719   3.470   2.510   3.584
 4571TIP3    H213720   3.496   2.364   3.613
 4572TIP3   OH213721   3.689   5.457   2.951
 4572TIP3    H113722   3.775   5.418   2.965
 4572TIP3    H213723   3.631   5.382   2.935
 4573TIP3   OH213724   2.703   2.681   1.206
 4573TIP3    H113725   2.671   2.721   1.287
 4573TIP3    H213726   2.752   2.751   1.162
 4574TIP3   OH213727   3.855   1.796   1.195
 4574TIP3    H113728   3.790   1.859   1.227
 4574TIP3    H213729   3.892   1.757   1.275
 4575TIP3   OH213730   2.382   5.992   3.470
 4575TIP3    H113731   2.349   5.966   3.384
 4575TIP3    H213732   2.422   5.913   3.505
 4576TIP3   OH213733   5.328   3.606   1.639
 4576TIP3    H113734   5.302   3.698   1.639
 4576TIP3    H213735   5.246   3.558   1.652
 4577TIP3   OH213736   0.109   1.442   0.588
 4577TIP3    H113737   0.178   1.378   0.571
 4577TIP3    H213738   0.111   1.456   0.682
 4578TIP3   OH213739   4.828   0.195   4.067
 4578TIP3    H113740   4.863   0.279   4.095
 4578TIP3    H213741   4.828   0.199   3.972
 4579TIP3   OH213742   2.693   3.843   0.214
 4579TIP3    H113743   2.658   3.817   0.128
 4579TIP3    H213744   2.784   3.867   0.196
 4580TIP3   OH213745   4.031   3.480   3.767
 4580TIP3    H113746   4.126   3.477   3.778
 4580TIP3    H213747   4.010   3.398   3.722
 4581TIP3   OH213748   3.909   3.561   0.348
 4581TIP3    H113749   3.958   3.559   0.431
 4581TIP3    H213750   3.934   3.645   0.308
 4582TIP3   OH213751   2.779   3.254   3.814
 4582TIP3    H113752   2.847   3.219   3.756
 4582TIP3    H213753   2.816   3.336   3.847
 4583TIP3   OH213754   5.510   4.791   1.674
 4583TIP3    H113755   5.426   4.761   1.708
 4583TIP3    H213756   5.500   4.787   1.579
 4584TIP3   OH213757   3.427   2.924   0.564
 4584TIP3    H113758   3.420   3.002   0.618
 4584TIP3    H213759   3.510   2.935   0.517
 4585TIP3   OH213760   5.843   0.040   0.345
 4585TIP3    H113761   5.765   0.065   0.394
 4585TIP3    H213762   5.821   0.058   0.253
 4586TIP3   OH213763   3.499   4.323   3.996
 4586TIP3    H113764   3.570   4.265   3.969
 4586TIP3    H213765   3.426   4.298   3.939
 4587TIP3   OH213766   1.346   5.305   1.283
 4587TIP3    H113767   1.395   5.266   1.355
 4587TIP3    H213768   1.354   5.400   1.297
 4588TIP3   OH213769   1.314   4.120   2.032
 4588TIP3    H113770   1.382   4.182   2.059
 4588TIP3    H213771   1.315   4.052   2.099
 4589TIP3   OH213772   3.304   0.358   2.334
 4589TIP3    H113773   3.269   0.432   2.284
 4589TIP3    H213774   3.382   0.394   2.378
 4590TIP3   OH213775   3.750   4.320   1.735
 4590TIP3    H113776   3.666   4.311   1.779
 4590TIP3    H213777   3.815   4.304   1.804
 4591TIP3   OH213778   6.387   0.688   0.459
 4591TIP3    H113779   6.332   0.611   0.450
 4591TIP3    H213780   6.327   0.762   0.455
 4592TIP3   OH213781   2.750   5.691   1.710
 4592TIP3    H113782   2.734   5.652   1.624
 4592TIP3    H213783   2.729   5.621   1.773
 4593TIP3   OH213784   2.252   0.849   0.696
 4593TIP3    H113785   2.339   0.813   0.677
 4593TIP3    H213786   2.263   0.897   0.778
 4594TIP3   OH213787   3.797   5.629   4.453
 4594TIP3    H113788   3.809   5.609   4.545
 4594TIP3    H213789   3.737   5.561   4.421
 4595TIP3   OH213790   0.835   4.672   1.576
 4595TIP3    H113791   0.885   4.604   1.620
 4595TIP3    H213792   0.774   4.704   1.642
 4596TIP3   OH213793   4.866   3.540   1.207
 4596TIP3    H113794   4.807   3.587   1.265
 4596TIP3    H213795   4.904   3.607   1.151
 4597TIP3   OH213796   1.464   3.916   0.936
 4597TIP3    H113797   1.483   3.901   1.028
 4597TIP3    H213798   1.373   3.886   0.925
 4598TIP3   OH213799   2.343   4.182   0.931
 4598TIP3    H113800   2.424   4.223   0.901
 4598TIP3    H213801   2.363   4.152   1.019
 4599TIP3   OH213802   4.854   0.058   4.319
 4599TIP3    H113803   4.864   0.069   4.224
 4599TIP3    H213804   4.856   0.148   4.353
 4600TIP3   OH213805   3.947   2.214   2.793
 4600TIP3    H113806   4.013   2.176   2.736
 4600TIP3    H213807   3.944   2.307   2.770
 4601TIP3   OH213808   1.193   4.811   3.338
 4601TIP3    H113809   1.243   4.729   3.331
 4601TIP3    H213810   1.133   4.795   3.410
 4602TIP3   OH213811   5.973   2.893   3.421
 4602TIP3    H113812   5.905   2.955   3.395
 4602TIP3    H213813   5.925   2.815   3.450
 4603TIP3   OH213814   4.887   1.322   1.423
 4603TIP3    H113815   4.880   1.283   1.511
 4603TIP3    H213816   4.802   1.364   1.409
 4604TIP3   OH213817   3.930   1.211   1.907
 4604TIP3    H113818   3.864   1.223   1.837
 4604TIP3    H213819   3.920   1.119   1.932
 4605TIP3   OH213820   4.425   1.315   2.668
 4605TIP3    H113821   4.398   1.293   2.579
 4605TIP3    H213822   4.427   1.231   2.714
 4606TIP3   OH213823   2.466   2.452   3.164
 4606TIP3    H113824   2.539   2.461   3.102
 4606TIP3    H213825   2.428   2.539   3.168
 4607TIP3   OH213826   1.886   3.083   3.656
 4607TIP3    H113827   1.929   2.997   3.662
 4607TIP3    H213828   1.793   3.065   3.670
 4608TIP3   OH213829   1.097   0.352   4.505
 4608TIP3    H113830   1.041   0.354   4.583
 4608TIP3    H213831   1.085   0.438   4.465
 4609TIP3   OH213832   1.514   3.118   3.889
 4609TIP3    H113833   1.515   3.086   3.799
 4609TIP3    H213834   1.422   3.125   3.911
 4610TIP3   OH213835   1.335   0.104   3.773
 4610TIP3    H113836   1.292   0.114   3.858
 4610TIP3    H213837   1.372   0.191   3.755
 4611TIP3   OH213838   1.426   0.681   4.828
 4611TIP3    H113839   1.501   0.683   4.769
 4611TIP3    H213840   1.445   0.749   4.893
 4612TIP3   OH213841   6.035   0.931   3.450
 4612TIP3    H113842   5.958   0.929   3.393
 4612TIP3    H213843   6.097   0.870   3.410
 4613TIP3   OH213844   5.227   4.600   4.446
 4613TIP3    H113845   5.169   4.659   4.397
 4613TIP3    H213846   5.169   4.530   4.477
 4614TIP3   OH213847   4.820   5.953   0.977
 4614TIP3    H113848   4.804   5.859   0.970
 4614TIP3    H213849   4.799   5.988   0.891
 4615TIP3   OH213850   2.872   4.438   2.320
 4615TIP3    H113851   2.895   4.395   2.237
 4615TIP3    H213852   2.957   4.460   2.359
 4616TIP3   OH213853   0.736   1.946   1.642
 4616TIP3    H113854   0.773   1.862   1.671
 4616TIP3    H213855   0.665   1.922   1.582
 4617TIP3   OH213856   5.115   5.359   1.587
 4617TIP3    H113857   5.190   5.417   1.571
 4617TIP3    H213858   5.039   5.412   1.562
 4618TIP3   OH213859   0.954   3.578   3.612
 4618TIP3    H113860   0.945   3.642   3.681
 4618TIP3    H213861   0.953   3.493   3.657
 4619TIP3   OH213862   3.260   3.559   2.891
 4619TIP3    H113863   3.336   3.617   2.895
 4619TIP3    H213864   3.262   3.510   2.973
 4620TIP3   OH213865   1.894   5.221   1.306
 4620TIP3    H113866   1.876   5.300   1.255
 4620TIP3    H213867   1.903   5.151   1.241
 4621TIP3   OH213868   4.871   1.971   4.933
 4621TIP3    H113869   4.874   1.984   4.839
 4621TIP3    H213870   4.956   2.004   4.964
 4622TIP3   OH213871   4.785   3.611   5.048
 4622TIP3    H113872   4.731   3.690   5.054
 4622TIP3    H213873   4.840   3.613   5.126
 4623TIP3   OH213874   2.817   2.847   2.518
 4623TIP3    H113875   2.750   2.915   2.526
 4623TIP3    H213876   2.790   2.780   2.581
 4624TIP3   OH213877   5.426   4.968   2.332
 4624TIP3    H113878   5.357   5.003   2.276
 4624TIP3    H213879   5.408   5.006   2.418
 4625TIP3   OH213880   0.349   5.203   1.557
 4625TIP3    H113881   0.299   5.178   1.634
 4625TIP3    H213882   0.419   5.259   1.590
 4626TIP3   OH213883   2.797   4.971   2.484
 4626TIP3    H113884   2.817   5.048   2.431
 4626TIP3    H213885   2.782   5.005   2.572
 4627TIP3   OH213886   4.665   5.587   3.263
 4627TIP3    H113887   4.754   5.558   3.280
 4627TIP3    H213888   4.659   5.596   3.168
 4628TIP3   OH213889   3.179   0.206   1.415
 4628TIP3    H113890   3.155   0.279   1.471
 4628TIP3    H213891   3.146   0.230   1.329
 4629TIP3   OH213892   2.265   4.773   0.251
 4629TIP3    H113893   2.177   4.739   0.233
 4629TIP3    H213894   2.254   4.867   0.259
 4630TIP3   OH213895   4.323   5.543   0.655
 4630TIP3    H113896   4.388   5.486   0.614
 4630TIP3    H213897   4.249   5.542   0.594
 4631TIP3   OH213898   6.053   4.952   0.079
 4631TIP3    H113899   6.027   4.867   0.115
 4631TIP3    H213900   6.095   4.997   0.153
 4632TIP3   OH213901   4.523   3.874   0.538
 4632TIP3    H113902   4.440   3.845   0.501
 4632TIP3    H213903   4.571   3.911   0.464
 4633TIP3   OH213904   0.360   5.785   1.961
 4633TIP3    H113905   0.292   5.773   1.895
 4633TIP3    H213906   0.424   5.717   1.943
 4634TIP3   OH213907   1.255   4.069   0.205
 4634TIP3    H113908   1.198   4.129   0.254
 4634TIP3    H213909   1.344   4.097   0.229
 4635TIP3   OH213910   3.025   2.023   4.504
 4635TIP3    H113911   2.984   1.944   4.470
 4635TIP3    H213912   3.075   1.994   4.580
 4636TIP3   OH213913   6.114   3.763   0.144
 4636TIP3    H113914   6.206   3.772   0.122
 4636TIP3    H213915   6.070   3.746   0.061
 4637TIP3   OH213916   0.045   0.738   3.908
 4637TIP3    H113917  -0.009   0.773   3.979
 4637TIP3    H213918  -0.010   0.744   3.830
 4638TIP3   OH213919   3.411   0.714   3.424
 4638TIP3    H113920   3.382   0.789   3.477
 4638TIP3    H213921   3.502   0.733   3.405
 4639TIP3   OH213922   2.667   4.579   0.443
 4639TIP3    H113923   2.688   4.520   0.370
 4639TIP3    H213924   2.616   4.649   0.403
 4640TIP3   OH213925   2.353   4.688   1.935
 4640TIP3    H113926   2.376   4.598   1.960
 4640TIP3    H213927   2.321   4.679   1.845
 4641TIP3   OH213928   1.102   0.280   2.986
 4641TIP3    H113929   1.145   0.355   2.946
 4641TIP3    H213930   1.063   0.315   3.066
 4642TIP3   OH213931   0.036   5.135   3.313
 4642TIP3    H113932   0.058   5.080   3.238
 4642TIP3    H213933  -0.054   5.163   3.296
 4643TIP3   OH213934   0.763   1.705   3.224
 4643TIP3    H113935   0.668   1.691   3.231
 4643TIP3    H213936   0.784   1.762   3.298
 4644TIP3   OH213937   2.903   3.970   4.050
 4644TIP3    H113938   2.963   3.899   4.074
 4644TIP3    H213939   2.920   4.038   4.115
 4645TIP3   OH213940   5.286   5.508   2.973
 4645TIP3    H113941   5.225   5.441   3.006
 4645TIP3    H213942   5.302   5.565   3.048
 4646TIP3   OH213943   1.586   1.667   0.166
 4646TIP3    H113944   1.607   1.582   0.128
 4646TIP3    H213945   1.587   1.652   0.260
 4647TIP3   OH213946   6.382   4.954   0.738
 4647TIP3    H113947   6.324   5.016   0.782
 4647TIP3    H213948   6.426   4.908   0.810
 4648TIP3   OH213949   1.171   5.131   4.069
 4648TIP3    H113950   1.081   5.105   4.090
 4648TIP3    H213951   1.199   5.183   4.144
 4649TIP3   OH213952   1.194   0.367   1.160
 4649TIP3    H113953   1.119   0.371   1.220
 4649TIP3    H213954   1.267   0.338   1.214
 4650TIP3   OH213955   4.232   2.954   2.933
 4650TIP3    H113956   4.212   3.047   2.926
 4650TIP3    H213957   4.191   2.926   3.015
 4651TIP3   OH213958   2.938   5.757   4.460
 4651TIP3    H113959   2.885   5.749   4.380
 4651TIP3    H213960   2.970   5.847   4.459
 4652TIP3   OH213961   5.682   0.841   2.337
 4652TIP3    H113962   5.625   0.793   2.277
 4652TIP3    H213963   5.740   0.774   2.373
 4653TIP3   OH213964   4.093   2.665  -0.025
 4653TIP3    H113965   4.174   2.644   0.021
 4653TIP3    H213966   4.041   2.713   0.039
 4654TIP3   OH213967   5.050   4.060   2.224
 4654TIP3    H113968   5.108   3.987   2.201
 4654TIP3    H213969   5.061   4.123   2.153
 4655TIP3   OH213970   4.000   5.041   2.427
 4655TIP3    H113971   3.946   4.962   2.417
 4655TIP3    H213972   4.090   5.009   2.423
 4656TIP3   OH213973   2.578   0.900   0.726
 4656TIP3    H113974   2.544   0.961   0.792
 4656TIP3    H213975   2.542   0.932   0.643
 4657TIP3   OH213976   4.363   3.643   1.180
 4657TIP3    H113977   4.435   3.700   1.151
 4657TIP3    H213978   4.307   3.634   1.102
 4658TIP3   OH213979   0.663   4.674   0.473
 4658TIP3    H113980   0.688   4.755   0.428
 4658TIP3    H213981   0.579   4.650   0.434
 4659TIP3   OH213982   2.732   3.366   1.305
 4659TIP3    H113983   2.765   3.277   1.315
 4659TIP3    H213984   2.672   3.378   1.378
 4660TIP3   OH213985   4.174   0.690   1.508
 4660TIP3    H113986   4.186   0.612   1.562
 4660TIP3    H213987   4.248   0.691   1.448
 4661TIP3   OH213988   0.336   2.332   0.795
 4661TIP3    H113989   0.274   2.307   0.863
 4661TIP3    H213990   0.317   2.273   0.722
 4662TIP3   OH213991   1.052   1.958   0.275
 4662TIP3    H113992   1.042   1.946   0.181
 4662TIP3    H213993   1.004   1.885   0.314
 4663TIP3   OH213994   5.919   3.362   4.907
 4663TIP3    H113995   5.989   3.422   4.933
 4663TIP3    H213996   5.924   3.359   4.812
 4664TIP3   OH213997   1.195   0.503   3.808
 4664TIP3    H113998   1.243   0.502   3.724
 4664TIP3    H213999   1.247   0.560   3.864
 4665TIP3   OH214000   4.626   0.993   1.307
 4665TIP3    H114001   4.686   0.954   1.370
 4665TIP3    H214002   4.549   1.017   1.359
 4666TIP3   OH214003   0.508   0.483   4.620
 4666TIP3    H114004   0.472   0.407   4.572
 4666TIP3    H214005   0.547   0.445   4.698
 4667TIP3   OH214006   4.278   5.542   2.765
 4667TIP3    H114007   4.196   5.499   2.739
 4667TIP3    H214008   4.308   5.490   2.840
 4668TIP3   OH214009   4.849   4.822   0.159
 4668TIP3    H114010   4.840   4.796   0.251
 4668TIP3    H214011   4.853   4.918   0.162
 4669TIP3   OH214012   3.608   1.051   4.109
 4669TIP3    H114013   3.624   1.113   4.180
 4669TIP3    H214014   3.683   1.062   4.050
 4670TIP3   OH214015   0.873   1.019   3.474
 4670TIP3    H114016   0.952   1.067   3.446
 4670TIP3    H214017   0.865   1.040   3.567
 4671TIP3   OH214018   0.791   0.068   0.190
 4671TIP3    H114019   0.714   0.053   0.245
 4671TIP3    H214020   0.792  -0.007   0.130
 4672TIP3   OH214021   1.033   2.965   1.886
 4672TIP3    H114022   0.976   2.940   1.813
 4672TIP3    H214023   0.973   2.979   1.959
 4673TIP3   OH214024   1.828   1.027   4.417
 4673TIP3    H114025   1.915   0.996   4.393
 4673TIP3    H214026   1.776   0.948   4.429
 4674TIP3   OH214027   3.485   0.995   1.575
 4674TIP3    H114028   3.407   0.945   1.551
 4674TIP3    H214029   3.549   0.973   1.508
 4675TIP3   OH214030   3.406   2.605   3.728
 4675TIP3    H114031   3.403   2.562   3.814
 4675TIP3    H214032   3.459   2.683   3.742
 4676TIP3   OH214033   2.619   3.549   2.506
 4676TIP3    H114034   2.590   3.536   2.596
 4676TIP3    H214035   2.705   3.591   2.514
 4677TIP3   OH214036   2.528   5.654   4.559
 4677TIP3    H114037   2.441   5.652   4.599
 4677TIP3    H214038   2.529   5.734   4.507
 4678TIP3   OH214039   2.037   2.808   2.971
 4678TIP3    H114040   2.083   2.860   2.905
 4678TIP3    H214041   1.950   2.795   2.935
 4679TIP3   OH214042   2.084   3.970   3.740
 4679TIP3    H114043   2.052   4.044   3.792
 4679TIP3    H214044   2.141   3.922   3.798
 4680TIP3   OH214045   1.164   1.327   1.261
 4680TIP3    H114046   1.172   1.319   1.166
 4680TIP3    H214047   1.130   1.242   1.289
 4681TIP3   OH214048   3.463   2.307   0.036
 4681TIP3    H114049   3.505   2.280   0.118
 4681TIP3    H214050   3.432   2.396   0.054
 4682TIP3   OH214051   1.929   2.253   1.948
 4682TIP3    H114052   2.004   2.313   1.951
 4682TIP3    H214053   1.945   2.199   1.871
 4683TIP3   OH214054   5.591   5.288   4.924
 4683TIP3    H114055   5.555   5.377   4.926
 4683TIP3    H214056   5.635   5.277   5.008
 4684TIP3   OH214057   2.848   5.735   3.485
 4684TIP3    H114058   2.762   5.715   3.446
 4684TIP3    H214059   2.865   5.825   3.458
 4685TIP3   OH214060   2.614   2.773   1.648
 4685TIP3    H114061   2.590   2.681   1.642
 4685TIP3    H214062   2.587   2.810   1.564
 4686TIP3   OH214063   5.728   2.301   4.606
 4686TIP3    H114064   5.728   2.350   4.524
 4686TIP3    H214065   5.715   2.210   4.580
 4687TIP3   OH214066   6.129   4.006   3.895
 4687TIP3    H114067   6.190   4.075   3.922
 4687TIP3    H214068   6.173   3.962   3.822
 4688TIP3   OH214069   1.207   4.233   1.220
 4688TIP3    H114070   1.111   4.231   1.218
 4688TIP3    H214071   1.231   4.296   1.152
 4689TIP3   OH214072   1.165   0.599   1.878
 4689TIP3    H114073   1.125   0.636   1.799
 4689TIP3    H214074   1.128   0.649   1.950
 4690TIP3   OH214075   3.426   0.655   0.468
 4690TIP3    H114076   3.445   0.631   0.559
 4690TIP3    H214077   3.424   0.571   0.421
 4691TIP3   OH214078   1.340   3.192   0.111
 4691TIP3    H114079   1.324   3.112   0.060
 4691TIP3    H214080   1.324   3.166   0.202
 4692TIP3   OH214081   0.340   1.663   1.505
 4692TIP3    H114082   0.391   1.627   1.577
 4692TIP3    H214083   0.293   1.589   1.469
 4693TIP3   OH214084   1.806   0.852   2.311
 4693TIP3    H114085   1.753   0.835   2.233
 4693TIP3    H214086   1.745   0.841   2.384
 4694TIP3   OH214087   4.785   3.580   2.942
 4694TIP3    H114088   4.741   3.617   2.865
 4694TIP3    H214089   4.791   3.487   2.924
 4695TIP3   OH214090   0.543   2.538   2.788
 4695TIP3    H114091   0.594   2.460   2.765
 4695TIP3    H214092   0.516   2.524   2.878
 4696TIP3   OH214093   4.826   1.225   1.683
 4696TIP3    H114094   4.861   1.300   1.731
 4696TIP3    H214095   4.732   1.240   1.679
 4697TIP3   OH214096   3.334   3.143   0.729
 4697TIP3    H114097   3.253   3.126   0.681
 4697TIP3    H214098   3.337   3.239   0.736
 4698TIP3   OH214099   1.952   4.928   0.360
 4698TIP3    H114100   1.929   5.001   0.302
 4698TIP3    H214101   2.032   4.958   0.405
 4699TIP3   OH214102   1.981   4.736   3.295
 4699TIP3    H114103   1.941   4.822   3.287
 4699TIP3    H214104   2.075   4.752   3.286
 4700TIP3   OH214105   4.939   5.505   4.858
 4700TIP3    H114106   4.913   5.428   4.807
 4700TIP3    H214107   5.002   5.550   4.802
 4701TIP3   OH214108   5.838   1.731   0.960
 4701TIP3    H114109   5.848   1.636   0.950
 4701TIP3    H214110   5.746   1.747   0.941
 4702TIP3   OH214111   1.430   1.488   2.042
 4702TIP3    H114112   1.376   1.452   2.112
 4702TIP3    H214113   1.392   1.573   2.024
 4703TIP3   OH214114   6.011   1.307   0.799
 4703TIP3    H114115   6.049   1.223   0.823
 4703TIP3    H214116   6.026   1.363   0.876
 4704TIP3   OH214117   5.803   0.348   4.818
 4704TIP3    H114118   5.740   0.334   4.748
 4704TIP3    H214119   5.750   0.356   4.897
 4705TIP3   OH214120   3.469   5.817   2.782
 4705TIP3    H114121   3.419   5.875   2.839
 4705TIP3    H214122   3.470   5.861   2.697
 4706TIP3   OH214123   0.586   4.905   2.810
 4706TIP3    H114124   0.598   4.913   2.715
 4706TIP3    H214125   0.653   4.843   2.838
 4707TIP3   OH214126   4.878   4.555   0.864
 4707TIP3    H114127   4.852   4.468   0.833
 4707TIP3    H214128   4.820   4.571   0.939
 4708TIP3   OH214129   4.050   1.980   2.588
 4708TIP3    H114130   4.143   1.985   2.609
 4708TIP3    H214131   4.013   1.922   2.654
 4709TIP3   OH214132   1.363   0.334   2.401
 4709TIP3    H114133   1.312   0.384   2.464
 4709TIP3    H214134   1.448   0.320   2.443
 4710TIP3   OH214135   2.716   2.730   5.000
 4710TIP3    H114136   2.788   2.764   5.052
 4710TIP3    H214137   2.646   2.714   5.064
 4711TIP3   OH214138   5.358   1.748   0.690
 4711TIP3    H114139   5.298   1.677   0.667
 4711TIP3    H214140   5.314   1.793   0.763
 4712TIP3   OH214141   4.207   4.408   4.290
 4712TIP3    H114142   4.222   4.421   4.383
 4712TIP3    H214143   4.113   4.421   4.278
 4713TIP3   OH214144   1.608   3.385   1.053
 4713TIP3    H114145   1.601   3.320   1.123
 4713TIP3    H214146   1.582   3.338   0.974
 4714TIP3   OH214147   5.962   1.687   3.442
 4714TIP3    H114148   5.957   1.636   3.522
 4714TIP3    H214149   6.053   1.718   3.438
 4715TIP3   OH214150   6.025   5.717   4.285
 4715TIP3    H114151   6.008   5.664   4.363
 4715TIP3    H214152   6.027   5.807   4.317
 4716TIP3   OH214153   5.621   4.090   2.835
 4716TIP3    H114154   5.602   4.183   2.823
 4716TIP3    H214155   5.614   4.075   2.929
 4717TIP3   OH214156   0.403   2.129   3.753
 4717TIP3    H114157   0.441   2.216   3.742
 4717TIP3    H214158   0.385   2.099   3.664
 4718TIP3   OH214159   0.773   1.354   3.657
 4718TIP3    H114160   0.845   1.391   3.607
 4718TIP3    H214161   0.696   1.369   3.602
 4719TIP3   OH214162   0.378   4.551   4.242
 4719TIP3    H114163   0.426   4.627   4.210
 4719TIP3    H214164   0.440   4.479   4.236
 4720TIP3   OH214165   4.509   5.052   4.609
 4720TIP3    H114166   4.484   5.002   4.687
 4720TIP3    H214167   4.464   5.009   4.537
 4721TIP3   OH214168   3.967   5.551   3.038
 4721TIP3    H114169   3.995   5.573   2.950
 4721TIP3    H214170   3.957   5.455   3.037
 4722TIP3   OH214171   3.849   5.515   5.105
 4722TIP3    H114172   3.822   5.511   5.013
 4722TIP3    H214173   3.817   5.600   5.136
 4723TIP3   OH214174   0.876   4.215   1.454
 4723TIP3    H114175   0.819   4.212   1.531
 4723TIP3    H214176   0.920   4.300   1.461
 4724TIP3   OH214177   1.584   0.149   4.871
 4724TIP3    H114178   1.606   0.233   4.912
 4724TIP3    H214179   1.656   0.091   4.896
 4725TIP3   OH214180   1.655   1.596   0.883
 4725TIP3    H114181   1.611   1.635   0.808
 4725TIP3    H214182   1.592   1.602   0.955
 4726TIP3   OH214183   1.313   0.248   4.710
 4726TIP3    H114184   1.258   0.252   4.788
 4726TIP3    H214185   1.252   0.257   4.637
 4727TIP3   OH214186   1.699   4.864  -0.009
 4727TIP3    H114187   1.700   4.776   0.029
 4727TIP3    H214188   1.635   4.912   0.045
 4728TIP3   OH214189   3.812   1.940   3.036
 4728TIP3    H114190   3.719   1.942   3.015
 4728TIP3    H214191   3.820   1.875   3.105
 4729TIP3   OH214192   3.325   0.789   2.999
 4729TIP3    H114193   3.303   0.774   2.907
 4729TIP3    H214194   3.342   0.702   3.034
 4730TIP3   OH214195   4.209   0.995   2.816
 4730TIP3    H114196   4.165   1.067   2.770
 4730TIP3    H214197   4.299   1.024   2.825
 4731TIP3   OH214198   3.045   2.496   1.218
 4731TIP3    H114199   2.989   2.544   1.279
 4731TIP3    H214200   3.116   2.463   1.273
 4732TIP3   OH214201   3.200   0.529   2.141
 4732TIP3    H114202   3.252   0.483   2.074
 4732TIP3    H214203   3.109   0.517   2.114
 4733TIP3   OH214204   4.636   2.068   4.021
 4733TIP3    H114205   4.571   1.998   4.028
 4733TIP3    H214206   4.591   2.146   4.053
 4734TIP3   OH214207   5.053   1.024   0.803
 4734TIP3    H114208   4.982   1.072   0.845
 4734TIP3    H214209   5.040   1.038   0.709
 4735TIP3   OH214210   0.444   4.823   4.162
 4735TIP3    H114211   0.540   4.816   4.164
 4735TIP3    H214212   0.427   4.903   4.113
 4736TIP3   OH214213   5.125   3.438   1.318
 4736TIP3    H114214   5.038   3.430   1.280
 4736TIP3    H214215   5.116   3.505   1.386
 4737TIP3   OH214216   2.533   0.846   3.857
 4737TIP3    H114217   2.605   0.852   3.794
 4737TIP3    H214218   2.575   0.857   3.943
 4738TIP3   OH214219   5.739   2.883   2.723
 4738TIP3    H114220   5.773   2.798   2.749
 4738TIP3    H214221   5.644   2.874   2.729
 4739TIP3   OH214222   2.856   2.543   1.446
 4739TIP3    H114223   2.807   2.572   1.369
 4739TIP3    H214224   2.857   2.447   1.439
 4740TIP3   OH214225   2.720   4.111   1.988
 4740TIP3    H114226   2.682   4.023   1.987
 4740TIP3    H214227   2.741   4.127   2.080
 4741TIP3   OH214228   0.266   5.285   2.828
 4741TIP3    H114229   0.227   5.361   2.872
 4741TIP3    H214230   0.213   5.272   2.750
 4742TIP3   OH214231   1.356   4.586   4.334
 4742TIP3    H114232   1.323   4.670   4.301
 4742TIP3    H214233   1.406   4.608   4.412
 4743TIP3   OH214234   1.753   5.460   0.777
 4743TIP3    H114235   1.846   5.434   0.780
 4743TIP3    H214236   1.713   5.397   0.717
 4744TIP3   OH214237   2.414   4.450   4.878
 4744TIP3    H114238   2.459   4.529   4.910
 4744TIP3    H214239   2.476   4.379   4.897
 4745TIP3   OH214240   0.983   0.311   3.244
 4745TIP3    H114241   1.019   0.379   3.300
 4745TIP3    H214242   0.889   0.330   3.241
 4746TIP3   OH214243   5.437   1.303   4.070
 4746TIP3    H114244   5.457   1.210   4.081
 4746TIP3    H214245   5.522   1.346   4.068
 4747TIP3   OH214246   0.313   2.338   2.489
 4747TIP3    H114247   0.292   2.252   2.453
 4747TIP3    H214248   0.392   2.365   2.442
 4748TIP3   OH214249   5.710   3.514   2.946
 4748TIP3    H114250   5.801   3.493   2.921
 4748TIP3    H214251   5.678   3.570   2.875
 4749TIP3   OH214252   3.959   1.642   1.419
 4749TIP3    H114253   3.989   1.555   1.445
 4749TIP3    H214254   3.941   1.687   1.502
 4750TIP3   OH214255   3.335   1.041   4.056
 4750TIP3    H114256   3.325   0.948   4.077
 4750TIP3    H214257   3.429   1.056   4.058
 4751TIP3   OH214258   2.673   1.082   2.721
 4751TIP3    H114259   2.605   1.020   2.746
 4751TIP3    H214260   2.754   1.045   2.757
 4752TIP3   OH214261   3.395   2.577   0.074
 4752TIP3    H114262   3.393   2.640   0.002
 4752TIP3    H214263   3.325   2.605   0.132
 4753TIP3   OH214264   3.662   0.761   1.718
 4753TIP3    H114265   3.751   0.727   1.722
 4753TIP3    H214266   3.654   0.798   1.630
 4754TIP3   OH214267   6.093   4.877   1.783
 4754TIP3    H114268   6.123   4.931   1.709
 4754TIP3    H214269   6.070   4.793   1.743
 4755TIP3   OH214270   5.802   3.256   1.424
 4755TIP3    H114271   5.821   3.189   1.359
 4755TIP3    H214272   5.711   3.242   1.448
 4756TIP3   OH214273   4.652   3.593   1.376
 4756TIP3    H114274   4.630   3.645   1.299
 4756TIP3    H214275   4.577   3.536   1.389
 4757TIP3   OH214276   4.690   2.231   1.987
 4757TIP3    H114277   4.744   2.167   2.034
 4757TIP3    H214278   4.747   2.306   1.974
 4758TIP3   OH214279   6.090   5.220   0.488
 4758TIP3    H114280   6.074   5.149   0.551
 4758TIP3    H214281   6.040   5.195   0.410
 4759TIP3   OH214282   4.836   4.324   0.721
 4759TIP3    H114283   4.896   4.270   0.668
 4759TIP3    H214284   4.751   4.282   0.711
 4760TIP3   OH214285   0.175   1.570   4.043
 4760TIP3    H114286   0.105   1.516   4.005
 4760TIP3    H214287   0.246   1.508   4.061
 4761TIP3   OH214288   5.311   1.747   2.731
 4761TIP3    H114289   5.300   1.841   2.745
 4761TIP3    H214290   5.324   1.739   2.637
 4762TIP3   OH214291   2.165   0.577   0.707
 4762TIP3    H114292   2.180   0.672   0.709
 4762TIP3    H214293   2.085   0.564   0.759
 4763TIP3   OH214294   1.933   1.171   3.661
 4763TIP3    H114295   1.961   1.079   3.662
 4763TIP3    H214296   1.929   1.195   3.754
 4764TIP3   OH214297   2.412   4.979   1.479
 4764TIP3    H114298   2.497   4.943   1.502
 4764TIP3    H214299   2.358   4.903   1.457
 4765TIP3   OH214300   2.718   3.947   3.865
 4765TIP3    H114301   2.789   3.962   3.928
 4765TIP3    H214302   2.761   3.903   3.791
 4766TIP3   OH214303   1.600   0.551   4.134
 4766TIP3    H114304   1.541   0.614   4.175
 4766TIP3    H214305   1.672   0.541   4.196
 4767TIP3   OH214306   5.048   3.854   1.296
 4767TIP3    H114307   5.045   3.825   1.205
 4767TIP3    H214308   5.022   3.946   1.293
 4768TIP3   OH214309   2.914   2.232   0.811
 4768TIP3    H114310   2.996   2.191   0.839
 4768TIP3    H214311   2.865   2.245   0.892
 4769TIP3   OH214312   4.626   4.442   1.861
 4769TIP3    H114313   4.654   4.365   1.810
 4769TIP3    H214314   4.561   4.485   1.807
 4770TIP3   OH214315   4.367   4.275   3.596
 4770TIP3    H114316   4.452   4.277   3.640
 4770TIP3    H214317   4.352   4.365   3.567
 4771TIP3   OH214318   2.627   3.863   2.043
 4771TIP3    H114319   2.532   3.876   2.052
 4771TIP3    H214320   2.655   3.829   2.128
 4772TIP3   OH214321   5.549   3.157   5.165
 4772TIP3    H114322   5.604   3.090   5.207
 4772TIP3    H214323   5.503   3.198   5.238
 4773TIP3   OH214324   0.029   6.031   2.560
 4773TIP3    H114325   0.045   5.937   2.549
 4773TIP3    H214326   0.069   6.052   2.644
 4774TIP3   OH214327   1.478   0.065   4.088
 4774TIP3    H114328   1.512   0.033   4.172
 4774TIP3    H214329   1.507   0.156   4.084
 4775TIP3   OH214330   3.745   3.513   3.777
 4775TIP3    H114331   3.831   3.484   3.747
 4775TIP3    H214332   3.746   3.501   3.871
 4776TIP3   OH214333   1.271   2.810   4.465
 4776TIP3    H114334   1.282   2.762   4.548
 4776TIP3    H214335   1.352   2.792   4.417
 4777TIP3   OH214336   4.287   5.933   1.279
 4777TIP3    H114337   4.192   5.930   1.283
 4777TIP3    H214338   4.316   5.862   1.336
 4778TIP3   OH214339   5.837   2.850   4.142
 4778TIP3    H114340   5.768   2.788   4.118
 4778TIP3    H214341   5.905   2.795   4.182
 4779TIP3   OH214342   0.682   3.724   4.544
 4779TIP3    H114343   0.701   3.653   4.604
 4779TIP3    H214344   0.730   3.701   4.464
 4780TIP3   OH214345   2.404   3.587   2.294
 4780TIP3    H114346   2.399   3.494   2.315
 4780TIP3    H214347   2.495   3.612   2.311
 4781TIP3   OH214348   5.074   5.607   3.752
 4781TIP3    H114349   5.094   5.560   3.833
 4781TIP3    H214350   5.138   5.574   3.688
 4782TIP3   OH214351   2.383   1.145   0.615
 4782TIP3    H114352   2.400   1.116   0.705
 4782TIP3    H214353   2.291   1.122   0.599
 4783TIP3   OH214354   3.932   5.661   2.462
 4783TIP3    H114355   4.018   5.660   2.504
 4783TIP3    H214356   3.870   5.640   2.532
 4784TIP3   OH214357   2.930   0.023   1.729
 4784TIP3    H114358   2.977   0.014   1.813
 4784TIP3    H214359   2.940   0.115   1.706
 4785TIP3   OH214360   4.276   4.612   2.052
 4785TIP3    H114361   4.352   4.560   2.076
 4785TIP3    H214362   4.227   4.623   2.134
 4786TIP3   OH214363   5.568   3.047   2.383
 4786TIP3    H114364   5.579   3.071   2.475
 4786TIP3    H214365   5.497   3.103   2.352
 4787TIP3   OH214366   3.059   5.386   0.694
 4787TIP3    H114367   3.037   5.422   0.608
 4787TIP3    H214368   3.153   5.400   0.703
 4788TIP3   OH214369   0.039   2.556   0.742
 4788TIP3    H114370  -0.008   2.490   0.691
 4788TIP3    H214371   0.115   2.578   0.689
 4789TIP3   OH214372   3.579   1.080   1.279
 4789TIP3    H114373   3.558   0.987   1.270
 4789TIP3    H214374   3.671   1.082   1.307
 4790TIP3   OH214375   2.761   5.434   2.655
 4790TIP3    H114376   2.772   5.529   2.657
 4790TIP3    H214377   2.735   5.413   2.566
 4791TIP3   OH214378   2.003   2.965   1.519
 4791TIP3    H114379   1.975   2.890   1.467
 4791TIP3    H214380   1.948   3.037   1.490
 4792TIP3   OH214381   2.874   1.901   3.316
 4792TIP3    H114382   2.955   1.895   3.266
 4792TIP3    H214383   2.822   1.826   3.288
 4793TIP3   OH214384   4.911   1.744   4.110
 4793TIP3    H114385   4.932   1.690   4.034
 4793TIP3    H214386   4.816   1.737   4.118
 4794TIP3   OH214387   1.547   3.825   4.858
 4794TIP3    H114388   1.488   3.852   4.788
 4794TIP3    H214389   1.629   3.803   4.814
 4795TIP3   OH214390   2.866   5.185   0.088
 4795TIP3    H114391   2.801   5.115   0.086
 4795TIP3    H214392   2.820   5.261   0.122
 4796TIP3   OH214393   1.789   2.634   3.694
 4796TIP3    H114394   1.840   2.573   3.748
 4796TIP3    H214395   1.799   2.601   3.605
 4797TIP3   OH214396   6.254   4.638   3.976
 4797TIP3    H114397   6.269   4.547   3.952
 4797TIP3    H214398   6.170   4.661   3.934
 4798TIP3   OH214399   2.588   4.206   5.162
 4798TIP3    H114400   2.582   4.166   5.075
 4798TIP3    H214401   2.661   4.268   5.155
 4799TIP3   OH214402   0.321   5.548   0.712
 4799TIP3    H114403   0.244   5.497   0.685
 4799TIP3    H214404   0.376   5.485   0.760
 4800TIP3   OH214405   3.896   0.249   2.579
 4800TIP3    H114406   3.923   0.326   2.530
 4800TIP3    H214407   3.973   0.224   2.630
 4801TIP3   OH214408   5.119   4.775   2.700
 4801TIP3    H114409   5.173   4.761   2.622
 4801TIP3    H214410   5.097   4.687   2.730
 4802TIP3   OH214411   0.236   1.998   3.519
 4802TIP3    H114412   0.299   2.045   3.464
 4802TIP3    H214413   0.218   1.917   3.471
 4803TIP3   OH214414   1.630   5.837   4.500
 4803TIP3    H114415   1.616   5.822   4.406
 4803TIP3    H214416   1.628   5.933   4.509
 4804TIP3   OH214417   3.029   5.425   3.813
 4804TIP3    H114418   3.089   5.353   3.834
 4804TIP3    H214419   3.034   5.484   3.888
 4805TIP3   OH214420   2.982   1.537   1.389
 4805TIP3    H114421   3.052   1.602   1.384
 4805TIP3    H214422   2.967   1.524   1.482
 4806TIP3   OH214423   5.778   4.001   4.612
 4806TIP3    H114424   5.720   3.954   4.672
 4806TIP3    H214425   5.825   3.931   4.565
 4807TIP3   OH214426   5.064   4.003   4.351
 4807TIP3    H114427   5.001   4.074   4.364
 4807TIP3    H214428   5.074   3.964   4.438
 4808TIP3   OH214429   1.628   2.463   1.582
 4808TIP3    H114430   1.680   2.541   1.560
 4808TIP3    H214431   1.608   2.473   1.675
 4809TIP3   OH214432   2.127   5.867   4.914
 4809TIP3    H114433   2.137   5.780   4.952
 4809TIP3    H214434   2.216   5.902   4.910
 4810TIP3   OH214435   5.325   5.593   1.786
 4810TIP3    H114436   5.341   5.559   1.698
 4810TIP3    H214437   5.412   5.617   1.818
 4811TIP3   OH214438   4.890   2.998   0.677
 4811TIP3    H114439   4.966   2.969   0.626
 4811TIP3    H214440   4.890   2.942   0.754
 4812TIP3   OH214441   3.240   0.738   2.304
 4812TIP3    H114442   3.327   0.773   2.291
 4812TIP3    H214443   3.225   0.681   2.228
 4813TIP3   OH214444   2.926   3.188   2.350
 4813TIP3    H114445   2.878   3.242   2.288
 4813TIP3    H214446   2.946   3.107   2.303
 4814TIP3   OH214447   4.420   3.177   1.398
 4814TIP3    H114448   4.500   3.171   1.450
 4814TIP3    H214449   4.435   3.252   1.340
 4815TIP3   OH214450   3.177   0.737   1.762
 4815TIP3    H114451   3.124   0.782   1.828
 4815TIP3    H214452   3.260   0.717   1.806
 4816TIP3   OH214453   3.921   3.469   4.418
 4816TIP3    H114454   3.978   3.393   4.413
 4816TIP3    H214455   3.980   3.542   4.438
 4817TIP3   OH214456   1.067   5.310   2.364
 4817TIP3    H114457   0.980   5.332   2.332
 4817TIP3    H214458   1.079   5.365   2.441
 4818TIP3   OH214459   6.104   1.899   1.797
 4818TIP3    H114460   6.151   1.904   1.880
 4818TIP3    H214461   6.172   1.888   1.731
 4819TIP3   OH214462   3.200   1.314   1.582
 4819TIP3    H114463   3.295   1.320   1.577
 4819TIP3    H214464   3.182   1.220   1.572
 4820TIP3   OH214465   2.435   4.676   3.098
 4820TIP3    H114466   2.516   4.725   3.114
 4820TIP3    H214467   2.415   4.692   3.005
 4821TIP3   OH214468   3.437   3.848   1.736
 4821TIP3    H114469   3.361   3.883   1.690
 4821TIP3    H214470   3.435   3.754   1.718
 4822TIP3   OH214471   3.407   3.896   2.016
 4822TIP3    H114472   3.390   3.807   1.983
 4822TIP3    H214473   3.463   3.935   1.949
 4823TIP3   OH214474   5.221   5.735   2.846
 4823TIP3    H114475   5.281   5.789   2.898
 4823TIP3    H214476   5.220   5.651   2.890
 4824TIP3   OH214477   1.426   0.394   1.788
 4824TIP3    H114478   1.443   0.481   1.752
 4824TIP3    H214479   1.405   0.410   1.880
 4825TIP3   OH214480   4.896   0.694   5.121
 4825TIP3    H114481   4.946   0.760   5.168
 4825TIP3    H214482   4.923   0.611   5.159
 4826TIP3   OH214483   4.253   5.323   1.797
 4826TIP3    H114484   4.247   5.260   1.724
 4826TIP3    H214485   4.341   5.360   1.788
 4827TIP3   OH214486   2.443   1.022   1.535
 4827TIP3    H114487   2.506   1.018   1.464
 4827TIP3    H214488   2.460   1.106   1.578
 4828TIP3   OH214489   4.792   5.720   0.886
 4828TIP3    H114490   4.701   5.693   0.898
 4828TIP3    H214491   4.842   5.639   0.899
 4829TIP3   OH214492   6.326   2.785   0.455
 4829TIP3    H114493   6.318   2.713   0.393
 4829TIP3    H214494   6.403   2.763   0.507
 4830TIP3   OH214495   5.732   3.130   4.085
 4830TIP3    H114496   5.725   3.075   4.007
 4830TIP3    H214497   5.765   3.071   4.153
 4831TIP3   OH214498   3.628   2.877   5.200
 4831TIP3    H114499   3.629   2.916   5.112
 4831TIP3    H214500   3.711   2.905   5.239
 4832TIP3   OH214501   3.414   3.316   1.048
 4832TIP3    H114502   3.423   3.343   0.957
 4832TIP3    H214503   3.447   3.390   1.098
 4833TIP3   OH214504   0.958   0.297   5.112
 4833TIP3    H114505   0.973   0.295   5.207
 4833TIP3    H214506   0.904   0.374   5.098
 4834TIP3   OH214507   1.617   1.473   4.103
 4834TIP3    H114508   1.547   1.454   4.040
 4834TIP3    H214509   1.607   1.405   4.170
 4835TIP3   OH214510   3.216   1.726   1.612
 4835TIP3    H114511   3.280   1.658   1.636
 4835TIP3    H214512   3.131   1.686   1.630
 4836TIP3   OH214513   4.232   1.454   3.132
 4836TIP3    H114514   4.153   1.464   3.184
 4836TIP3    H214515   4.207   1.483   3.044
 4837TIP3   OH214516   0.036   5.234   5.175
 4837TIP3    H114517   0.052   5.156   5.122
 4837TIP3    H214518  -0.028   5.205   5.241
 4838TIP3   OH214519   0.948   1.112   0.977
 4838TIP3    H114520   0.939   1.082   1.068
 4838TIP3    H214521   0.991   1.039   0.932
 4839TIP3   OH214522   6.194   3.063   0.482
 4839TIP3    H114523   6.260   2.993   0.485
 4839TIP3    H214524   6.118   3.025   0.526
 4840TIP3   OH214525   5.080   2.356   4.496
 4840TIP3    H114526   5.119   2.430   4.449
 4840TIP3    H214527   4.990   2.385   4.514
 4841TIP3   OH214528   2.452   1.504   4.487
 4841TIP3    H114529   2.365   1.465   4.485
 4841TIP3    H214530   2.456   1.550   4.571
 4842TIP3   OH214531   2.108   2.006   0.139
 4842TIP3    H114532   2.122   1.928   0.193
 4842TIP3    H214533   2.074   2.072   0.200
 4843TIP3   OH214534   5.198   4.506   2.810
 4843TIP3    H114535   5.194   4.494   2.715
 4843TIP3    H214536   5.264   4.574   2.824
 4844TIP3   OH214537   2.527   4.274   1.317
 4844TIP3    H114538   2.500   4.364   1.335
 4844TIP3    H214539   2.553   4.275   1.225
 4845TIP3   OH214540   4.156   0.338   2.312
 4845TIP3    H114541   4.250   0.349   2.330
 4845TIP3    H214542   4.116   0.419   2.342
 4846TIP3   OH214543   0.229   0.147   3.046
 4846TIP3    H114544   0.145   0.127   3.006
 4846TIP3    H214545   0.294   0.110   2.986
 4847TIP3   OH214546   4.358   4.577   2.596
 4847TIP3    H114547   4.349   4.672   2.593
 4847TIP3    H214548   4.276   4.546   2.635
 4848TIP3   OH214549   4.435   5.729   3.791
 4848TIP3    H114550   4.457   5.749   3.700
 4848TIP3    H214551   4.468   5.641   3.805
 4849TIP3   OH214552   0.163   5.252   1.895
 4849TIP3    H114553   0.204   5.339   1.889
 4849TIP3    H214554   0.120   5.240   1.810
 4850TIP3   OH214555   2.742   1.936   2.824
 4850TIP3    H114556   2.797   1.962   2.898
 4850TIP3    H214557   2.804   1.918   2.753
 4851TIP3   OH214558   2.192   3.953   0.865
 4851TIP3    H114559   2.249   4.028   0.882
 4851TIP3    H214560   2.106   3.991   0.850
 4852TIP3   OH214561   2.764   2.416   1.807
 4852TIP3    H114562   2.846   2.454   1.775
 4852TIP3    H214563   2.699   2.438   1.741
 4853TIP3   OH214564   2.907   1.513   4.218
 4853TIP3    H114565   2.927   1.606   4.208
 4853TIP3    H214566   2.961   1.469   4.153
 4854TIP3   OH214567   3.480   5.350   2.398
 4854TIP3    H114568   3.563   5.329   2.355
 4854TIP3    H214569   3.470   5.283   2.466
 4855TIP3   OH214570   3.479   5.653   0.814
 4855TIP3    H114571   3.484   5.703   0.895
 4855TIP3    H214572   3.569   5.623   0.799
 4856TIP3   OH214573   3.112   6.001   2.716
 4856TIP3    H114574   3.087   5.950   2.793
 4856TIP3    H214575   3.136   6.087   2.751
 4857TIP3   OH214576   0.040   0.891   0.666
 4857TIP3    H114577   0.134   0.897   0.649
 4857TIP3    H214578   0.021   0.965   0.723
 4858TIP3   OH214579   3.996   3.762   3.185
 4858TIP3    H114580   4.069   3.816   3.215
 4858TIP3    H214581   4.006   3.680   3.234
 4859TIP3   OH214582   3.551   0.712   5.132
 4859TIP3    H114583   3.513   0.779   5.188
 4859TIP3    H214584   3.489   0.702   5.060
 4860TIP3   OH214585   0.728   4.902   2.565
 4860TIP3    H114586   0.679   4.965   2.512
 4860TIP3    H214587   0.738   4.825   2.509
 4861TIP3   OH214588   4.988   4.683   2.039
 4861TIP3    H114589   4.976   4.761   1.986
 4861TIP3    H214590   4.900   4.656   2.063
 4862TIP3   OH214591   1.858   2.478   2.514
 4862TIP3    H114592   1.918   2.507   2.582
 4862TIP3    H214593   1.915   2.445   2.444
 4863TIP3   OH214594   0.527   2.630   0.097
 4863TIP3    H114595   0.611   2.585   0.110
 4863TIP3    H214596   0.494   2.596   0.014
 4864TIP3   OH214597   6.006   2.461   0.249
 4864TIP3    H114598   6.031   2.386   0.302
 4864TIP3    H214599   5.968   2.422   0.170
 4865TIP3   OH214600   1.526   1.320   0.579
 4865TIP3    H114601   1.617   1.302   0.604
 4865TIP3    H214602   1.516   1.278   0.494
 4866TIP3   OH214603   4.961   4.596   2.985
 4866TIP3    H114604   4.881   4.546   2.968
 4866TIP3    H214605   5.016   4.578   2.908
 4867TIP3   OH214606   4.506   1.461   5.107
 4867TIP3    H114607   4.473   1.453   5.196
 4867TIP3    H214608   4.439   1.513   5.062
 4868TIP3   OH214609   4.689   0.359   1.142
 4868TIP3    H114610   4.731   0.445   1.153
 4868TIP3    H214611   4.761   0.297   1.138
 4869TIP3   OH214612   3.016   4.961   3.896
 4869TIP3    H114613   2.959   4.905   3.949
 4869TIP3    H214614   2.958   4.997   3.828
 4870TIP3   OH214615   4.722   4.357   1.048
 4870TIP3    H114616   4.650   4.346   0.986
 4870TIP3    H214617   4.722   4.450   1.068
 4871TIP3   OH214618   6.210   4.790   2.655
 4871TIP3    H114619   6.243   4.715   2.606
 4871TIP3    H214620   6.279   4.856   2.645
 4872TIP3   OH214621   1.416   3.036   2.038
 4872TIP3    H114622   1.344   3.098   2.030
 4872TIP3    H214623   1.374   2.950   2.038
 4873TIP3   OH214624   2.107   2.433   3.129
 4873TIP3    H114625   2.130   2.350   3.169
 4873TIP3    H214626   2.190   2.482   3.126
 4874TIP3   OH214627   2.508   0.155   2.126
 4874TIP3    H114628   2.528   0.109   2.207
 4874TIP3    H214629   2.434   0.107   2.089
 4875TIP3   OH214630   6.263   0.102   1.680
 4875TIP3    H114631   6.314   0.022   1.663
 4875TIP3    H214632   6.314   0.149   1.746
 4876TIP3   OH214633   1.387   0.773   3.130
 4876TIP3    H114634   1.373   0.749   3.039
 4876TIP3    H214635   1.434   0.857   3.126
 4877TIP3   OH214636   0.626   2.403   1.491
 4877TIP3    H114637   0.621   2.332   1.427
 4877TIP3    H214638   0.545   2.397   1.540
 4878TIP3   OH214639   0.433   3.571   2.241
 4878TIP3    H114640   0.505   3.611   2.291
 4878TIP3    H214641   0.383   3.523   2.307
 4879TIP3   OH214642   5.672   0.595   1.950
 4879TIP3    H114643   5.642   0.686   1.942
 4879TIP3    H214644   5.665   0.559   1.862
 4880TIP3   OH214645   0.397   4.248   2.086
 4880TIP3    H114646   0.415   4.155   2.071
 4880TIP3    H214647   0.472   4.279   2.137
 4881TIP3   OH214648   6.086   4.420   3.231
 4881TIP3    H114649   6.046   4.368   3.300
 4881TIP3    H214650   6.075   4.511   3.259
 4882TIP3   OH214651   1.770   3.709   2.848
 4882TIP3    H114652   1.743   3.800   2.864
 4882TIP3    H214653   1.860   3.705   2.879
 4883TIP3   OH214654   6.112   1.050   0.212
 4883TIP3    H114655   6.037   1.068   0.268
 4883TIP3    H214656   6.187   1.086   0.260
 4884TIP3   OH214657   2.085   1.209   3.114
 4884TIP3    H114658   2.180   1.204   3.107
 4884TIP3    H214659   2.064   1.163   3.195
 4885TIP3   OH214660   6.230   1.451   2.816
 4885TIP3    H114661   6.227   1.506   2.894
 4885TIP3    H214662   6.321   1.457   2.787
 4886TIP3   OH214663   0.473   2.114   3.454
 4886TIP3    H114664   0.526   2.194   3.456
 4886TIP3    H214665   0.535   2.043   3.471
 4887TIP3   OH214666   2.469   3.037   2.252
 4887TIP3    H114667   2.484   3.057   2.345
 4887TIP3    H214668   2.436   3.119   2.215
 4888TIP3   OH214669   3.950   3.150   2.854
 4888TIP3    H114670   3.881   3.150   2.787
 4888TIP3    H214671   3.906   3.123   2.934
 4889TIP3   OH214672   3.005   3.103   3.793
 4889TIP3    H114673   3.061   3.054   3.732
 4889TIP3    H214674   2.958   3.036   3.841
 4890TIP3   OH214675   1.776   3.972   2.888
 4890TIP3    H114676   1.816   4.018   2.815
 4890TIP3    H214677   1.818   4.009   2.966
 4891TIP3   OH214678   0.901   2.570   5.063
 4891TIP3    H114679   0.854   2.533   4.988
 4891TIP3    H214680   0.865   2.657   5.074
 4892TIP3   OH214681   2.111   5.030   0.559
 4892TIP3    H114682   2.188   5.086   0.569
 4892TIP3    H214683   2.117   4.969   0.632
 4893TIP3   OH214684   4.277   3.276   0.803
 4893TIP3    H114685   4.200   3.323   0.834
 4893TIP3    H214686   4.273   3.283   0.707
 4894TIP3   OH214687   4.630   0.238   3.355
 4894TIP3    H114688   4.545   0.281   3.344
 4894TIP3    H214689   4.613   0.147   3.331
 4895TIP3   OH214690   1.555   3.363   1.375
 4895TIP3    H114691   1.538   3.336   1.465
 4895TIP3    H214692   1.618   3.299   1.342
 4896TIP3   OH214693   1.295   3.623   4.497
 4896TIP3    H114694   1.239   3.617   4.419
 4896TIP3    H214695   1.369   3.677   4.469
 4897TIP3   OH214696   1.296   0.508   0.038
 4897TIP3    H114697   1.281   0.443   0.107
 4897TIP3    H214698   1.214   0.555   0.031
 4898TIP3   OH214699   2.431   0.774   5.117
 4898TIP3    H114700   2.521   0.742   5.112
 4898TIP3    H214701   2.389   0.739   5.038
 4899TIP3   OH214702   3.906   1.074   4.034
 4899TIP3    H114703   3.962   1.088   3.958
 4899TIP3    H214704   3.894   1.161   4.072
 4900TIP3   OH214705   6.335   5.593   0.753
 4900TIP3    H114706   6.284   5.529   0.803
 4900TIP3    H214707   6.293   5.677   0.773
 4901TIP3   OH214708   3.579   1.223   2.977
 4901TIP3    H114709   3.529   1.278   2.916
 4901TIP3    H214710   3.542   1.243   3.063
 4902TIP3   OH214711   5.746   4.050   1.344
 4902TIP3    H114712   5.816   3.998   1.305
 4902TIP3    H214713   5.781   4.139   1.347
 4903TIP3   OH214714   1.553   1.229   3.878
 4903TIP3    H114715   1.481   1.181   3.917
 4903TIP3    H214716   1.512   1.293   3.820
 4904TIP3   OH214717   6.043   2.998   3.733
 4904TIP3    H114718   6.101   2.922   3.729
 4904TIP3    H214719   6.035   3.028   3.643
 4905TIP3   OH214720   4.023   0.632   1.896
 4905TIP3    H114721   4.115   0.647   1.872
 4905TIP3    H214722   3.979   0.618   1.812
 4906TIP3   OH214723   1.689   0.781   4.705
 4906TIP3    H114724   1.640   0.840   4.649
 4906TIP3    H214725   1.759   0.836   4.742
 4907TIP3   OH214726   5.885   1.313   1.370
 4907TIP3    H114727   5.934   1.361   1.303
 4907TIP3    H214728   5.890   1.370   1.447
 4908TIP3   OH214729   3.734   3.718   3.298
 4908TIP3    H114730   3.687   3.771   3.234
 4908TIP3    H214731   3.827   3.728   3.274
 4909TIP3   OH214732   1.579   0.958   2.090
 4909TIP3    H114733   1.630   0.878   2.092
 4909TIP3    H214734   1.553   0.968   1.998
 4910TIP3   OH214735   5.193   3.096   4.593
 4910TIP3    H114736   5.288   3.103   4.585
 4910TIP3    H214737   5.160   3.139   4.514
 4911TIP3   OH214738   3.834   4.503   1.278
 4911TIP3    H114739   3.862   4.412   1.284
 4911TIP3    H214740   3.801   4.524   1.366
 4912TIP3   OH214741   0.759   5.361   1.984
 4912TIP3    H114742   0.800   5.432   1.934
 4912TIP3    H214743   0.782   5.378   2.075
 4913TIP3   OH214744   0.326   4.223   0.334
 4913TIP3    H114745   0.369   4.301   0.299
 4913TIP3    H214746   0.364   4.212   0.421
 4914TIP3   OH214747   0.087   5.289   2.345
 4914TIP3    H114748   0.087   5.372   2.298
 4914TIP3    H214749  -0.005   5.266   2.354
 4915TIP3   OH214750   4.216   5.131   4.812
 4915TIP3    H114751   4.234   5.207   4.756
 4915TIP3    H214752   4.190   5.169   4.896
 4916TIP3   OH214753   6.056   0.678   2.064
 4916TIP3    H114754   6.022   0.752   2.014
 4916TIP3    H214755   6.020   0.601   2.019
 4917TIP3   OH214756   4.424   1.162   4.843
 4917TIP3    H114757   4.464   1.122   4.766
 4917TIP3    H214758   4.498   1.179   4.902
 4918TIP3   OH214759   1.000   4.826   0.967
 4918TIP3    H114760   1.014   4.731   0.965
 4918TIP3    H214761   1.039   4.857   0.886
 4919TIP3   OH214762   1.614   5.066   4.119
 4919TIP3    H114763   1.661   5.102   4.044
 4919TIP3    H214764   1.683   5.047   4.183
 4920TIP3   OH214765   5.792   2.093   3.720
 4920TIP3    H114766   5.772   2.126   3.632
 4920TIP3    H214767   5.888   2.088   3.722
 4921TIP3   OH214768   6.213   2.668   0.203
 4921TIP3    H114769   6.220   2.699   0.112
 4921TIP3    H214770   6.136   2.611   0.203
 4922TIP3   OH214771   3.954   4.268   1.995
 4922TIP3    H114772   3.895   4.195   2.011
 4922TIP3    H214773   4.036   4.243   2.037
 4923TIP3   OH214774   2.948   4.801   5.106
 4923TIP3    H114775   2.908   4.763   5.185
 4923TIP3    H214776   2.881   4.860   5.072
 4924TIP3   OH214777   1.388   2.210   2.586
 4924TIP3    H114778   1.441   2.222   2.508
 4924TIP3    H214779   1.407   2.286   2.641
 4925TIP3   OH214780   5.505   1.230   1.653
 4925TIP3    H114781   5.562   1.206   1.580
 4925TIP3    H214782   5.434   1.166   1.650
 4926TIP3   OH214783   4.285   0.570   1.793
 4926TIP3    H114784   4.377   0.583   1.770
 4926TIP3    H214785   4.288   0.519   1.874
 4927TIP3   OH214786   6.212   2.356   1.724
 4927TIP3    H114787   6.120   2.381   1.718
 4927TIP3    H214788   6.259   2.425   1.678
 4928TIP3   OH214789   0.440   5.013   0.485
 4928TIP3    H114790   0.411   4.937   0.434
 4928TIP3    H214791   0.407   4.996   0.573
 4929TIP3   OH214792   2.119   1.855   1.714
 4929TIP3    H114793   2.122   1.826   1.805
 4929TIP3    H214794   2.177   1.796   1.667
 4930TIP3   OH214795   1.896   0.585   0.854
 4930TIP3    H114796   1.852   0.669   0.839
 4930TIP3    H214797   1.870   0.530   0.780
 4931TIP3   OH214798   5.591   1.703   3.098
 4931TIP3    H114799   5.649   1.628   3.109
 4931TIP3    H214800   5.534   1.679   3.025
 4932TIP3   OH214801   2.442   3.928   3.489
 4932TIP3    H114802   2.419   4.004   3.542
 4932TIP3    H214803   2.436   3.854   3.548
 4933TIP3   OH214804   5.238   4.174   4.734
 4933TIP3    H114805   5.300   4.213   4.795
 4933TIP3    H214806   5.286   4.099   4.697
 4934TIP3   OH214807   5.045   2.675   3.822
 4934TIP3    H114808   4.983   2.609   3.791
 4934TIP3    H214809   4.990   2.748   3.851
 4935TIP3   OH214810   0.841   4.774   0.030
 4935TIP3    H114811   0.819   4.764   0.123
 4935TIP3    H214812   0.757   4.781  -0.014
 4936TIP3   OH214813   3.465   5.603   4.356
 4936TIP3    H114814   3.505   5.675   4.307
 4936TIP3    H214815   3.508   5.524   4.322
 4937TIP3   OH214816   1.357   4.690   3.525
 4937TIP3    H114817   1.447   4.706   3.553
 4937TIP3    H214818   1.367   4.645   3.441
 4938TIP3   OH214819   2.285   1.656   2.765
 4938TIP3    H114820   2.373   1.681   2.790
 4938TIP3    H214821   2.232   1.675   2.842
 4939TIP3   OH214822   5.539   4.220   2.019
 4939TIP3    H114823   5.617   4.197   1.967
 4939TIP3    H214824   5.520   4.310   1.995
 4940TIP3   OH214825   5.026   4.545   1.555
 4940TIP3    H114826   5.091   4.576   1.491
 4940TIP3    H214827   4.945   4.591   1.530
 4941TIP3   OH214828   4.784   1.536   3.712
 4941TIP3    H114829   4.770   1.630   3.699
 4941TIP3    H214830   4.820   1.529   3.800
 4942TIP3   OH214831   6.106   3.785   3.089
 4942TIP3    H114832   6.089   3.705   3.138
 4942TIP3    H214833   6.167   3.835   3.144
 4943TIP3   OH214834   4.177   3.067   1.343
 4943TIP3    H114835   4.242   3.116   1.392
 4943TIP3    H214836   4.178   3.104   1.255
 4944TIP3   OH214837   1.441   4.554   1.876
 4944TIP3    H114838   1.535   4.568   1.884
 4944TIP3    H214839   1.402   4.621   1.931
 4945TIP3   OH214840   0.844   4.414   3.992
 4945TIP3    H114841   0.919   4.456   3.950
 4945TIP3    H214842   0.844   4.325   3.956
 4946TIP3   OH214843   4.949   0.433   4.053
 4946TIP3    H114844   4.972   0.467   3.966
 4946TIP3    H214845   5.033   0.414   4.095
 4947TIP3   OH214846   2.618   1.636   3.526
 4947TIP3    H114847   2.662   1.611   3.607
 4947TIP3    H214848   2.611   1.731   3.530
 4948TIP3   OH214849   4.417   3.654   4.277
 4948TIP3    H114850   4.331   3.682   4.248
 4948TIP3    H214851   4.400   3.593   4.349
 4949TIP3   OH214852   3.739   3.782   1.570
 4949TIP3    H114853   3.694   3.864   1.589
 4949TIP3    H214854   3.831   3.806   1.562
 4950TIP3   OH214855   2.904   0.483   0.846
 4950TIP3    H114856   2.866   0.567   0.820
 4950TIP3    H214857   2.831   0.435   0.886
 4951TIP3   OH214858   2.875   4.811   0.109
 4951TIP3    H114859   2.837   4.825   0.023
 4951TIP3    H214860   2.960   4.772   0.092
 4952TIP3   OH214861   2.417   1.947   1.948
 4952TIP3    H114862   2.458   1.881   2.005
 4952TIP3    H214863   2.404   2.023   2.004
 4953TIP3   OH214864   4.508   0.449   4.141
 4953TIP3    H114865   4.477   0.532   4.179
 4953TIP3    H214866   4.503   0.462   4.047
 4954TIP3   OH214867   4.053   4.917   1.764
 4954TIP3    H114868   4.127   4.917   1.825
 4954TIP3    H214869   4.085   4.967   1.689
 4955TIP3   OH214870   4.301   1.128   0.377
 4955TIP3    H114871   4.303   1.034   0.396
 4955TIP3    H214872   4.308   1.133   0.282
 4956TIP3   OH214873   2.913   1.687   2.326
 4956TIP3    H114874   2.844   1.643   2.276
 4956TIP3    H214875   2.900   1.780   2.307
 4957TIP3   OH214876   5.498   4.288   3.984
 4957TIP3    H114877   5.403   4.298   3.981
 4957TIP3    H214878   5.530   4.348   3.916
 4958TIP3   OH214879   2.212   5.230   3.154
 4958TIP3    H114880   2.278   5.198   3.216
 4958TIP3    H214881   2.180   5.311   3.193
 4959TIP3   OH214882   5.244   3.805   2.539
 4959TIP3    H114883   5.319   3.753   2.567
 4959TIP3    H214884   5.169   3.746   2.548
 4960TIP3   OH214885   2.735   3.369   3.505
 4960TIP3    H114886   2.664   3.310   3.533
 4960TIP3    H214887   2.706   3.455   3.534
 4961TIP3   OH214888   0.763   3.582   4.750
 4961TIP3    H114889   0.693   3.526   4.781
 4961TIP3    H214890   0.841   3.526   4.749
 4962TIP3   OH214891   2.121   4.674   4.291
 4962TIP3    H114892   2.056   4.718   4.346
 4962TIP3    H214893   2.127   4.586   4.327
 4963TIP3   OH214894   1.709   3.537   2.349
 4963TIP3    H114895   1.697   3.612   2.407
 4963TIP3    H214896   1.784   3.560   2.295
 4964TIP3   OH214897   0.965   3.746   1.940
 4964TIP3    H114898   0.872   3.762   1.953
 4964TIP3    H214899   1.007   3.831   1.949
 4965TIP3   OH214900   6.278   0.127   0.670
 4965TIP3    H114901   6.329   0.053   0.703
 4965TIP3    H214902   6.191   0.090   0.653
 4966TIP3   OH214903   6.283   0.034   3.717
 4966TIP3    H114904   6.267  -0.060   3.723
 4966TIP3    H214905   6.277   0.053   3.623
 4967TIP3   OH214906   4.472   2.373   2.089
 4967TIP3    H114907   4.498   2.281   2.075
 4967TIP3    H214908   4.378   2.374   2.076
 4968TIP3   OH214909   3.932   3.502   1.306
 4968TIP3    H114910   3.987   3.495   1.384
 4968TIP3    H214911   3.843   3.491   1.338
 4969TIP3   OH214912   1.144   2.670   1.812
 4969TIP3    H114913   1.064   2.682   1.864
 4969TIP3    H214914   1.200   2.615   1.867
 4970TIP3   OH214915   2.346   4.711   1.114
 4970TIP3    H114916   2.257   4.736   1.140
 4970TIP3    H214917   2.351   4.733   1.021
 4971TIP3   OH214918   4.663   1.815   3.282
 4971TIP3    H114919   4.637   1.731   3.318
 4971TIP3    H214920   4.654   1.876   3.356
 4972TIP3   OH214921   1.124   4.657   1.446
 4972TIP3    H114922   1.171   4.714   1.507
 4972TIP3    H214923   1.032   4.683   1.454
 4973TIP3   OH214924   3.474   4.136   0.069
 4973TIP3    H114925   3.494   4.179  -0.015
 4973TIP3    H214926   3.450   4.208   0.127
 4974TIP3   OH214927   1.368   4.846   4.820
 4974TIP3    H114928   1.352   4.940   4.827
 4974TIP3    H214929   1.281   4.806   4.829
 4975TIP3   OH214930   3.893   3.585   2.914
 4975TIP3    H114931   3.893   3.590   2.818
 4975TIP3    H214932   3.817   3.531   2.936
 4976TIP3   OH214933   4.198   3.377   3.138
 4976TIP3    H114934   4.183   3.301   3.082
 4976TIP3    H214935   4.267   3.350   3.198
 4977TIP3   OH214936   1.241   3.959   3.045
 4977TIP3    H114937   1.331   3.961   3.012
 4977TIP3    H214938   1.199   4.036   3.006
 4978TIP3   OH214939   3.521   1.290   1.068
 4978TIP3    H114940   3.555   1.232   1.136
 4978TIP3    H214941   3.589   1.355   1.054
 4979TIP3   OH214942   0.463   1.092   3.042
 4979TIP3    H114943   0.395   1.101   2.975
 4979TIP3    H214944   0.545   1.098   2.992
 4980TIP3   OH214945   0.225   2.897   4.390
 4980TIP3    H114946   0.184   2.824   4.438
 4980TIP3    H214947   0.261   2.856   4.312
 4981TIP3   OH214948   3.807   0.593   4.543
 4981TIP3    H114949   3.831   0.627   4.630
 4981TIP3    H214950   3.871   0.632   4.484
 4982TIP3   OH214951   1.270   5.376   0.018
 4982TIP3    H114952   1.297   5.414   0.102
 4982TIP3    H214953   1.243   5.451  -0.035
 4983TIP3   OH214954   1.579   3.561   2.635
 4983TIP3    H114955   1.615   3.637   2.588
 4983TIP3    H214956   1.491   3.590   2.661
 4984TIP3   OH214957   0.594   2.979   4.067
 4984TIP3    H114958   0.613   2.887   4.084
 4984TIP3    H214959   0.640   3.026   4.137
 4985TIP3   OH214960   2.855   2.120   0.579
 4985TIP3    H114961   2.770   2.080   0.597
 4985TIP3    H214962   2.888   2.147   0.665
 4986TIP3   OH214963   5.847   3.067   1.266
 4986TIP3    H114964   5.938   3.045   1.285
 4986TIP3    H214965   5.806   2.984   1.242
 4987TIP3   OH214966   4.621   4.665   4.530
 4987TIP3    H114967   4.644   4.746   4.485
 4987TIP3    H214968   4.659   4.675   4.618
 4988TIP3   OH214969   3.929   1.540   3.484
 4988TIP3    H114970   4.013   1.585   3.478
 4988TIP3    H214971   3.942   1.458   3.436
 4989TIP3   OH214972   4.133   4.655   1.819
 4989TIP3    H114973   4.182   4.656   1.901
 4989TIP3    H214974   4.107   4.746   1.806
 4990TIP3   OH214975   4.672   0.924   1.032
 4990TIP3    H114976   4.695   0.992   0.969
 4990TIP3    H214977   4.635   0.971   1.106
 4991TIP3   OH214978   5.388   2.653   4.539
 4991TIP3    H114979   5.387   2.580   4.601
 4991TIP3    H214980   5.301   2.693   4.547
 4992TIP3   OH214981   3.261   5.892   4.782
 4992TIP3    H114982   3.185   5.846   4.815
 4992TIP3    H214983   3.295   5.837   4.711
 4993TIP3   OH214984   4.383   2.125   1.036
 4993TIP3    H114985   4.434   2.179   0.976
 4993TIP3    H214986   4.444   2.057   1.066
 4994TIP3   OH214987   3.374   5.004   0.024
 4994TIP3    H114988   3.402   5.047   0.105
 4994TIP3    H214989   3.295   4.956   0.049
 4995TIP3   OH214990   2.585   5.092   0.434
 4995TIP3    H114991   2.636   5.172   0.433
 4995TIP3    H214992   2.644   5.025   0.400
 4996TIP3   OH214993   0.697   6.006   2.832
 4996TIP3    H114994   0.639   5.948   2.880
 4996TIP3    H214995   0.641   6.077   2.801
 4997TIP3   OH214996   5.217   1.814   0.907
 4997TIP3    H114997   5.161   1.875   0.954
 4997TIP3    H214998   5.158   1.766   0.848
 4998TIP3   OH214999   3.283   1.101   1.014
 4998TIP3    H115000   3.314   1.191   1.008
 4998TIP3    H215001   3.250   1.092   1.103
 4999TIP3   OH215002   3.713   0.885   4.935
 4999TIP3    H115003   3.663   0.950   4.986
 4999TIP3    H215004   3.798   0.926   4.922
 5000TIP3   OH215005   1.577   0.077   4.567
 5000TIP3    H115006   1.662   0.116   4.546
 5000TIP3    H215007   1.536   0.140   4.627
 5001TIP3   OH215008   6.326   1.460   5.026
 5001TIP3    H115009   6.339   1.413   5.109
 5001TIP3    H215010   6.382   1.413   4.964
 5002TIP3   OH215011   0.830   5.759   3.807
 5002TIP3    H115012   0.820   5.852   3.786
 5002TIP3    H215013   0.886   5.757   3.885
 5003TIP3   OH215014   4.503   3.414   3.478
 5003TIP3    H115015   4.576   3.441   3.533
 5003TIP3    H215016   4.425   3.446   3.525
 5004TIP3   OH215017   0.244   2.380   3.125
 5004TIP3    H115018   0.192   2.432   3.064
 5004TIP3    H215019   0.253   2.436   3.202
 5005TIP3   OH215020   1.377   4.465   0.778
 5005TIP3    H115021   1.329   4.525   0.834
 5005TIP3    H215022   1.331   4.468   0.694
 5006TIP3   OH215023   0.935   2.823   0.628
 5006TIP3    H115024   0.923   2.877   0.549
 5006TIP3    H215025   0.846   2.810   0.661
 5007TIP3   OH215026   1.307   3.098   1.464
 5007TIP3    H115027   1.253   3.092   1.385
 5007TIP3    H215028   1.263   3.164   1.518
 5008TIP3   OH215029   2.931   2.806   3.705
 5008TIP3    H115030   2.898   2.737   3.763
 5008TIP3    H215031   3.016   2.774   3.676
 5009TIP3   OH215032   4.916   3.550   1.903
 5009TIP3    H115033   4.992   3.607   1.907
 5009TIP3    H215034   4.913   3.521   1.812
 5010TIP3   OH215035   4.041   2.195   1.167
 5010TIP3    H115036   3.960   2.169   1.123
 5010TIP3    H215037   4.085   2.112   1.185
 5011TIP3   OH215038   0.527   5.126   4.870
 5011TIP3    H115039   0.573   5.188   4.813
 5011TIP3    H215040   0.596   5.086   4.922
 5012TIP3   OH215041   2.574   5.762   3.424
 5012TIP3    H115042   2.547   5.696   3.361
 5012TIP3    H215043   2.576   5.844   3.375
 5013TIP3   OH215044   2.919   3.772   4.384
 5013TIP3    H115045   2.982   3.731   4.324
 5013TIP3    H215046   2.972   3.801   4.458
 5014TIP3   OH215047   3.920   3.185   4.328
 5014TIP3    H115048   3.854   3.183   4.397
 5014TIP3    H215049   4.002   3.202   4.374
 5015TIP3   OH215050   5.288   1.638   3.420
 5015TIP3    H115051   5.254   1.686   3.344
 5015TIP3    H215052   5.372   1.604   3.390
 5016TIP3   OH215053   5.064   0.495   0.500
 5016TIP3    H115054   5.007   0.515   0.575
 5016TIP3    H215055   5.004   0.465   0.432
 5017TIP3   OH215056   4.954   1.454   0.487
 5017TIP3    H115057   4.923   1.382   0.431
 5017TIP3    H215058   4.972   1.526   0.426
 5018TIP3   OH215059   1.187   2.341   4.002
 5018TIP3    H115060   1.202   2.304   4.089
 5018TIP3    H215061   1.158   2.431   4.019
 5019TIP3   OH215062   2.979   5.114   1.113
 5019TIP3    H115063   3.007   5.024   1.130
 5019TIP3    H215064   3.025   5.166   1.180
 5020TIP3   OH215065   2.269   5.299   2.160
 5020TIP3    H115066   2.231   5.226   2.208
 5020TIP3    H215067   2.298   5.260   2.077
 5021TIP3   OH215068   2.085   4.786   0.749
 5021TIP3    H115069   2.118   4.748   0.667
 5021TIP3    H215070   2.007   4.735   0.770
 5022TIP3   OH215071   4.458   4.742   3.814
 5022TIP3    H115072   4.390   4.796   3.856
 5022TIP3    H215073   4.528   4.803   3.794
 5023TIP3   OH215074   3.539   5.917   3.358
 5023TIP3    H115075   3.560   5.905   3.265
 5023TIP3    H215076   3.483   5.843   3.380
 5024TIP3   OH215077   5.620   3.505   2.128
 5024TIP3    H115078   5.675   3.574   2.164
 5024TIP3    H215079   5.604   3.532   2.038
 5025TIP3   OH215080   4.653   4.003   1.220
 5025TIP3    H115081   4.641   3.953   1.301
 5025TIP3    H215082   4.642   4.095   1.246
 5026TIP3   OH215083   2.745   4.261   4.289
 5026TIP3    H115084   2.649   4.261   4.284
 5026TIP3    H215085   2.772   4.320   4.219
 5027TIP3   OH215086   3.755   3.452   0.679
 5027TIP3    H115087   3.775   3.540   0.647
 5027TIP3    H215088   3.837   3.403   0.668
 5028TIP3   OH215089   1.513   4.583   4.580
 5028TIP3    H115090   1.456   4.553   4.650
 5028TIP3    H215091   1.596   4.601   4.623
 5029TIP3   OH215092   5.638   1.369   2.728
 5029TIP3    H115093   5.546   1.348   2.709
 5029TIP3    H215094   5.687   1.320   2.663
 5030TIP3   OH215095   0.409   2.011   1.702
 5030TIP3    H115096   0.364   1.936   1.741
 5030TIP3    H215097   0.433   1.982   1.614
 5031TIP3   OH215098   3.385   5.671   3.936
 5031TIP3    H115099   3.394   5.757   3.976
 5031TIP3    H215100   3.302   5.675   3.890
 5032TIP3   OH215101   4.477   4.407   2.131
 5032TIP3    H115102   4.544   4.358   2.083
 5032TIP3    H215103   4.411   4.341   2.153
 5033TIP3   OH215104   0.720   3.521   0.657
 5033TIP3    H115105   0.649   3.512   0.593
 5033TIP3    H215106   0.729   3.434   0.696
 5034TIP3   OH215107   0.208   0.586   2.997
 5034TIP3    H115108   0.133   0.644   2.986
 5034TIP3    H215109   0.202   0.525   2.924
 5035TIP3   OH215110   2.429   1.441   3.126
 5035TIP3    H115111   2.402   1.350   3.139
 5035TIP3    H215112   2.347   1.490   3.127
 5036TIP3   OH215113   4.777   2.401   4.563
 5036TIP3    H115114   4.812   2.344   4.632
 5036TIP3    H215115   4.686   2.372   4.552
 5037TIP3   OH215116   4.547   2.257   0.839
 5037TIP3    H115117   4.544   2.234   0.746
 5037TIP3    H215118   4.579   2.347   0.840
 5038TIP3   OH215119   5.631   2.949   4.801
 5038TIP3    H115120   5.622   3.039   4.832
 5038TIP3    H215121   5.711   2.950   4.748
 5039TIP3   OH215122   2.999   3.281   2.928
 5039TIP3    H115123   2.949   3.344   2.980
 5039TIP3    H215124   3.021   3.329   2.848
 5040TIP3   OH215125   2.751   3.575   1.142
 5040TIP3    H115126   2.658   3.566   1.121
 5040TIP3    H215127   2.771   3.498   1.196
 5041TIP3   OH215128   5.181   0.009   4.466
 5041TIP3    H115129   5.267  -0.031   4.451
 5041TIP3    H215130   5.200   0.101   4.483
 5042TIP3   OH215131   0.449   1.936   0.393
 5042TIP3    H115132   0.468   2.019   0.436
 5042TIP3    H215133   0.434   1.874   0.465
 5043TIP3   OH215134   4.124   4.545   3.317
 5043TIP3    H115135   4.037   4.575   3.289
 5043TIP3    H215136   4.107   4.497   3.398
 5044TIP3   OH215137   1.543   3.199   3.200
 5044TIP3    H115138   1.621   3.209   3.254
 5044TIP3    H215139   1.539   3.279   3.148
 5045TIP3   OH215140   5.324   4.942   3.252
 5045TIP3    H115141   5.390   4.906   3.310
 5045TIP3    H215142   5.310   4.874   3.186
 5046TIP3   OH215143   4.465   4.019   3.564
 5046TIP3    H115144   4.554   4.033   3.596
 5046TIP3    H215145   4.431   4.107   3.549
 5047TIP3   OH215146   5.332   5.406   3.342
 5047TIP3    H115147   5.278   5.336   3.378
 5047TIP3    H215148   5.422   5.380   3.364
 5048TIP3   OH215149   1.608   1.278   4.350
 5048TIP3    H115150   1.656   1.307   4.428
 5048TIP3    H215151   1.547   1.212   4.383
 5049TIP3   OH215152   2.041   3.743   0.596
 5049TIP3    H115153   2.072   3.826   0.559
 5049TIP3    H215154   1.947   3.756   0.609
 5050TIP3   OH215155   1.555   3.324   2.309
 5050TIP3    H115156   1.600   3.407   2.322
 5050TIP3    H215157   1.555   3.283   2.395
 5051TIP3   OH215158   0.185   0.185   1.241
 5051TIP3    H115159   0.148   0.097   1.250
 5051TIP3    H215160   0.226   0.202   1.325
 5052TIP3   OH215161   2.503   4.753   4.829
 5052TIP3    H115162   2.504   4.731   4.736
 5052TIP3    H215163   2.594   4.741   4.857
 5053TIP3   OH215164   5.970   4.169   0.066
 5053TIP3    H115165   5.928   4.083   0.072
 5053TIP3    H215166   5.940   4.205  -0.018
 5054TIP3   OH215167   4.539   2.614   1.962
 5054TIP3    H115168   4.598   2.606   1.887
 5054TIP3    H215169   4.527   2.525   1.993
 5055TIP3   OH215170   2.093   0.020   4.090
 5055TIP3    H115171   2.051  -0.015   4.169
 5055TIP3    H215172   2.025   0.018   4.023
 5056TIP3   OH215173   4.460   1.028   1.550
 5056TIP3    H115174   4.372   1.005   1.580
 5056TIP3    H215175   4.518   0.967   1.594
 5057TIP3   OH215176   1.540   5.318   4.475
 5057TIP3    H115177   1.595   5.242   4.454
 5057TIP3    H215178   1.499   5.342   4.392
 5058TIP3   OH215179   3.545   5.291   2.758
 5058TIP3    H115180   3.479   5.358   2.776
 5058TIP3    H215181   3.518   5.252   2.675
 5059TIP3   OH215182   4.634   2.728   3.114
 5059TIP3    H115183   4.646   2.777   3.032
 5059TIP3    H215184   4.654   2.792   3.183
 5060TIP3   OH215185   4.360   3.489   0.350
 5060TIP3    H115186   4.333   3.449   0.267
 5060TIP3    H215187   4.433   3.546   0.327
 5061TIP3   OH215188   2.450   2.941   0.851
 5061TIP3    H115189   2.440   3.034   0.832
 5061TIP3    H215190   2.396   2.896   0.786
 5062TIP3   OH215191   2.302   5.044   5.127
 5062TIP3    H115192   2.214   5.082   5.132
 5062TIP3    H215193   2.306   4.985   5.202
 5063TIP3   OH215194   6.355   2.576   3.417
 5063TIP3    H115195   6.413   2.585   3.341
 5063TIP3    H215196   6.290   2.512   3.389
 5064TIP3   OH215197   6.256   2.536   3.137
 5064TIP3    H115198   6.178   2.587   3.118
 5064TIP3    H215199   6.329   2.597   3.123
 5065TIP3   OH215200   4.064   2.439   3.653
 5065TIP3    H115201   4.071   2.393   3.737
 5065TIP3    H215202   4.153   2.438   3.617
 5066TIP3   OH215203   0.119   5.105   4.411
 5066TIP3    H115204   0.183   5.128   4.478
 5066TIP3    H215205   0.165   5.043   4.354
 5067TIP3   OH215206   4.784   0.971   4.879
 5067TIP3    H115207   4.758   1.040   4.818
 5067TIP3    H215208   4.719   0.901   4.864
 5068TIP3   OH215209   0.507   1.603   1.128
 5068TIP3    H115210   0.435   1.558   1.171
 5068TIP3    H215211   0.584   1.580   1.179
 5069TIP3   OH215212   4.365   2.354   3.756
 5069TIP3    H115213   4.327   2.435   3.721
 5069TIP3    H215214   4.450   2.380   3.791
 5070TIP3   OH215215   2.830   4.507   2.844
 5070TIP3    H115216   2.787   4.440   2.898
 5070TIP3    H215217   2.786   4.501   2.760
 5071TIP3   OH215218   4.629   0.314   1.411
 5071TIP3    H115219   4.536   0.293   1.399
 5071TIP3    H215220   4.655   0.356   1.329
 5072TIP3   OH215221   2.769   3.413   0.805
 5072TIP3    H115222   2.683   3.384   0.837
 5072TIP3    H215223   2.827   3.403   0.881
 5073TIP3   OH215224   2.530   4.322   0.754
 5073TIP3    H115225   2.528   4.416   0.734
 5073TIP3    H215226   2.615   4.293   0.722
 5074TIP3   OH215227   2.164   4.087   4.698
 5074TIP3    H115228   2.092   4.040   4.740
 5074TIP3    H215229   2.238   4.026   4.702
 5075TIP3   OH215230   1.521   3.312   0.421
 5075TIP3    H115231   1.568   3.288   0.501
 5075TIP3    H215232   1.445   3.362   0.451
 5076TIP3   OH215233   3.347   1.306   3.926
 5076TIP3    H115234   3.431   1.288   3.885
 5076TIP3    H215235   3.322   1.224   3.967
 5077TIP3   OH215236   4.294   0.449   2.837
 5077TIP3    H115237   4.380   0.406   2.842
 5077TIP3    H215238   4.308   0.523   2.778
 5078TIP3   OH215239   1.288   0.311   3.565
 5078TIP3    H115240   1.224   0.246   3.595
 5078TIP3    H215241   1.235   0.386   3.539
 5079TIP3   OH215242   4.737   3.452   3.629
 5079TIP3    H115243   4.803   3.385   3.643
 5079TIP3    H215244   4.784   3.525   3.589
 5080TIP3   OH215245   3.583   4.904   2.525
 5080TIP3    H115246   3.672   4.903   2.491
 5080TIP3    H215247   3.579   4.828   2.584
 5081TIP3   OH215248   3.704   3.726   2.199
 5081TIP3    H115249   3.738   3.723   2.110
 5081TIP3    H215250   3.726   3.640   2.236
 5082TIP3   OH215251   5.190   5.245   0.488
 5082TIP3    H115252   5.191   5.335   0.455
 5082TIP3    H215253   5.099   5.231   0.516
 5083TIP3   OH215254   4.007   0.534   4.289
 5083TIP3    H115255   4.077   0.536   4.355
 5083TIP3    H215256   4.026   0.457   4.235
 5084TIP3   OH215257   5.103   1.336   4.287
 5084TIP3    H115258   5.045   1.292   4.225
 5084TIP3    H215259   5.056   1.332   4.370
 5085TIP3   OH215260   3.594   1.540   4.140
 5085TIP3    H115261   3.648   1.618   4.128
 5085TIP3    H215262   3.619   1.482   4.068
 5086TIP3   OH215263   4.720   0.556   2.046
 5086TIP3    H115264   4.699   0.637   2.093
 5086TIP3    H215265   4.707   0.486   2.110
 5087TIP3   OH215266   5.180   2.912   3.862
 5087TIP3    H115267   5.224   2.901   3.946
 5087TIP3    H215268   5.157   2.823   3.835
 5088TIP3   OH215269   6.264   2.041   1.007
 5088TIP3    H115270   6.242   1.981   1.078
 5088TIP3    H215271   6.284   1.984   0.933
 5089TIP3   OH215272   1.599   5.298   0.582
 5089TIP3    H115273   1.621   5.243   0.507
 5089TIP3    H215274   1.560   5.237   0.645
 5090TIP3   OH215275   2.260   4.077   2.992
 5090TIP3    H115276   2.324   4.145   2.974
 5090TIP3    H215277   2.276   4.009   2.926
 5091TIP3   OH215278   4.213   2.754   4.596
 5091TIP3    H115279   4.286   2.697   4.570
 5091TIP3    H215280   4.160   2.700   4.655
 5092TIP3   OH215281   4.011   5.107   4.440
 5092TIP3    H115282   4.018   5.201   4.419
 5092TIP3    H215283   3.917   5.093   4.451
 5093TIP3   OH215284   3.633   5.414   1.964
 5093TIP3    H115285   3.712   5.366   1.937
 5093TIP3    H215286   3.561   5.367   1.924
 5094TIP3   OH215287   0.294   3.935   1.753
 5094TIP3    H115288   0.306   4.029   1.768
 5094TIP3    H215289   0.204   3.918   1.781
 5095TIP3   OH215290   2.484   2.707   5.140
 5095TIP3    H115291   2.410   2.766   5.127
 5095TIP3    H215292   2.453   2.622   5.109
 5096TIP3   OH215293   3.226   0.086   1.938
 5096TIP3    H115294   3.308   0.132   1.956
 5096TIP3    H215295   3.188   0.134   1.864
 5097TIP3   OH215296   2.684   4.143   0.636
 5097TIP3    H115297   2.763   4.120   0.686
 5097TIP3    H215298   2.657   4.061   0.596
 5098TIP3   OH215299   6.241   1.687   0.964
 5098TIP3    H115300   6.181   1.741   0.912
 5098TIP3    H215301   6.261   1.740   1.041
 5099TIP3   OH215302   5.461   4.072   2.533
 5099TIP3    H115303   5.541   4.020   2.535
 5099TIP3    H215304   5.431   4.066   2.442
 5100TIP3   OH215305   4.159   4.629   1.267
 5100TIP3    H115306   4.094   4.572   1.225
 5100TIP3    H215307   4.159   4.602   1.359
 5101TIP3   OH215308   6.072   3.943   2.539
 5101TIP3    H115309   6.154   3.989   2.558
 5101TIP3    H215310   6.007   3.987   2.593
 5102TIP3   OH215311   2.299   4.093   1.408
 5102TIP3    H115312   2.220   4.135   1.372
 5102TIP3    H215313   2.371   4.149   1.379
 5103TIP3   OH215314   3.571   5.566   5.017
 5103TIP3    H115315   3.573   5.495   5.081
 5103TIP3    H215316   3.501   5.624   5.047
 5104TIP3   OH215317   0.630   0.839   0.384
 5104TIP3    H115318   0.569   0.783   0.336
 5104TIP3    H215319   0.608   0.825   0.476
 5105TIP3   OH215320   2.070   4.013   0.525
 5105TIP3    H115321   2.149   4.048   0.566
 5105TIP3    H215322   2.069   4.051   0.437
 5106TIP3   OH215323   2.190   0.988   0.972
 5106TIP3    H115324   2.113   0.953   0.927
 5106TIP3    H215325   2.158   1.007   1.061
 5107TIP3   OH215326   2.185   3.191   0.932
 5107TIP3    H115327   2.258   3.240   0.894
 5107TIP3    H215328   2.113   3.203   0.871
 5108TIP3   OH215329   5.296   0.384   2.120
 5108TIP3    H115330   5.379   0.346   2.090
 5108TIP3    H215331   5.231   0.352   2.057
 5109TIP3   OH215332   5.603   0.352   5.053
 5109TIP3    H115333   5.513   0.320   5.052
 5109TIP3    H215334   5.635   0.329   5.141
 5110TIP3   OH215335   6.031   3.737   2.072
 5110TIP3    H115336   6.077   3.757   1.991
 5110TIP3    H215337   6.060   3.805   2.133
 5111TIP3   OH215338   4.278   1.268   0.878
 5111TIP3    H115339   4.328   1.203   0.828
 5111TIP3    H215340   4.193   1.270   0.835
 5112TIP3   OH215341   4.241   0.617   3.735
 5112TIP3    H115342   4.261   0.644   3.825
 5112TIP3    H215343   4.203   0.529   3.745
 5113TIP3   OH215344   4.444   3.579   0.753
 5113TIP3    H115345   4.449   3.484   0.756
 5113TIP3    H215346   4.506   3.604   0.684
 5114TIP3   OH215347   2.436   3.464   0.673
 5114TIP3    H115348   2.440   3.559   0.684
 5114TIP3    H215349   2.364   3.449   0.613
 5115TIP3   OH215350   3.440   5.130   0.280
 5115TIP3    H115351   3.518   5.078   0.299
 5115TIP3    H215352   3.374   5.099   0.342
 5116TIP3   OH215353   4.552   3.937   1.696
 5116TIP3    H115354   4.640   3.907   1.720
 5116TIP3    H215355   4.521   3.874   1.631
 5117TIP3   OH215356   5.731   3.661   1.794
 5117TIP3    H115357   5.660   3.632   1.851
 5117TIP3    H215358   5.755   3.584   1.744
 5118TIP3   OH215359   1.768   0.817   0.184
 5118TIP3    H115360   1.676   0.812   0.158
 5118TIP3    H215361   1.795   0.905   0.158
 5119TIP3   OH215362   5.047   2.269   3.210
 5119TIP3    H115363   5.130   2.254   3.164
 5119TIP3    H215364   5.000   2.186   3.203
 5120TIP3   OH215365   1.660   2.163   1.988
 5120TIP3    H115366   1.623   2.159   1.900
 5120TIP3    H215367   1.753   2.181   1.974
 5121TIP3   OH215368   5.068   2.978   1.441
 5121TIP3    H115369   5.104   2.943   1.523
 5121TIP3    H215370   5.109   2.925   1.373
 5122TIP3   OH215371   6.256   3.810   4.189
 5122TIP3    H115372   6.163   3.794   4.173
 5122TIP3    H215373   6.269   3.787   4.281
 5123TIP3   OH215374   1.787   4.493   4.237
 5123TIP3    H115375   1.760   4.407   4.205
 5123TIP3    H215376   1.774   4.487   4.332
 5124TIP3   OH215377   1.604   2.608   2.553
 5124TIP3    H115378   1.573   2.577   2.468
 5124TIP3    H215379   1.691   2.569   2.563
 5125TIP3   OH215380   3.286   1.280   0.362
 5125TIP3    H115381   3.296   1.333   0.283
 5125TIP3    H215382   3.193   1.257   0.363
 5126TIP3   OH215383   2.512   3.655   1.409
 5126TIP3    H115384   2.429   3.660   1.361
 5126TIP3    H215385   2.545   3.744   1.409
 5127TIP3   OH215386   6.127   4.038   0.354
 5127TIP3    H115387   6.066   4.000   0.290
 5127TIP3    H215388   6.120   3.980   0.430
 5128TIP3   OH215389   5.880   5.125   4.966
 5128TIP3    H115390   5.861   5.184   5.039
 5128TIP3    H215391   5.916   5.181   4.898
 5129TIP3   OH215392   4.987   4.029   4.760
 5129TIP3    H115393   5.072   4.072   4.750
 5129TIP3    H215394   4.937   4.088   4.816
 5130TIP3   OH215395   5.531   4.246   4.796
 5130TIP3    H115396   5.605   4.293   4.836
 5130TIP3    H215397   5.534   4.270   4.703
 5131TIP3   OH215398   2.594   4.988   4.595
 5131TIP3    H115399   2.561   4.925   4.659
 5131TIP3    H215400   2.576   5.073   4.634
 5132TIP3   OH215401   3.445   1.370   2.793
 5132TIP3    H115402   3.353   1.398   2.791
 5132TIP3    H215403   3.461   1.331   2.707
 5133TIP3   OH215404   2.943   1.519   2.952
 5133TIP3    H115405   2.854   1.548   2.974
 5133TIP3    H215406   2.936   1.424   2.945
 5134TIP3   OH215407   5.248   5.269   0.040
 5134TIP3    H115408   5.188   5.224   0.099
 5134TIP3    H215409   5.237   5.225  -0.044
 5135TIP3   OH215410   5.300   0.229   3.208
 5135TIP3    H115411   5.301   0.288   3.283
 5135TIP3    H215412   5.391   0.201   3.198
 5136TIP3   OH215413   1.197   1.563   0.778
 5136TIP3    H115414   1.233   1.652   0.785
 5136TIP3    H215415   1.159   1.560   0.690
 5137TIP3   OH215416   1.309   5.346   3.508
 5137TIP3    H115417   1.280   5.434   3.486
 5137TIP3    H215418   1.382   5.329   3.448
 5138TIP3   OH215419   2.205   5.632   5.030
 5138TIP3    H115420   2.238   5.549   4.996
 5138TIP3    H215421   2.253   5.645   5.112
 5139TIP3   OH215422   4.776   1.424   3.319
 5139TIP3    H115423   4.736   1.373   3.247
 5139TIP3    H215424   4.706   1.480   3.350
 5140TIP3   OH215425   5.109   2.892   0.499
 5140TIP3    H115426   5.148   2.809   0.526
 5140TIP3    H215427   5.138   2.904   0.409
 5141TIP3   OH215428   3.171   0.998   0.806
 5141TIP3    H115429   3.216   1.045   0.876
 5141TIP3    H215430   3.111   0.940   0.851
 5142TIP3   OH215431   2.765   3.214   1.665
 5142TIP3    H115432   2.710   3.278   1.621
 5142TIP3    H215433   2.814   3.265   1.730
 5143TIP3   OH215434   0.140   0.859   2.574
 5143TIP3    H115435   0.185   0.943   2.564
 5143TIP3    H215436   0.207   0.799   2.605
 5144TIP3   OH215437   5.279   0.919   1.307
 5144TIP3    H115438   5.205   0.966   1.267
 5144TIP3    H215439   5.294   0.964   1.390
 5145TIP3   OH215440   4.909   2.908   3.590
 5145TIP3    H115441   4.902   2.974   3.521
 5145TIP3    H215442   4.975   2.942   3.650
 5146TIP3   OH215443   0.333   2.595   2.611
 5146TIP3    H115444   0.342   2.518   2.554
 5146TIP3    H215445   0.416   2.599   2.659
 5147TIP3   OH215446   3.148   0.992   1.639
 5147TIP3    H115447   3.136   0.917   1.698
 5147TIP3    H215448   3.166   0.953   1.554
 5148TIP3   OH215449   2.372   0.011   1.684
 5148TIP3    H115450   2.466   0.026   1.696
 5148TIP3    H215451   2.331   0.051   1.761
 5149TIP3   OH215452   1.570   3.459   0.756
 5149TIP3    H115453   1.554   3.392   0.689
 5149TIP3    H215454   1.493   3.516   0.750
 5150TIP3   OH215455   5.015   3.027   0.151
 5150TIP3    H115456   5.070   3.098   0.183
 5150TIP3    H215457   5.075   2.953   0.141
 5151TIP3   OH215458   4.200   5.674   3.168
 5151TIP3    H115459   4.120   5.622   3.157
 5151TIP3    H215460   4.246   5.632   3.241
 5152TIP3   OH215461   4.902   4.273   4.088
 5152TIP3    H115462   4.911   4.287   3.994
 5152TIP3    H215463   4.869   4.183   4.096
 5153TIP3   OH215464   2.287   1.136   3.521
 5153TIP3    H115465   2.327   1.072   3.463
 5153TIP3    H215466   2.312   1.108   3.609
 5154TIP3   OH215467   5.169   1.947   3.015
 5154TIP3    H115468   5.212   1.961   2.931
 5154TIP3    H215469   5.234   1.902   3.069
 5155TIP3   OH215470   3.228   4.601   2.219
 5155TIP3    H115471   3.288   4.672   2.241
 5155TIP3    H215472   3.183   4.582   2.302
 5156TIP3   OH215473   0.378   0.550   1.653
 5156TIP3    H115474   0.456   0.500   1.629
 5156TIP3    H215475   0.308   0.513   1.598
 5157TIP3   OH215476   5.727   2.241   1.923
 5157TIP3    H115477   5.811   2.261   1.963
 5157TIP3    H215478   5.670   2.221   1.997
 5158TIP3   OH215479   3.909   0.399   1.325
 5158TIP3    H115480   3.978   0.350   1.280
 5158TIP3    H215481   3.867   0.450   1.256
 5159TIP3   OH215482   2.459   1.426   1.191
 5159TIP3    H115483   2.392   1.359   1.205
 5159TIP3    H215484   2.415   1.509   1.207
 5160TIP3   OH215485   1.355   0.020   3.505
 5160TIP3    H115486   1.380   0.069   3.583
 5160TIP3    H215487   1.427  -0.042   3.493
 5161TIP3   OH215488   4.439   2.928   1.890
 5161TIP3    H115489   4.455   2.885   1.806
 5161TIP3    H215490   4.409   2.858   1.948
 5162TIP3   OH215491   4.099   1.659   3.876
 5162TIP3    H115492   4.126   1.585   3.820
 5162TIP3    H215493   4.154   1.651   3.954
 5163TIP3   OH215494   0.259   4.313   1.525
 5163TIP3    H115495   0.309   4.233   1.507
 5163TIP3    H215496   0.324   4.383   1.519
 5164TIP3   OH215497   2.667   1.648   1.208
 5164TIP3    H115498   2.577   1.662   1.237
 5164TIP3    H215499   2.660   1.640   1.112
 5165TIP3   OH215500   1.561   4.296   3.551
 5165TIP3    H115501   1.621   4.351   3.602
 5165TIP3    H215502   1.549   4.218   3.604
 5166TIP3   OH215503   3.826   1.149   1.368
 5166TIP3    H115504   3.812   1.237   1.404
 5166TIP3    H215505   3.880   1.105   1.433
 5167TIP3   OH215506   4.436   4.610   0.975
 5167TIP3    H115507   4.477   4.545   0.918
 5167TIP3    H215508   4.350   4.625   0.935
 5168TIP3   OH215509   2.431   4.746   2.803
 5168TIP3    H115510   2.437   4.841   2.792
 5168TIP3    H215511   2.471   4.711   2.723
 5169TIP3   OH215512   2.480   5.961   0.268
 5169TIP3    H115513   2.410   5.978   0.205
 5169TIP3    H215514   2.435   5.946   0.351
 5170TIP3   OH215515   0.385   0.036   3.878
 5170TIP3    H115516   0.331   0.106   3.841
 5170TIP3    H215517   0.453   0.021   3.812
 5171TIP3   OH215518   4.012   5.570   4.167
 5171TIP3    H115519   4.027   5.593   4.258
 5171TIP3    H215520   3.933   5.619   4.142
 5172TIP3   OH215521   4.644   0.654   2.717
 5172TIP3    H115522   4.728   0.608   2.718
 5172TIP3    H215523   4.649   0.712   2.642
 5173TIP3   OH215524   1.014   0.640   0.643
 5173TIP3    H115525   0.969   0.597   0.570
 5173TIP3    H215526   1.049   0.720   0.604
 5174TIP3   OH215527   6.211   3.375  -0.005
 5174TIP3    H115528   6.170   3.328   0.067
 5174TIP3    H215529   6.292   3.326  -0.022
 5175TIP3   OH215530   5.646   1.187   3.048
 5175TIP3    H115531   5.703   1.140   3.109
 5175TIP3    H215532   5.581   1.229   3.104
 5176TIP3   OH215533   2.894   4.822   1.819
 5176TIP3    H115534   2.837   4.745   1.825
 5176TIP3    H215535   2.950   4.804   1.743
 5177TIP3   OH215536   4.694   2.991   0.934
 5177TIP3    H115537   4.604   2.986   0.901
 5177TIP3    H215538   4.732   2.905   0.914
 5178TIP3   OH215539   3.812   1.257   4.986
 5178TIP3    H115540   3.817   1.192   4.916
 5178TIP3    H215541   3.887   1.314   4.971
 5179TIP3   OH215542   4.069   1.488   0.983
 5179TIP3    H115543   4.038   1.440   1.060
 5179TIP3    H215544   4.067   1.423   0.912
 5180TIP3   OH215545   2.804   5.466   3.656
 5180TIP3    H115546   2.846   5.547   3.628
 5180TIP3    H215547   2.860   5.432   3.726
 5181TIP3   OH215548   5.178   2.696   0.083
 5181TIP3    H115549   5.195   2.772   0.138
 5181TIP3    H215550   5.265   2.658   0.067
 5182TIP3   OH215551   2.119   3.541   1.114
 5182TIP3    H115552   2.106   3.537   1.019
 5182TIP3    H215553   2.030   3.536   1.150
 5183TIP3   OH215554   1.686   4.094   0.078
 5183TIP3    H115555   1.686   4.041   0.158
 5183TIP3    H215556   1.713   4.034   0.009
 5184TIP3   OH215557   3.014   2.885   4.958
 5184TIP3    H115558   2.991   2.977   4.941
 5184TIP3    H215559   2.974   2.837   4.886
 5185TIP3   OH215560   0.677   2.487   1.987
 5185TIP3    H115561   0.606   2.448   1.936
 5185TIP3    H215562   0.715   2.414   2.036
 5186TIP3   OH215563   4.311   2.149   0.295
 5186TIP3    H115564   4.366   2.074   0.271
 5186TIP3    H215565   4.374   2.219   0.313
 5187TIP3   OH215566   3.521   1.931   1.911
 5187TIP3    H115567   3.579   1.918   1.835
 5187TIP3    H215568   3.545   2.017   1.945
 5188TIP3   OH215569   0.049   5.279   3.800
 5188TIP3    H115570   0.120   5.216   3.786
 5188TIP3    H215571  -0.020   5.228   3.842
 5189TIP3   OH215572   5.187   4.029   3.894
 5189TIP3    H115573   5.173   4.118   3.928
 5189TIP3    H215574   5.250   3.990   3.955
 5190TIP3   OH215575   3.684   4.682   2.657
 5190TIP3    H115576   3.713   4.606   2.707
 5190TIP3    H215577   3.609   4.651   2.607
 5191TIP3   OH215578   2.401   1.102   4.396
 5191TIP3    H115579   2.438   1.021   4.431
 5191TIP3    H215580   2.340   1.072   4.328
 5192TIP3   OH215581   2.947   1.186   4.294
 5192TIP3    H115582   2.940   1.269   4.340
 5192TIP3    H215583   3.027   1.146   4.328
 5193TIP3   OH215584   6.105   0.979   4.677
 5193TIP3    H115585   6.042   1.028   4.624
 5193TIP3    H215586   6.160   0.934   4.613
 5194TIP3   OH215587   6.192   0.320   4.217
 5194TIP3    H115588   6.166   0.233   4.250
 5194TIP3    H215589   6.255   0.301   4.148
 5195TIP3   OH215590   3.056   1.057   2.636
 5195TIP3    H115591   2.977   1.016   2.670
 5195TIP3    H215592   3.038   1.151   2.636
 5196TIP3   OH215593   4.312   3.669   2.232
 5196TIP3    H115594   4.303   3.697   2.141
 5196TIP3    H215595   4.252   3.595   2.240
 5197TIP3   OH215596   4.832   5.165   2.844
 5197TIP3    H115597   4.788   5.099   2.897
 5197TIP3    H215598   4.780   5.170   2.764
 5198TIP3   OH215599   1.841   0.971   0.428
 5198TIP3    H115600   1.851   0.985   0.334
 5198TIP3    H215601   1.813   0.879   0.435
 5199TIP3   OH215602   5.476   0.146   2.067
 5199TIP3    H115603   5.506   0.059   2.093
 5199TIP3    H215604   5.433   0.131   1.983
 5200TIP3   OH215605   0.646   2.179   0.108
 5200TIP3    H115606   0.621   2.165   0.017
 5200TIP3    H215607   0.740   2.197   0.105
 5201TIP3   OH215608   3.118   4.653   3.064
 5201TIP3    H115609   3.063   4.715   3.016
 5201TIP3    H215610   3.166   4.605   2.996
 5202TIP3   OH215611   2.618   1.127   2.118
 5202TIP3    H115612   2.560   1.052   2.104
 5202TIP3    H215613   2.655   1.145   2.031
 5203TIP3   OH215614   2.469   5.050   4.348
 5203TIP3    H115615   2.456   4.972   4.295
 5203TIP3    H215616   2.511   5.018   4.428
 5204TIP3   OH215617   0.458   0.293   4.066
 5204TIP3    H115618   0.520   0.240   4.117
 5204TIP3    H215619   0.372   0.265   4.098
 5205TIP3   OH215620   2.766   0.692   0.739
 5205TIP3    H115621   2.820   0.716   0.663
 5205TIP3    H215622   2.710   0.769   0.753
 5206TIP3   OH215623   2.094   0.296   1.760
 5206TIP3    H115624   2.163   0.325   1.700
 5206TIP3    H215625   2.024   0.360   1.750
 5207TIP3   OH215626   3.063   0.549   0.458
 5207TIP3    H115627   3.071   0.635   0.500
 5207TIP3    H215628   3.131   0.496   0.500
 5208TIP3   OH215629   1.511   1.994   1.667
 5208TIP3    H115630   1.504   2.084   1.635
 5208TIP3    H215631   1.573   1.951   1.607
 5209TIP3   OH215632   4.079  -0.008   1.012
 5209TIP3    H115633   4.029  -0.010   1.094
 5209TIP3    H215634   4.170  -0.017   1.040
 5210TIP3   OH215635   3.672   0.914   3.105
 5210TIP3    H115636   3.743   0.941   3.164
 5210TIP3    H215637   3.597   0.965   3.133
 5211TIP3   OH215638   3.158   2.996   0.023
 5211TIP3    H115639   3.167   3.090   0.005
 5211TIP3    H215640   3.203   2.984   0.106
 5212TIP3   OH215641   4.069   2.498   5.131
 5212TIP3    H115642   4.064   2.436   5.203
 5212TIP3    H215643   4.044   2.447   5.053
 5213TIP3   OH215644   6.164   5.284   2.364
 5213TIP3    H115645   6.125   5.234   2.293
 5213TIP3    H215646   6.100   5.278   2.436
 5214TIP3   OH215647   0.186   2.606   3.626
 5214TIP3    H115648   0.112   2.633   3.572
 5214TIP3    H215649   0.145   2.562   3.701
 5215TIP3   OH215650   1.978   0.683   0.268
 5215TIP3    H115651   1.933   0.624   0.329
 5215TIP3    H215652   1.907   0.722   0.216
 5216TIP3   OH215653   5.329   2.450   0.069
 5216TIP3    H115654   5.246   2.403   0.078
 5216TIP3    H215655   5.371   2.409  -0.007
 5217TIP3   OH215656   3.544   0.372   5.149
 5217TIP3    H115657   3.607   0.400   5.215
 5217TIP3    H215658   3.517   0.284   5.177
 5218TIP3   OH215659   2.447   5.288   1.510
 5218TIP3    H115660   2.443   5.340   1.590
 5218TIP3    H215661   2.507   5.337   1.453
 5219TIP3   OH215662   1.017   5.054   3.084
 5219TIP3    H115663   1.020   5.075   3.177
 5219TIP3    H215664   0.944   5.106   3.050
 5220TIP3   OH215665   1.282   5.085   1.708
 5220TIP3    H115666   1.377   5.079   1.706
 5220TIP3    H215667   1.263   5.178   1.702
 5221TIP3   OH215668   5.406   0.152   1.261
 5221TIP3    H115669   5.328   0.183   1.308
 5221TIP3    H215670   5.479   0.188   1.310
 5222TIP3   OH215671   2.395   4.430   2.037
 5222TIP3    H115672   2.406   4.342   2.003
 5222TIP3    H215673   2.439   4.429   2.122
 5223TIP3   OH215674   2.596   1.371   3.755
 5223TIP3    H115675   2.669   1.431   3.762
 5223TIP3    H215676   2.627   1.302   3.697
 5224TIP3   OH215677   5.609   2.217   5.033
 5224TIP3    H115678   5.569   2.272   5.100
 5224TIP3    H215679   5.545   2.215   4.962
 5225TIP3   OH215680   0.156   2.296   1.381
 5225TIP3    H115681   0.166   2.380   1.337
 5225TIP3    H215682   0.230   2.244   1.349
 5226TIP3   OH215683   2.536   0.675   1.692
 5226TIP3    H115684   2.530   0.641   1.782
 5226TIP3    H215685   2.448   0.708   1.673
 5227TIP3   OH215686   0.626   1.349   4.301
 5227TIP3    H115687   0.586   1.400   4.371
 5227TIP3    H215688   0.702   1.307   4.343
 5228TIP3   OH215689   1.606   1.029   0.078
 5228TIP3    H115690   1.680   1.085   0.099
 5228TIP3    H215691   1.602   1.029  -0.017
 5229TIP3   OH215692   2.494   0.324   1.887
 5229TIP3    H115693   2.532   0.272   1.958
 5229TIP3    H215694   2.527   0.282   1.807
 5230TIP3   OH215695   5.583   1.583   2.407
 5230TIP3    H115696   5.625   1.507   2.367
 5230TIP3    H215697   5.492   1.556   2.419
 5231TIP3   OH215698   0.234   4.568   1.351
 5231TIP3    H115699   0.165   4.595   1.411
 5231TIP3    H215700   0.307   4.627   1.369
 5232TIP3   OH215701   5.750   4.706   0.146
 5232TIP3    H115702   5.718   4.766   0.215
 5232TIP3    H215703   5.845   4.712   0.152
 5233TIP3   OH215704   0.019   0.292   1.984
 5233TIP3    H115705   0.052   0.304   2.073
 5233TIP3    H215706   0.091   0.321   1.927
 5234TIP3   OH215707   0.554   1.828   4.207
 5234TIP3    H115708   0.559   1.737   4.179
 5234TIP3    H215709   0.605   1.831   4.288
 5235TIP3   OH215710   2.590   1.982   0.691
 5235TIP3    H115711   2.561   2.073   0.687
 5235TIP3    H215712   2.539   1.944   0.762
 5236TIP3   OH215713   3.876   2.439   2.290
 5236TIP3    H115714   3.929   2.511   2.254
 5236TIP3    H215715   3.863   2.463   2.382
 5237TIP3   OH215716   0.448   0.187   1.870
 5237TIP3    H115717   0.472   0.276   1.896
 5237TIP3    H215718   0.514   0.131   1.910
 5238TIP3   OH215719   6.296   5.752   3.859
 5238TIP3    H115720   6.226   5.803   3.899
 5238TIP3    H215721   6.270   5.661   3.869
 5239TIP3   OH215722   2.698   3.604   4.402
 5239TIP3    H115723   2.711   3.522   4.449
 5239TIP3    H215724   2.781   3.651   4.414
 5240TIP3   OH215725   5.016   1.147   2.541
 5240TIP3    H115726   5.108   1.140   2.517
 5240TIP3    H215727   5.017   1.175   2.633
 5241TIP3   OH215728   5.815   0.588   2.415
 5241TIP3    H115729   5.851   0.521   2.473
 5241TIP3    H215730   5.771   0.538   2.346
 5242TIP3   OH215731   0.688   4.851   4.254
 5242TIP3    H115732   0.673   4.783   4.320
 5242TIP3    H215733   0.684   4.933   4.303
 5243TIP3   OH215734   3.491   1.423   0.460
 5243TIP3    H115735   3.501   1.405   0.553
 5243TIP3    H215736   3.423   1.362   0.431
 5244TIP3   OH215737   0.869   3.136   3.905
 5244TIP3    H115738   0.889   3.123   3.998
 5244TIP3    H215739   0.787   3.088   3.892
 5245TIP3   OH215740   2.406   4.177   3.624
 5245TIP3    H115741   2.439   4.147   3.709
 5245TIP3    H215742   2.329   4.229   3.646
 5246TIP3   OH215743   2.331   3.227   3.873
 5246TIP3    H115744   2.313   3.318   3.897
 5246TIP3    H215745   2.244   3.188   3.864
 5247TIP3   OH215746   5.453   2.725   4.851
 5247TIP3    H115747   5.519   2.791   4.829
 5247TIP3    H215748   5.467   2.655   4.787
 5248TIP3   OH215749   1.848   1.671   5.158
 5248TIP3    H115750   1.769   1.724   5.159
 5248TIP3    H215751   1.838   1.615   5.081
 5249TIP3   OH215752   0.072   3.838   0.214
 5249TIP3    H115753   0.040   3.762   0.264
 5249TIP3    H215754   0.076   3.807   0.124
 5250TIP3   OH215755   4.175   5.565   0.902
 5250TIP3    H115756   4.227   5.542   0.824
 5250TIP3    H215757   4.136   5.482   0.930
 5251TIP3   OH215758   3.234   1.502   5.095
 5251TIP3    H115759   3.289   1.553   5.153
 5251TIP3    H215760   3.247   1.411   5.123
 5252TIP3   OH215761   5.227   3.548   4.730
 5252TIP3    H115762   5.164   3.553   4.658
 5252TIP3    H215763   5.179   3.582   4.805
 5253TIP3   OH215764   0.267   0.555   3.365
 5253TIP3    H115765   0.211   0.482   3.335
 5253TIP3    H215766   0.331   0.565   3.295
 5254TIP3   OH215767   2.717   3.981   4.384
 5254TIP3    H115768   2.773   3.905   4.378
 5254TIP3    H215769   2.768   4.052   4.346
 5255TIP3   OH215770   3.660   3.857   1.191
 5255TIP3    H115771   3.681   3.950   1.192
 5255TIP3    H215772   3.597   3.846   1.263
 5256TIP3   OH215773   1.452   3.861   2.658
 5256TIP3    H115774   1.474   3.951   2.684
 5256TIP3    H215775   1.374   3.871   2.602
 5257TIP3   OH215776   4.048   4.174   1.547
 5257TIP3    H115777   3.989   4.202   1.477
 5257TIP3    H215778   4.133   4.164   1.504
 5258TIP3   OH215779   2.931   1.050   2.191
 5258TIP3    H115780   2.864   1.026   2.255
 5258TIP3    H215781   3.014   1.029   2.234
 5259TIP3   OH215782   2.447   5.419   2.956
 5259TIP3    H115783   2.406   5.452   2.877
 5259TIP3    H215784   2.381   5.362   2.996
 5260TIP3   OH215785   2.345   4.804   0.860
 5260TIP3    H115786   2.346   4.896   0.884
 5260TIP3    H215787   2.257   4.790   0.825
 5261TIP3   OH215788   0.905   0.096   1.316
 5261TIP3    H115789   0.940   0.033   1.379
 5261TIP3    H215790   0.854   0.043   1.255
 5262TIP3   OH215791   0.339   2.121   1.220
 5262TIP3    H115792   0.359   2.029   1.203
 5262TIP3    H215793   0.275   2.144   1.153
 5263TIP3   OH215794   3.895   1.052   4.791
 5263TIP3    H115795   3.908   1.001   4.711
 5263TIP3    H215796   3.983   1.070   4.823
 5264TIP3   OH215797   0.659   0.040   0.451
 5264TIP3    H115798   0.623   0.111   0.504
 5264TIP3    H215799   0.582  -0.010   0.424
 5265TIP3   OH215800   1.027   0.560   3.105
 5265TIP3    H115801   1.101   0.600   3.150
 5265TIP3    H215802   0.950   0.602   3.143
 5266TIP3   OH215803   6.041   3.478   0.925
 5266TIP3    H115804   6.044   3.489   0.830
 5266TIP3    H215805   5.972   3.413   0.940
 5267TIP3   OH215806   2.583   0.458   4.445
 5267TIP3    H115807   2.524   0.528   4.418
 5267TIP3    H215808   2.550   0.431   4.531
 5268TIP3   OH215809   1.972   0.352   2.129
 5268TIP3    H115810   2.009   0.440   2.134
 5268TIP3    H215811   1.922   0.352   2.048
 5269TIP3   OH215812   4.964   4.116   1.729
 5269TIP3    H115813   5.041   4.099   1.783
 5269TIP3    H215814   4.995   4.177   1.661
 5270TIP3   OH215815   4.982   5.437   1.870
 5270TIP3    H115816   4.983   5.431   1.775
 5270TIP3    H215817   5.060   5.388   1.899
 5271TIP3   OH215818   2.883   0.270   1.602
 5271TIP3    H115819   2.856   0.360   1.585
 5271TIP3    H215820   2.864   0.224   1.520
 5272TIP3   OH215821   1.798   0.077   3.646
 5272TIP3    H115822   1.778  -0.013   3.618
 5272TIP3    H215823   1.794   0.074   3.742
 5273TIP3   OH215824   0.108   3.661   4.432
 5273TIP3    H115825   0.139   3.576   4.464
 5273TIP3    H215826   0.155   3.674   4.350
 5274TIP3   OH215827   5.053   1.107   3.580
 5274TIP3    H115828   5.023   1.046   3.512
 5274TIP3    H215829   5.086   1.183   3.531
 5275TIP3   OH215830   5.081   1.406   2.021
 5275TIP3    H115831   5.157   1.422   1.965
 5275TIP3    H215832   5.086   1.312   2.041
 5276TIP3   OH215833   2.094   4.686   1.195
 5276TIP3    H115834   2.003   4.657   1.188
 5276TIP3    H215835   2.107   4.701   1.289
 5277TIP3   OH215836   6.020   1.876   2.934
 5277TIP3    H115837   6.102   1.841   2.898
 5277TIP3    H215838   5.957   1.805   2.923
 5278TIP3   OH215839   1.676   4.909   1.434
 5278TIP3    H115840   1.604   4.904   1.370
 5278TIP3    H215841   1.635   4.886   1.517
 5279TIP3   OH215842   0.119   1.139   1.207
 5279TIP3    H115843   0.154   1.051   1.194
 5279TIP3    H215844   0.163   1.192   1.141
 5280TIP3   OH215845   4.175   1.783   4.260
 5280TIP3    H115846   4.109   1.846   4.232
 5280TIP3    H215847   4.133   1.698   4.249
 5281TIP3   OH215848   6.052   5.792   1.584
 5281TIP3    H115849   6.042   5.875   1.630
 5281TIP3    H215850   5.968   5.747   1.598
 5282TIP3   OH215851   1.400   2.836   5.119
 5282TIP3    H115852   1.410   2.917   5.170
 5282TIP3    H215853   1.325   2.792   5.160
 5283TIP3   OH215854   4.191   6.001   3.237
 5283TIP3    H115855   4.205   5.942   3.311
 5283TIP3    H215856   4.251   5.970   3.169
 5284TIP3   OH215857   1.088   0.708   1.554
 5284TIP3    H115858   1.001   0.670   1.569
 5284TIP3    H215859   1.098   0.707   1.458
 5285TIP3   OH215860   4.390   1.498   1.160
 5285TIP3    H115861   4.400   1.500   1.065
 5285TIP3    H215862   4.319   1.559   1.178
 5286TIP3   OH215863   5.316   4.977   1.884
 5286TIP3    H115864   5.348   4.942   1.801
 5286TIP3    H215865   5.365   4.930   1.951
 5287TIP3   OH215866   2.713   0.827   2.224
 5287TIP3    H115867   2.663   0.753   2.258
 5287TIP3    H215868   2.738   0.876   2.303
 5288TIP3   OH215869   3.627   3.456   0.326
 5288TIP3    H115870   3.612   3.546   0.357
 5288TIP3    H215871   3.713   3.433   0.361
 5289TIP3   OH215872   0.209   4.554   0.359
 5289TIP3    H115873   0.139   4.619   0.358
 5289TIP3    H215874   0.184   4.490   0.292
 5290TIP3   OH215875   5.287   2.967   2.988
 5290TIP3    H115876   5.335   3.030   2.934
 5290TIP3    H215877   5.345   2.951   3.063
 5291TIP3   OH215878   3.763   1.341   2.483
 5291TIP3    H115879   3.739   1.400   2.412
 5291TIP3    H215880   3.821   1.393   2.539
 5292TIP3   OH215881   0.373   1.493   2.703
 5292TIP3    H115882   0.409   1.577   2.732
 5292TIP3    H215883   0.406   1.483   2.613
 5293TIP3   OH215884   4.644   4.666   2.790
 5293TIP3    H115885   4.577   4.648   2.855
 5293TIP3    H215886   4.699   4.588   2.790
 5294TIP3   OH215887   5.937   5.157   1.182
 5294TIP3    H115888   5.882   5.081   1.201
 5294TIP3    H215889   5.882   5.232   1.203
 5295TIP3   OH215890   5.706   2.261   0.237
 5295TIP3    H115891   5.730   2.327   0.172
 5295TIP3    H215892   5.668   2.312   0.309
 5296TIP3   OH215893   5.470   4.917   3.585
 5296TIP3    H115894   5.458   5.011   3.597
 5296TIP3    H215895   5.533   4.909   3.514
 5297TIP3   OH215896   4.373   0.022   1.134
 5297TIP3    H115897   4.370   0.062   1.221
 5297TIP3    H215898   4.381   0.095   1.073
 5298TIP3   OH215899   3.545   2.444   2.325
 5298TIP3    H115900   3.535   2.352   2.352
 5298TIP3    H215901   3.615   2.442   2.260
 5299TIP3   OH215902   1.623   0.300   2.778
 5299TIP3    H115903   1.680   0.227   2.800
 5299TIP3    H215904   1.591   0.280   2.689
 5300TIP3   OH215905   2.183   2.817   4.282
 5300TIP3    H115906   2.189   2.867   4.200
 5300TIP3    H215907   2.096   2.777   4.278
 5301TIP3   OH215908   5.913   4.145   3.081
 5301TIP3    H115909   5.886   4.210   3.146
 5301TIP3    H215910   6.008   4.153   3.077
 5302TIP3   OH215911   2.718   0.594   4.214
 5302TIP3    H115912   2.709   0.575   4.307
 5302TIP3    H215913   2.770   0.674   4.210
 5303TIP3   OH215914   3.462   1.385   3.547
 5303TIP3    H115915   3.517   1.355   3.474
 5303TIP3    H215916   3.442   1.476   3.525
 5304TIP3   OH215917   5.446   0.227   3.951
 5304TIP3    H115918   5.448   0.294   4.020
 5304TIP3    H215919   5.504   0.261   3.883
 5305TIP3   OH215920   2.896   3.208   2.622
 5305TIP3    H115921   2.900   3.207   2.526
 5305TIP3    H215922   2.892   3.301   2.645
 5306TIP3   OH215923   2.106   4.236   1.254
 5306TIP3    H115924   2.065   4.197   1.177
 5306TIP3    H215925   2.152   4.313   1.221
 5307TIP3   OH215926   3.585   5.598   3.722
 5307TIP3    H115927   3.517   5.578   3.787
 5307TIP3    H215928   3.603   5.691   3.734
 5308TIP3   OH215929   1.825   2.510   4.244
 5308TIP3    H115930   1.779   2.460   4.177
 5308TIP3    H215931   1.814   2.458   4.324
 5309TIP3   OH215932   0.368   3.159   0.219
 5309TIP3    H115933   0.453   3.203   0.219
 5309TIP3    H215934   0.313   3.213   0.277
 5310TIP3   OH215935   4.412   0.265   2.034
 5310TIP3    H115936   4.332   0.317   2.033
 5310TIP3    H215937   4.388   0.185   2.080
 5311TIP3   OH215938   5.602   0.811   0.385
 5311TIP3    H115939   5.578   0.903   0.391
 5311TIP3    H215940   5.670   0.809   0.317
 5312TIP3   OH215941  -0.031   0.341   3.021
 5312TIP3    H115942   0.020   0.393   2.959
 5312TIP3    H215943  -0.018   0.251   2.993
 5313TIP3   OH215944   2.309   0.453   3.811
 5313TIP3    H115945   2.314   0.363   3.777
 5313TIP3    H215946   2.377   0.500   3.762
 5314TIP3   OH215947   5.566   0.290   0.825
 5314TIP3    H115948   5.540   0.348   0.753
 5314TIP3    H215949   5.550   0.201   0.791
 5315TIP3   OH215950   0.968   5.249   3.295
 5315TIP3    H115951   1.036   5.312   3.272
 5315TIP3    H215952   0.888   5.285   3.256
 5316TIP3   OH215953   2.699   4.470   2.597
 5316TIP3    H115954   2.772   4.510   2.550
 5316TIP3    H215955   2.709   4.376   2.580
 5317TIP3   OH215956   1.089   0.633   2.845
 5317TIP3    H115957   1.183   0.645   2.853
 5317TIP3    H215958   1.065   0.579   2.920
 5318TIP3   OH215959   3.694   0.297   3.088
 5318TIP3    H115960   3.652   0.371   3.133
 5318TIP3    H215961   3.788   0.315   3.095
 5319TIP3   OH215962   1.462   2.415   2.811
 5319TIP3    H115963   1.512   2.486   2.850
 5319TIP3    H215964   1.450   2.352   2.882
 5320TIP3   OH215965   5.963   1.175   0.383
 5320TIP3    H115966   5.884   1.193   0.332
 5320TIP3    H215967   5.932   1.166   0.473
 5321TIP3   OH215968   1.987   1.344   0.461
 5321TIP3    H115969   1.913   1.346   0.400
 5321TIP3    H215970   1.964   1.406   0.530
 5322TIP3   OH215971   4.271   3.820   3.159
 5322TIP3    H115972   4.292   3.776   3.241
 5322TIP3    H215973   4.261   3.748   3.096
 5323TIP3   OH215974   1.919   1.624   1.942
 5323TIP3    H115975   2.011   1.604   1.962
 5323TIP3    H215976   1.870   1.553   1.983
 5324TIP3   OH215977   5.111   0.404   2.550
 5324TIP3    H115978   5.207   0.399   2.540
 5324TIP3    H215979   5.096   0.390   2.644
 5325TIP3   OH215980   2.036   3.398   2.070
 5325TIP3    H115981   1.976   3.434   2.005
 5325TIP3    H215982   2.066   3.315   2.031
 5326TIP3   OH215983   1.930   4.697   1.712
 5326TIP3    H115984   1.891   4.688   1.626
 5326TIP3    H215985   1.993   4.625   1.719
 5327TIP3   OH215986   5.457   5.095   3.882
 5327TIP3    H115987   5.435   5.139   3.799
 5327TIP3    H215988   5.508   5.160   3.930
 5328TIP3   OH215989   2.050   0.536   3.910
 5328TIP3    H115990   2.037   0.541   3.815
 5328TIP3    H215991   1.962   0.532   3.947
 5329TIP3   OH215992   5.254   1.959   0.156
 5329TIP3    H115993   5.250   1.873   0.115
 5329TIP3    H215994   5.348   1.978   0.161
 5330TIP3   OH215995   2.329   4.132   0.600
 5330TIP3    H115996   2.317   4.202   0.536
 5330TIP3    H215997   2.350   4.177   0.682
 5331TIP3   OH215998   2.991   3.721   4.077
 5331TIP3    H115999   2.999   3.719   3.982
 5331TIP3    H216000   2.956   3.635   4.100
 5332TIP3   OH216001   0.862   2.203   1.543
 5332TIP3    H116002   0.789   2.185   1.483
 5332TIP3    H216003   0.881   2.118   1.583
 5333TIP3   OH216004   4.415   4.521   4.166
 5333TIP3    H116005   4.340   4.488   4.217
 5333TIP3    H216006   4.491   4.498   4.218
 5334TIP3   OH216007   4.314   1.930   3.913
 5334TIP3    H116008   4.228   1.932   3.871
 5334TIP3    H216009   4.320   2.014   3.960
 5335TIP3   OH216010   2.340   3.322   1.926
 5335TIP3    H116011   2.269   3.264   1.955
 5335TIP3    H216012   2.360   3.292   1.837
 5336TIP3   OH216013   4.542   4.349   2.671
 5336TIP3    H116014   4.493   4.431   2.667
 5336TIP3    H216015   4.476   4.281   2.653
 5337TIP3   OH216016   0.723   0.462   5.025
 5337TIP3    H116017   0.648   0.502   4.980
 5337TIP3    H216018   0.684   0.395   5.081
 5338TIP3   OH216019   4.937   4.918   1.894
 5338TIP3    H116020   4.971   4.983   1.833
 5338TIP3    H216021   4.844   4.939   1.903
 5339TIP3   OH216022   6.140   5.347   3.644
 5339TIP3    H116023   6.211   5.298   3.685
 5339TIP3    H216024   6.132   5.310   3.556
 5340TIP3   OH216025   1.817   0.511   1.370
 5340TIP3    H116026   1.733   0.546   1.339
 5340TIP3    H216027   1.864   0.587   1.404
 5341TIP3   OH216028   3.159   5.704   3.013
 5341TIP3    H116029   3.096   5.760   2.969
 5341TIP3    H216030   3.113   5.671   3.091
 5342TIP3   OH216031   1.483   3.319   4.687
 5342TIP3    H116032   1.442   3.285   4.608
 5342TIP3    H216033   1.529   3.244   4.725
 5343TIP3   OH216034   6.269   0.508   4.700
 5343TIP3    H116035   6.352   0.466   4.720
 5343TIP3    H216036   6.250   0.483   4.610
 5344TIP3   OH216037   3.226   1.084   4.300
 5344TIP3    H116038   3.171   1.006   4.313
 5344TIP3    H216039   3.260   1.075   4.211
 5345TIP3   OH216040   1.649   3.658   0.349
 5345TIP3    H116041   1.566   3.695   0.382
 5345TIP3    H216042   1.645   3.672   0.254
 5346TIP3   OH216043   2.241   0.667   2.505
 5346TIP3    H116044   2.150   0.677   2.477
 5346TIP3    H216045   2.280   0.609   2.441
 5347TIP3   OH216046   0.719   1.830   4.429
 5347TIP3    H116047   0.689   1.892   4.496
 5347TIP3    H216048   0.798   1.790   4.466
 5348TIP3   OH216049   4.991   1.275   3.824
 5348TIP3    H116050   5.015   1.242   3.737
 5348TIP3    H216051   5.071   1.268   3.875
 5349TIP3   OH216052   1.671   5.167   0.961
 5349TIP3    H116053   1.722   5.186   0.882
 5349TIP3    H216054   1.601   5.232   0.961
 5350TIP3   OH216055   1.810   2.046   2.904
 5350TIP3    H116056   1.788   2.099   2.827
 5350TIP3    H216057   1.728   2.039   2.953
 5351TIP3   OH216058   1.871   5.897   3.815
 5351TIP3    H116059   1.893   5.894   3.722
 5351TIP3    H216060   1.855   5.806   3.839
 5352TIP3   OH216061   1.374   3.655   0.711
 5352TIP3    H116062   1.402   3.722   0.649
 5352TIP3    H216063   1.293   3.691   0.749
 5353TIP3   OH216064   6.024   2.698   4.266
 5353TIP3    H116065   6.043   2.714   4.359
 5353TIP3    H216066   6.111   2.688   4.226
 5354TIP3   OH216067   0.220   4.640   4.494
 5354TIP3    H116068   0.274   4.659   4.418
 5354TIP3    H216069   0.265   4.568   4.539
 5355TIP3   OH216070   4.663   3.613   0.575
 5355TIP3    H116071   4.644   3.677   0.507
 5355TIP3    H216072   4.736   3.650   0.624
 5356TIP3   OH216073   1.681   1.021   1.508
 5356TIP3    H116074   1.616   1.091   1.511
 5356TIP3    H216075   1.654   0.965   1.436
 5357TIP3   OH216076   3.450   5.329   3.550
 5357TIP3    H116077   3.387   5.391   3.588
 5357TIP3    H216078   3.423   5.244   3.583
 5358TIP3   OH216079   1.071   0.289   0.825
 5358TIP3    H116080   1.158   0.322   0.846
 5358TIP3    H216081   1.068   0.288   0.729
 5359TIP3   OH216082   4.843   2.612   2.591
 5359TIP3    H116083   4.794   2.541   2.634
 5359TIP3    H216084   4.895   2.567   2.524
 5360TIP3   OH216085   4.503   2.278   1.257
 5360TIP3    H116086   4.441   2.218   1.216
 5360TIP3    H216087   4.474   2.285   1.348
 5361TIP3   OH216088   3.085   2.487   3.401
 5361TIP3    H116089   3.072   2.560   3.462
 5361TIP3    H216090   3.082   2.409   3.457
 5362TIP3   OH216091   3.824   0.675   4.796
 5362TIP3    H116092   3.772   0.745   4.836
 5362TIP3    H216093   3.818   0.602   4.858
 5363TIP3   OH216094   0.324   0.403   1.009
 5363TIP3    H116095   0.309   0.480   0.954
 5363TIP3    H216096   0.237   0.378   1.040
 5364TIP3   OH216097   1.585   2.730   1.626
 5364TIP3    H116098   1.537   2.704   1.547
 5364TIP3    H216099   1.531   2.699   1.698
 5365TIP3   OH216100   4.955   1.337   0.980
 5365TIP3    H116101   4.921   1.277   1.046
 5365TIP3    H216102   4.895   1.329   0.906
 5366TIP3   OH216103   4.118   2.439   4.257
 5366TIP3    H116104   4.111   2.403   4.168
 5366TIP3    H216105   4.047   2.503   4.262
 5367TIP3   OH216106   3.062   0.709   1.279
 5367TIP3    H116107   3.003   0.694   1.205
 5367TIP3    H216108   3.008   0.753   1.345
 5368TIP3   OH216109   3.054   5.184   4.109
 5368TIP3    H116110   2.998   5.125   4.059
 5368TIP3    H216111   3.027   5.172   4.200
 5369TIP3   OH216112   1.221   3.157   3.904
 5369TIP3    H116113   1.160   3.098   3.859
 5369TIP3    H216114   1.230   3.232   3.846
 5370TIP3   OH216115   2.210   5.299   1.086
 5370TIP3    H116116   2.151   5.320   1.014
 5370TIP3    H216117   2.293   5.339   1.062
 5371TIP3   OH216118   6.366   2.322   1.943
 5371TIP3    H116119   6.285   2.298   1.899
 5371TIP3    H216120   6.419   2.363   1.875
 5372TIP3   OH216121   1.083   3.060   0.285
 5372TIP3    H116122   1.115   3.050   0.375
 5372TIP3    H216123   1.098   2.974   0.245
 5373TIP3   OH216124   4.289   1.660   2.620
 5373TIP3    H116125   4.320   1.750   2.626
 5373TIP3    H216126   4.195   1.668   2.604
 5374TIP3   OH216127   1.262   4.986   3.757
 5374TIP3    H116128   1.307   5.032   3.827
 5374TIP3    H216129   1.292   4.895   3.765
 5375TIP3   OH216130   0.301   3.919   0.954
 5375TIP3    H116131   0.338   3.841   0.995
 5375TIP3    H216132   0.207   3.915   0.975
 5376TIP3   OH216133   0.442   3.567   1.507
 5376TIP3    H116134   0.384   3.597   1.577
 5376TIP3    H216135   0.440   3.637   1.442
 5377TIP3   OH216136   2.568   1.290   4.090
 5377TIP3    H116137   2.506   1.326   4.026
 5377TIP3    H216138   2.653   1.321   4.061
 5378TIP3   OH216139   4.635   4.507   4.304
 5378TIP3    H116140   4.730   4.496   4.308
 5378TIP3    H216141   4.614   4.565   4.377
 5379TIP3   OH216142   3.661   5.208   3.358
 5379TIP3    H116143   3.722   5.147   3.399
 5379TIP3    H216144   3.658   5.182   3.267
 5380TIP3   OH216145   2.580   4.175   2.847
 5380TIP3    H116146   2.528   4.251   2.821
 5380TIP3    H216147   2.648   4.211   2.904
 5381TIP3   OH216148   3.689   4.121   2.037
 5381TIP3    H116149   3.645   4.200   2.006
 5381TIP3    H216150   3.631   4.049   2.012
 5382TIP3   OH216151   2.574   0.796   2.880
 5382TIP3    H116152   2.632   0.727   2.913
 5382TIP3    H216153   2.521   0.754   2.813
 5383TIP3   OH216154   0.179   4.134   4.660
 5383TIP3    H116155   0.156   4.044   4.638
 5383TIP3    H216156   0.101   4.185   4.640
 5384TIP3   OH216157   4.877   2.412   4.072
 5384TIP3    H116158   4.895   2.320   4.050
 5384TIP3    H216159   4.839   2.448   3.992
 5385TIP3   OH216160   2.756   5.153   2.687
 5385TIP3    H116161   2.779   5.245   2.676
 5385TIP3    H216162   2.710   5.149   2.771
 5386TIP3   OH216163   4.934   5.150   2.167
 5386TIP3    H116164   4.971   5.236   2.151
 5386TIP3    H216165   4.841   5.165   2.179
 5387TIP3   OH216166   3.462   0.683   3.935
 5387TIP3    H116167   3.399   0.625   3.892
 5387TIP3    H216168   3.412   0.726   4.005
 5388TIP3   OH216169   4.739   3.395   0.291
 5388TIP3    H116170   4.738   3.372   0.384
 5388TIP3    H216171   4.830   3.419   0.273
 5389TIP3   OH216172   5.039   0.172   1.524
 5389TIP3    H116173   4.946   0.161   1.544
 5389TIP3    H216174   5.082   0.102   1.573
 5390TIP3   OH216175   1.169   1.716   4.398
 5390TIP3    H116176   1.198   1.767   4.322
 5390TIP3    H216177   1.074   1.731   4.401
 5391TIP3   OH216178   5.393   4.405   1.164
 5391TIP3    H116179   5.397   4.363   1.250
 5391TIP3    H216180   5.484   4.427   1.143
 5392TIP3   OH216181   3.258   3.821   3.540
 5392TIP3    H116182   3.229   3.877   3.468
 5392TIP3    H216183   3.242   3.873   3.619
 5393TIP3   OH216184   0.637   1.862   2.071
 5393TIP3    H116185   0.563   1.883   2.129
 5393TIP3    H216186   0.645   1.939   2.014
 5394TIP3   OH216187   2.097   1.801   4.309
 5394TIP3    H116188   2.156   1.731   4.281
 5394TIP3    H216189   2.109   1.807   4.403
 5395TIP3   OH216190   0.235   4.116   3.064
 5395TIP3    H116191   0.216   4.087   3.153
 5395TIP3    H216192   0.324   4.152   3.069
 5396TIP3   OH216193   3.536   0.811   0.699
 5396TIP3    H116194   3.501   0.755   0.769
 5396TIP3    H216195   3.596   0.754   0.650
 5397TIP3   OH216196   2.624   3.906   1.347
 5397TIP3    H116197   2.679   3.984   1.350
 5397TIP3    H216198   2.565   3.921   1.273
 5398TIP3   OH216199   6.250   1.554   3.229
 5398TIP3    H116200   6.181   1.511   3.179
 5398TIP3    H216201   6.216   1.642   3.246
 5399TIP3   OH216202   1.883   1.408   1.036
 5399TIP3    H116203   1.870   1.495   0.999
 5399TIP3    H216204   1.943   1.421   1.109
 5400TIP3   OH216205   3.763   3.422   3.304
 5400TIP3    H116206   3.714   3.491   3.259
 5400TIP3    H216207   3.852   3.457   3.312
 5401TIP3   OH216208   5.829   4.888   2.824
 5401TIP3    H116209   5.861   4.935   2.902
 5401TIP3    H216210   5.846   4.948   2.751
 5402TIP3   OH216211   5.978   3.740   1.009
 5402TIP3    H116212   5.968   3.650   1.041
 5402TIP3    H216213   5.924   3.742   0.930
 5403TIP3   OH216214   5.249   5.383   3.656
 5403TIP3    H116215   5.334   5.344   3.639
 5403TIP3    H216216   5.194   5.354   3.583
 5404TIP3   OH216217   5.068   5.879   1.131
 5404TIP3    H116218   5.130   5.911   1.066
 5404TIP3    H216219   4.985   5.873   1.084
 5405TIP3   OH216220   1.507   4.114   2.759
 5405TIP3    H116221   1.507   4.197   2.807
 5405TIP3    H216222   1.589   4.115   2.710
 5406TIP3   OH216223   5.234   0.307   1.876
 5406TIP3    H116224   5.140   0.306   1.860
 5406TIP3    H216225   5.263   0.218   1.859
 5407TIP3   OH216226   5.290   2.414   2.125
 5407TIP3    H116227   5.308   2.493   2.176
 5407TIP3    H216228   5.355   2.415   2.055
 5408TIP3   OH216229   2.869   1.917   3.589
 5408TIP3    H116230   2.867   1.918   3.493
 5408TIP3    H216231   2.962   1.923   3.611
 5409TIP3   OH216232   6.055   4.685   0.628
 5409TIP3    H116233   5.975   4.736   0.613
 5409TIP3    H216234   6.038   4.601   0.584
 5410TIP3   OH216235   5.861   1.327   2.918
 5410TIP3    H116236   5.804   1.333   2.842
 5410TIP3    H216237   5.804   1.293   2.988
 5411TIP3   OH216238   1.298   0.382   0.905
 5411TIP3    H116239   1.266   0.388   0.995
 5411TIP3    H216240   1.391   0.401   0.912
 5412TIP3   OH216241   4.553   0.956   3.219
 5412TIP3    H116242   4.570   1.009   3.297
 5412TIP3    H216243   4.591   1.007   3.147
 5413TIP3   OH216244   4.381   3.590   3.936
 5413TIP3    H116245   4.465   3.583   3.981
 5413TIP3    H216246   4.324   3.529   3.983
 5414TIP3   OH216247   1.173   3.818   2.190
 5414TIP3    H116248   1.217   3.868   2.259
 5414TIP3    H216249   1.224   3.737   2.183
 5415TIP3   OH216250   5.895   4.619   0.872
 5415TIP3    H116251   5.821   4.667   0.835
 5415TIP3    H216252   5.928   4.566   0.800
 5416TIP3   OH216253   1.616   4.457   0.612
 5416TIP3    H116254   1.692   4.410   0.645
 5416TIP3    H216255   1.569   4.484   0.692
 5417TIP3   OH216256   5.630   4.567   1.139
 5417TIP3    H116257   5.668   4.531   1.219
 5417TIP3    H216258   5.701   4.565   1.075
 5418TIP3   OH216259   4.807   4.945   1.329
 5418TIP3    H116260   4.884   4.900   1.293
 5418TIP3    H216261   4.805   4.918   1.421
 5419TIP3   OH216262   5.399   4.429   3.048
 5419TIP3    H116263   5.377   4.516   3.015
 5419TIP3    H216264   5.471   4.400   2.992
 5420TIP3   OH216265   5.874   4.278   1.111
 5420TIP3    H116266   5.884   4.194   1.066
 5420TIP3    H216267   5.812   4.327   1.056
 5421TIP3   OH216268   4.041   0.229   4.395
 5421TIP3    H116269   4.026   0.268   4.481
 5421TIP3    H216270   4.125   0.266   4.366
 5422TIP3   OH216271   2.722   4.440   3.260
 5422TIP3    H116272   2.691   4.526   3.233
 5422TIP3    H216273   2.660   4.411   3.326
 5423TIP3   OH216274   4.117   4.944   4.644
 5423TIP3    H116275   4.150   5.009   4.706
 5423TIP3    H216276   4.076   4.996   4.574
 5424TIP3   OH216277   0.724   0.010   3.335
 5424TIP3    H116278   0.680   0.094   3.346
 5424TIP3    H216279   0.799   0.029   3.278
 5425TIP3   OH216280   4.287   0.896   0.541
 5425TIP3    H116281   4.284   0.850   0.625
 5425TIP3    H216282   4.197   0.923   0.525
 5426TIP3   OH216283   1.556   0.592   1.408
 5426TIP3    H116284   1.514   0.646   1.475
 5426TIP3    H216285   1.513   0.507   1.414
 5427TIP3   OH216286   1.983   2.444   4.797
 5427TIP3    H116287   2.010   2.473   4.710
 5427TIP3    H216288   2.043   2.372   4.818
 5428TIP3   OH216289   1.269   3.703   3.126
 5428TIP3    H116290   1.274   3.798   3.119
 5428TIP3    H216291   1.263   3.673   3.035
 5429TIP3   OH216292   0.867   1.468   4.769
 5429TIP3    H116293   0.865   1.449   4.862
 5429TIP3    H216294   0.863   1.382   4.727
 5430TIP3   OH216295   2.791   1.141   3.152
 5430TIP3    H116296   2.788   1.220   3.207
 5430TIP3    H216297   2.818   1.174   3.066
 5431TIP3   OH216298   3.773   5.737   0.413
 5431TIP3    H116299   3.866   5.736   0.391
 5431TIP3    H216300   3.733   5.790   0.344
 5432TIP3   OH216301   6.160   3.691   4.440
 5432TIP3    H116302   6.098   3.622   4.417
 5432TIP3    H216303   6.229   3.646   4.490
 5433TIP3   OH216304   0.559   0.303   0.292
 5433TIP3    H116305   0.571   0.332   0.383
 5433TIP3    H216306   0.637   0.336   0.246
 5434TIP3   OH216307   0.559   3.070   1.369
 5434TIP3    H116308   0.549   3.029   1.456
 5434TIP3    H216309   0.509   3.151   1.375
 5435TIP3   OH216310   6.191   1.534   4.202
 5435TIP3    H116311   6.247   1.589   4.257
 5435TIP3    H216312   6.121   1.593   4.174
 5436TIP3   OH216313   3.331   1.672   0.272
 5436TIP3    H116314   3.278   1.641   0.199
 5436TIP3    H216315   3.323   1.768   0.269
 5437TIP3   OH216316   0.876   4.004   2.767
 5437TIP3    H116317   0.795   4.054   2.760
 5437TIP3    H216318   0.945   4.067   2.752
 5438TIP3   OH216319   5.252   2.901   0.242
 5438TIP3    H116320   5.302   2.849   0.305
 5438TIP3    H216321   5.280   2.991   0.257
 5439TIP3   OH216322   5.319   1.521   1.499
 5439TIP3    H116323   5.410   1.494   1.501
 5439TIP3    H216324   5.310   1.569   1.416
 5440TIP3   OH216325   3.581   5.419   0.557
 5440TIP3    H116326   3.566   5.328   0.582
 5440TIP3    H216327   3.523   5.433   0.482
 5441TIP3   OH216328   6.119   3.438   1.779
 5441TIP3    H116329   6.104   3.513   1.722
 5441TIP3    H216330   6.097   3.362   1.726
 5442TIP3   OH216331   4.329   2.991   0.407
 5442TIP3    H116332   4.354   2.929   0.338
 5442TIP3    H216333   4.296   2.936   0.478
 5443TIP3   OH216334   1.069   2.555   4.548
 5443TIP3    H116335   1.033   2.636   4.584
 5443TIP3    H216336   1.163   2.572   4.543
 5444TIP3   OH216337   1.518   2.038   0.959
 5444TIP3    H116338   1.436   2.022   1.005
 5444TIP3    H216339   1.493   2.044   0.866
 5445TIP3   OH216340   3.165   3.412   4.067
 5445TIP3    H116341   3.166   3.318   4.087
 5445TIP3    H216342   3.094   3.447   4.121
 5446TIP3   OH216343   6.225   4.005   4.933
 5446TIP3    H116344   6.219   3.997   4.838
 5446TIP3    H216345   6.145   4.051   4.959
 5447TIP3   OH216346   3.032   4.108   4.247
 5447TIP3    H116347   3.029   4.184   4.305
 5447TIP3    H216348   3.083   4.043   4.295
 5448TIP3   OH216349   0.564   0.847   5.029
 5448TIP3    H116350   0.596   0.933   5.056
 5448TIP3    H216351   0.516   0.863   4.948
 5449TIP3   OH216352   2.642   0.200   2.751
 5449TIP3    H116353   2.704   0.272   2.735
 5449TIP3    H216354   2.571   0.240   2.801
 5450TIP3   OH216355   4.034   2.683   2.270
 5450TIP3    H116356   4.000   2.766   2.237
 5450TIP3    H216357   4.060   2.701   2.360
 5451TIP3   OH216358   5.033   4.974   2.524
 5451TIP3    H116359   5.017   4.926   2.443
 5451TIP3    H216360   5.028   4.908   2.593
 5452TIP3   OH216361   1.697   2.003   0.618
 5452TIP3    H116362   1.629   2.070   0.610
 5452TIP3    H216363   1.770   2.049   0.660
 5453TIP3   OH216364   2.835   5.715   2.634
 5453TIP3    H116365   2.901   5.726   2.702
 5453TIP3    H216366   2.877   5.745   2.553
 5454TIP3   OH216367   3.843   5.291   1.836
 5454TIP3    H116368   3.843   5.195   1.839
 5454TIP3    H216369   3.875   5.311   1.748
 5455TIP3   OH216370   1.875   4.290   0.689
 5455TIP3    H116371   1.898   4.311   0.779
 5455TIP3    H216372   1.955   4.305   0.639
 5456TIP3   OH216373   5.361   1.573   4.945
 5456TIP3    H116374   5.443   1.551   4.989
 5456TIP3    H216375   5.387   1.632   4.874
 5457TIP3   OH216376   2.209   4.407   3.098
 5457TIP3    H116377   2.198   4.474   3.031
 5457TIP3    H216378   2.135   4.348   3.086
 5458TIP3   OH216379   5.796   1.999   4.640
 5458TIP3    H116380   5.873   2.042   4.604
 5458TIP3    H216381   5.821   1.975   4.729
 5459TIP3   OH216382   4.624   4.294   1.301
 5459TIP3    H116383   4.686   4.287   1.229
 5459TIP3    H216384   4.544   4.330   1.262
 5460TIP3   OH216385   4.614   3.756   1.122
 5460TIP3    H116386   4.635   3.847   1.144
 5460TIP3    H216387   4.649   3.744   1.034
 5461TIP3   OH216388   5.207   2.648   0.579
 5461TIP3    H116389   5.228   2.568   0.531
 5461TIP3    H216390   5.286   2.667   0.629
 5462TIP3   OH216391   4.615   4.693   1.449
 5462TIP3    H116392   4.687   4.754   1.464
 5462TIP3    H216393   4.655   4.606   1.458
 5463TIP3   OH216394   6.022   1.078   1.564
 5463TIP3    H116395   5.985   1.155   1.607
 5463TIP3    H216396   5.949   1.016   1.557
 5464TIP3   OH216397   4.149   0.472   0.203
 5464TIP3    H116398   4.077   0.534   0.216
 5464TIP3    H216399   4.215   0.498   0.268
 5465TIP3   OH216400   1.147   3.741   2.871
 5465TIP3    H116401   1.171   3.826   2.907
 5465TIP3    H216402   1.052   3.743   2.862
 5466TIP3   OH216403   2.695   2.412   3.784
 5466TIP3    H116404   2.705   2.320   3.758
 5466TIP3    H216405   2.656   2.454   3.707
 5467TIP3   OH216406   0.566   4.371   3.490
 5467TIP3    H116407   0.654   4.409   3.488
 5467TIP3    H216408   0.518   4.418   3.421
 5468TIP3   OH216409   2.465   5.476   0.708
 5468TIP3    H116410   2.456   5.516   0.621
 5468TIP3    H216411   2.559   5.463   0.718
 5469TIP3   OH216412   3.008   5.547   4.084
 5469TIP3    H116413   2.921   5.543   4.123
 5469TIP3    H216414   3.068   5.543   4.160
 5470TIP3   OH216415   3.153   0.273   2.839
 5470TIP3    H116416   3.236   0.271   2.885
 5470TIP3    H216417   3.175   0.302   2.750
 5471TIP3   OH216418   5.006   3.328   2.075
 5471TIP3    H116419   5.083   3.370   2.112
 5471TIP3    H216420   4.960   3.398   2.029
 5472TIP3   OH216421   5.787   2.272   2.628
 5472TIP3    H116422   5.817   2.269   2.719
 5472TIP3    H216423   5.752   2.184   2.611
 5473TIP3   OH216424   5.012   5.114   1.736
 5473TIP3    H116425   4.931   5.130   1.687
 5473TIP3    H216426   5.042   5.201   1.762
 5474TIP3   OH216427   0.319   2.478   3.398
 5474TIP3    H116428   0.277   2.505   3.480
 5474TIP3    H216429   0.355   2.391   3.416
 5475TIP3   OH216430   5.868   0.464   3.292
 5475TIP3    H116431   5.849   0.379   3.330
 5475TIP3    H216432   5.962   0.464   3.278
 5476TIP3   OH216433   4.671   1.638   4.118
 5476TIP3    H116434   4.608   1.639   4.190
 5476TIP3    H216435   4.686   1.545   4.100
 5477TIP3   OH216436   6.096   0.274   4.930
 5477TIP3    H116437   6.162   0.205   4.924
 5477TIP3    H216438   6.057   0.262   5.017
 5478TIP3   OH216439   0.896   1.524   5.040
 5478TIP3    H116440   0.980   1.486   5.068
 5478TIP3    H216441   0.908   1.618   5.053
 5479TIP3   OH216442   3.666   0.747   3.414
 5479TIP3    H116443   3.704   0.821   3.366
 5479TIP3    H216444   3.739   0.713   3.466
 5480TIP3   OH216445   2.032   3.372   4.430
 5480TIP3    H116446   1.970   3.412   4.370
 5480TIP3    H216447   2.080   3.309   4.376
 5481TIP3   OH216448   0.747   5.118   1.327
 5481TIP3    H116449   0.718   5.164   1.406
 5481TIP3    H216450   0.794   5.041   1.360
 5482TIP3   OH216451   1.823   0.242   3.102
 5482TIP3    H116452   1.775   0.325   3.105
 5482TIP3    H216453   1.763   0.181   3.060
 5483TIP3   OH216454   0.267   5.423   4.039
 5483TIP3    H116455   0.264   5.395   3.947
 5483TIP3    H216456   0.213   5.359   4.085
 5484TIP3   OH216457   4.629   4.872   1.001
 5484TIP3    H116458   4.652   4.964   0.987
 5484TIP3    H216459   4.578   4.872   1.082
 5485TIP3   OH216460   2.082   4.097   3.458
 5485TIP3    H116461   2.137   4.038   3.509
 5485TIP3    H216462   2.142   4.138   3.396
 5486TIP3   OH216463   3.357   2.974   2.796
 5486TIP3    H116464   3.275   2.929   2.816
 5486TIP3    H216465   3.329   3.061   2.767
 5487TIP3   OH216466   1.204   2.840   2.069
 5487TIP3    H116467   1.153   2.888   2.004
 5487TIP3    H216468   1.216   2.753   2.030
 5488TIP3   OH216469  -0.013   3.240   0.238
 5488TIP3    H116470   0.050   3.296   0.193
 5488TIP3    H216471  -0.020   3.277   0.326
 5489TIP3   OH216472   2.115   2.886   2.018
 5489TIP3    H116473   2.115   2.794   1.992
 5489TIP3    H216474   2.176   2.890   2.091
 5490TIP3   OH216475   3.026   0.816   0.966
 5490TIP3    H116476   2.961   0.883   0.987
 5490TIP3    H216477   2.975   0.737   0.952
 5491TIP3   OH216478   0.719   2.809   3.082
 5491TIP3    H116479   0.700   2.793   2.990
 5491TIP3    H216480   0.694   2.900   3.097
 5492TIP3   OH216481   5.755   5.321   3.522
 5492TIP3    H116482   5.790   5.236   3.547
 5492TIP3    H216483   5.795   5.383   3.584
 5493TIP3   OH216484   4.026   4.098   1.182
 5493TIP3    H116485   4.011   4.017   1.230
 5493TIP3    H216486   4.121   4.104   1.174
 5494TIP3   OH216487   1.787   0.107   3.959
 5494TIP3    H116488   1.741   0.025   3.979
 5494TIP3    H216489   1.766   0.165   4.032
 5495TIP3   OH216490   5.502   0.501   4.016
 5495TIP3    H116491   5.487   0.574   4.075
 5495TIP3    H216492   5.434   0.510   3.949
 5496TIP3   OH216493   0.739   5.969   4.097
 5496TIP3    H116494   0.652   5.935   4.120
 5496TIP3    H216495   0.749   6.047   4.151
 5497TIP3   OH216496   2.755   1.344   3.480
 5497TIP3    H116497   2.826   1.381   3.534
 5497TIP3    H216498   2.760   1.392   3.398
 5498TIP3   OH216499   0.031   1.776   5.024
 5498TIP3    H116500   0.070   1.787   4.937
 5498TIP3    H216501   0.007   1.683   5.028
 5499TIP3   OH216502   3.484   0.660   4.335
 5499TIP3    H116503   3.537   0.581   4.332
 5499TIP3    H216504   3.543   0.727   4.370
 5500TIP3   OH216505   6.251   0.683   0.813
 5500TIP3    H116506   6.281   0.729   0.734
 5500TIP3    H216507   6.262   0.590   0.792
 5501TIP3   OH216508   4.536   3.908   3.237
 5501TIP3    H116509   4.487   3.876   3.313
 5501TIP3    H216510   4.491   3.989   3.212
 5502TIP3   OH216511   5.141   1.185   1.370
 5502TIP3    H116512   5.109   1.133   1.297
 5502TIP3    H216513   5.072   1.249   1.387
 5503TIP3   OH216514   6.217   4.826   3.706
 5503TIP3    H116515   6.122   4.830   3.696
 5503TIP3    H216516   6.237   4.734   3.721
 5504TIP3   OH216517   6.104   1.601   4.980
 5504TIP3    H116518   6.089   1.533   4.914
 5504TIP3    H216519   6.172   1.565   5.037
 5505TIP3   OH216520   1.398   4.029   3.962
 5505TIP3    H116521   1.418   4.121   3.981
 5505TIP3    H216522   1.320   4.011   4.014
 5506TIP3   OH216523   0.015   2.051   4.785
 5506TIP3    H116524  -0.071   2.008   4.792
 5506TIP3    H216525   0.062   2.023   4.864
 5507TIP3   OH216526   3.433   2.318   2.703
 5507TIP3    H116527   3.359   2.314   2.643
 5507TIP3    H216528   3.500   2.263   2.662
 5508TIP3   OH216529   0.315   3.959   0.318
 5508TIP3    H116530   0.301   4.053   0.315
 5508TIP3    H216531   0.276   3.926   0.237
 5509TIP3   OH216532   4.548   5.310   4.545
 5509TIP3    H116533   4.519   5.233   4.594
 5509TIP3    H216534   4.473   5.333   4.490
 5510TIP3   OH216535   3.464   4.988   1.268
 5510TIP3    H116536   3.527   4.922   1.297
 5510TIP3    H216537   3.512   5.041   1.205
 5511TIP3   OH216538   1.779   1.156   1.084
 5511TIP3    H116539   1.685   1.170   1.082
 5511TIP3    H216540   1.816   1.243   1.066
 5512TIP3   OH216541   3.359   0.062   4.768
 5512TIP3    H116542   3.292   0.035   4.829
 5512TIP3    H216543   3.352   0.158   4.765
 5513TIP3   OH216544   1.891   3.321   3.994
 5513TIP3    H116545   1.882   3.408   4.034
 5513TIP3    H216546   1.834   3.324   3.917
 5514TIP3   OH216547   3.827   2.456   1.015
 5514TIP3    H116548   3.813   2.361   1.020
 5514TIP3    H216549   3.739   2.492   1.006
 5515TIP3   OH216550   5.380   1.563   2.152
 5515TIP3    H116551   5.466   1.569   2.193
 5515TIP3    H216552   5.397   1.570   2.058
 5516TIP3   OH216553   5.803   2.182   0.948
 5516TIP3    H116554   5.868   2.223   0.890
 5516TIP3    H216555   5.846   2.104   0.981
 5517TIP3   OH216556   3.686   2.578   1.442
 5517TIP3    H116557   3.757   2.636   1.472
 5517TIP3    H216558   3.616   2.638   1.416
 5518TIP3   OH216559   5.970   5.594   4.539
 5518TIP3    H116560   5.898   5.576   4.600
 5518TIP3    H216561   6.017   5.667   4.579
 5519TIP3   OH216562   3.539   1.604   4.953
 5519TIP3    H116563   3.497   1.653   5.024
 5519TIP3    H216564   3.482   1.618   4.877
 5520TIP3   OH216565   5.502   5.822   2.625
 5520TIP3    H116566   5.554   5.786   2.554
 5520TIP3    H216567   5.413   5.792   2.608
 5521TIP3   OH216568   1.532   1.325   2.784
 5521TIP3    H116569   1.564   1.246   2.827
 5521TIP3    H216570   1.464   1.359   2.843
 5522TIP3   OH216571   1.872   5.478   2.196
 5522TIP3    H116572   1.806   5.547   2.193
 5522TIP3    H216573   1.954   5.522   2.174
 5523TIP3   OH216574   3.352   0.513   3.098
 5523TIP3    H116575   3.428   0.503   3.155
 5523TIP3    H216576   3.385   0.494   3.010
 5524TIP3   OH216577   1.943   1.517   0.727
 5524TIP3    H116578   1.860   1.533   0.773
 5524TIP3    H216579   1.964   1.425   0.747
 5525TIP3   OH216580   0.266   5.883   2.761
 5525TIP3    H116581   0.253   5.946   2.831
 5525TIP3    H216582   0.184   5.833   2.758
 5526TIP3   OH216583   4.692   5.609   3.983
 5526TIP3    H116584   4.677   5.617   3.889
 5526TIP3    H216585   4.736   5.525   3.993
 5527TIP3   OH216586   2.247   0.566   3.490
 5527TIP3    H116587   2.305   0.626   3.537
 5527TIP3    H216588   2.163   0.573   3.536
 5528TIP3   OH216589   3.766   3.854   0.339
 5528TIP3    H116590   3.832   3.914   0.302
 5528TIP3    H216591   3.710   3.833   0.265
 5529TIP3   OH216592   6.091   0.117   0.473
 5529TIP3    H116593   6.164   0.127   0.412
 5529TIP3    H216594   6.020   0.082   0.419
 5530TIP3   OH216595   0.741   5.870   2.576
 5530TIP3    H116596   0.779   5.958   2.584
 5530TIP3    H216597   0.648   5.885   2.559
 5531TIP3   OH216598   1.844   0.072   1.668
 5531TIP3    H116599   1.861   0.147   1.612
 5531TIP3    H216600   1.842   0.107   1.757
 5532TIP3   OH216601   4.211   0.470   3.083
 5532TIP3    H116602   4.242   0.474   2.993
 5532TIP3    H216603   4.245   0.549   3.125
 5533TIP3   OH216604   0.542   1.568   4.134
 5533TIP3    H116605   0.600   1.496   4.157
 5533TIP3    H216606   0.472   1.528   4.082
 5534TIP3   OH216607   1.573   3.297   1.681
 5534TIP3    H116608   1.646   3.286   1.742
 5534TIP3    H216609   1.580   3.388   1.653
 5535TIP3   OH216610   3.596   5.714   1.090
 5535TIP3    H116611   3.663   5.777   1.115
 5535TIP3    H216612   3.517   5.743   1.136
 5536TIP3   OH216613   4.216   2.482   0.747
 5536TIP3    H116614   4.217   2.407   0.807
 5536TIP3    H216615   4.136   2.529   0.768
 5537TIP3   OH216616   4.103   5.515   0.509
 5537TIP3    H116617   4.166   5.525   0.438
 5537TIP3    H216618   4.040   5.451   0.476
 5538TIP3   OH216619   5.877   0.437   3.923
 5538TIP3    H116620   5.913   0.386   3.851
 5538TIP3    H216621   5.951   0.449   3.983
 5539TIP3   OH216622   5.735   5.380   4.214
 5539TIP3    H116623   5.822   5.405   4.182
 5539TIP3    H216624   5.680   5.455   4.193
 5540TIP3   OH216625   5.979   4.329   3.753
 5540TIP3    H116626   6.037   4.318   3.678
 5540TIP3    H216627   5.933   4.246   3.761
 5541TIP3   OH216628   4.840   5.644   2.438
 5541TIP3    H116629   4.851   5.554   2.470
 5541TIP3    H216630   4.856   5.699   2.515
 5542TIP3   OH216631   0.370   1.866   0.642
 5542TIP3    H116632   0.297   1.808   0.664
 5542TIP3    H216633   0.345   1.951   0.678
 5543TIP3   OH216634   5.532   3.588   0.137
 5543TIP3    H116635   5.606   3.592   0.076
 5543TIP3    H216636   5.564   3.630   0.217
 5544TIP3   OH216637   4.563   0.931   0.473
 5544TIP3    H116638   4.476   0.891   0.480
 5544TIP3    H216639   4.614   0.866   0.423
 5545TIP3   OH216640   2.846   0.111   4.510
 5545TIP3    H116641   2.924   0.084   4.462
 5545TIP3    H216642   2.791   0.154   4.445
 5546TIP3   OH216643   1.411   1.635   3.879
 5546TIP3    H116644   1.429   1.724   3.910
 5546TIP3    H216645   1.339   1.645   3.817
 5547TIP3   OH216646   1.345   5.460   0.269
 5547TIP3    H116647   1.331   5.551   0.243
 5547TIP3    H216648   1.440   5.450   0.276
 5548TIP3   OH216649   0.135   3.453   1.577
 5548TIP3    H116650   0.138   3.513   1.503
 5548TIP3    H216651   0.208   3.480   1.633
 5549TIP3   OH216652   3.551   1.493   0.173
 5549TIP3    H116653   3.548   1.406   0.134
 5549TIP3    H216654   3.503   1.549   0.110
 5550TIP3   OH216655   1.340   2.096   1.879
 5550TIP3    H116656   1.411   2.050   1.834
 5550TIP3    H216657   1.286   2.131   1.808
 5551TIP3   OH216658   2.203   2.957   4.049
 5551TIP3    H116659   2.226   2.886   3.990
 5551TIP3    H216660   2.139   3.009   4.001
 5552TIP3   OH216661   4.919   1.476   4.860
 5552TIP3    H116662   4.984   1.532   4.817
 5552TIP3    H216663   4.965   1.394   4.877
 5553TIP3   OH216664   4.044   4.982   0.889
 5553TIP3    H116665   4.022   4.955   0.979
 5553TIP3    H216666   3.962   5.017   0.855
 5554TIP3   OH216667   1.533   1.674   3.052
 5554TIP3    H116668   1.458   1.617   3.069
 5554TIP3    H216669   1.534   1.683   2.957
 5555TIP3   OH216670   2.947   5.713   1.229
 5555TIP3    H116671   3.024   5.739   1.179
 5555TIP3    H216672   2.928   5.788   1.286
 5556TIP3   OH216673   5.995   4.117   4.735
 5556TIP3    H116674   5.912   4.097   4.692
 5556TIP3    H216675   6.058   4.057   4.696
 5557TIP3   OH216676   3.170   2.971   2.346
 5557TIP3    H116677   3.138   2.884   2.372
 5557TIP3    H216678   3.132   2.985   2.259
 5558TIP3   OH216679   4.545   5.125   1.580
 5558TIP3    H116680   4.484   5.061   1.616
 5558TIP3    H216681   4.489   5.193   1.543
 5559TIP3   OH216682   2.337   1.043   5.162
 5559TIP3    H116683   2.375   0.955   5.156
 5559TIP3    H216684   2.390   1.087   5.229
 5560TIP3   OH216685   3.471   0.389   4.896
 5560TIP3    H116686   3.508   0.405   4.983
 5560TIP3    H216687   3.546   0.389   4.837
 5561TIP3   OH216688   3.442   1.919   0.516
 5561TIP3    H116689   3.372   1.949   0.575
 5561TIP3    H216690   3.479   1.843   0.561
 5562TIP3   OH216691   2.544   4.742   3.937
 5562TIP3    H116692   2.559   4.648   3.951
 5562TIP3    H216693   2.453   4.747   3.908
 5563TIP3   OH216694   0.241   0.653   0.922
 5563TIP3    H116695   0.160   0.704   0.921
 5563TIP3    H216696   0.310   0.718   0.913
 5564TIP3   OH216697   2.397   2.825   1.829
 5564TIP3    H116698   2.439   2.874   1.900
 5564TIP3    H216699   2.464   2.820   1.761
 5565TIP3   OH216700   3.414   4.778   2.771
 5565TIP3    H116701   3.466   4.715   2.821
 5565TIP3    H216702   3.422   4.860   2.820
 5566TIP3   OH216703   2.745   5.767   3.937
 5566TIP3    H116704   2.722   5.809   3.854
 5566TIP3    H216705   2.662   5.747   3.978
 5567TIP3   OH216706   1.916   4.997   3.335
 5567TIP3    H116707   1.982   5.035   3.392
 5567TIP3    H216708   1.844   5.059   3.336
 5568TIP3   OH216709   0.362   1.354   4.124
 5568TIP3    H116710   0.404   1.371   4.209
 5568TIP3    H216711   0.273   1.327   4.146
 5569TIP3   OH216712   4.869   1.822   0.281
 5569TIP3    H116713   4.828   1.743   0.245
 5569TIP3    H216714   4.945   1.790   0.330
 5570TIP3   OH216715   2.808   4.043   1.613
 5570TIP3    H116716   2.833   4.114   1.555
 5570TIP3    H216717   2.716   4.059   1.634
 5571TIP3   OH216718   1.985   1.927   3.699
 5571TIP3    H116719   2.052   1.987   3.730
 5571TIP3    H216720   1.958   1.963   3.614
 5572TIP3   OH216721   1.315   4.653   1.001
 5572TIP3    H116722   1.225   4.631   1.023
 5572TIP3    H216723   1.365   4.632   1.080
 5573TIP3   OH216724   5.256   1.622   1.245
 5573TIP3    H116725   5.163   1.622   1.268
 5573TIP3    H216726   5.264   1.551   1.181
 5574TIP3   OH216727   1.943   4.079   2.716
 5574TIP3    H116728   1.884   4.062   2.643
 5574TIP3    H216729   2.030   4.080   2.677
 5575TIP3   OH216730   1.348   1.290   4.997
 5575TIP3    H116731   1.321   1.342   4.921
 5575TIP3    H216732   1.418   1.341   5.038
 5576TIP3   OH216733   1.244   1.720   4.664
 5576TIP3    H116734   1.234   1.721   4.569
 5576TIP3    H216735   1.154   1.724   4.698
 5577TIP3   OH216736   6.312   1.194   4.719
 5577TIP3    H116737   6.268   1.253   4.657
 5577TIP3    H216738   6.249   1.124   4.733
 5578TIP3   OH216739   2.948   2.910   2.081
 5578TIP3    H116740   3.024   2.958   2.046
 5578TIP3    H216741   2.890   2.899   2.005
 5579TIP3   OH216742   0.808   3.346   4.091
 5579TIP3    H116743   0.755   3.278   4.050
 5579TIP3    H216744   0.771   3.428   4.057
 5580TIP3   OH216745   1.150   2.787   3.061
 5580TIP3    H116746   1.187   2.874   3.074
 5580TIP3    H216747   1.218   2.738   3.015
 5581TIP3   OH216748   0.384   2.883   2.665
 5581TIP3    H116749   0.319   2.891   2.734
 5581TIP3    H216750   0.376   2.792   2.635
 5582TIP3   OH216751   3.306   1.966   0.276
 5582TIP3    H116752   3.279   2.057   0.284
 5582TIP3    H216753   3.337   1.942   0.363
 5583TIP3   OH216754   4.644   0.309   3.637
 5583TIP3    H116755   4.635   0.287   3.544
 5583TIP3    H216756   4.656   0.225   3.681
 5584TIP3   OH216757   2.320   6.018   0.572
 5584TIP3    H116758   2.269   6.067   0.506
 5584TIP3    H216759   2.287   5.929   0.565
 5585TIP3   OH216760   1.758   3.409   2.823
 5585TIP3    H116761   1.664   3.398   2.841
 5585TIP3    H216762   1.774   3.503   2.833
 5586TIP3   OH216763   2.102   0.383   0.105
 5586TIP3    H116764   2.043   0.456   0.123
 5586TIP3    H216765   2.179   0.400   0.160
 5587TIP3   OH216766   4.024   3.821   1.300
 5587TIP3    H116767   4.034   3.849   1.391
 5587TIP3    H216768   3.944   3.769   1.299
 5588TIP3   OH216769   5.306   1.613   3.828
 5588TIP3    H116770   5.225   1.594   3.781
 5588TIP3    H216771   5.278   1.634   3.917
 5589TIP3   OH216772   2.143   3.328   3.074
 5589TIP3    H116773   2.115   3.410   3.033
 5589TIP3    H216774   2.213   3.354   3.134
 5590TIP3   OH216775   0.795   0.709   5.112
 5590TIP3    H116776   0.770   0.618   5.098
 5590TIP3    H216777   0.727   0.761   5.068
 5591TIP3   OH216778   6.208   3.294   4.364
 5591TIP3    H116779   6.179   3.211   4.402
 5591TIP3    H216780   6.128   3.336   4.332
 5592TIP3   OH216781   2.672   5.564   1.936
 5592TIP3    H116782   2.695   5.503   2.006
 5592TIP3    H216783   2.578   5.575   1.944
 5593TIP3   OH216784   1.088   3.754   0.013
 5593TIP3    H116785   1.069   3.662   0.031
 5593TIP3    H216786   1.008   3.800   0.036
 5594TIP3   OH216787   0.086   1.519   0.862
 5594TIP3    H116788   0.041   1.597   0.894
 5594TIP3    H216789   0.179   1.542   0.866
 5595TIP3   OH216790   1.901   0.134   2.677
 5595TIP3    H116791   1.987   0.104   2.650
 5595TIP3    H216792   1.870   0.188   2.604
 5596TIP3   OH216793   4.611   2.542   3.339
 5596TIP3    H116794   4.577   2.611   3.396
 5596TIP3    H216795   4.648   2.589   3.264
 5597TIP3   OH216796   3.211   3.398   0.644
 5597TIP3    H116797   3.289   3.386   0.699
 5597TIP3    H216798   3.244   3.438   0.563
 5598TIP3   OH216799   3.921   2.788   3.818
 5598TIP3    H116800   3.972   2.786   3.899
 5598TIP3    H216801   3.983   2.815   3.751
 5599TIP3   OH216802   4.292   2.477   3.515
 5599TIP3    H116803   4.338   2.560   3.520
 5599TIP3    H216804   4.310   2.444   3.427
 5600TIP3   OH216805   1.616   2.642   1.335
 5600TIP3    H116806   1.532   2.612   1.370
 5600TIP3    H216807   1.638   2.579   1.267
 5601TIP3   OH216808   4.390   2.804   1.005
 5601TIP3    H116809   4.410   2.870   0.939
 5601TIP3    H216810   4.439   2.831   1.082
 5602TIP3   OH216811   3.967   2.303   4.454
 5602TIP3    H116812   4.013   2.329   4.375
 5602TIP3    H216813   3.888   2.357   4.456
 5603TIP3   OH216814   2.876   4.773   2.989
 5603TIP3    H116815   2.892   4.825   2.910
 5603TIP3    H216816   2.831   4.695   2.958
 5604TIP3   OH216817   3.424   0.203   2.979
 5604TIP3    H116818   3.464   0.287   2.999
 5604TIP3    H216819   3.495   0.150   2.944
 5605TIP3   OH216820   6.152   0.156   2.014
 5605TIP3    H116821   6.178   0.066   1.992
 5605TIP3    H216822   6.233   0.206   2.004
 5606TIP3   OH216823   5.105   4.757   4.258
 5606TIP3    H116824   5.029   4.780   4.205
 5606TIP3    H216825   5.161   4.835   4.255
 5607TIP3   OH216826   4.399   2.862   4.834
 5607TIP3    H116827   4.405   2.821   4.920
 5607TIP3    H216828   4.339   2.806   4.785
 5608TIP3   OH216829   3.593   1.863   3.326
 5608TIP3    H116830   3.551   1.947   3.306
 5608TIP3    H216831   3.639   1.879   3.408
 5609TIP3   OH216832   0.873   4.441   5.046
 5609TIP3    H116833   0.882   4.505   4.975
 5609TIP3    H216834   0.842   4.492   5.121
 5610TIP3   OH216835   5.980   0.775   2.521
 5610TIP3    H116836   5.910   0.724   2.479
 5610TIP3    H216837   5.981   0.743   2.611
 5611TIP3   OH216838   4.651   5.138   2.256
 5611TIP3    H116839   4.648   5.043   2.250
 5611TIP3    H216840   4.566   5.163   2.292
 5612TIP3   OH216841   3.722   0.604   0.623
 5612TIP3    H116842   3.699   0.511   0.629
 5612TIP3    H216843   3.771   0.622   0.703
 5613TIP3   OH216844   5.219   2.177  -0.021
 5613TIP3    H116845   5.128   2.191   0.003
 5613TIP3    H216846   5.253   2.117   0.046
 5614TIP3   OH216847   5.743   1.071   0.860
 5614TIP3    H116848   5.648   1.075   0.866
 5614TIP3    H216849   5.774   1.092   0.948
 5615TIP3   OH216850   0.664   4.293   3.745
 5615TIP3    H116851   0.596   4.317   3.683
 5615TIP3    H216852   0.746   4.302   3.697
 5616TIP3   OH216853   4.843   2.749   0.868
 5616TIP3    H116854   4.904   2.736   0.940
 5616TIP3    H216855   4.886   2.710   0.792
 5617TIP3   OH216856   4.856   1.746   1.919
 5617TIP3    H116857   4.905   1.708   1.845
 5617TIP3    H216858   4.849   1.839   1.898
 5618TIP3   OH216859   4.786   2.783   1.709
 5618TIP3    H116860   4.847   2.733   1.655
 5618TIP3    H216861   4.719   2.812   1.648
 5619TIP3   OH216862   4.610   2.701   0.505
 5619TIP3    H116863   4.559   2.670   0.580
 5619TIP3    H216864   4.633   2.621   0.456
 5620TIP3   OH216865   6.242   0.609   1.191
 5620TIP3    H116866   6.147   0.603   1.197
 5620TIP3    H216867   6.262   0.698   1.220
 5621TIP3   OH216868   4.295   3.783   3.766
 5621TIP3    H116869   4.332   3.869   3.788
 5621TIP3    H216870   4.336   3.723   3.828
 5622TIP3   OH216871   1.366   4.647   1.304
 5622TIP3    H116872   1.280   4.677   1.331
 5622TIP3    H216873   1.424   4.721   1.321
 5623TIP3   OH216874   2.286   1.089   2.509
 5623TIP3    H116875   2.327   1.026   2.449
 5623TIP3    H216876   2.225   1.138   2.454
 5624TIP3   OH216877   1.014   4.458   3.761
 5624TIP3    H116878   1.064   4.383   3.729
 5624TIP3    H216879   1.068   4.534   3.740
 5625TIP3   OH216880   5.057   2.502   0.976
 5625TIP3    H116881   5.068   2.414   0.941
 5625TIP3    H216882   5.005   2.490   1.056
 5626TIP3   OH216883   0.981   3.160   0.044
 5626TIP3    H116884   1.040   3.144   0.117
 5626TIP3    H216885   0.898   3.119   0.071
 5627TIP3   OH216886   2.304   0.787   1.551
 5627TIP3    H116887   2.225   0.806   1.601
 5627TIP3    H216888   2.341   0.873   1.531
 5628TIP3   OH216889   1.317   3.590   2.148
 5628TIP3    H116890   1.301   3.500   2.177
 5628TIP3    H216891   1.388   3.582   2.084
 5629TIP3   OH216892   3.251   1.664   1.327
 5629TIP3    H116893   3.248   1.736   1.265
 5629TIP3    H216894   3.298   1.699   1.403
 5630TIP3   OH216895   0.486   3.301   1.481
 5630TIP3    H116896   0.445   3.278   1.565
 5630TIP3    H216897   0.476   3.396   1.475
 5631TIP3   OH216898   3.684   0.633   4.059
 5631TIP3    H116899   3.609   0.661   4.008
 5631TIP3    H216900   3.646   0.596   4.139
 5632TIP3   OH216901   4.991   1.010   5.060
 5632TIP3    H116902   4.951   1.056   5.134
 5632TIP3    H216903   4.918   0.967   5.016
 5633TIP3   OH216904   4.031   5.813   0.338
 5633TIP3    H116905   4.054   5.891   0.288
 5633TIP3    H216906   4.108   5.757   0.331
 5634TIP3   OH216907   4.962   2.226   5.064
 5634TIP3    H116908   5.048   2.190   5.044
 5634TIP3    H216909   4.952   2.214   5.159
 5635TIP3   OH216910   6.366   4.292   3.293
 5635TIP3    H116911   6.283   4.313   3.251
 5635TIP3    H216912   6.415   4.244   3.227
 5636TIP3   OH216913   5.287   4.266   0.753
 5636TIP3    H116914   5.208   4.266   0.808
 5636TIP3    H216915   5.335   4.188   0.780
 5637TIP3   OH216916   0.119   0.412   3.877
 5637TIP3    H116917   0.074   0.421   3.793
 5637TIP3    H216918   0.118   0.500   3.914
 5638TIP3   OH216919   6.432   4.448   0.913
 5638TIP3    H116920   6.360   4.416   0.968
 5638TIP3    H216921   6.404   4.430   0.823
 5639TIP3   OH216922   3.196   3.639   0.969
 5639TIP3    H116923   3.268   3.698   0.949
 5639TIP3    H216924   3.165   3.667   1.055
 5640TIP3   OH216925   5.059   3.187   1.803
 5640TIP3    H116926   5.030   3.231   1.884
 5640TIP3    H216927   5.066   3.257   1.739
 5641TIP3   OH216928   3.974   0.362   4.638
 5641TIP3    H116929   3.993   0.456   4.639
 5641TIP3    H216930   4.023   0.327   4.713
 5642TIP3   OH216931   1.523   1.213   0.328
 5642TIP3    H116932   1.521   1.123   0.297
 5642TIP3    H216933   1.434   1.245   0.316
 5643TIP3   OH216934   3.958   0.002   1.617
 5643TIP3    H116935   4.008  -0.003   1.535
 5643TIP3    H216936   4.025   0.016   1.684
 5644TIP3   OH216937   5.120   5.481   4.479
 5644TIP3    H116938   5.117   5.386   4.473
 5644TIP3    H216939   5.049   5.512   4.423
 5645TIP3   OH216940   2.005   2.829   3.709
 5645TIP3    H116941   2.085   2.814   3.760
 5645TIP3    H216942   1.951   2.753   3.726
 5646TIP3   OH216943   5.014   0.213   2.108
 5646TIP3    H116944   4.979   0.189   2.022
 5646TIP3    H216945   5.003   0.134   2.161
 5647TIP3   OH216946   2.137   2.760   4.938
 5647TIP3    H116947   2.043   2.767   4.922
 5647TIP3    H216948   2.143   2.720   5.025
 5648TIP3   OH216949   5.692   2.559   0.296
 5648TIP3    H116950   5.780   2.534   0.325
 5648TIP3    H216951   5.639   2.557   0.375
 5649TIP3   OH216952   5.356   2.736   2.016
 5649TIP3    H116953   5.274   2.785   2.024
 5649TIP3    H216954   5.391   2.732   2.105
 5650TIP3   OH216955   1.091   1.193   4.679
 5650TIP3    H116956   1.003   1.170   4.710
 5650TIP3    H216957   1.079   1.276   4.634
 5651TIP3   OH216958   1.331   2.869   0.179
 5651TIP3    H116959   1.356   2.777   0.171
 5651TIP3    H216960   1.334   2.902   0.089
 5652TIP3   OH216961   2.414   2.643   2.071
 5652TIP3    H116962   2.372   2.707   2.128
 5652TIP3    H216963   2.469   2.696   2.012
 5653TIP3   OH216964   1.158   5.713   3.227
 5653TIP3    H116965   1.079   5.758   3.198
 5653TIP3    H216966   1.230   5.765   3.190
 5654TIP3   OH216967   0.887   2.967   2.102
 5654TIP3    H116968   0.826   2.893   2.105
 5654TIP3    H216969   0.862   3.022   2.176
 5655TIP3   OH216970   4.041   0.397   3.715
 5655TIP3    H116971   3.968   0.435   3.665
 5655TIP3    H216972   4.009   0.394   3.805
 5656TIP3   OH216973   5.141   0.068   0.365
 5656TIP3    H116974   5.065   0.013   0.342
 5656TIP3    H216975   5.213   0.030   0.315
 5657TIP3   OH216976   6.286   3.286   4.077
 5657TIP3    H116977   6.264   3.217   4.139
 5657TIP3    H216978   6.202   3.324   4.052
 5658TIP3   OH216979   2.331   5.519   2.727
 5658TIP3    H116980   2.363   5.499   2.639
 5658TIP3    H216981   2.264   5.453   2.743
 5659TIP3   OH216982   3.735   2.969   3.984
 5659TIP3    H116983   3.717   3.059   3.956
 5659TIP3    H216984   3.830   2.961   3.982
 5660TIP3   OH216985   5.648   1.818   2.274
 5660TIP3    H116986   5.712   1.781   2.215
 5660TIP3    H216987   5.642   1.755   2.346
 5661TIP3   OH216988   0.453   1.068   1.699
 5661TIP3    H116989   0.537   1.059   1.653
 5661TIP3    H216990   0.400   0.995   1.665
 5662TIP3   OH216991   1.504   5.076   0.421
 5662TIP3    H116992   1.481   4.983   0.420
 5662TIP3    H216993   1.426   5.120   0.388
 5663TIP3   OH216994   1.952   4.887   4.480
 5663TIP3    H116995   1.907   4.893   4.565
 5663TIP3    H216996   2.037   4.849   4.501
 5664TIP3   OH216997   2.463   4.174   1.974
 5664TIP3    H116998   2.410   4.099   2.003
 5664TIP3    H216999   2.552   4.140   1.972
 5665TIP3   OH217000   0.666   4.250   4.788
 5665TIP3    H117001   0.723   4.215   4.857
 5665TIP3    H217002   0.578   4.245   4.824
 5666TIP3   OH217003   4.319   4.936   0.192
 5666TIP3    H117004   4.257   4.936   0.265
 5666TIP3    H217005   4.266   4.951   0.114
 5667TIP3   OH217006   0.449   0.095   1.190
 5667TIP3    H117007   0.468   0.032   1.120
 5667TIP3    H217008   0.360   0.126   1.171
 5668TIP3   OH217009   0.632   2.838   0.531
 5668TIP3    H117010   0.576   2.782   0.478
 5668TIP3    H217011   0.693   2.878   0.468
 5669TIP3   OH217012   3.625   2.188   3.343
 5669TIP3    H117013   3.613   2.279   3.371
 5669TIP3    H217014   3.584   2.136   3.412
 5670TIP3   OH217015   5.700   0.903   1.973
 5670TIP3    H117016   5.722   0.985   2.018
 5670TIP3    H217017   5.784   0.870   1.941
 5671TIP3   OH217018   4.162   5.262   1.117
 5671TIP3    H117019   4.186   5.271   1.025
 5671TIP3    H217020   4.226   5.200   1.152
 5672TIP3   OH217021   4.568   5.661   1.092
 5672TIP3    H117022   4.568   5.617   1.007
 5672TIP3    H217023   4.488   5.631   1.135
 5673TIP3   OH217024   2.998   0.216   3.286
 5673TIP3    H117025   2.991   0.177   3.373
 5673TIP3    H217026   3.092   0.217   3.268
 5674TIP3   OH217027   1.880   2.682   1.664
 5674TIP3    H117028   1.971   2.684   1.695
 5674TIP3    H217029   1.887   2.697   1.570
 5675TIP3   OH217030   0.841   5.317   3.578
 5675TIP3    H117031   0.936   5.306   3.589
 5675TIP3    H217032   0.829   5.412   3.570
 5676TIP3   OH217033   4.084   1.391   1.786
 5676TIP3    H117034   4.089   1.467   1.844
 5676TIP3    H217035   4.036   1.325   1.837
 5677TIP3   OH217036   4.520   5.567   2.020
 5677TIP3    H117037   4.465   5.643   2.037
 5677TIP3    H217038   4.586   5.570   2.089
 5678TIP3   OH217039   4.667   0.433   4.559
 5678TIP3    H117040   4.593   0.375   4.537
 5678TIP3    H217041   4.744   0.377   4.552
 5679TIP3   OH217042   4.321   2.576   2.317
 5679TIP3    H117043   4.240   2.602   2.274
 5679TIP3    H217044   4.349   2.498   2.270
 5680TIP3   OH217045   0.835   4.686   4.909
 5680TIP3    H117046   0.784   4.626   4.855
 5680TIP3    H217047   0.769   4.741   4.952
 5681TIP3   OH217048   2.665   5.105   3.126
 5681TIP3    H117049   2.739   5.141   3.078
 5681TIP3    H217050   2.659   5.158   3.205
 5682TIP3   OH217051   0.867   3.661   2.702
 5682TIP3    H117052   0.777   3.656   2.669
 5682TIP3    H217053   0.859   3.647   2.796
 5683TIP3   OH217054   1.452   4.429   4.798
 5683TIP3    H117055   1.482   4.452   4.886
 5683TIP3    H217056   1.395   4.353   4.811
 5684TIP3   OH217057   1.367   4.159   0.504
 5684TIP3    H117058   1.306   4.115   0.563
 5684TIP3    H217059   1.339   4.251   0.504
 5685TIP3   OH217060   5.373   2.658   4.166
 5685TIP3    H117061   5.290   2.622   4.136
 5685TIP3    H217062   5.437   2.626   4.103
 5686TIP3   OH217063   0.144   1.057   3.296
 5686TIP3    H117064   0.053   1.057   3.328
 5686TIP3    H217065   0.155   0.971   3.255
 5687TIP3   OH217066   1.454   4.960   0.076
 5687TIP3    H117067   1.412   4.897   0.017
 5687TIP3    H217068   1.479   5.033   0.019
 5688TIP3   OH217069   2.992  -0.004   1.246
 5688TIP3    H117070   3.073  -0.054   1.243
 5688TIP3    H217071   2.979   0.015   1.339
 5689TIP3   OH217072   1.198   5.397   4.349
 5689TIP3    H117073   1.272   5.345   4.320
 5689TIP3    H217074   1.235   5.483   4.370
 5690TIP3   OH217075   2.047   0.898   0.048
 5690TIP3    H117076   2.086   0.834   0.108
 5690TIP3    H217077   1.995   0.845  -0.013
 5691TIP3   OH217078   4.122   0.958   3.181
 5691TIP3    H117079   4.180   1.027   3.151
 5691TIP3    H217080   4.072   0.933   3.104
 5692TIP3   OH217081   4.393   4.202   4.202
 5692TIP3    H117082   4.451   4.244   4.138
 5692TIP3    H217083   4.321   4.264   4.214
 5693TIP3   OH217084   4.313   0.821   4.863
 5693TIP3    H117085   4.296   0.915   4.856
 5693TIP3    H217086   4.230   0.779   4.840
 5694TIP3   OH217087   2.168   1.805   2.007
 5694TIP3    H117088   2.146   1.783   2.098
 5694TIP3    H217089   2.228   1.879   2.014
 5695TIP3   OH217090   5.810   1.866   1.338
 5695TIP3    H117091   5.893   1.896   1.374
 5695TIP3    H217092   5.827   1.777   1.307
 5696TIP3   OH217093   2.993   0.405   3.608
 5696TIP3    H117094   3.062   0.459   3.569
 5696TIP3    H217095   3.039   0.331   3.647
 5697TIP3   OH217096   3.301   5.768   3.484
 5697TIP3    H117097   3.242   5.840   3.507
 5697TIP3    H217098   3.267   5.692   3.530
 5698TIP3   OH217099   4.903   2.154   4.028
 5698TIP3    H117100   4.955   2.078   4.054
 5698TIP3    H217101   4.812   2.127   4.042
 5699TIP3   OH217102   3.278   0.703   2.727
 5699TIP3    H117103   3.315   0.784   2.691
 5699TIP3    H217104   3.343   0.635   2.706
 5700TIP3   OH217105   3.163   4.535   4.067
 5700TIP3    H117106   3.128   4.446   4.063
 5700TIP3    H217107   3.175   4.552   4.160
 5701TIP3   OH217108   1.545   1.353   1.039
 5701TIP3    H117109   1.505   1.350   0.952
 5701TIP3    H217110   1.621   1.411   1.028
 5702TIP3   OH217111   1.634   4.934   2.427
 5702TIP3    H117112   1.618   4.865   2.363
 5702TIP3    H217113   1.606   5.015   2.383
 5703TIP3   OH217114   4.358   1.265   3.634
 5703TIP3    H117115   4.337   1.283   3.542
 5703TIP3    H217116   4.412   1.186   3.631
 5704TIP3   OH217117   0.016   3.291   2.267
 5704TIP3    H117118   0.096   3.290   2.215
 5704TIP3    H217119  -0.031   3.212   2.241
 5705TIP3   OH217120   4.993   1.719   0.713
 5705TIP3    H117121   4.973   1.704   0.805
 5705TIP3    H217122   5.017   1.632   0.680
 5706TIP3   OH217123   0.123   3.814   2.173
 5706TIP3    H117124   0.042   3.802   2.223
 5706TIP3    H217125   0.152   3.902   2.197
 5707TIP3   OH217126   5.949   2.917   0.213
 5707TIP3    H117127   5.996   2.875   0.286
 5707TIP3    H217128   6.006   2.989   0.187
 5708TIP3   OH217129   3.553   1.888   4.472
 5708TIP3    H117130   3.607   1.935   4.408
 5708TIP3    H217131   3.613   1.826   4.513
 5709TIP3   OH217132   2.569   5.844   4.343
 5709TIP3    H117133   2.495   5.902   4.328
 5709TIP3    H217134   2.643   5.902   4.358
 5710TIP3   OH217135   2.396   4.743   4.284
 5710TIP3    H117136   2.426   4.673   4.227
 5710TIP3    H217137   2.301   4.744   4.275
 5711TIP3   OH217138   2.363   1.342   3.896
 5711TIP3    H117139   2.435   1.349   3.833
 5711TIP3    H217140   2.323   1.429   3.897
 5712TIP3   OH217141   1.267   4.921   1.148
 5712TIP3    H117142   1.221   4.854   1.097
 5712TIP3    H217143   1.251   5.003   1.100
 5713TIP3   OH217144   1.539   0.852   3.508
 5713TIP3    H117145   1.596   0.888   3.575
 5713TIP3    H217146   1.571   0.890   3.426
 5714TIP3   OH217147   2.754   4.733   0.781
 5714TIP3    H117148   2.673   4.770   0.749
 5714TIP3    H217149   2.795   4.803   0.832
 5715TIP3   OH217150   6.061   2.098   3.384
 5715TIP3    H117151   6.030   2.023   3.334
 5715TIP3    H217152   6.157   2.089   3.385
 5716TIP3   OH217153   5.850   5.286   0.022
 5716TIP3    H117154   5.844   5.369   0.069
 5716TIP3    H217155   5.762   5.249   0.027
 5717TIP3   OH217156   4.848   0.140   1.177
 5717TIP3    H117157   4.797   0.066   1.208
 5717TIP3    H217158   4.935   0.128   1.216
 5718TIP3   OH217159   2.027   3.676   5.026
 5718TIP3    H117160   2.055   3.602   5.080
 5718TIP3    H217161   2.107   3.725   5.008
 5719TIP3   OH217162   4.169   0.951   3.820
 5719TIP3    H117163   4.142   1.037   3.850
 5719TIP3    H217164   4.102   0.926   3.756
 5720TIP3   OH217165   6.115   1.125   1.276
 5720TIP3    H117166   6.081   1.079   1.199
 5720TIP3    H217167   6.047   1.114   1.343
 5721TIP3   OH217168   1.479   4.381   2.383
 5721TIP3    H117169   1.480   4.319   2.310
 5721TIP3    H217170   1.474   4.467   2.341
 5722TIP3   OH217171   5.109   2.585   4.093
 5722TIP3    H117172   5.027   2.538   4.098
 5722TIP3    H217173   5.102   2.637   4.013
 5723TIP3   OH217174   3.266   4.955   3.995
 5723TIP3    H117175   3.296   5.040   4.026
 5723TIP3    H217176   3.177   4.970   3.964
 5724TIP3   OH217177   6.068   5.789   2.392
 5724TIP3    H117178   6.141   5.746   2.438
 5724TIP3    H217179   6.026   5.719   2.343
 5725TIP3   OH217180   5.489   3.597   1.916
 5725TIP3    H117181   5.421   3.617   1.981
 5725TIP3    H217182   5.440   3.564   1.841
 5726TIP3   OH217183   3.791   5.107   0.595
 5726TIP3    H117184   3.813   5.135   0.684
 5726TIP3    H217185   3.813   5.183   0.541
 5727TIP3   OH217186   3.152   2.697   3.587
 5727TIP3    H117187   3.211   2.766   3.557
 5727TIP3    H217188   3.201   2.651   3.656
 5728TIP3   OH217189   2.100   4.467   1.583
 5728TIP3    H117190   2.106   4.449   1.489
 5728TIP3    H217191   2.057   4.390   1.620
 5729TIP3   OH217192   3.973   3.355   1.820
 5729TIP3    H117193   4.033   3.420   1.859
 5729TIP3    H217194   3.989   3.275   1.870
 5730TIP3   OH217195   3.512   4.900   0.670
 5730TIP3    H117196   3.506   4.884   0.764
 5730TIP3    H217197   3.536   4.815   0.633
 5731TIP3   OH217198   6.259   2.592   1.162
 5731TIP3    H117199   6.255   2.605   1.257
 5731TIP3    H217200   6.169   2.605   1.132
 5732TIP3   OH217201   0.802   4.681   3.696
 5732TIP3    H117202   0.822   4.588   3.704
 5732TIP3    H217203   0.781   4.694   3.604
 5733TIP3   OH217204   0.135   2.032   3.806
 5733TIP3    H117205   0.211   2.045   3.750
 5733TIP3    H217206   0.131   1.938   3.820
 5734TIP3   OH217207   1.970   0.183   0.925
 5734TIP3    H117208   2.027   0.163   0.851
 5734TIP3    H217209   1.883   0.192   0.886
 5735TIP3   OH217210   5.451   1.359   4.703
 5735TIP3    H117211   5.529   1.380   4.754
 5735TIP3    H217212   5.443   1.430   4.640
 5736TIP3   OH217213   0.177   3.620   1.380
 5736TIP3    H117214   0.182   3.703   1.331
 5736TIP3    H217215   0.249   3.568   1.346
 5737TIP3   OH217216   1.351   3.999   3.670
 5737TIP3    H117217   1.385   4.008   3.759
 5737TIP3    H217218   1.346   3.905   3.656
 5738TIP3   OH217219   4.236   2.916   4.175
 5738TIP3    H117220   4.283   2.915   4.258
 5738TIP3    H217221   4.265   2.997   4.132
 5739TIP3   OH217222   5.998   4.712   3.901
 5739TIP3    H117223   5.951   4.685   3.822
 5739TIP3    H217224   5.946   4.676   3.973
 5740TIP3   OH217225   0.369   5.424   3.234
 5740TIP3    H117226   0.303   5.397   3.297
 5740TIP3    H217227   0.386   5.516   3.256
 5741TIP3   OH217228   2.963   2.985   3.020
 5741TIP3    H117229   2.989   3.077   3.026
 5741TIP3    H217230   2.902   2.982   2.945
 5742TIP3   OH217231   1.910   0.762   1.923
 5742TIP3    H117232   1.885   0.852   1.946
 5742TIP3    H217233   1.936   0.723   2.007
 5743TIP3   OH217234   1.655   0.496   0.143
 5743TIP3    H117235   1.595   0.570   0.155
 5743TIP3    H217236   1.597   0.420   0.135
 5744TIP3   OH217237   6.340   5.549   0.463
 5744TIP3    H117238   6.251   5.528   0.436
 5744TIP3    H217239   6.331   5.579   0.553
 5745TIP3   OH217240   4.569   4.931   1.970
 5745TIP3    H117241   4.558   5.026   1.975
 5745TIP3    H217242   4.577   4.903   2.062
 5746TIP3   OH217243   6.183   4.850   4.799
 5746TIP3    H117244   6.181   4.755   4.783
 5746TIP3    H217245   6.196   4.889   4.713
 5747TIP3   OH217246   5.502   0.369   0.530
 5747TIP3    H117247   5.426   0.337   0.577
 5747TIP3    H217248   5.466   0.433   0.468
 5748TIP3   OH217249   1.016   3.426   2.592
 5748TIP3    H117250   0.963   3.493   2.636
 5748TIP3    H217251   0.974   3.343   2.615
 5749TIP3   OH217252   0.013   1.594   3.750
 5749TIP3    H117253  -0.054   1.552   3.805
 5749TIP3    H217254   0.092   1.543   3.766
 5750TIP3   OH217255   0.385   5.102   4.521
 5750TIP3    H117256   0.443   5.114   4.446
 5750TIP3    H217257   0.433   5.044   4.580
 5751TIP3   OH217258   6.222   0.145   4.519
 5751TIP3    H117259   6.310   0.182   4.509
 5751TIP3    H217260   6.238   0.057   4.554
 5752TIP3   OH217261   1.405   4.538   4.069
 5752TIP3    H117262   1.442   4.619   4.034
 5752TIP3    H217263   1.419   4.545   4.164
 5753TIP3   OH217264   6.043   1.696   1.379
 5753TIP3    H117265   5.988   1.698   1.457
 5753TIP3    H217266   6.131   1.674   1.411
 5754TIP3   OH217267   0.334   0.664   2.087
 5754TIP3    H117268   0.367   0.735   2.031
 5754TIP3    H217269   0.372   0.681   2.173
 5755TIP3   OH217270   0.561   4.412   4.538
 5755TIP3    H117271   0.469   4.385   4.549
 5755TIP3    H217272   0.607   4.331   4.516
 5756TIP3   OH217273   0.859   3.193   2.715
 5756TIP3    H117274   0.926   3.178   2.782
 5756TIP3    H217275   0.868   3.121   2.654
 5757TIP3   OH217276   5.260   0.597   2.793
 5757TIP3    H117277   5.304   0.599   2.708
 5757TIP3    H217278   5.205   0.676   2.793
 5758TIP3   OH217279   3.349   5.317   4.261
 5758TIP3    H117280   3.335   5.360   4.345
 5758TIP3    H217281   3.260   5.297   4.229
 5759TIP3   OH217282   2.149   5.325   1.846
 5759TIP3    H117283   2.244   5.338   1.851
 5759TIP3    H217284   2.117   5.401   1.798
 5760TIP3   OH217285   3.949   4.198   2.998
 5760TIP3    H117286   3.902   4.115   2.997
 5760TIP3    H217287   3.992   4.200   3.083
 5761TIP3   OH217288   2.339   0.197   2.461
 5761TIP3    H117289   2.263   0.144   2.484
 5761TIP3    H217290   2.406   0.134   2.435
 5762TIP3   OH217291   0.132   4.549   3.384
 5762TIP3    H117292   0.078   4.627   3.401
 5762TIP3    H217293   0.068   4.481   3.361
 5763TIP3   OH217294   6.204   5.015   0.296
 5763TIP3    H117295   6.159   5.027   0.380
 5763TIP3    H217296   6.286   4.971   0.319
 5764TIP3   OH217297   0.700   1.326   5.091
 5764TIP3    H117298   0.748   1.408   5.102
 5764TIP3    H217299   0.724   1.295   5.004
 5765TIP3   OH217300   2.545   1.084   0.427
 5765TIP3    H117301   2.461   1.048   0.398
 5765TIP3    H217302   2.524   1.135   0.505
 5766TIP3   OH217303   4.480   4.089   4.878
 5766TIP3    H117304   4.556   4.057   4.925
 5766TIP3    H217305   4.513   4.113   4.792
 5767TIP3   OH217306   3.760   4.127   3.304
 5767TIP3    H117307   3.690   4.081   3.351
 5767TIP3    H217308   3.728   4.217   3.297
 5768TIP3   OH217309   1.579   4.015   0.702
 5768TIP3    H117310   1.562   4.012   0.796
 5768TIP3    H217311   1.616   4.102   0.687
 5769TIP3   OH217312   5.109   0.346   3.707
 5769TIP3    H117313   5.123   0.297   3.788
 5769TIP3    H217314   5.072   0.429   3.736
 5770TIP3   OH217315   0.445   2.659   3.760
 5770TIP3    H117316   0.497   2.631   3.836
 5770TIP3    H217317   0.365   2.607   3.765
 5771TIP3   OH217318   4.666   0.078   3.808
 5771TIP3    H117319   4.718   0.001   3.786
 5771TIP3    H217320   4.582   0.042   3.836
 5772TIP3   OH217321   4.957   5.852   3.779
 5772TIP3    H117322   4.865   5.858   3.751
 5772TIP3    H217323   4.983   5.763   3.753
 5773TIP3   OH217324   5.717   0.430   1.738
 5773TIP3    H117325   5.780   0.382   1.684
 5773TIP3    H217326   5.686   0.366   1.802
 5774TIP3   OH217327   2.057   2.196   0.356
 5774TIP3    H117328   1.962   2.207   0.369
 5774TIP3    H217329   2.088   2.285   0.335
 5775TIP3   OH217330   5.307   2.393   1.706
 5775TIP3    H117331   5.317   2.383   1.612
 5775TIP3    H217332   5.216   2.369   1.724
 5776TIP3   OH217333   1.970   3.771   4.489
 5776TIP3    H117334   2.065   3.762   4.479
 5776TIP3    H217335   1.945   3.835   4.423
 5777TIP3   OH217336   1.213   5.779   0.904
 5777TIP3    H117337   1.212   5.698   0.954
 5777TIP3    H217338   1.187   5.753   0.816
 5778TIP3   OH217339   2.340   2.672   4.788
 5778TIP3    H117340   2.411   2.669   4.852
 5778TIP3    H217341   2.271   2.723   4.832
 5779TIP3   OH217342   6.257   1.791   2.821
 5779TIP3    H117343   6.339   1.839   2.833
 5779TIP3    H217344   6.274   1.733   2.747
 5780TIP3   OH217345   3.100   0.053   3.487
 5780TIP3    H117346   3.181   0.099   3.510
 5780TIP3    H217347   3.125  -0.039   3.482
 5781TIP3   OH217348   4.151   2.522   3.088
 5781TIP3    H117349   4.194   2.577   3.154
 5781TIP3    H217350   4.202   2.441   3.088
 5782TIP3   OH217351   1.199   1.555   2.954
 5782TIP3    H117352   1.218   1.591   2.868
 5782TIP3    H217353   1.173   1.631   3.006
 5783TIP3   OH217354   0.706   5.424   2.681
 5783TIP3    H117355   0.671   5.338   2.702
 5783TIP3    H217356   0.683   5.438   2.589
 5784TIP3   OH217357   3.425   5.208   1.951
 5784TIP3    H117358   3.371   5.274   1.907
 5784TIP3    H217359   3.437   5.139   1.886
 5785TIP3   OH217360   1.838   0.292   2.453
 5785TIP3    H117361   1.812   0.378   2.418
 5785TIP3    H217362   1.884   0.250   2.380
 5786TIP3   OH217363   0.522   0.753   1.096
 5786TIP3    H117364   0.519   0.685   1.164
 5786TIP3    H217365   0.595   0.727   1.040
 5787TIP3   OH217366   1.636   2.580   2.976
 5787TIP3    H117367   1.680   2.542   3.052
 5787TIP3    H217368   1.693   2.650   2.947
 5788TIP3   OH217369   0.498   2.637   0.407
 5788TIP3    H117370   0.409   2.668   0.418
 5788TIP3    H217371   0.500   2.601   0.319
 5789TIP3   OH217372   2.486   4.433   2.791
 5789TIP3    H117373   2.456   4.517   2.826
 5789TIP3    H217374   2.560   4.455   2.734
 5790TIP3   OH217375   2.721   4.627   1.076
 5790TIP3    H117376   2.648   4.576   1.040
 5790TIP3    H217377   2.799   4.589   1.036
 5791TIP3   OH217378   2.661   4.270   3.485
 5791TIP3    H117379   2.657   4.185   3.442
 5791TIP3    H217380   2.578   4.278   3.532
 5792TIP3   OH217381   4.901   1.795   3.012
 5792TIP3    H117382   4.992   1.825   3.022
 5792TIP3    H217383   4.907   1.700   3.017
 5793TIP3   OH217384   4.706   4.450   1.506
 5793TIP3    H117385   4.718   4.382   1.571
 5793TIP3    H217386   4.711   4.404   1.422
 5794TIP3   OH217387   2.293   1.660   1.194
 5794TIP3    H117388   2.223   1.670   1.129
 5794TIP3    H217389   2.250   1.675   1.278
 5795TIP3   OH217390   3.656   1.830   1.601
 5795TIP3    H117391   3.734   1.799   1.556
 5795TIP3    H217392   3.659   1.925   1.591
 5796TIP3   OH217393   3.637   4.450   2.310
 5796TIP3    H117394   3.716   4.492   2.277
 5796TIP3    H217395   3.658   4.356   2.311
 5797TIP3   OH217396   3.055   0.636   3.294
 5797TIP3    H117397   3.058   0.732   3.298
 5797TIP3    H217398   3.095   0.614   3.210
 5798TIP3   OH217399   0.687   5.730   1.716
 5798TIP3    H117400   0.650   5.710   1.801
 5798TIP3    H217401   0.674   5.824   1.705
 5799TIP3   OH217402   4.905   4.201   4.984
 5799TIP3    H117403   4.825   4.167   5.024
 5799TIP3    H217404   4.907   4.294   5.010
 5800TIP3   OH217405   2.189   0.119   2.825
 5800TIP3    H117406   2.132   0.194   2.844
 5800TIP3    H217407   2.215   0.088   2.911
 5801TIP3   OH217408   3.521   3.262   3.277
 5801TIP3    H117409   3.594   3.318   3.304
 5801TIP3    H217410   3.528   3.257   3.182
 5802TIP3   OH217411   3.699   1.410   3.928
 5802TIP3    H117412   3.765   1.464   3.886
 5802TIP3    H217413   3.668   1.352   3.858
 5803TIP3   OH217414   3.825   3.212   5.114
 5803TIP3    H117415   3.802   3.246   5.201
 5803TIP3    H217416   3.741   3.184   5.077
 5804TIP3   OH217417   5.894   0.139   1.320
 5804TIP3    H117418   5.963   0.189   1.277
 5804TIP3    H217419   5.931   0.118   1.406
 5805TIP3   OH217420   4.394   5.113   2.633
 5805TIP3    H117421   4.351   5.157   2.706
 5805TIP3    H217422   4.389   5.176   2.561
 5806TIP3   OH217423   2.520   3.758   1.723
 5806TIP3    H117424   2.604   3.714   1.709
 5806TIP3    H217425   2.469   3.696   1.776
 5807TIP3   OH217426   5.916   5.304   5.163
 5807TIP3    H117427   5.867   5.383   5.187
 5807TIP3    H217428   5.997   5.337   5.125
 5808TIP3   OH217429   3.851   0.956   3.309
 5808TIP3    H117430   3.840   1.021   3.378
 5808TIP3    H217431   3.946   0.949   3.296
 5809TIP3   OH217432   5.016   4.898   4.809
 5809TIP3    H117433   4.947   4.954   4.845
 5809TIP3    H217434   5.087   4.902   4.872
 5810TIP3   OH217435   5.097   4.421   0.492
 5810TIP3    H117436   5.059   4.490   0.547
 5810TIP3    H217437   5.082   4.451   0.403
 5811TIP3   OH217438   1.545   1.535   2.599
 5811TIP3    H117439   1.481   1.513   2.531
 5811TIP3    H217440   1.544   1.459   2.658
 5812TIP3   OH217441   4.316   2.521   1.730
 5812TIP3    H117442   4.243   2.565   1.687
 5812TIP3    H217443   4.274   2.462   1.793
 5813TIP3   OH217444   3.190   1.937   4.740
 5813TIP3    H117445   3.201   1.951   4.834
 5813TIP3    H217446   3.264   1.984   4.700
 5814TIP3   OH217447   0.797   1.442   3.182
 5814TIP3    H117448   0.808   1.535   3.204
 5814TIP3    H217449   0.716   1.438   3.132
 5815TIP3   OH217450   2.172   5.139   1.634
 5815TIP3    H117451   2.166   5.189   1.716
 5815TIP3    H217452   2.111   5.066   1.646
 5816TIP3   OH217453   0.256   0.947   0.307
 5816TIP3    H117454   0.172   0.984   0.333
 5816TIP3    H217455   0.307   1.023   0.276
 5817TIP3   OH217456   4.696   4.102   4.636
 5817TIP3    H117457   4.646   4.156   4.574
 5817TIP3    H217458   4.787   4.114   4.611
 5818TIP3   OH217459   0.280   0.402   0.013
 5818TIP3    H117460   0.253   0.349   0.088
 5818TIP3    H217461   0.323   0.479   0.051
 5819TIP3   OH217462   5.449   3.962   5.014
 5819TIP3    H117463   5.418   4.048   5.039
 5819TIP3    H217464   5.371   3.916   4.982
 5820TIP3   OH217465   4.421   1.910   4.224
 5820TIP3    H117466   4.391   1.996   4.195
 5820TIP3    H217467   4.342   1.856   4.222
 5821TIP3   OH217468   5.548   4.334   2.602
 5821TIP3    H117469   5.497   4.254   2.590
 5821TIP3    H217470   5.573   4.360   2.513
 5822TIP3   OH217471   5.911   2.984   4.974
 5822TIP3    H117472   5.816   2.989   4.970
 5822TIP3    H217473   5.928   2.913   5.037
 5823TIP3   OH217474   4.814   3.093   2.542
 5823TIP3    H117475   4.832   3.083   2.449
 5823TIP3    H217476   4.843   3.181   2.563
 5824TIP3   OH217477   5.825   2.048   0.098
 5824TIP3    H117478   5.808   2.137   0.129
 5824TIP3    H217479   5.770   1.992   0.153
 5825TIP3   OH217480   3.043   5.936   3.624
 5825TIP3    H117481   2.962   5.986   3.637
 5825TIP3    H217482   3.112   6.003   3.622
 5826TIP3   OH217483   4.029   0.279   1.754
 5826TIP3    H117484   4.062   0.334   1.683
 5826TIP3    H217485   4.101   0.218   1.772
 5827TIP3   OH217486   4.944   2.117   0.661
 5827TIP3    H117487   4.881   2.067   0.608
 5827TIP3    H217488   4.925   2.208   0.641
 5828TIP3   OH217489   0.424   3.889   4.059
 5828TIP3    H117490   0.489   3.958   4.070
 5828TIP3    H217491   0.384   3.908   3.974
 5829TIP3   OH217492   2.380   3.813   0.612
 5829TIP3    H117493   2.462   3.850   0.647
 5829TIP3    H217494   2.315   3.881   0.629
 5830TIP3   OH217495   4.946   1.680   0.975
 5830TIP3    H117496   4.997   1.629   1.039
 5830TIP3    H217497   4.950   1.770   1.008
 5831TIP3   OH217498   4.729   1.326   4.109
 5831TIP3    H117499   4.668   1.280   4.052
 5831TIP3    H217500   4.813   1.283   4.095
 5832TIP3   OH217501   3.023   1.522   3.383
 5832TIP3    H117502   3.039   1.616   3.384
 5832TIP3    H217503   3.008   1.499   3.475
 5833TIP3   OH217504   6.330   1.295   4.392
 5833TIP3    H117505   6.238   1.296   4.366
 5833TIP3    H217506   6.334   1.352   4.469
 5834TIP3   OH217507   2.572   3.455   0.210
 5834TIP3    H117508   2.579   3.528   0.149
 5834TIP3    H217509   2.621   3.482   0.287
 5835TIP3   OH217510   1.824   5.291   2.943
 5835TIP3    H117511   1.896   5.351   2.926
 5835TIP3    H217512   1.864   5.215   2.984
 5836TIP3   OH217513   4.722   1.776   0.632
 5836TIP3    H117514   4.812   1.744   0.623
 5836TIP3    H217515   4.726   1.867   0.602
 5837TIP3   OH217516   2.409   0.883   2.396
 5837TIP3    H117517   2.500   0.855   2.397
 5837TIP3    H217518   2.365   0.822   2.457
 5838TIP3   OH217519   6.289   4.632   4.548
 5838TIP3    H117520   6.255   4.655   4.461
 5838TIP3    H217521   6.383   4.649   4.541
 5839TIP3   OH217522   1.374   2.961   0.797
 5839TIP3    H117523   1.327   2.883   0.769
 5839TIP3    H217524   1.429   2.931   0.870
 5840TIP3   OH217525   1.662   3.985   2.314
 5840TIP3    H117526   1.756   3.990   2.332
 5840TIP3    H217527   1.655   3.922   2.242
 5841TIP3   OH217528   6.019   3.186   1.684
 5841TIP3    H117529   6.012   3.148   1.771
 5841TIP3    H217530   5.947   3.146   1.634
 5842TIP3   OH217531   4.021   5.295   2.533
 5842TIP3    H117532   4.000   5.204   2.513
 5842TIP3    H217533   4.047   5.333   2.449
 5843TIP3   OH217534   4.545   5.990   4.424
 5843TIP3    H117535   4.606   5.933   4.470
 5843TIP3    H217536   4.497   5.932   4.365
 5844TIP3   OH217537   0.496   2.517   4.868
 5844TIP3    H117538   0.437   2.469   4.810
 5844TIP3    H217539   0.559   2.452   4.898
 5845TIP3   OH217540   3.465   1.576   1.630
 5845TIP3    H117541   3.522   1.653   1.635
 5845TIP3    H217542   3.522   1.503   1.654
 5846TIP3   OH217543   3.730   1.528   1.719
 5846TIP3    H117544   3.694   1.565   1.799
 5846TIP3    H217545   3.795   1.592   1.690
 5847TIP3   OH217546   4.803   5.146   1.563
 5847TIP3    H117547   4.711   5.150   1.536
 5847TIP3    H217548   4.848   5.106   1.489
 5848TIP3   OH217549   4.972   4.317   3.822
 5848TIP3    H117550   4.985   4.387   3.758
 5848TIP3    H217551   4.933   4.246   3.773
 5849TIP3   OH217552   2.518   4.123   3.893
 5849TIP3    H117553   2.588   4.058   3.889
 5849TIP3    H217554   2.561   4.204   3.918
 5850TIP3   OH217555   2.969   4.017   0.792
 5850TIP3    H117556   2.969   3.934   0.841
 5850TIP3    H217557   3.038   4.006   0.727
 5851TIP3   OH217558   5.581   0.086   0.444
 5851TIP3    H117559   5.494   0.079   0.405
 5851TIP3    H217560   5.593   0.004   0.491
 5852TIP3   OH217561   6.143   0.800   1.449
 5852TIP3    H117562   6.202   0.832   1.517
 5852TIP3    H217563   6.083   0.741   1.494
 5853TIP3   OH217564   2.256   0.753   1.942
 5853TIP3    H117565   2.243   0.823   1.878
 5853TIP3    H217566   2.279   0.676   1.889
 5854TIP3   OH217567   4.585   3.092   3.256
 5854TIP3    H117568   4.570   3.070   3.163
 5854TIP3    H217569   4.519   3.158   3.276
 5855TIP3   OH217570   3.180   2.551   2.728
 5855TIP3    H117571   3.268   2.558   2.766
 5855TIP3    H217572   3.193   2.569   2.635
 5856TIP3   OH217573   3.587   2.081   1.635
 5856TIP3    H117574   3.493   2.065   1.648
 5856TIP3    H217575   3.595   2.176   1.632
 5857TIP3   OH217576   5.773   3.398   0.872
 5857TIP3    H117577   5.782   3.486   0.835
 5857TIP3    H217578   5.680   3.391   0.894
 5858TIP3   OH217579   0.589   2.319   3.203
 5858TIP3    H117580   0.642   2.390   3.164
 5858TIP3    H217581   0.597   2.333   3.297
 5859TIP3   OH217582   4.717   2.799   4.877
 5859TIP3    H117583   4.717   2.705   4.858
 5859TIP3    H217584   4.661   2.808   4.954
 5860TIP3   OH217585   1.623   0.231   0.541
 5860TIP3    H117586   1.661   0.310   0.501
 5860TIP3    H217587   1.610   0.171   0.467
 5861TIP3   OH217588   2.638   4.623   3.513
 5861TIP3    H117589   2.591   4.557   3.564
 5861TIP3    H217590   2.594   4.623   3.428
 5862TIP3   OH217591   5.757   2.817   1.220
 5862TIP3    H117592   5.742   2.722   1.221
 5862TIP3    H217593   5.671   2.855   1.204
 5863TIP3   OH217594   0.165   3.050   0.515
 5863TIP3    H117595   0.152   3.025   0.606
 5863TIP3    H217596   0.162   3.146   0.516
 5864TIP3   OH217597   3.549   2.258   0.283
 5864TIP3    H117598   3.586   2.210   0.357
 5864TIP3    H217599   3.460   2.278   0.309
 5865TIP3   OH217600   2.418   4.032   0.361
 5865TIP3    H117601   2.336   4.008   0.318
 5865TIP3    H217602   2.396   4.036   0.454
 5866TIP3   OH217603   0.418   5.163   0.215
 5866TIP3    H117604   0.370   5.082   0.229
 5866TIP3    H217605   0.500   5.136   0.172
 5867TIP3   OH217606   1.493   0.101   1.835
 5867TIP3    H117607   1.569   0.085   1.892
 5867TIP3    H217608   1.501   0.193   1.810
 5868TIP3   OH217609   2.588   3.670   5.123
 5868TIP3    H117610   2.645   3.615   5.177
 5868TIP3    H217611   2.636   3.753   5.115
 5869TIP3   OH217612   4.731   1.861   2.271
 5869TIP3    H117613   4.816   1.866   2.317
 5869TIP3    H217614   4.745   1.911   2.191
 5870TIP3   OH217615   1.246   1.626   2.697
 5870TIP3    H117616   1.309   1.676   2.646
 5870TIP3    H217617   1.172   1.685   2.709
 5871TIP3   OH217618   0.830   1.730   4.187
 5871TIP3    H117619   0.751   1.698   4.143
 5871TIP3    H217620   0.810   1.726   4.280
 5872TIP3   OH217621   6.260   4.514   0.674
 5872TIP3    H117622   6.278   4.560   0.592
 5872TIP3    H217623   6.201   4.573   0.722
 5873TIP3   OH217624   4.213   5.679   4.971
 5873TIP3    H117625   4.270   5.743   4.929
 5873TIP3    H217626   4.145   5.731   5.013
 5874TIP3   OH217627   3.845   2.548   1.753
 5874TIP3    H117628   3.800   2.602   1.687
 5874TIP3    H217629   3.783   2.543   1.825
 5875TIP3   OH217630   3.408   5.838   1.249
 5875TIP3    H117631   3.414   5.924   1.208
 5875TIP3    H217632   3.466   5.844   1.325
 5876TIP3   OH217633   5.174   0.350   0.237
 5876TIP3    H117634   5.139   0.274   0.284
 5876TIP3    H217635   5.111   0.367   0.168
 5877TIP3   OH217636   3.604   4.363   3.290
 5877TIP3    H117637   3.605   4.441   3.345
 5877TIP3    H217638   3.541   4.304   3.333
 5878TIP3   OH217639   3.321   4.211   4.586
 5878TIP3    H117640   3.292   4.293   4.546
 5878TIP3    H217641   3.403   4.190   4.541
 5879TIP3   OH217642   0.616   4.620   1.969
 5879TIP3    H117643   0.629   4.656   1.881
 5879TIP3    H217644   0.558   4.683   2.012
 5880TIP3   OH217645   3.915   5.610   3.708
 5880TIP3    H117646   3.955   5.667   3.643
 5880TIP3    H217647   3.834   5.654   3.733
 5881TIP3   OH217648   4.165   4.248   2.577
 5881TIP3    H117649   4.095   4.183   2.581
 5881TIP3    H217650   4.245   4.196   2.582
 5882TIP3   OH217651   2.835   1.667   0.022
 5882TIP3    H117652   2.842   1.579  -0.015
 5882TIP3    H217653   2.889   1.664   0.101
 5883TIP3   OH217654   1.155   0.932   4.114
 5883TIP3    H117655   1.145   0.946   4.208
 5883TIP3    H217656   1.074   0.965   4.075
 5884TIP3   OH217657   6.039   3.406   1.495
 5884TIP3    H117658   6.012   3.317   1.520
 5884TIP3    H217659   6.078   3.396   1.409
 5885TIP3   OH217660   5.840   5.834   1.208
 5885TIP3    H117661   5.851   5.886   1.288
 5885TIP3    H217662   5.757   5.865   1.171
 5886TIP3   OH217663   5.346   3.256   1.440
 5886TIP3    H117664   5.276   3.317   1.419
 5886TIP3    H217665   5.322   3.221   1.526
 5887TIP3   OH217666   6.056   3.079   4.450
 5887TIP3    H117667   6.035   3.011   4.514
 5887TIP3    H217668   6.053   3.033   4.366
 5888TIP3   OH217669   2.420   5.286   3.867
 5888TIP3    H117670   2.485   5.343   3.827
 5888TIP3    H217671   2.415   5.315   3.958
 5889TIP3   OH217672   2.907   3.997   2.488
 5889TIP3    H117673   2.985   3.993   2.543
 5889TIP3    H217674   2.941   4.001   2.398
 5890TIP3   OH217675   1.786   1.174   3.157
 5890TIP3    H117676   1.876   1.203   3.140
 5890TIP3    H217677   1.737   1.205   3.081
 5891TIP3   OH217678   6.217   0.821   3.258
 5891TIP3    H117679   6.229   0.769   3.179
 5891TIP3    H217680   6.192   0.908   3.225
 5892TIP3   OH217681   5.660   2.584   2.042
 5892TIP3    H117682   5.701   2.508   2.084
 5892TIP3    H217683   5.567   2.563   2.042
 5893TIP3   OH217684   1.788   2.680   0.627
 5893TIP3    H117685   1.705   2.691   0.579
 5893TIP3    H217686   1.779   2.596   0.671
 5894TIP3   OH217687   4.998   2.047   1.865
 5894TIP3    H117688   4.963   2.102   1.796
 5894TIP3    H217689   5.091   2.072   1.870
 5895TIP3   OH217690   4.879   1.562   2.422
 5895TIP3    H117691   4.895   1.575   2.329
 5895TIP3    H217692   4.966   1.557   2.461
 5896TIP3   OH217693   1.905   5.507   4.401
 5896TIP3    H117694   1.835   5.488   4.338
 5896TIP3    H217695   1.985   5.476   4.359
 5897TIP3   OH217696   3.341   3.059   3.825
 5897TIP3    H117697   3.276   3.028   3.762
 5897TIP3    H217698   3.424   3.024   3.794
 5898TIP3   OH217699   0.061   4.840   4.063
 5898TIP3    H117700   0.102   4.877   3.984
 5898TIP3    H217701   0.011   4.765   4.031
 5899TIP3   OH217702   5.978   3.393   2.022
 5899TIP3    H117703   5.944   3.304   2.025
 5899TIP3    H217704   6.043   3.392   1.952
 5900TIP3   OH217705   5.456   4.522   1.902
 5900TIP3    H117706   5.392   4.546   1.835
 5900TIP3    H217707   5.420   4.555   1.984
 5901TIP3   OH217708   0.721   0.133   0.743
 5901TIP3    H117709   0.738   0.154   0.835
 5901TIP3    H217710   0.803   0.154   0.698
 5902TIP3   OH217711   1.013   4.814   0.315
 5902TIP3    H117712   1.104   4.827   0.340
 5902TIP3    H217713   0.973   4.900   0.322
 5903TIP3   OH217714   0.488   1.644   3.188
 5903TIP3    H117715   0.439   1.611   3.263
 5903TIP3    H217716   0.518   1.565   3.143
 5904TIP3   OH217717   0.812   0.845   0.870
 5904TIP3    H117718   0.908   0.846   0.864
 5904TIP3    H217719   0.791   0.757   0.901
 5905TIP3   OH217720   5.467   1.774   3.647
 5905TIP3    H117721   5.424   1.741   3.726
 5905TIP3    H217722   5.403   1.762   3.578
 5906TIP3   OH217723   5.234   0.682   4.953
 5906TIP3    H117724   5.292   0.619   4.911
 5906TIP3    H217725   5.288   0.721   5.023
 5907TIP3   OH217726   2.445   4.297   3.094
 5907TIP3    H117727   2.365   4.311   3.145
 5907TIP3    H217728   2.436   4.355   3.019
 5908TIP3   OH217729   4.638   0.391   5.136
 5908TIP3    H117730   4.687   0.474   5.131
 5908TIP3    H217731   4.580   0.403   5.211
 5909TIP3   OH217732   1.502   2.775   4.281
 5909TIP3    H117733   1.446   2.717   4.230
 5909TIP3    H217734   1.565   2.809   4.218
 5910TIP3   OH217735   3.187   5.467   5.172
 5910TIP3    H117736   3.197   5.405   5.100
 5910TIP3    H217737   3.249   5.537   5.151
 5911TIP3   OH217738   0.134   1.767   4.767
 5911TIP3    H117739   0.207   1.823   4.740
 5911TIP3    H217740   0.099   1.733   4.685
 5912TIP3   OH217741   2.104   1.638   0.951
 5912TIP3    H117742   2.110   1.542   0.953
 5912TIP3    H217743   2.158   1.664   0.876
 5913TIP3   OH217744   0.106   1.484   3.431
 5913TIP3    H117745   0.066   1.479   3.518
 5913TIP3    H217746   0.031   1.493   3.372
 5914TIP3   OH217747   4.361   5.680   4.546
 5914TIP3    H117748   4.394   5.613   4.606
 5914TIP3    H217749   4.317   5.631   4.477
 5915TIP3   OH217750   3.733   5.423   0.201
 5915TIP3    H117751   3.645   5.397   0.228
 5915TIP3    H217752   3.726   5.516   0.180
 5916TIP3   OH217753   5.876   4.385   5.139
 5916TIP3    H117754   5.791   4.347   5.161
 5916TIP3    H217755   5.873   4.397   5.044
 5917TIP3   OH217756   1.644   3.959   4.524
 5917TIP3    H117757   1.678   3.889   4.579
 5917TIP3    H217758   1.633   4.033   4.584
 5918TIP3   OH217759   4.271   4.370   0.107
 5918TIP3    H117760   4.215   4.293   0.120
 5918TIP3    H217761   4.234   4.436   0.165
 5919TIP3   OH217762   5.692   2.466   0.995
 5919TIP3    H117763   5.721   2.507   0.913
 5919TIP3    H217764   5.722   2.375   0.988
 5920TIP3   OH217765   3.883   1.039   1.622
 5920TIP3    H117766   3.874   0.990   1.704
 5920TIP3    H217767   3.848   1.126   1.641
 5921TIP3   OH217768   2.326   3.744   0.985
 5921TIP3    H117769   2.272   3.815   0.950
 5921TIP3    H217770   2.288   3.664   0.949
 5922TIP3   OH217771   0.742   5.253   4.336
 5922TIP3    H117772   0.726   5.210   4.420
 5922TIP3    H217773   0.767   5.342   4.359
 5923TIP3   OH217774   5.950   1.390   5.149
 5923TIP3    H117775   5.971   1.299   5.171
 5923TIP3    H217776   5.940   1.390   5.054
 5924TIP3   OH217777   2.383   2.633   0.669
 5924TIP3    H117778   2.346   2.648   0.756
 5924TIP3    H217779   2.356   2.709   0.618
 5925TIP3   OH217780   0.872   4.552   3.168
 5925TIP3    H117781   0.796   4.601   3.138
 5925TIP3    H217782   0.920   4.529   3.088
 5926TIP3   OH217783   0.398   3.426   4.530
 5926TIP3    H117784   0.314   3.415   4.486
 5926TIP3    H217785   0.393   3.513   4.570
 5927TIP3   OH217786   6.054   2.485   1.435
 5927TIP3    H117787   6.085   2.575   1.442
 5927TIP3    H217788   5.990   2.476   1.506
 5928TIP3   OH217789   0.698   4.301   0.287
 5928TIP3    H117790   0.724   4.265   0.372
 5928TIP3    H217791   0.628   4.363   0.307
 5929TIP3   OH217792   0.489   4.426   1.722
 5929TIP3    H117793   0.476   4.520   1.736
 5929TIP3    H217794   0.559   4.402   1.782
 5930TIP3   OH217795   0.355   3.258   1.709
 5930TIP3    H117796   0.292   3.330   1.721
 5930TIP3    H217797   0.386   3.237   1.797
 5931TIP3   OH217798   3.103   3.770   1.475
 5931TIP3    H117799   3.023   3.780   1.424
 5931TIP3    H217800   3.095   3.684   1.516
 5932TIP3   OH217801   2.753   1.021   0.227
 5932TIP3    H117802   2.792   1.105   0.248
 5932TIP3    H217803   2.683   1.010   0.292
 5933TIP3   OH217804   4.772   0.418   0.810
 5933TIP3    H117805   4.833   0.399   0.882
 5933TIP3    H217806   4.793   0.354   0.742
 5934TIP3   OH217807   0.510   5.449   4.358
 5934TIP3    H117808   0.567   5.487   4.424
 5934TIP3    H217809   0.545   5.482   4.275
 5935TIP3   OH217810   1.363   1.179   4.634
 5935TIP3    H117811   1.274   1.144   4.640
 5935TIP3    H217812   1.355   1.271   4.661
 5936TIP3   OH217813   1.273   1.110   3.958
 5936TIP3    H117814   1.204   1.166   3.922
 5936TIP3    H217815   1.228   1.027   3.977
 5937TIP3   OH217816   4.812   1.318   0.718
 5937TIP3    H117817   4.879   1.310   0.650
 5937TIP3    H217818   4.745   1.375   0.679
 5938TIP3   OH217819   0.841   2.196   4.792
 5938TIP3    H117820   0.861   2.263   4.726
 5938TIP3    H217821   0.926   2.165   4.821
 5939TIP3   OH217822  -0.026   2.161   1.533
 5939TIP3    H117823   0.031   2.225   1.492
 5939TIP3    H217824  -0.075   2.211   1.599
 5940TIP3   OH217825   0.060   5.266   4.143
 5940TIP3    H117826   0.110   5.237   4.220
 5940TIP3    H217827   0.011   5.188   4.116
 5941TIP3   OH217828   4.401   4.297   1.533
 5941TIP3    H117829   4.384   4.383   1.571
 5941TIP3    H217830   4.472   4.312   1.471
 5942TIP3   OH217831   4.035   2.222   2.283
 5942TIP3    H117832   3.996   2.307   2.301
 5942TIP3    H217833   3.990   2.161   2.342
 5943TIP3   OH217834   6.333   3.686   3.338
 5943TIP3    H117835   6.425   3.662   3.323
 5943TIP3    H217836   6.293   3.682   3.251
 5944TIP3   OH217837   1.254   5.440   1.966
 5944TIP3    H117838   1.186   5.495   2.004
 5944TIP3    H217839   1.336   5.479   1.997
 5945TIP3   OH217840   2.051   2.490   1.436
 5945TIP3    H117841   2.054   2.544   1.357
 5945TIP3    H217842   2.141   2.493   1.470
 5946TIP3   OH217843   2.973   3.347   1.815
 5946TIP3    H117844   3.034   3.280   1.785
 5946TIP3    H217845   3.015   3.387   1.891
 5947TIP3   OH217846   3.730   4.781   1.110
 5947TIP3    H117847   3.823   4.804   1.113
 5947TIP3    H217848   3.730   4.686   1.098
 5948TIP3   OH217849   4.182   1.233   2.383
 5948TIP3    H117850   4.114   1.249   2.318
 5948TIP3    H217851   4.242   1.308   2.374
 5949TIP3   OH217852   6.222   2.982   5.178
 5949TIP3    H117853   6.234   2.898   5.133
 5949TIP3    H217854   6.129   3.002   5.167
 5950TIP3   OH217855   4.427   3.024   0.821
 5950TIP3    H117856   4.343   3.069   0.814
 5950TIP3    H217857   4.454   3.010   0.730
 5951TIP3   OH217858   5.655   4.091   3.195
 5951TIP3    H117859   5.741   4.081   3.156
 5951TIP3    H217860   5.662   4.048   3.281
 5952TIP3   OH217861   1.345   5.588   1.294
 5952TIP3    H117862   1.383   5.675   1.281
 5952TIP3    H217863   1.260   5.605   1.335
 5953TIP3   OH217864   0.414   3.463   3.259
 5953TIP3    H117865   0.397   3.371   3.239
 5953TIP3    H217866   0.449   3.462   3.348
 5954TIP3   OH217867   4.230   4.707   4.998
 5954TIP3    H117868   4.164   4.712   5.067
 5954TIP3    H217869   4.308   4.674   5.043
 5955TIP3   OH217870   1.816   1.890   4.395
 5955TIP3    H117871   1.847   1.800   4.382
 5955TIP3    H217872   1.730   1.879   4.436
 5956TIP3   OH217873   0.768   5.859   4.730
 5956TIP3    H117874   0.841   5.921   4.736
 5956TIP3    H217875   0.789   5.805   4.654
 5957TIP3   OH217876   0.407   0.481   0.474
 5957TIP3    H117877   0.438   0.399   0.511
 5957TIP3    H217878   0.355   0.521   0.543
 5958TIP3   OH217879   1.381  -0.033   4.917
 5958TIP3    H117880   1.297   0.012   4.931
 5958TIP3    H217881   1.439   0.034   4.883
 5959TIP3   OH217882   0.878   2.969   5.210
 5959TIP3    H117883   0.821   3.042   5.185
 5959TIP3    H217884   0.961   3.011   5.233
 5960TIP3   OH217885   4.455   1.762   4.457
 5960TIP3    H117886   4.460   1.831   4.391
 5960TIP3    H217887   4.388   1.702   4.425
 5961TIP3   OH217888   1.398   2.818   2.420
 5961TIP3    H117889   1.403   2.898   2.472
 5961TIP3    H217890   1.462   2.830   2.350
 5962TIP3   OH217891   5.711   3.805   3.123
 5962TIP3    H117892   5.708   3.709   3.124
 5962TIP3    H217893   5.713   3.830   3.215
 5963TIP3   OH217894   1.064   4.005   2.000
 5963TIP3    H117895   1.149   4.040   1.972
 5963TIP3    H217896   1.086   3.950   2.075
 5964TIP3   OH217897   4.957   3.102   2.790
 5964TIP3    H117898   4.910   3.073   2.868
 5964TIP3    H217899   4.901   3.075   2.717
 5965TIP3   OH217900   4.988   2.589   0.712
 5965TIP3    H117901   5.035   2.565   0.792
 5965TIP3    H217902   5.057   2.612   0.650
 5966TIP3   OH217903   3.673   2.314   0.794
 5966TIP3    H117904   3.601   2.376   0.778
 5966TIP3    H217905   3.629   2.232   0.816
 5967TIP3   OH217906   0.859   4.104   4.012
 5967TIP3    H117907   0.925   4.048   4.053
 5967TIP3    H217908   0.869   4.087   3.918
 5968TIP3   OH217909   1.177   4.225   3.743
 5968TIP3    H117910   1.225   4.282   3.683
 5968TIP3    H217911   1.220   4.140   3.735
 5969TIP3   OH217912   4.702   2.523   4.900
 5969TIP3    H117913   4.637   2.468   4.855
 5969TIP3    H217914   4.784   2.475   4.891
 5970TIP3   OH217915   4.461   5.356   1.416
 5970TIP3    H117916   4.366   5.359   1.421
 5970TIP3    H217917   4.479   5.332   1.325
 5971TIP3   OH217918   2.023   4.319   4.627
 5971TIP3    H117919   2.073   4.240   4.645
 5971TIP3    H217920   2.023   4.367   4.710
 5972TIP3   OH217921   5.087   4.835   3.078
 5972TIP3    H117922   5.025   4.769   3.047
 5972TIP3    H217923   5.122   4.874   2.998
 5973TIP3   OH217924   6.144   3.984   3.278
 5973TIP3    H117925   6.053   3.983   3.309
 5973TIP3    H217926   6.195   3.953   3.353
 5974TIP3   OH217927   1.912   1.031   0.897
 5974TIP3    H117928   1.853   0.967   0.858
 5974TIP3    H217929   1.863   1.067   0.971
 5975TIP3   OH217930   2.711   1.010   5.097
 5975TIP3    H117931   2.644   0.997   5.030
 5975TIP3    H217932   2.742   1.100   5.084
 5976TIP3   OH217933   3.989   0.145   2.052
 5976TIP3    H117934   3.983   0.227   2.003
 5976TIP3    H217935   3.938   0.082   2.000
 5977TIP3   OH217936   0.320   3.131   4.804
 5977TIP3    H117937   0.394   3.140   4.743
 5977TIP3    H217938   0.354   3.075   4.874
 5978TIP3   OH217939   5.584   0.080   1.087
 5978TIP3    H117940   5.562   0.071   0.995
 5978TIP3    H217941   5.511   0.128   1.125
 5979TIP3   OH217942   3.662   4.987   4.304
 5979TIP3    H117943   3.681   5.039   4.382
 5979TIP3    H217944   3.676   4.896   4.332
 5980TIP3   OH217945   0.648   3.754   0.784
 5980TIP3    H117946   0.617   3.704   0.859
 5980TIP3    H217947   0.690   3.688   0.727
 5981TIP3   OH217948   0.753   4.107   3.304
 5981TIP3    H117949   0.809   4.031   3.288
 5981TIP3    H217950   0.771   4.165   3.229
 5982TIP3   OH217951   3.761   4.465   2.827
 5982TIP3    H117952   3.835   4.454   2.886
 5982TIP3    H217953   3.685   4.436   2.877
 5983TIP3   OH217954   4.067   1.795   0.489
 5983TIP3    H117955   4.033   1.879   0.457
 5983TIP3    H217956   4.161   1.798   0.470
 5984TIP3   OH217957   5.577   2.111   4.039
 5984TIP3    H117958   5.564   2.049   3.966
 5984TIP3    H217959   5.514   2.083   4.105
 5985TIP3   OH217960   0.272   3.613   3.583
 5985TIP3    H117961   0.247   3.694   3.539
 5985TIP3    H217962   0.363   3.598   3.556
 5986TIP3   OH217963   4.628   3.398   5.014
 5986TIP3    H117964   4.673   3.480   4.993
 5986TIP3    H217965   4.670   3.333   4.957
 5987TIP3   OH217966   1.259   4.865   3.072
 5987TIP3    H117967   1.181   4.913   3.044
 5987TIP3    H217968   1.250   4.858   3.167
 5988TIP3   OH217969   0.277   5.964   4.516
 5988TIP3    H117970   0.361   5.993   4.552
 5988TIP3    H217971   0.278   5.994   4.425
 5989TIP3   OH217972   4.772   4.439   2.832
 5989TIP3    H117973   4.843   4.379   2.856
 5989TIP3    H217974   4.699   4.382   2.810
 5990TIP3   OH217975   1.917   4.499   4.956
 5990TIP3    H117976   1.886   4.411   4.978
 5990TIP3    H217977   1.926   4.543   5.040
 5991TIP3   OH217978   2.806   1.109   0.508
 5991TIP3    H117979   2.722   1.095   0.464
 5991TIP3    H217980   2.786   1.169   0.580
 5992TIP3   OH217981   2.748   5.984   3.363
 5992TIP3    H117982   2.831   5.992   3.315
 5992TIP3    H217983   2.682   6.016   3.301
 5993TIP3   OH217984   0.599   5.615   1.941
 5993TIP3    H117985   0.671   5.627   2.003
 5993TIP3    H217986   0.593   5.520   1.930
 5994TIP3   OH217987   1.956   5.241   2.004
 5994TIP3    H117988   1.928   5.320   2.050
 5994TIP3    H217989   2.016   5.272   1.937
 5995TIP3   OH217990   4.937   5.497   0.924
 5995TIP3    H117991   5.031   5.494   0.903
 5995TIP3    H217992   4.933   5.473   1.016
 5996TIP3   OH217993   5.799   5.634   1.603
 5996TIP3    H117994   5.737   5.590   1.661
 5996TIP3    H217995   5.782   5.596   1.516
 5997TIP3   OH217996   3.284   0.455   3.395
 5997TIP3    H117997   3.325   0.536   3.426
 5997TIP3    H217998   3.255   0.477   3.306
 5998TIP3   OH217999   5.405   0.399   1.501
 5998TIP3    H118000   5.455   0.470   1.461
 5998TIP3    H218001   5.349   0.442   1.565
 5999TIP3   OH218002   2.289   3.986   4.408
 5999TIP3    H118003   2.274   3.989   4.502
 5999TIP3    H218004   2.378   3.953   4.397
 6000TIP3   OH218005   0.434   4.147   1.379
 6000TIP3    H118006   0.501   4.083   1.401
 6000TIP3    H218007   0.465   4.187   1.298
 6001TIP3   OH218008   2.293   2.310   1.509
 6001TIP3    H118009   2.343   2.352   1.439
 6001TIP3    H218010   2.213   2.279   1.467
 6002TIP3   OH218011   4.950   0.466   1.923
 6002TIP3    H118012   4.942   0.371   1.911
 6002TIP3    H218013   4.875   0.490   1.977
 6003TIP3   OH218014   0.856   3.211   3.098
 6003TIP3    H118015   0.927   3.256   3.052
 6003TIP3    H218016   0.893   3.189   3.184
 6004TIP3   OH218017   3.496   5.862   4.239
 6004TIP3    H118018   3.567   5.921   4.262
 6004TIP3    H218019   3.467   5.891   4.152
 6005TIP3   OH218020   0.367   0.895   4.566
 6005TIP3    H118021   0.320   0.964   4.519
 6005TIP3    H218022   0.350   0.815   4.517
 6006TIP3   OH218023   2.226   4.439   1.109
 6006TIP3    H118024   2.203   4.531   1.122
 6006TIP3    H218025   2.319   4.440   1.085
 6007TIP3   OH218026   4.934   1.753   3.358
 6007TIP3    H118027   4.923   1.670   3.404
 6007TIP3    H218028   4.867   1.751   3.289
 6008TIP3   OH218029   5.118   3.453   2.934
 6008TIP3    H118030   5.074   3.535   2.956
 6008TIP3    H218031   5.098   3.395   3.008
 6009TIP3   OH218032   0.740   5.361   3.127
 6009TIP3    H118033   0.661   5.361   3.073
 6009TIP3    H218034   0.802   5.416   3.079
 6010TIP3   OH218035   3.662   3.136   1.302
 6010TIP3    H118036   3.587   3.087   1.337
 6010TIP3    H218037   3.632   3.227   1.302
 6011TIP3   OH218038   1.369   2.604   0.149
 6011TIP3    H118039   1.383   2.516   0.113
 6011TIP3    H218040   1.347   2.588   0.241
 6012TIP3   OH218041   3.274   4.502   4.806
 6012TIP3    H118042   3.269   4.568   4.736
 6012TIP3    H218043   3.365   4.506   4.835
 6013TIP3   OH218044   4.027   1.593   1.963
 6013TIP3    H118045   4.044   1.649   2.039
 6013TIP3    H218046   3.948   1.629   1.924
 6014TIP3   OH218047   1.708   5.627   1.834
 6014TIP3    H118048   1.742   5.696   1.890
 6014TIP3    H218049   1.782   5.568   1.821
 6015TIP3   OH218050   4.141   4.618   2.322
 6015TIP3    H118051   4.197   4.695   2.314
 6015TIP3    H218052   4.089   4.633   2.401
 6016TIP3   OH218053   5.495   1.923   2.040
 6016TIP3    H118054   5.512   1.852   2.103
 6016TIP3    H218055   5.528   2.001   2.083
 6017TIP3   OH218056   0.975   2.444   2.843
 6017TIP3    H118057   0.999   2.536   2.838
 6017TIP3    H218058   0.880   2.443   2.846
 6018TIP3   OH218059   5.325   4.978   4.892
 6018TIP3    H118060   5.308   5.070   4.914
 6018TIP3    H218061   5.415   4.963   4.921
 6019TIP3   OH218062   1.543   5.529   2.026
 6019TIP3    H118063   1.582   5.604   2.070
 6019TIP3    H218064   1.580   5.532   1.938
 6020TIP3   OH218065   3.006   2.140   4.990
 6020TIP3    H118066   2.918   2.175   4.974
 6020TIP3    H218067   3.059   2.178   4.920
 6021TIP3   OH218068   2.845   4.847   1.223
 6021TIP3    H118069   2.820   4.771   1.170
 6021TIP3    H218070   2.781   4.914   1.200
 6022TIP3   OH218071   4.926   4.226   4.437
 6022TIP3    H118072   4.981   4.264   4.506
 6022TIP3    H218073   4.911   4.299   4.376
 6023TIP3   OH218074   4.218   1.848   5.161
 6023TIP3    H118075   4.124   1.831   5.151
 6023TIP3    H218076   4.225   1.943   5.155
 6024TIP3   OH218077   1.468   0.340   4.000
 6024TIP3    H118078   1.527   0.319   3.927
 6024TIP3    H218079   1.504   0.421   4.037
 6025TIP3   OH218080   3.945   5.228   3.654
 6025TIP3    H118081   4.020   5.193   3.703
 6025TIP3    H218082   3.873   5.228   3.717
 6026TIP3   OH218083   0.125   1.558   0.344
 6026TIP3    H118084   0.089   1.646   0.352
 6026TIP3    H218085   0.107   1.518   0.429
 6027TIP3   OH218086   2.264   5.111   4.771
 6027TIP3    H118087   2.352   5.077   4.788
 6027TIP3    H218088   2.252   5.180   4.836
 6028TIP3   OH218089   1.423   3.803   0.492
 6028TIP3    H118090   1.482   3.870   0.455
 6028TIP3    H218091   1.338   3.822   0.452
 6029TIP3   OH218092   0.834   0.186   2.956
 6029TIP3    H118093   0.924   0.208   2.979
 6029TIP3    H218094   0.833   0.181   2.861
 6030TIP3   OH218095   5.684   1.921   0.292
 6030TIP3    H118096   5.610   1.980   0.273
 6030TIP3    H218097   5.643   1.842   0.329
 6031TIP3   OH218098   1.062   5.481   4.703
 6031TIP3    H118099   1.069   5.543   4.776
 6031TIP3    H218100   1.153   5.464   4.678
 6032TIP3   OH218101   3.493   2.881   3.282
 6032TIP3    H118102   3.409   2.835   3.284
 6032TIP3    H218103   3.469   2.973   3.273
 6033TIP3   OH218104   6.326   1.590   1.374
 6033TIP3    H118105   6.399   1.644   1.344
 6033TIP3    H218106   6.315   1.524   1.306
 6034TIP3   OH218107   5.979   0.696   4.198
 6034TIP3    H118108   6.072   0.706   4.179
 6034TIP3    H218109   5.936   0.709   4.113
 6035TIP3   OH218110   0.840   2.387   4.177
 6035TIP3    H118111   0.848   2.392   4.082
 6035TIP3    H218112   0.900   2.453   4.210
 6036TIP3   OH218113   3.918   1.704   0.945
 6036TIP3    H118114   3.971   1.625   0.946
 6036TIP3    H218115   3.915   1.732   1.037
 6037TIP3   OH218116   3.204   1.445   4.136
 6037TIP3    H118117   3.279   1.485   4.178
 6037TIP3    H218118   3.242   1.393   4.064
 6038TIP3   OH218119   0.719   3.443   3.104
 6038TIP3    H118120   0.652   3.409   3.046
 6038TIP3    H218121   0.780   3.370   3.118
 6039TIP3   OH218122   2.903   4.704   0.542
 6039TIP3    H118123   2.816   4.681   0.511
 6039TIP3    H218124   2.894   4.711   0.637
 6040TIP3   OH218125   2.184   0.843   4.988
 6040TIP3    H118126   2.242   0.915   5.014
 6040TIP3    H218127   2.102   0.886   4.962
 6041TIP3   OH218128   1.896   3.746   3.548
 6041TIP3    H118129   1.858   3.814   3.493
 6041TIP3    H218130   1.991   3.755   3.536
 6042TIP3   OH218131   4.367   0.475   4.993
 6042TIP3    H118132   4.457   0.495   4.967
 6042TIP3    H218133   4.373   0.390   5.037
 6043TIP3   OH218134   0.369   3.613   0.838
 6043TIP3    H118135   0.341   3.622   0.747
 6043TIP3    H218136   0.294   3.643   0.889
 6044TIP3   OH218137   1.946   4.940   1.564
 6044TIP3    H118138   1.933   4.974   1.652
 6044TIP3    H218139   1.870   4.969   1.515
 6045TIP3   OH218140   2.203   5.366   0.635
 6045TIP3    H118141   2.238   5.329   0.554
 6045TIP3    H218142   2.281   5.390   0.686
 6046TIP3   OH218143   2.173   4.774   5.102
 6046TIP3    H118144   2.257   4.809   5.072
 6046TIP3    H218145   2.185   4.679   5.102
 6047TIP3   OH218146   2.366   1.940   2.417
 6047TIP3    H118147   2.314   1.860   2.426
 6047TIP3    H218148   2.363   1.981   2.504
 6048TIP3   OH218149   2.831   2.992   2.784
 6048TIP3    H118150   2.844   3.054   2.713
 6048TIP3    H218151   2.765   3.032   2.840
 6049TIP3   OH218152   6.060   2.161   3.659
 6049TIP3    H118153   6.041   2.152   3.565
 6049TIP3    H218154   6.155   2.151   3.665
 6050TIP3   OH218155   2.421   3.090   4.189
 6050TIP3    H118156   2.361   3.072   4.117
 6050TIP3    H218157   2.473   3.010   4.197
 6051TIP3   OH218158   3.112   1.701   1.970
 6051TIP3    H118159   3.123   1.639   1.897
 6051TIP3    H218160   3.131   1.649   2.048
 6052TIP3   OH218161   3.391   4.636   0.551
 6052TIP3    H118162   3.437   4.588   0.481
 6052TIP3    H218163   3.332   4.695   0.504
 6053TIP3   OH218164   5.105   3.212   4.838
 6053TIP3    H118165   5.182   3.266   4.821
 6053TIP3    H218166   5.101   3.151   4.764
 6054TIP3   OH218167   1.712   4.492   2.794
 6054TIP3    H118168   1.739   4.582   2.811
 6054TIP3    H218169   1.720   4.482   2.699
 6055TIP3   OH218170   1.820   1.065   4.150
 6055TIP3    H118171   1.825   0.971   4.166
 6055TIP3    H218172   1.767   1.099   4.223
 6056TIP3   OH218173   3.260   3.380   4.803
 6056TIP3    H118174   3.201   3.308   4.825
 6056TIP3    H218175   3.323   3.341   4.743
 6057TIP3   OH218176   5.968   2.611   3.289
 6057TIP3    H118177   5.912   2.620   3.212
 6057TIP3    H218178   6.025   2.688   3.285
 6058TIP3   OH218179   4.452   1.509   3.684
 6058TIP3    H118180   4.422   1.525   3.773
 6058TIP3    H218181   4.439   1.414   3.672
 6059TIP3   OH218182   5.106   3.411   1.640
 6059TIP3    H118183   5.185   3.384   1.593
 6059TIP3    H218184   5.035   3.399   1.578
 6060TIP3   OH218185   0.514   5.745   3.588
 6060TIP3    H118186   0.543   5.816   3.645
 6060TIP3    H218187   0.420   5.737   3.605
 6061TIP3   OH218188   1.649   5.680   0.887
 6061TIP3    H118189   1.690   5.593   0.883
 6061TIP3    H218190   1.643   5.699   0.981
 6062TIP3   OH218191   0.413   0.726   2.554
 6062TIP3    H118192   0.437   0.637   2.531
 6062TIP3    H218193   0.430   0.777   2.474
 6063TIP3   OH218194   4.650   2.704   0.014
 6063TIP3    H118195   4.687   2.770   0.072
 6063TIP3    H218196   4.687   2.621   0.043
 6064TIP3   OH218197   0.787   0.075   5.117
 6064TIP3    H118198   0.829   0.160   5.104
 6064TIP3    H218199   0.859   0.017   5.142
 6065TIP3   OH218200   2.222   3.132   2.200
 6065TIP3    H118201   2.224   3.151   2.294
 6065TIP3    H218202   2.130   3.112   2.182
 6066TIP3   OH218203   3.355   2.556   3.237
 6066TIP3    H118204   3.307   2.487   3.284
 6066TIP3    H218205   3.446   2.543   3.262
 6067TIP3   OH218206   0.244   4.883   0.108
 6067TIP3    H118207   0.201   4.962   0.076
 6067TIP3    H218208   0.210   4.813   0.053
 6068TIP3   OH218209   5.872   2.927   4.667
 6068TIP3    H118210   5.928   2.995   4.703
 6068TIP3    H218211   5.899   2.847   4.713
 6069TIP3   OH218212   6.003   3.380   3.634
 6069TIP3    H118213   6.092   3.395   3.601
 6069TIP3    H218214   5.980   3.293   3.601
 6070TIP3   OH218215   4.092   4.462   5.117
 6070TIP3    H118216   4.102   4.523   5.044
 6070TIP3    H218217   4.056   4.514   5.188
 6071TIP3   OH218218   3.992   3.905   4.616
 6071TIP3    H118219   3.981   3.816   4.649
 6071TIP3    H218220   3.961   3.961   4.687
 6072TIP3   OH218221   2.402   1.897   4.110
 6072TIP3    H118222   2.486   1.934   4.138
 6072TIP3    H218223   2.352   1.889   4.192
 6073TIP3   OH218224   4.288   3.295   0.522
 6073TIP3    H118225   4.320   3.345   0.447
 6073TIP3    H218226   4.314   3.205   0.504
 6074TIP3   OH218227   3.240   3.987   1.598
 6074TIP3    H118228   3.189   4.019   1.673
 6074TIP3    H218229   3.178   3.933   1.549
 6075TIP3   OH218230   3.231   3.648   2.633
 6075TIP3    H118231   3.236   3.643   2.729
 6075TIP3    H218232   3.295   3.584   2.602
 6076TIP3   OH218233   6.241   0.815   3.678
 6076TIP3    H118234   6.168   0.755   3.666
 6076TIP3    H218235   6.304   0.790   3.610
 6077TIP3   OH218236   3.457   5.175   0.656
 6077TIP3    H118237   3.485   5.084   0.645
 6077TIP3    H218238   3.398   5.191   0.582
 6078TIP3   OH218239   4.579   2.344   1.733
 6078TIP3    H118240   4.526   2.289   1.790
 6078TIP3    H218241   4.520   2.415   1.705
 6079TIP3   OH218242   4.320   2.233   1.811
 6079TIP3    H118243   4.307   2.147   1.771
 6079TIP3    H218244   4.233   2.273   1.811
 6080TIP3   OH218245   5.478   2.666   0.129
 6080TIP3    H118246   5.433   2.590   0.092
 6080TIP3    H218247   5.551   2.628   0.179
 6081TIP3   OH218248   0.632   4.700   3.145
 6081TIP3    H118249   0.615   4.794   3.152
 6081TIP3    H218250   0.573   4.669   3.076
 6082TIP3   OH218251   4.026   2.103   0.061
 6082TIP3    H118252   4.028   2.104  -0.034
 6082TIP3    H218253   4.018   2.010   0.083
 6083TIP3   OH218254   5.233   1.156   5.149
 6083TIP3    H118255   5.196   1.219   5.087
 6083TIP3    H218256   5.166   1.089   5.158
 6084TIP3   OH218257   3.600   3.700   5.219
 6084TIP3    H118258   3.528   3.636   5.213
 6084TIP3    H218259   3.625   3.715   5.128
 6085TIP3   OH218260   1.785   0.550   3.938
 6085TIP3    H118261   1.747   0.515   3.858
 6085TIP3    H218262   1.710   0.560   3.997
 6086TIP3   OH218263   3.994   4.518   2.962
 6086TIP3    H118264   4.048   4.587   3.001
 6086TIP3    H218265   3.946   4.481   3.036
 6087TIP3   OH218266   1.288   3.617   2.663
 6087TIP3    H118267   1.265   3.528   2.690
 6087TIP3    H218268   1.260   3.673   2.735
 6088TIP3   OH218269   2.537   3.002   1.161
 6088TIP3    H118270   2.491   3.084   1.143
 6088TIP3    H218271   2.540   2.957   1.076
 6089TIP3   OH218272   0.668   0.047   4.729
 6089TIP3    H118273   0.698  -0.027   4.781
 6089TIP3    H218274   0.618   0.008   4.657
 6090TIP3   OH218275   2.453   5.520   3.298
 6090TIP3    H118276   2.380   5.488   3.352
 6090TIP3    H218277   2.516   5.448   3.300
 6091TIP3   OH218278   2.758   5.071   4.069
 6091TIP3    H118279   2.734   4.999   4.128
 6091TIP3    H218280   2.726   5.150   4.112
 6092TIP3   OH218281   2.926   0.496   2.093
 6092TIP3    H118282   2.895   0.524   2.179
 6092TIP3    H218283   2.899   0.567   2.034
 6093TIP3   OH218284   5.044   1.688   2.786
 6093TIP3    H118285   4.999   1.761   2.744
 6093TIP3    H218286   5.136   1.714   2.788
 6094TIP3   OH218287   6.170   3.475   4.686
 6094TIP3    H118288   6.241   3.411   4.680
 6094TIP3    H218289   6.099   3.437   4.633
 6095TIP3   OH218290   2.178   5.874   3.755
 6095TIP3    H118291   2.152   5.866   3.847
 6095TIP3    H218292   2.195   5.784   3.727
 6096TIP3   OH218293   5.853   1.824   1.982
 6096TIP3    H118294   5.845   1.740   1.937
 6096TIP3    H218295   5.763   1.851   2.000
 6097TIP3   OH218296   4.126   5.250   0.085
 6097TIP3    H118297   4.198   5.206   0.039
 6097TIP3    H218298   4.101   5.322   0.028
 6098TIP3   OH218299   0.790   0.635   1.074
 6098TIP3    H118300   0.732   0.560   1.092
 6098TIP3    H218301   0.875   0.608   1.109
 6099TIP3   OH218302   5.220   4.302   3.979
 6099TIP3    H118303   5.146   4.335   3.927
 6099TIP3    H218304   5.230   4.367   4.049
 6100TIP3   OH218305   1.505   0.781   0.871
 6100TIP3    H118306   1.464   0.825   0.945
 6100TIP3    H218307   1.434   0.769   0.808
 6101TIP3   OH218308   4.737   0.232   2.738
 6101TIP3    H118309   4.823   0.267   2.762
 6101TIP3    H218310   4.728   0.254   2.646
 6102TIP3   OH218311   2.398   1.310   2.202
 6102TIP3    H118312   2.453   1.236   2.229
 6102TIP3    H218313   2.384   1.295   2.108
 6103TIP3   OH218314   3.707   0.479   4.288
 6103TIP3    H118315   3.711   0.499   4.381
 6103TIP3    H218316   3.789   0.434   4.269
 6104TIP3   OH218317   0.648   3.952   1.524
 6104TIP3    H118318   0.687   4.036   1.549
 6104TIP3    H218319   0.612   3.917   1.605
 6105TIP3   OH218320   3.675   1.522   2.816
 6105TIP3    H118321   3.675   1.587   2.746
 6105TIP3    H218322   3.600   1.466   2.796
 6106TIP3   OH218323   0.763   3.328   1.427
 6106TIP3    H118324   0.670   3.316   1.448
 6106TIP3    H218325   0.783   3.256   1.368
 6107TIP3   OH218326   4.817   2.921   4.627
 6107TIP3    H118327   4.755   2.897   4.695
 6107TIP3    H218328   4.789   3.007   4.597
 6108TIP3   OH218329   0.107   1.722   3.082
 6108TIP3    H118330   0.113   1.691   2.991
 6108TIP3    H218331   0.094   1.816   3.075
 6109TIP3   OH218332   6.220   5.131   2.942
 6109TIP3    H118333   6.240   5.195   2.873
 6109TIP3    H218334   6.305   5.102   2.974
 6110TIP3   OH218335   3.693   1.777   4.811
 6110TIP3    H118336   3.638   1.720   4.864
 6110TIP3    H218337   3.774   1.728   4.799
 6111TIP3   OH218338   4.178   5.727   3.871
 6111TIP3    H118339   4.124   5.668   3.819
 6111TIP3    H218340   4.265   5.720   3.833
 6112TIP3   OH218341   0.910   4.458   4.731
 6112TIP3    H118342   0.827   4.422   4.700
 6112TIP3    H218343   0.953   4.384   4.773
 6113TIP3   OH218344   2.060   1.674   0.556
 6113TIP3    H118345   2.004   1.621   0.613
 6113TIP3    H218346   2.120   1.718   0.616
 6114TIP3   OH218347   0.898   3.001   2.549
 6114TIP3    H118348   0.993   3.002   2.558
 6114TIP3    H218349   0.872   2.916   2.584
 6115TIP3   OH218350   0.874   2.421   3.891
 6115TIP3    H118351   0.931   2.482   3.844
 6115TIP3    H218352   0.899   2.334   3.859
 6116TIP3   OH218353   0.607   0.726   3.838
 6116TIP3    H118354   0.648   0.804   3.875
 6116TIP3    H218355   0.621   0.658   3.904
 6117TIP3   OH218356   0.872   2.378   4.590
 6117TIP3    H118357   0.791   2.428   4.583
 6117TIP3    H218358   0.941   2.443   4.579
 6118TIP3   OH218359   2.006   2.998   5.106
 6118TIP3    H118360   2.099   3.017   5.120
 6118TIP3    H218361   1.996   2.994   5.011
 6119TIP3   OH218362   1.830   3.789   3.850
 6119TIP3    H118363   1.872   3.780   3.764
 6119TIP3    H218364   1.830   3.884   3.866
 6120TIP3   OH218365   4.944   3.791   4.102
 6120TIP3    H118366   4.897   3.865   4.141
 6120TIP3    H218367   4.960   3.817   4.011
 6121TIP3   OH218368   2.762   3.259   4.111
 6121TIP3    H118369   2.743   3.242   4.019
 6121TIP3    H218370   2.771   3.172   4.150
 6122TIP3   OH218371   2.897   5.207   4.363
 6122TIP3    H118372   2.939   5.286   4.397
 6122TIP3    H218373   2.866   5.162   4.442
 6123TIP3   OH218374   2.850   2.733   2.762
 6123TIP3    H118375   2.908   2.687   2.823
 6123TIP3    H218376   2.884   2.822   2.758
 6124TIP3   OH218377   5.803   5.778   4.714
 6124TIP3    H118378   5.801   5.833   4.636
 6124TIP3    H218379   5.857   5.826   4.776
 6125TIP3   OH218380   1.384   1.786   2.517
 6125TIP3    H118381   1.414   1.747   2.434
 6125TIP3    H218382   1.440   1.863   2.529
 6126TIP3   OH218383   5.440   2.369   4.093
 6126TIP3    H118384   5.352   2.353   4.060
 6126TIP3    H218385   5.486   2.286   4.081
 6127TIP3   OH218386   5.250   0.709   0.570
 6127TIP3    H118387   5.338   0.670   0.573
 6127TIP3    H218388   5.196   0.642   0.528
 6128TIP3   OH218389   4.300   3.872   0.135
 6128TIP3    H118390   4.330   3.949   0.087
 6128TIP3    H218391   4.358   3.866   0.211
 6129TIP3   OH218392   3.780   0.552   3.824
 6129TIP3    H118393   3.749   0.465   3.801
 6129TIP3    H218394   3.752   0.565   3.914
 6130TIP3   OH218395   1.856   3.801   1.047
 6130TIP3    H118396   1.848   3.715   1.088
 6130TIP3    H218397   1.795   3.798   0.974
 6131TIP3   OH218398   0.617   3.541   2.638
 6131TIP3    H118399   0.601   3.515   2.548
 6131TIP3    H218400   0.530   3.542   2.679
 6132TIP3   OH218401   4.518   1.027   2.003
 6132TIP3    H118402   4.588   1.027   1.938
 6132TIP3    H218403   4.438   1.015   1.951
 6133TIP3   OH218404   6.115   4.654   1.593
 6133TIP3    H118405   6.095   4.579   1.537
 6133TIP3    H218406   6.090   4.730   1.541
 6134TIP3   OH218407   1.762   2.327   2.768
 6134TIP3    H118408   1.768   2.327   2.672
 6134TIP3    H218409   1.669   2.312   2.786
 6135TIP3   OH218410   0.756   2.615   1.407
 6135TIP3    H118411   0.712   2.543   1.452
 6135TIP3    H218412   0.685   2.674   1.382
 6136TIP3   OH218413   5.418   0.586   4.787
 6136TIP3    H118414   5.442   0.562   4.697
 6136TIP3    H218415   5.467   0.666   4.804
 6137TIP3   OH218416   3.292   0.738   1.015
 6137TIP3    H118417   3.321   0.691   0.936
 6137TIP3    H218418   3.206   0.771   0.992
 6138TIP3   OH218419   2.618   5.070   0.791
 6138TIP3    H118420   2.671   5.127   0.734
 6138TIP3    H218421   2.682   5.021   0.842
 6139TIP3   OH218422   6.107   5.553   0.961
 6139TIP3    H118423   6.167   5.499   1.012
 6139TIP3    H218424   6.108   5.638   1.004
 6140TIP3   OH218425   5.895   3.809   2.930
 6140TIP3    H118426   5.835   3.828   3.001
 6140TIP3    H218427   5.981   3.804   2.971
 6141TIP3   OH218428   3.240   2.801   3.344
 6141TIP3    H118429   3.147   2.801   3.322
 6141TIP3    H218430   3.269   2.713   3.323
 6142TIP3   OH218431   5.579   0.697   1.673
 6142TIP3    H118432   5.503   0.640   1.687
 6142TIP3    H218433   5.646   0.639   1.637
 6143TIP3   OH218434   3.172   4.189   3.187
 6143TIP3    H118435   3.134   4.258   3.241
 6143TIP3    H218436   3.213   4.235   3.114
 6144TIP3   OH218437   6.088   2.068   0.230
 6144TIP3    H118438   6.008   2.076   0.180
 6144TIP3    H218439   6.130   1.989   0.197
 6145TIP3   OH218440   5.230   0.822   3.475
 6145TIP3    H118441   5.314   0.846   3.435
 6145TIP3    H218442   5.254   0.789   3.561
 6146TIP3   OH218443   4.993   3.207   0.528
 6146TIP3    H118444   4.902   3.232   0.518
 6146TIP3    H218445   4.992   3.111   0.529
 6147TIP3   OH218446   3.011   4.280   4.024
 6147TIP3    H118447   2.927   4.315   4.056
 6147TIP3    H218448   3.039   4.219   4.092
 6148TIP3   OH218449   6.123   4.328   4.400
 6148TIP3    H118450   6.027   4.318   4.402
 6148TIP3    H218451   6.137   4.409   4.351
 6149TIP3   OH218452   4.356   5.083   1.273
 6149TIP3    H118453   4.395   4.997   1.290
 6149TIP3    H218454   4.321   5.110   1.358
 6150TIP3   OH218455   6.292   2.964   4.088
 6150TIP3    H118456   6.386   2.980   4.076
 6150TIP3    H218457   6.284   2.869   4.081
 6151TIP3   OH218458   5.580   0.237   3.168
 6151TIP3    H118459   5.582   0.327   3.135
 6151TIP3    H218460   5.655   0.232   3.228
 6152TIP3   OH218461   3.017   2.231   1.631
 6152TIP3    H118462   3.007   2.181   1.712
 6152TIP3    H218463   3.056   2.313   1.659
 6153TIP3   OH218464   2.026   1.467   2.456
 6153TIP3    H118465   2.105   1.512   2.486
 6153TIP3    H218466   1.954   1.524   2.484
 6154TIP3   OH218467   4.077   4.194   0.208
 6154TIP3    H118468   4.111   4.205   0.297
 6154TIP3    H218469   4.039   4.107   0.207
 6155TIP3   OH218470   2.330   3.147   0.012
 6155TIP3    H118471   2.307   3.069   0.062
 6155TIP3    H218472   2.282   3.218   0.054
 6156TIP3   OH218473   4.008   2.249   1.463
 6156TIP3    H118474   4.034   2.336   1.491
 6156TIP3    H218475   3.988   2.258   1.370
 6157TIP3   OH218476   3.853   2.000   2.061
 6157TIP3    H118477   3.836   2.094   2.070
 6157TIP3    H218478   3.903   1.977   2.139
 6158TIP3   OH218479   4.472   2.995   3.688
 6158TIP3    H118480   4.544   3.030   3.636
 6158TIP3    H218481   4.427   2.934   3.630
 6159TIP3   OH218482   5.285   3.499   1.121
 6159TIP3    H118483   5.245   3.481   1.206
 6159TIP3    H218484   5.215   3.486   1.058
 6160TIP3   OH218485   1.684   2.506   0.269
 6160TIP3    H118486   1.661   2.527   0.359
 6160TIP3    H218487   1.691   2.410   0.268
 6161TIP3   OH218488   6.082   1.317   3.610
 6161TIP3    H118489   6.157   1.269   3.578
 6161TIP3    H218490   6.018   1.314   3.539
 6162TIP3   OH218491   3.208   5.358   3.017
 6162TIP3    H118492   3.267   5.385   2.947
 6162TIP3    H218493   3.261   5.363   3.096
 6163TIP3   OH218494   4.526   1.663   4.697
 6163TIP3    H118495   4.513   1.700   4.610
 6163TIP3    H218496   4.452   1.603   4.709
 6164TIP3   OH218497   0.510   5.836   2.928
 6164TIP3    H118498   0.434   5.890   2.906
 6164TIP3    H218499   0.519   5.775   2.855
 6165TIP3   OH218500   1.070   3.387   4.007
 6165TIP3    H118501   1.122   3.308   4.023
 6165TIP3    H218502   0.991   3.375   4.060
 6166TIP3   OH218503   3.090   5.904   2.031
 6166TIP3    H118504   3.049   5.838   1.974
 6166TIP3    H218505   3.016   5.953   2.067
 6167TIP3   OH218506   4.939   3.979   3.150
 6167TIP3    H118507   4.856   4.027   3.147
 6167TIP3    H218508   4.995   4.025   3.087
 6168TIP3   OH218509   4.113   2.815   0.876
 6168TIP3    H118510   4.078   2.904   0.885
 6168TIP3    H218511   4.182   2.810   0.942
 6169TIP3   OH218512   2.058   0.645   4.466
 6169TIP3    H118513   2.005   0.604   4.534
 6169TIP3    H218514   2.137   0.590   4.461
 6170TIP3   OH218515   4.252   0.067   1.698
 6170TIP3    H118516   4.308  -0.010   1.703
 6170TIP3    H218517   4.281   0.113   1.619
 6171TIP3   OH218518   3.521   5.481   3.267
 6171TIP3    H118519   3.562   5.538   3.202
 6171TIP3    H218520   3.427   5.491   3.252
 6172TIP3   OH218521   6.053   0.064   2.920
 6172TIP3    H118522   6.002  -0.013   2.892
 6172TIP3    H218523   6.045   0.064   3.015
 6173TIP3   OH218524   6.002   1.931   2.195
 6173TIP3    H118525   6.014   1.858   2.255
 6173TIP3    H218526   5.975   1.891   2.112
 6174TIP3   OH218527   4.256   0.677   3.265
 6174TIP3    H118528   4.238   0.751   3.322
 6174TIP3    H218529   4.307   0.617   3.320
 6175TIP3   OH218530   2.713   1.309   2.289
 6175TIP3    H118531   2.803   1.336   2.270
 6175TIP3    H218532   2.690   1.251   2.216
 6176TIP3   OH218533   0.591   5.753   4.409
 6176TIP3    H118534   0.546   5.789   4.332
 6176TIP3    H218535   0.679   5.792   4.405
 6177TIP3   OH218536   5.388   4.768   0.230
 6177TIP3    H118537   5.444   4.695   0.257
 6177TIP3    H218538   5.319   4.770   0.297
 6178TIP3   OH218539   6.040   1.382   4.848
 6178TIP3    H118540   5.987   1.402   4.771
 6178TIP3    H218541   6.020   1.291   4.868
 6179TIP3   OH218542   3.976   1.615   4.553
 6179TIP3    H118543   3.945   1.564   4.627
 6179TIP3    H218544   3.994   1.702   4.589
 6180TIP3   OH218545   3.857   2.018   4.764
 6180TIP3    H118546   3.817   2.092   4.719
 6180TIP3    H218547   3.785   1.955   4.775
 6181TIP3   OH218548   2.387   1.981   4.985
 6181TIP3    H118549   2.457   1.992   4.921
 6181TIP3    H218550   2.429   1.939   5.060
 6182TIP3   OH218551   1.482   4.022   1.678
 6182TIP3    H118552   1.516   3.948   1.728
 6182TIP3    H218553   1.387   4.021   1.693
 6183TIP3   OH218554   1.777   4.420   4.496
 6183TIP3    H118555   1.794   4.478   4.570
 6183TIP3    H218556   1.833   4.344   4.511
 6184TIP3   OH218557   3.539   3.742   3.777
 6184TIP3    H118558   3.478   3.674   3.806
 6184TIP3    H218559   3.558   3.720   3.686
 6185TIP3   OH218560   3.360   2.278   1.909
 6185TIP3    H118561   3.417   2.253   1.982
 6185TIP3    H218562   3.326   2.195   1.876
 6186TIP3   OH218563   5.598   5.134   1.206
 6186TIP3    H118564   5.615   5.225   1.182
 6186TIP3    H218565   5.534   5.103   1.142
 6187TIP3   OH218566   2.442   2.484   0.461
 6187TIP3    H118567   2.391   2.512   0.385
 6187TIP3    H218568   2.402   2.530   0.535
 6188TIP3   OH218569   2.605  -0.027   2.596
 6188TIP3    H118570   2.626   0.052   2.645
 6188TIP3    H218571   2.545  -0.076   2.652
 6189TIP3   OH218572   3.238   1.260   0.638
 6189TIP3    H118573   3.195   1.176   0.656
 6189TIP3    H218574   3.244   1.264   0.543
 6190TIP3   OH218575   4.109   0.030   3.249
 6190TIP3    H118576   4.038  -0.010   3.199
 6190TIP3    H218577   4.139   0.102   3.194
 6191TIP3   OH218578   1.693   1.522   3.520
 6191TIP3    H118579   1.703   1.616   3.505
 6191TIP3    H218580   1.781   1.491   3.541
 6192TIP3   OH218581   2.779   5.657   4.701
 6192TIP3    H118582   2.815   5.648   4.613
 6192TIP3    H218583   2.685   5.642   4.691
 6193TIP3   OH218584   5.830   1.633   5.001
 6193TIP3    H118585   5.924   1.642   4.987
 6193TIP3    H218586   5.822   1.603   5.091
 6194TIP3   OH218587   1.934   1.693   0.064
 6194TIP3    H118588   1.901   1.779   0.038
 6194TIP3    H218589   1.995   1.712   0.135
 6195TIP3   OH218590   0.333   1.923   5.174
 6195TIP3    H118591   0.379   1.839   5.169
 6195TIP3    H218592   0.248   1.905   5.133
 6196TIP3   OH218593   1.561   0.415   0.937
 6196TIP3    H118594   1.621   0.372   0.877
 6196TIP3    H218595   1.617   0.467   0.994
 6197TIP3   OH218596   0.529   5.496   4.050
 6197TIP3    H118597   0.576   5.457   3.976
 6197TIP3    H218598   0.440   5.460   4.044
 6198TIP3   OH218599   4.606   1.478   2.241
 6198TIP3    H118600   4.680   1.532   2.213
 6198TIP3    H218601   4.639   1.430   2.316
 6199TIP3   OH218602   4.454   3.968   3.906
 6199TIP3    H118603   4.491   3.906   3.968
 6199TIP3    H218604   4.492   4.053   3.930
 6200TIP3   OH218605   0.279   0.227   3.720
 6200TIP3    H118606   0.365   0.268   3.715
 6200TIP3    H218607   0.223   0.294   3.761
 6201TIP3   OH218608   0.685   4.360   2.935
 6201TIP3    H118609   0.671   4.426   2.867
 6201TIP3    H218610   0.659   4.277   2.894
 6202TIP3   OH218611   3.170   0.414   4.072
 6202TIP3    H118612   3.212   0.369   4.145
 6202TIP3    H218613   3.121   0.486   4.113
 6203TIP3   OH218614   5.122   2.289   0.803
 6203TIP3    H118615   5.171   2.354   0.754
 6203TIP3    H218616   5.124   2.211   0.748
 6204TIP3   OH218617   4.735   4.600   2.062
 6204TIP3    H118618   4.662   4.576   2.004
 6204TIP3    H218619   4.741   4.528   2.125
 6205TIP3   OH218620   2.148   5.264   2.763
 6205TIP3    H118621   2.100   5.195   2.718
 6205TIP3    H218622   2.084   5.306   2.820
 6206TIP3   OH218623   2.132   2.580   2.155
 6206TIP3    H118624   2.226   2.590   2.146
 6206TIP3    H218625   2.106   2.524   2.082
 6207TIP3   OH218626   4.720   4.239   1.703
 6207TIP3    H118627   4.672   4.163   1.671
 6207TIP3    H218628   4.805   4.205   1.730
 6208TIP3   OH218629   0.981   4.827   5.115
 6208TIP3    H118630   1.025   4.893   5.061
 6208TIP3    H218631   0.920   4.784   5.055
 6209TIP3   OH218632   3.297   2.870   0.262
 6209TIP3    H118633   3.308   2.855   0.355
 6209TIP3    H218634   3.266   2.786   0.227
 6210TIP3   OH218635   6.008   0.246   0.195
 6210TIP3    H118636   5.936   0.243   0.258
 6210TIP3    H218637   6.043   0.335   0.203
 6211TIP3   OH218638   2.712   3.376   5.021
 6211TIP3    H118639   2.694   3.422   5.102
 6211TIP3    H218640   2.649   3.411   4.958
 6212TIP3   OH218641   5.307   5.875   4.807
 6212TIP3    H118642   5.247   5.944   4.782
 6212TIP3    H218643   5.375   5.875   4.739
 6213TIP3   OH218644   2.263   3.581   0.479
 6213TIP3    H118645   2.216   3.642   0.535
 6213TIP3    H218646   2.321   3.636   0.426
 6214TIP3   OH218647   1.663   1.588   0.419
 6214TIP3    H118648   1.728   1.647   0.457
 6214TIP3    H218649   1.714   1.516   0.382
 6215TIP3   OH218650   4.162   2.050   2.951
 6215TIP3    H118651   4.081   2.043   2.900
 6215TIP3    H218652   4.166   1.969   3.002
 6216TIP3   OH218653   1.015   4.480   3.391
 6216TIP3    H118654   0.948   4.517   3.334
 6216TIP3    H218655   1.082   4.447   3.331
 6217TIP3   OH218656   1.541   4.261   1.796
 6217TIP3    H118657   1.539   4.166   1.783
 6217TIP3    H218658   1.614   4.276   1.856
 6218TIP3   OH218659   4.480   1.241   1.134
 6218TIP3    H118660   4.451   1.322   1.175
 6218TIP3    H218661   4.502   1.266   1.044
 6219TIP3   OH218662   4.234   3.006   2.134
 6219TIP3    H118663   4.295   3.063   2.088
 6219TIP3    H218664   4.280   2.923   2.144
 6220TIP3   OH218665   0.129   3.860   1.213
 6220TIP3    H118666   0.037   3.887   1.219
 6220TIP3    H218667   0.171   3.899   1.290
 6221TIP3   OH218668   5.372   2.235   4.889
 6221TIP3    H118669   5.296   2.291   4.908
 6221TIP3    H218670   5.348   2.190   4.808
 6222TIP3   OH218671   2.155   3.766   3.547
 6222TIP3    H118672   2.168   3.835   3.612
 6222TIP3    H218673   2.200   3.690   3.582
 6223TIP3   OH218674   5.278   4.011   1.192
 6223TIP3    H118675   5.338   4.081   1.165
 6223TIP3    H218676   5.312   3.933   1.148
 6224TIP3   OH218677   0.676   1.666   0.904
 6224TIP3    H118678   0.762   1.688   0.939
 6224TIP3    H218679   0.617   1.674   0.980
 6225TIP3   OH218680   3.001   4.077   4.735
 6225TIP3    H118681   2.961   4.142   4.676
 6225TIP3    H218682   3.062   4.128   4.788
 6226TIP3   OH218683   3.697   5.184   4.532
 6226TIP3    H118684   3.732   5.252   4.589
 6226TIP3    H218685   3.608   5.169   4.565
 6227TIP3   OH218686   4.957   0.115   3.614
 6227TIP3    H118687   4.914   0.149   3.535
 6227TIP3    H218688   5.016   0.186   3.641
 6228TIP3   OH218689   5.276   4.649   2.067
 6228TIP3    H118690   5.183   4.663   2.050
 6228TIP3    H218691   5.314   4.737   2.066
 6229TIP3   OH218692   5.102   2.387   1.901
 6229TIP3    H118693   5.164   2.419   1.966
 6229TIP3    H218694   5.017   2.421   1.931
 6230TIP3   OH218695   4.907   2.480   3.670
 6230TIP3    H118696   4.969   2.408   3.672
 6230TIP3    H218697   4.832   2.445   3.622
 6231TIP3   OH218698   6.250   3.768   1.049
 6231TIP3    H118699   6.161   3.757   1.015
 6231TIP3    H218700   6.248   3.724   1.134
 6232TIP3   OH218701   2.394   5.690   0.912
 6232TIP3    H118702   2.476   5.733   0.886
 6232TIP3    H218703   2.405   5.599   0.885
 6233TIP3   OH218704   0.737   1.328   2.375
 6233TIP3    H118705   0.787   1.401   2.337
 6233TIP3    H218706   0.783   1.250   2.344
 6234TIP3   OH218707   0.786   2.780   3.397
 6234TIP3    H118708   0.874   2.770   3.360
 6234TIP3    H218709   0.741   2.837   3.334
 6235TIP3   OH218710   0.242   3.458   2.410
 6235TIP3    H118711   0.176   3.462   2.340
 6235TIP3    H218712   0.191   3.451   2.490
 6236TIP3   OH218713   2.007   2.498   0.302
 6236TIP3    H118714   2.065   2.555   0.252
 6236TIP3    H218715   1.930   2.488   0.246
 6237TIP3   OH218716   2.791   1.820   1.383
 6237TIP3    H118717   2.767   1.746   1.327
 6237TIP3    H218718   2.707   1.858   1.408
 6238TIP3   OH218719   6.377   2.037   4.064
 6238TIP3    H118720   6.329   1.954   4.066
 6238TIP3    H218721   6.386   2.058   3.971
 6239TIP3   OH218722   3.087   4.643   1.711
 6239TIP3    H118723   3.182   4.657   1.713
 6239TIP3    H218724   3.058   4.664   1.800
 6240TIP3   OH218725   4.758   2.244   0.331
 6240TIP3    H118726   4.722   2.332   0.325
 6240TIP3    H218727   4.795   2.227   0.245
 6241TIP3   OH218728   5.856   0.728   3.942
 6241TIP3    H118729   5.845   0.634   3.925
 6241TIP3    H218730   5.776   0.768   3.909
 6242TIP3   OH218731   1.109   3.417   1.434
 6242TIP3    H118732   1.058   3.345   1.396
 6242TIP3    H218733   1.184   3.426   1.375
 6243TIP3   OH218734   3.144   0.128   2.278
 6243TIP3    H118735   3.209   0.194   2.299
 6243TIP3    H218736   3.086   0.171   2.215
 6244TIP3   OH218737   2.686   5.699   0.907
 6244TIP3    H118738   2.742   5.738   0.840
 6244TIP3    H218739   2.747   5.669   0.974
 6245TIP3   OH218740   4.319   0.158   0.359
 6245TIP3    H118741   4.378   0.207   0.302
 6245TIP3    H218742   4.241   0.142   0.306
 6246TIP3   OH218743   4.036   3.368   0.582
 6246TIP3    H118744   4.043   3.399   0.673
 6246TIP3    H218745   4.125   3.377   0.547
 6247TIP3   OH218746   1.103   1.041   4.401
 6247TIP3    H118747   1.033   1.035   4.337
 6247TIP3    H218748   1.069   1.101   4.468
 6248TIP3   OH218749   2.043   1.966   2.679
 6248TIP3    H118750   1.997   1.976   2.763
 6248TIP3    H218751   1.987   2.012   2.616
 6249TIP3   OH218752   2.338   2.004   3.671
 6249TIP3    H118753   2.312   1.980   3.760
 6249TIP3    H218754   2.421   1.957   3.659
 6250TIP3   OH218755   5.593   0.338   0.054
 6250TIP3    H118756   5.657   0.329  -0.017
 6250TIP3    H218757   5.610   0.424   0.091
 6251TIP3   OH218758   6.165   0.280   3.847
 6251TIP3    H118759   6.126   0.316   3.767
 6251TIP3    H218760   6.217   0.206   3.816
 6252TIP3   OH218761   0.487   0.578   1.310
 6252TIP3    H118762   0.394   0.594   1.294
 6252TIP3    H218763   0.494   0.484   1.321
 6253TIP3   OH218764   5.826   0.612   0.907
 6253TIP3    H118765   5.758   0.651   0.963
 6253TIP3    H218766   5.782   0.597   0.823
 6254TIP3   OH218767   1.106   0.112   3.955
 6254TIP3    H118768   1.129   0.185   4.013
 6254TIP3    H218769   1.010   0.108   3.961
 6255TIP3   OH218770   4.605   3.110   0.256
 6255TIP3    H118771   4.607   3.101   0.351
 6255TIP3    H218772   4.625   3.203   0.240
 6256TIP3   OH218773   5.444   1.045   3.577
 6256TIP3    H118774   5.380   1.020   3.643
 6256TIP3    H218775   5.520   0.990   3.596
 6257TIP3   OH218776   2.447   5.565   2.211
 6257TIP3    H118777   2.429   5.570   2.117
 6257TIP3    H218778   2.402   5.640   2.248
 6258TIP3   OH218779   1.106   0.609   4.125
 6258TIP3    H118780   1.060   0.593   4.042
 6258TIP3    H218781   1.044   0.582   4.192
 6259TIP3   OH218782   2.661   3.183   4.726
 6259TIP3    H118783   2.619   3.097   4.730
 6259TIP3    H218784   2.626   3.231   4.800
 6260TIP3   OH218785   5.431   5.557   0.708
 6260TIP3    H118786   5.491   5.625   0.676
 6260TIP3    H218787   5.487   5.482   0.724
 6261TIP3   OH218788   4.620   3.858   4.092
 6261TIP3    H118789   4.684   3.802   4.048
 6261TIP3    H218790   4.599   3.811   4.173
 6262TIP3   OH218791   1.579   2.914   2.243
 6262TIP3    H118792   1.658   2.866   2.219
 6262TIP3    H218793   1.545   2.947   2.160
 6263TIP3   OH218794   1.615   1.436   4.838
 6263TIP3    H118795   1.576   1.475   4.916
 6263TIP3    H218796   1.617   1.342   4.857
 6264TIP3   OH218797   4.651   5.567   4.928
 6264TIP3    H118798   4.666   5.604   5.015
 6264TIP3    H218799   4.737   5.533   4.901
 6265TIP3   OH218800   2.815   1.422   3.222
 6265TIP3    H118801   2.799   1.446   3.131
 6265TIP3    H218802   2.895   1.469   3.245
 6266TIP3   OH218803   3.381   2.790   0.809
 6266TIP3    H118804   3.475   2.772   0.813
 6266TIP3    H218805   3.370   2.837   0.727
 6267TIP3   OH218806   4.589   0.781   4.877
 6267TIP3    H118807   4.494   0.792   4.890
 6267TIP3    H218808   4.613   0.712   4.940
 6268TIP3   OH218809   5.806   1.709   2.903
 6268TIP3    H118810   5.729   1.748   2.945
 6268TIP3    H218811   5.770   1.666   2.825
 6269TIP3   OH218812   0.260   0.583   4.772
 6269TIP3    H118813   0.354   0.567   4.762
 6269TIP3    H218814   0.221   0.495   4.770
 6270TIP3   OH218815   2.271   0.132   1.404
 6270TIP3    H118816   2.295   0.126   1.497
 6270TIP3    H218817   2.190   0.182   1.403
 6271TIP3   OH218818   2.917   5.469   4.476
 6271TIP3    H118819   3.003   5.510   4.478
 6271TIP3    H218820   2.898   5.448   4.567
 6272TIP3   OH218821   5.534   3.121   2.647
 6272TIP3    H118822   5.444   3.148   2.625
 6272TIP3    H218823   5.533   3.111   2.742
 6273TIP3   OH218824   1.034   3.053   0.745
 6273TIP3    H118825   1.038   3.020   0.835
 6273TIP3    H218826   1.065   2.979   0.691
 6274TIP3   OH218827   0.614   4.132   2.778
 6274TIP3    H118828   0.569   4.188   2.714
 6274TIP3    H218829   0.558   4.055   2.786
 6275TIP3   OH218830   0.429   1.132   1.176
 6275TIP3    H118831   0.465   1.160   1.260
 6275TIP3    H218832   0.396   1.213   1.136
 6276TIP3   OH218833   5.766   4.569   4.482
 6276TIP3    H118834   5.842   4.575   4.540
 6276TIP3    H218835   5.694   4.607   4.533
 6277TIP3   OH218836   0.247   5.918   3.403
 6277TIP3    H118837   0.329   5.947   3.442
 6277TIP3    H218838   0.254   5.943   3.310
 6278TIP3   OH218839   5.247   5.505   2.053
 6278TIP3    H118840   5.295   5.588   2.059
 6278TIP3    H218841   5.257   5.478   1.962
 6279TIP3   OH218842   5.294   5.077   0.697
 6279TIP3    H118843   5.385   5.053   0.713
 6279TIP3    H218844   5.295   5.116   0.610
 6280TIP3   OH218845   3.369   4.701   3.963
 6280TIP3    H118846   3.287   4.654   3.974
 6280TIP3    H218847   3.345   4.794   3.962
 6281TIP3   OH218848   5.662   5.775   0.397
 6281TIP3    H118849   5.666   5.686   0.362
 6281TIP3    H218850   5.653   5.764   0.491
 6282TIP3   OH218851   1.060   4.196   0.365
 6282TIP3    H118852   1.074   4.227   0.454
 6282TIP3    H218853   0.966   4.182   0.359
 6283TIP3   OH218854   4.446   1.730   1.436
 6283TIP3    H118855   4.455   1.658   1.372
 6283TIP3    H218856   4.471   1.808   1.387
 6284TIP3   OH218857   3.039   3.541   4.738
 6284TIP3    H118858   3.064   3.632   4.725
 6284TIP3    H218859   3.121   3.497   4.762
 6285TIP3   OH218860   3.525   2.088   0.923
 6285TIP3    H118861   3.458   2.136   0.972
 6285TIP3    H218862   3.476   2.028   0.867
 6286TIP3   OH218863   5.567   3.172   0.828
 6286TIP3    H118864   5.584   3.176   0.734
 6286TIP3    H218865   5.483   3.216   0.839
 6287TIP3   OH218866   0.177   5.769   0.646
 6287TIP3    H118867   0.238   5.696   0.656
 6287TIP3    H218868   0.094   5.735   0.678
 6288TIP3   OH218869   0.019   2.404   2.375
 6288TIP3    H118870   0.036   2.364   2.291
 6288TIP3    H218871   0.075   2.357   2.437
 6289TIP3   OH218872   3.816   2.094   2.461
 6289TIP3    H118873   3.785   2.029   2.399
 6289TIP3    H218874   3.888   2.050   2.507
 6290TIP3   OH218875   1.458   2.981   0.525
 6290TIP3    H118876   1.376   2.959   0.480
 6290TIP3    H218877   1.436   2.976   0.618
 6291TIP3   OH218878   5.514   1.939   0.560
 6291TIP3    H118879   5.602   1.930   0.596
 6291TIP3    H218880   5.470   1.858   0.586
 6292TIP3   OH218881   2.127   0.079   0.712
 6292TIP3    H118882   2.093   0.072   0.623
 6292TIP3    H218883   2.202   0.139   0.704
 6293TIP3   OH218884   4.329   4.379   3.191
 6293TIP3    H118885   4.243   4.405   3.226
 6293TIP3    H218886   4.322   4.284   3.179
 6294TIP3   OH218887   2.951   4.789   3.400
 6294TIP3    H118888   3.039   4.798   3.436
 6294TIP3    H218889   2.897   4.759   3.474
 6295TIP3   OH218890   5.819   2.177   0.600
 6295TIP3    H118891   5.834   2.093   0.643
 6295TIP3    H218892   5.727   2.197   0.619
 6296TIP3   OH218893   5.029   2.345   2.762
 6296TIP3    H118894   4.945   2.355   2.715
 6296TIP3    H218895   5.018   2.265   2.813
 6297TIP3   OH218896   4.329   2.755   2.069
 6297TIP3    H118897   4.402   2.694   2.081
 6297TIP3    H218898   4.254   2.699   2.049
 6298TIP3   OH218899   2.046   2.372   2.339
 6298TIP3    H118900   2.054   2.429   2.262
 6298TIP3    H218901   2.135   2.361   2.371
 6299TIP3   OH218902   3.687   1.495   1.089
 6299TIP3    H118903   3.629   1.514   1.163
 6299TIP3    H218904   3.739   1.574   1.078
 6300TIP3   OH218905   5.287   3.900   4.673
 6300TIP3    H118906   5.272   3.878   4.765
 6300TIP3    H218907   5.236   3.836   4.624
 6301TIP3   OH218908   0.344   0.125   1.460
 6301TIP3    H118909   0.430   0.101   1.425
 6301TIP3    H218910   0.343   0.089   1.549
 6302TIP3   OH218911   3.166   3.694   0.225
 6302TIP3    H118912   3.224   3.619   0.238
 6302TIP3    H218913   3.078   3.656   0.217
 6303TIP3   OH218914   1.721   0.947   3.302
 6303TIP3    H118915   1.639   0.964   3.257
 6303TIP3    H218916   1.782   1.011   3.266
 6304TIP3   OH218917   5.586   5.639   4.231
 6304TIP3    H118918   5.540   5.710   4.185
 6304TIP3    H218919   5.555   5.646   4.321
 6305TIP3   OH218920   4.566   5.916   2.913
 6305TIP3    H118921   4.603   5.884   2.996
 6305TIP3    H218922   4.481   5.872   2.906
 6306TIP3   OH218923   5.531   4.021   1.485
 6306TIP3    H118924   5.603   4.032   1.424
 6306TIP3    H218925   5.553   3.941   1.533
 6307TIP3   OH218926   1.005   4.566   2.915
 6307TIP3    H118927   1.095   4.588   2.893
 6307TIP3    H218928   0.955   4.646   2.897
 6308TIP3   OH218929   3.564   4.557   0.345
 6308TIP3    H118930   3.636   4.508   0.306
 6308TIP3    H218931   3.505   4.575   0.273
 6309TIP3   OH218932   6.121   0.242   1.476
 6309TIP3    H118933   6.155   0.198   1.553
 6309TIP3    H218934   6.184   0.222   1.407
 6310TIP3   OH218935   3.435   2.457   0.806
 6310TIP3    H118936   3.443   2.512   0.728
 6310TIP3    H218937   3.342   2.435   0.810
 6311TIP3   OH218938   1.212   5.835   0.319
 6311TIP3    H118939   1.120   5.841   0.295
 6311TIP3    H218940   1.252   5.782   0.249
 6312TIP3   OH218941   3.681   4.147   2.826
 6312TIP3    H118942   3.767   4.179   2.853
 6312TIP3    H218943   3.686   4.052   2.835
 6313TIP3   OH218944   3.708   0.117   4.470
 6313TIP3    H118945   3.721   0.206   4.503
 6313TIP3    H218946   3.696   0.127   4.376
 6314TIP3   OH218947   2.068   0.194   4.471
 6314TIP3    H118948   2.128   0.137   4.519
 6314TIP3    H218949   2.125   0.258   4.427
 6315TIP3   OH218950   3.869   3.762   4.134
 6315TIP3    H118951   3.849   3.809   4.053
 6315TIP3    H218952   3.939   3.814   4.175
 6316TIP3   OH218953   2.689   0.612   5.185
 6316TIP3    H118954   2.597   0.588   5.199
 6316TIP3    H218955   2.739   0.537   5.218
 6317TIP3   OH218956   5.431   0.741   4.211
 6317TIP3    H118957   5.469   0.822   4.245
 6317TIP3    H218958   5.393   0.699   4.287
 6318TIP3   OH218959   5.923   5.573   2.281
 6318TIP3    H118960   5.875   5.508   2.229
 6318TIP3    H218961   5.910   5.545   2.372
 6319TIP3   OH218962   5.183   0.406   3.030
 6319TIP3    H118963   5.215   0.329   3.076
 6319TIP3    H218964   5.168   0.471   3.098
 6320TIP3   OH218965   4.635   3.644   2.731
 6320TIP3    H118966   4.631   3.560   2.685
 6320TIP3    H218967   4.546   3.658   2.764
 6321TIP3   OH218968   6.323   0.473   3.636
 6321TIP3    H118969   6.376   0.549   3.612
 6321TIP3    H218970   6.252   0.472   3.572
 6322TIP3   OH218971   3.074   4.643   2.005
 6322TIP3    H118972   2.994   4.674   2.045
 6322TIP3    H218973   3.136   4.632   2.077
 6323TIP3   OH218974   1.005   5.824   1.579
 6323TIP3    H118975   0.927   5.879   1.576
 6323TIP3    H218976   1.018   5.806   1.672
 6324TIP3   OH218977   2.659   5.092   1.229
 6324TIP3    H118978   2.590   5.029   1.209
 6324TIP3    H218979   2.657   5.101   1.324
 6325TIP3   OH218980   3.503   5.946   5.078
 6325TIP3    H118981   3.594   5.921   5.095
 6325TIP3    H218982   3.505   5.985   4.991
 6326TIP3   OH218983   0.650   0.865   3.436
 6326TIP3    H118984   0.660   0.807   3.512
 6326TIP3    H218985   0.726   0.923   3.440
 6327TIP3   OH218986   6.260   5.608   3.192
 6327TIP3    H118987   6.258   5.691   3.146
 6327TIP3    H218988   6.225   5.545   3.129
 6328TIP3   OH218989   6.326   3.397   2.825
 6328TIP3    H118990   6.327   3.485   2.862
 6328TIP3    H218991   6.247   3.357   2.860
 6329TIP3   OH218992   5.135   1.886   2.060
 6329TIP3    H118993   5.087   1.910   1.981
 6329TIP3    H218994   5.189   1.963   2.080
 6330TIP3   OH218995   0.597   0.938  -0.001
 6330TIP3    H118996   0.676   0.991   0.008
 6330TIP3    H218997   0.542   0.964   0.073
 6331TIP3   OH218998   1.568   3.319   0.150
 6331TIP3    H118999   1.546   3.354   0.237
 6331TIP3    H219000   1.489   3.273   0.122
 6332TIP3   OH219001   5.838   6.013   0.356
 6332TIP3    H119002   5.905   6.015   0.287
 6332TIP3    H219003   5.826   5.920   0.374
 6333TIP3   OH219004   2.324   2.311   0.075
 6333TIP3    H119005   2.382   2.369   0.123
 6333TIP3    H219006   2.261   2.369   0.032
 6334TIP3   OH219007   0.707   1.961   2.630
 6334TIP3    H119008   0.782   1.909   2.602
 6334TIP3    H219009   0.745   2.036   2.675
 6335TIP3   OH219010   5.415   2.484   0.946
 6335TIP3    H119011   5.511   2.482   0.950
 6335TIP3    H219012   5.390   2.393   0.926
 6336TIP3   OH219013   5.467   2.744   3.787
 6336TIP3    H119014   5.410   2.689   3.733
 6336TIP3    H219015   5.492   2.688   3.860
 6337TIP3   OH219016   6.183   3.299   2.552
 6337TIP3    H119017   6.251   3.269   2.612
 6337TIP3    H219018   6.131   3.361   2.602
 6338TIP3   OH219019   0.154   2.195   0.998
 6338TIP3    H119020   0.153   2.286   1.027
 6338TIP3    H219021   0.063   2.166   1.005
 6339TIP3   OH219022   4.010   1.163   0.125
 6339TIP3    H119023   4.053   1.244   0.154
 6339TIP3    H219024   3.927   1.161   0.172
 6340TIP3   OH219025   4.118   5.381   2.266
 6340TIP3    H119026   4.195   5.378   2.209
 6340TIP3    H219027   4.115   5.471   2.298
 6341TIP3   OH219028   4.814   3.740   0.360
 6341TIP3    H119029   4.864   3.818   0.335
 6341TIP3    H219030   4.877   3.687   0.410
 6342TIP3   OH219031   3.803   2.492   4.645
 6342TIP3    H119032   3.786   2.512   4.737
 6342TIP3    H219033   3.874   2.551   4.619
 6343TIP3   OH219034   4.658   2.796   5.221
 6343TIP3    H119035   4.745   2.761   5.239
 6343TIP3    H219036   4.674   2.880   5.177
 6344TIP3   OH219037   2.953   4.498   4.709
 6344TIP3    H119038   2.932   4.427   4.649
 6344TIP3    H219039   3.013   4.459   4.773
 6345TIP3   OH219040   4.271   3.966   1.114
 6345TIP3    H119041   4.225   3.923   1.186
 6345TIP3    H219042   4.298   3.895   1.057
 6346TIP3   OH219043   5.091   4.278   1.541
 6346TIP3    H119044   5.067   4.371   1.544
 6346TIP3    H219045   5.186   4.278   1.526
 6347TIP3   OH219046   3.529   1.638   1.277
 6347TIP3    H119047   3.456   1.615   1.335
 6347TIP3    H219048   3.547   1.730   1.296
 6348TIP3   OH219049   0.549   5.613   0.383
 6348TIP3    H119050   0.546   5.526   0.422
 6348TIP3    H219051   0.535   5.673   0.457
 6349TIP3   OH219052   0.115   2.300   4.344
 6349TIP3    H119053   0.091   2.339   4.428
 6349TIP3    H219054   0.033   2.262   4.311
 6350TIP3   OH219055   4.928   5.809   2.641
 6350TIP3    H119056   5.022   5.821   2.623
 6350TIP3    H219057   4.907   5.879   2.703
 6351TIP3   OH219058   2.429   0.331   2.911
 6351TIP3    H119059   2.378   0.268   2.963
 6351TIP3    H219060   2.365   0.373   2.854
 6352TIP3   OH219061   1.304   1.805   0.825
 6352TIP3    H119062   1.262   1.876   0.874
 6352TIP3    H219063   1.398   1.823   0.831
 6353TIP3   OH219064   1.296   3.845   2.437
 6353TIP3    H119065   1.220   3.823   2.491
 6353TIP3    H219066   1.346   3.764   2.433
 6354TIP3   OH219067   1.401   5.838   3.672
 6354TIP3    H119068   1.473   5.895   3.699
 6354TIP3    H219069   1.361   5.883   3.598
 6355TIP3   OH219070   3.164   3.397   1.176
 6355TIP3    H119071   3.136   3.479   1.134
 6355TIP3    H219072   3.244   3.373   1.129
 6356TIP3   OH219073   4.832   5.702   0.531
 6356TIP3    H119074   4.752   5.715   0.583
 6356TIP3    H219075   4.831   5.609   0.508
 6357TIP3   OH219076   5.174   5.070   3.964
 6357TIP3    H119077   5.128   4.991   3.938
 6357TIP3    H219078   5.267   5.051   3.947
 6358TIP3   OH219079   0.328   2.807   4.133
 6358TIP3    H119080   0.311   2.713   4.134
 6358TIP3    H219081   0.411   2.817   4.086
 6359TIP3   OH219082   1.711   2.620   5.009
 6359TIP3    H119083   1.707   2.678   5.084
 6359TIP3    H219084   1.656   2.662   4.943
 6360TIP3   OH219085   5.173   4.899   1.658
 6360TIP3    H119086   5.160   4.943   1.573
 6360TIP3    H219087   5.124   4.952   1.720
 6361TIP3   OH219088   3.634   5.630   1.417
 6361TIP3    H119089   3.673   5.671   1.340
 6361TIP3    H219090   3.708   5.596   1.467
 6362TIP3   OH219091   2.186   4.435   4.403
 6362TIP3    H119092   2.126   4.417   4.475
 6362TIP3    H219093   2.272   4.444   4.445
 6363TIP3   OH219094   4.302   4.867   2.304
 6363TIP3    H119095   4.368   4.876   2.373
 6363TIP3    H219096   4.313   4.945   2.249
 6364TIP3   OH219097   3.627   5.705   2.544
 6364TIP3    H119098   3.652   5.795   2.567
 6364TIP3    H219099   3.610   5.708   2.450
 6365TIP3   OH219100   3.288   4.284   2.942
 6365TIP3    H119101   3.371   4.318   2.908
 6365TIP3    H219102   3.226   4.357   2.931
 6366TIP3   OH219103   1.070   3.439   0.410
 6366TIP3    H119104   1.061   3.507   0.477
 6366TIP3    H219105   1.162   3.413   0.414
 6367TIP3   OH219106   2.370   5.882   1.684
 6367TIP3    H119107   2.399   5.838   1.763
 6367TIP3    H219108   2.425   5.960   1.677
 6368TIP3   OH219109   3.049   0.273   0.717
 6368TIP3    H119110   3.065   0.224   0.797
 6368TIP3    H219111   2.979   0.333   0.739
 6369TIP3   OH219112   2.392   5.038   3.746
 6369TIP3    H119113   2.406   5.123   3.789
 6369TIP3    H219114   2.349   4.985   3.812
 6370TIP3   OH219115   3.699   5.666   1.772
 6370TIP3    H119116   3.647   5.723   1.715
 6370TIP3    H219117   3.633   5.617   1.822
 6371TIP3   OH219118   3.161   3.993   0.588
 6371TIP3    H119119   3.128   3.994   0.499
 6371TIP3    H219120   3.245   4.039   0.583
 6372TIP3   OH219121   5.957   2.308   3.173
 6372TIP3    H119122   5.863   2.320   3.189
 6372TIP3    H219123   5.972   2.214   3.185
 6373TIP3   OH219124   0.463   5.052   4.005
 6373TIP3    H119125   0.448   5.113   4.078
 6373TIP3    H219126   0.387   5.063   3.948
 6374TIP3   OH219127   3.735   4.357   0.220
 6374TIP3    H119128   3.704   4.278   0.265
 6374TIP3    H219129   3.797   4.324   0.155
 6375TIP3   OH219130   5.339   0.171   0.053
 6375TIP3    H119131   5.428   0.196   0.029
 6375TIP3    H219132   5.309   0.241   0.111
 6376TIP3   OH219133   0.424   3.962   2.107
 6376TIP3    H119134   0.470   3.934   2.186
 6376TIP3    H219135   0.371   3.886   2.082
 6377TIP3   OH219136   0.395   2.367   2.170
 6377TIP3    H119137   0.475   2.385   2.220
 6377TIP3    H219138   0.411   2.280   2.132
 6378TIP3   OH219139   1.926   3.090   4.189
 6378TIP3    H119140   1.911   3.159   4.124
 6378TIP3    H219141   1.957   3.015   4.138
 6379TIP3   OH219142   5.479   0.964   0.854
 6379TIP3    H119143   5.518   0.949   0.768
 6379TIP3    H219144   5.395   0.919   0.851
 6380TIP3   OH219145   2.294   1.303   4.175
 6380TIP3    H119146   2.254   1.250   4.106
 6380TIP3    H219147   2.388   1.293   4.162
 6381TIP3   OH219148   0.802   5.740   3.347
 6381TIP3    H119149   0.712   5.735   3.381
 6381TIP3    H219150   0.792   5.781   3.261
 6382TIP3   OH219151   2.058   2.728   0.490
 6382TIP3    H119152   1.964   2.718   0.505
 6382TIP3    H219153   2.066   2.730   0.394
 6383TIP3   OH219154   3.044   0.056   4.340
 6383TIP3    H119155   3.126   0.017   4.311
 6383TIP3    H219156   3.031   0.131   4.281
 6384TIP3   OH219157   0.187   1.096   2.298
 6384TIP3    H119158   0.121   1.150   2.254
 6384TIP3    H219159   0.191   1.016   2.247
 6385TIP3   OH219160   3.960   1.856   3.480
 6385TIP3    H119161   3.877   1.819   3.510
 6385TIP3    H219162   3.936   1.940   3.441
 6386TIP3   OH219163   5.529   3.651   4.172
 6386TIP3    H119164   5.434   3.657   4.176
 6386TIP3    H219165   5.560   3.684   4.256
 6387TIP3   OH219166   3.888   2.000   1.530
 6387TIP3    H119167   3.897   2.096   1.527
 6387TIP3    H219168   3.908   1.977   1.620
 6388TIP3   OH219169   3.933   3.369   4.104
 6388TIP3    H119170   4.010   3.426   4.109
 6388TIP3    H219171   3.933   3.321   4.187
 6389TIP3   OH219172   5.026   5.436   2.181
 6389TIP3    H119173   5.101   5.439   2.121
 6389TIP3    H219174   4.961   5.495   2.143
 6390TIP3   OH219175   1.827   3.731   1.552
 6390TIP3    H119176   1.858   3.653   1.506
 6390TIP3    H219177   1.760   3.768   1.495
 6391TIP3   OH219178   2.737   1.843   0.212
 6391TIP3    H119179   2.764   1.794   0.135
 6391TIP3    H219180   2.789   1.924   0.209
 6392TIP3   OH219181   2.455   1.936   1.203
 6392TIP3    H119182   2.487   1.937   1.293
 6392TIP3    H219183   2.362   1.915   1.210
 6393TIP3   OH219184   5.225   0.799   0.828
 6393TIP3    H119185   5.158   0.867   0.822
 6393TIP3    H219186   5.237   0.768   0.738
 6394TIP3   OH219187   3.440   2.170   2.349
 6394TIP3    H119188   3.413   2.089   2.392
 6394TIP3    H219189   3.380   2.236   2.383
 6395TIP3   OH219190   1.917   5.887   3.521
 6395TIP3    H119191   1.860   5.837   3.462
 6395TIP3    H219192   1.989   5.917   3.465
 6396TIP3   OH219193   4.980   0.870   3.392
 6396TIP3    H119194   4.983   0.822   3.309
 6396TIP3    H219195   5.071   0.872   3.421
 6397TIP3   OH219196   3.929   1.606   4.824
 6397TIP3    H119197   3.956   1.518   4.850
 6397TIP3    H219198   3.952   1.662   4.898
 6398TIP3   OH219199   4.751   5.859   4.094
 6398TIP3    H119200   4.684   5.918   4.060
 6398TIP3    H219201   4.736   5.777   4.047
 6399TIP3   OH219202   1.411   1.157   1.215
 6399TIP3    H119203   1.435   1.193   1.300
 6399TIP3    H219204   1.415   1.232   1.155
 6400TIP3   OH219205   0.256   5.428   1.151
 6400TIP3    H119206   0.274   5.491   1.081
 6400TIP3    H219207   0.223   5.482   1.223
 6401TIP3   OH219208   0.484   1.378   3.832
 6401TIP3    H119209   0.533   1.329   3.898
 6401TIP3    H219210   0.505   1.336   3.749
 6402TIP3   OH219211   0.403   0.420   4.307
 6402TIP3    H119212   0.309   0.405   4.296
 6402TIP3    H219213   0.425   0.376   4.389
 6403TIP3   OH219214   1.618   3.707   3.181
 6403TIP3    H119215   1.696   3.763   3.173
 6403TIP3    H219216   1.653   3.618   3.177
 6404TIP3   OH219217   2.797   4.546   0.094
 6404TIP3    H119218   2.793   4.641   0.084
 6404TIP3    H219219   2.722   4.513   0.045
 6405TIP3   OH219220   3.762   3.237   3.918
 6405TIP3    H119221   3.807   3.284   3.989
 6405TIP3    H219222   3.831   3.219   3.854
 6406TIP3   OH219223   1.737   2.827   3.164
 6406TIP3    H119224   1.701   2.739   3.176
 6406TIP3    H219225   1.762   2.856   3.251
 6407TIP3   OH219226   3.742   3.311   4.783
 6407TIP3    H119227   3.810   3.375   4.803
 6407TIP3    H219228   3.673   3.328   4.847
 6408TIP3   OH219229   3.532   3.245   0.530
 6408TIP3    H119230   3.569   3.321   0.485
 6408TIP3    H219231   3.441   3.242   0.500
 6409TIP3   OH219232   1.798   0.146   4.425
 6409TIP3    H119233   1.759   0.194   4.353
 6409TIP3    H219234   1.891   0.167   4.421
 6410TIP3   OH219235   4.887   5.672   3.475
 6410TIP3    H119236   4.951   5.649   3.543
 6410TIP3    H219237   4.937   5.668   3.393
 6411TIP3   OH219238   3.066   0.650   4.162
 6411TIP3    H119239   3.012   0.708   4.108
 6411TIP3    H219240   3.010   0.627   4.236
 6412TIP3   OH219241   4.102   2.567   4.754
 6412TIP3    H119242   4.031   2.620   4.789
 6412TIP3    H219243   4.107   2.491   4.812
 6413TIP3   OH219244   5.249   1.911   1.273
 6413TIP3    H119245   5.251   1.816   1.283
 6413TIP3    H219246   5.273   1.945   1.360
 6414TIP3   OH219247   1.005   1.951   0.724
 6414TIP3    H119248   1.044   2.034   0.698
 6414TIP3    H219249   1.071   1.885   0.703
 6415TIP3   OH219250   2.112   2.236   4.456
 6415TIP3    H119251   2.183   2.200   4.510
 6415TIP3    H219252   2.091   2.166   4.394
 6416TIP3   OH219253   0.454   2.416   1.831
 6416TIP3    H119254   0.448   2.368   1.749
 6416TIP3    H219255   0.371   2.463   1.837
 6417TIP3   OH219256   0.377   0.493   2.343
 6417TIP3    H119257   0.308   0.429   2.325
 6417TIP3    H219258   0.445   0.474   2.278
 6418TIP3   OH219259   4.717   3.891   2.037
 6418TIP3    H119260   4.755   3.879   1.950
 6418TIP3    H219261   4.728   3.984   2.056
 6419TIP3   OH219262   1.780   5.869   0.691
 6419TIP3    H119263   1.723   5.840   0.762
 6419TIP3    H219264   1.860   5.816   0.702
 6420TIP3   OH219265   3.659   0.172   1.823
 6420TIP3    H119266   3.718   0.099   1.842
 6420TIP3    H219267   3.617   0.147   1.741
 6421TIP3   OH219268   1.307   3.343   2.777
 6421TIP3    H119269   1.241   3.308   2.838
 6421TIP3    H219270   1.279   3.312   2.691
 6422TIP3   OH219271   4.956   2.491   3.348
 6422TIP3    H119272   4.867   2.523   3.335
 6422TIP3    H219273   4.961   2.410   3.297
 6423TIP3   OH219274   3.848   3.253   2.161
 6423TIP3    H119275   3.917   3.222   2.101
 6423TIP3    H219276   3.852   3.194   2.235
 6424TIP3   OH219277   0.328   2.620   2.080
 6424TIP3    H119278   0.390   2.668   2.135
 6424TIP3    H219279   0.345   2.528   2.100
 6425TIP3   OH219280   5.560   1.799   4.843
 6425TIP3    H119281   5.550   1.812   4.937
 6425TIP3    H219282   5.500   1.862   4.803
 6426TIP3   OH219283   0.646   4.299   2.194
 6426TIP3    H119284   0.691   4.381   2.173
 6426TIP3    H219285   0.716   4.235   2.205
 6427TIP3   OH219286   2.563   2.263   0.359
 6427TIP3    H119287   2.531   2.182   0.399
 6427TIP3    H219288   2.523   2.333   0.410
 6428TIP3   OH219289   1.099   4.283   4.238
 6428TIP3    H119290   1.095   4.336   4.159
 6428TIP3    H219291   1.026   4.314   4.292
 6429TIP3   OH219292   1.975   2.066   2.151
 6429TIP3    H119293   1.948   1.989   2.101
 6429TIP3    H219294   1.959   2.140   2.092
 6430TIP3   OH219295   0.060   3.910   0.595
 6430TIP3    H119296   0.044   3.935   0.686
 6430TIP3    H219297   0.132   3.966   0.567
 6431TIP3   OH219298   5.247   2.877   5.091
 6431TIP3    H119299   5.321   2.929   5.061
 6431TIP3    H219300   5.170   2.921   5.055
 6432TIP3   OH219301   2.959   4.546   0.985
 6432TIP3    H119302   2.989   4.544   1.076
 6432TIP3    H219303   2.957   4.454   0.959
 6433TIP3   OH219304   5.510   0.503   4.530
 6433TIP3    H119305   5.528   0.414   4.560
 6433TIP3    H219306   5.597   0.544   4.523
 6434TIP3   OH219307   5.823   2.952   1.594
 6434TIP3    H119308   5.767   2.897   1.649
 6434TIP3    H219309   5.762   2.995   1.534
 6435TIP3   OH219310   4.431   1.479   0.886
 6435TIP3    H119311   4.375   1.406   0.911
 6435TIP3    H219312   4.490   1.442   0.820
 6436TIP3   OH219313   2.202   0.219   2.148
 6436TIP3    H119314   2.125   0.274   2.136
 6436TIP3    H219315   2.175   0.151   2.209
 6437TIP3   OH219316   6.114   4.496   2.350
 6437TIP3    H119317   6.107   4.495   2.254
 6437TIP3    H219318   6.113   4.403   2.375
 6438TIP3   OH219319   1.368   0.882   1.737
 6438TIP3    H119320   1.313   0.930   1.675
 6438TIP3    H219321   1.443   0.940   1.751
 6439TIP3   OH219322   5.471   3.819   3.009
 6439TIP3    H119323   5.452   3.737   3.055
 6439TIP3    H219324   5.557   3.845   3.040
 6440TIP3   OH219325   4.333   2.272   2.361
 6440TIP3    H119326   4.262   2.280   2.296
 6440TIP3    H219327   4.347   2.178   2.369
 6441TIP3   OH219328   3.960   4.589   4.839
 6441TIP3    H119329   4.041   4.603   4.790
 6441TIP3    H219330   3.904   4.539   4.779
 6442TIP3   OH219331   3.787   0.591   0.884
 6442TIP3    H119332   3.800   0.534   0.960
 6442TIP3    H219333   3.771   0.677   0.921
 6443TIP3   OH219334   2.841   3.146   0.691
 6443TIP3    H119335   2.795   3.210   0.746
 6443TIP3    H219336   2.794   3.064   0.706
 6444TIP3   OH219337   3.557   5.042   2.857
 6444TIP3    H119338   3.571   5.130   2.822
 6444TIP3    H219339   3.643   5.000   2.853
 6445TIP3   OH219340   2.445   4.400   4.578
 6445TIP3    H119341   2.454   4.436   4.666
 6445TIP3    H219342   2.496   4.319   4.580
 6446TIP3   OH219343   2.138   4.077   2.537
 6446TIP3    H119344   2.161   4.146   2.475
 6446TIP3    H219345   2.219   4.028   2.550
 6447TIP3   OH219346   1.451   0.692   1.922
 6447TIP3    H119347   1.377   0.635   1.941
 6447TIP3    H219348   1.413   0.767   1.876
 6448TIP3   OH219349   4.370   0.713   2.746
 6448TIP3    H119350   4.352   0.767   2.823
 6448TIP3    H219351   4.457   0.676   2.763
 6449TIP3   OH219352   6.228   4.175   2.079
 6449TIP3    H119353   6.202   4.154   1.989
 6449TIP3    H219354   6.317   4.209   2.071
 6450TIP3   OH219355   3.521   1.403   0.734
 6450TIP3    H119356   3.461   1.393   0.808
 6450TIP3    H219357   3.550   1.494   0.739
 6451TIP3   OH219358   2.756   4.304   3.014
 6451TIP3    H119359   2.731   4.338   3.100
 6451TIP3    H219360   2.836   4.254   3.031
 6452TIP3   OH219361   2.869   2.908   4.674
 6452TIP3    H119362   2.838   2.997   4.657
 6452TIP3    H219363   2.790   2.856   4.688
 6453TIP3   OH219364   5.401   1.314   1.292
 6453TIP3    H119365   5.334   1.323   1.360
 6453TIP3    H219366   5.352   1.317   1.209
 6454TIP3   OH219367   0.525   1.048   3.706
 6454TIP3    H119368   0.502   1.036   3.798
 6454TIP3    H219369   0.469   0.985   3.659
 6455TIP3   OH219370   5.869   3.896   1.748
 6455TIP3    H119371   5.798   3.833   1.747
 6455TIP3    H219372   5.855   3.947   1.827
 6456TIP3   OH219373   5.258   1.810   4.835
 6456TIP3    H119374   5.221   1.897   4.850
 6456TIP3    H219375   5.213   1.753   4.898
 6457TIP3   OH219376   5.582   1.617   3.464
 6457TIP3    H119377   5.560   1.683   3.530
 6457TIP3    H219378   5.653   1.566   3.504
 6458TIP3   OH219379   5.603   3.756   5.122
 6458TIP3    H119380   5.562   3.674   5.096
 6458TIP3    H219381   5.546   3.824   5.086
 6459TIP3   OH219382   1.846   1.018   4.770
 6459TIP3    H119383   1.868   1.101   4.813
 6459TIP3    H219384   1.929   0.988   4.733
 6460TIP3   OH219385   3.543   0.442   2.426
 6460TIP3    H119386   3.622   0.489   2.399
 6460TIP3    H219387   3.571   0.390   2.501
 6461TIP3   OH219388   1.772   3.206   3.329
 6461TIP3    H119389   1.792   3.299   3.337
 6461TIP3    H219390   1.852   3.167   3.294
 6462TIP3   OH219391   1.065   0.641   2.562
 6462TIP3    H119392   1.079   0.654   2.656
 6462TIP3    H219393   1.152   0.648   2.523
 6463TIP3   OH219394   5.962   4.498   3.001
 6463TIP3    H119395   5.918   4.453   2.928
 6463TIP3    H219396   5.984   4.428   3.062
 6464TIP3   OH219397   2.789   0.540   3.772
 6464TIP3    H119398   2.802   0.630   3.803
 6464TIP3    H219399   2.867   0.521   3.720
 6465TIP3   OH219400   1.517   1.725   2.781
 6465TIP3    H119401   1.508   1.808   2.734
 6465TIP3    H219402   1.542   1.662   2.713
 6466TIP3   OH219403   0.433   3.846   3.361
 6466TIP3    H119404   0.524   3.817   3.362
 6466TIP3    H219405   0.436   3.934   3.399
 6467TIP3   OH219406   1.020   4.474   0.744
 6467TIP3    H119407   1.026   4.504   0.653
 6467TIP3    H219408   0.930   4.496   0.770
 6468TIP3   OH219409   3.951   1.592   0.643
 6468TIP3    H119410   3.987   1.675   0.613
 6468TIP3    H219411   4.029   1.538   0.661
 6469TIP3   OH219412   2.879   2.231   2.287
 6469TIP3    H119413   2.955   2.280   2.319
 6469TIP3    H219414   2.804   2.272   2.329
 6470TIP3   OH219415   2.462   3.650   3.639
 6470TIP3    H119416   2.389   3.589   3.645
 6470TIP3    H219417   2.478   3.678   3.729
 6471TIP3   OH219418   3.970   4.866   1.451
 6471TIP3    H119419   4.018   4.788   1.477
 6471TIP3    H219420   4.033   4.937   1.462
 6472TIP3   OH219421   2.830   0.646   0.104
 6472TIP3    H119422   2.913   0.677   0.140
 6472TIP3    H219423   2.838   0.551   0.103
 6473TIP3   OH219424   5.198   1.553   0.165
 6473TIP3    H119425   5.260   1.502   0.217
 6473TIP3    H219426   5.253   1.601   0.103
 6474TIP3   OH219427   4.850   5.943   1.952
 6474TIP3    H119428   4.922   5.936   2.014
 6474TIP3    H219429   4.886   5.909   1.870
 6475TIP3   OH219430   1.845   1.592   3.135
 6475TIP3    H119431   1.794   1.513   3.116
 6475TIP3    H219432   1.811   1.658   3.074
 6476TIP3   OH219433   5.750   2.024   2.443
 6476TIP3    H119434   5.730   2.000   2.533
 6476TIP3    H219435   5.705   1.958   2.391
 6477TIP3   OH219436   6.116   5.130   3.250
 6477TIP3    H119437   6.035   5.084   3.271
 6477TIP3    H219438   6.130   5.113   3.157
 6478TIP3   OH219439   1.360   3.620   1.580
 6478TIP3    H119440   1.332   3.657   1.496
 6478TIP3    H219441   1.333   3.685   1.645
 6479TIP3   OH219442   1.235   3.894   1.639
 6479TIP3    H119443   1.169   3.962   1.625
 6479TIP3    H219444   1.200   3.840   1.709
 6480TIP3   OH219445   4.528   3.347   2.753
 6480TIP3    H119446   4.533   3.378   2.662
 6480TIP3    H219447   4.523   3.252   2.746
 6481TIP3   OH219448   2.210   4.853   3.151
 6481TIP3    H119449   2.282   4.881   3.207
 6481TIP3    H219450   2.241   4.870   3.062
 6482TIP3   OH219451   1.284   4.052   3.408
 6482TIP3    H119452   1.201   4.003   3.411
 6482TIP3    H219453   1.302   4.075   3.499
 6483TIP3   OH219454   4.470   1.021   3.608
 6483TIP3    H119455   4.395   0.984   3.561
 6483TIP3    H219456   4.547   0.980   3.567
 6484TIP3   OH219457   4.043   0.910   0.380
 6484TIP3    H119458   4.023   0.857   0.457
 6484TIP3    H219459   3.959   0.921   0.336
 6485TIP3   OH219460   2.613   1.297   4.444
 6485TIP3    H119461   2.569   1.273   4.363
 6485TIP3    H219462   2.555   1.359   4.487
 6486TIP3   OH219463   4.594   1.694   0.388
 6486TIP3    H119464   4.649   1.707   0.465
 6486TIP3    H219465   4.522   1.640   0.418
 6487TIP3   OH219466   4.604   2.072   2.587
 6487TIP3    H119467   4.606   1.977   2.587
 6487TIP3    H219468   4.601   2.097   2.679
 6488TIP3   OH219469   4.034   4.645   0.579
 6488TIP3    H119470   4.019   4.593   0.658
 6488TIP3    H219471   3.992   4.595   0.509
 6489TIP3   OH219472   5.230   2.158   2.095
 6489TIP3    H119473   5.177   2.131   2.170
 6489TIP3    H219474   5.230   2.254   2.099
 6490TIP3   OH219475   2.982   4.309   1.805
 6490TIP3    H119476   3.031   4.360   1.740
 6490TIP3    H219477   3.029   4.225   1.809
 6491TIP3   OH219478   5.278   0.833   4.644
 6491TIP3    H119479   5.284   0.922   4.608
 6491TIP3    H219480   5.228   0.843   4.725
 6492TIP3   OH219481   0.906   0.561   0.392
 6492TIP3    H119482   0.894   0.480   0.342
 6492TIP3    H219483   0.829   0.565   0.448
 6493TIP3   OH219484   4.825   0.234   0.606
 6493TIP3    H119485   4.872   0.155   0.634
 6493TIP3    H219486   4.799   0.216   0.516
 6494TIP3   OH219487   4.510   5.414   1.758
 6494TIP3    H119488   4.554   5.411   1.673
 6494TIP3    H219489   4.549   5.490   1.802
 6495TIP3   OH219490   5.553   1.558   0.699
 6495TIP3    H119491   5.576   1.539   0.790
 6495TIP3    H219492   5.480   1.619   0.705
 6496TIP3   OH219493   2.696   4.298   1.042
 6496TIP3    H119494   2.789   4.310   1.022
 6496TIP3    H219495   2.680   4.205   1.024
 6497TIP3   OH219496   0.698   2.038   3.153
 6497TIP3    H119497   0.629   1.986   3.112
 6497TIP3    H219498   0.665   2.127   3.151
 6498TIP3   OH219499   4.009   5.849   2.289
 6498TIP3    H119500   3.975   5.789   2.356
 6498TIP3    H219501   4.018   5.794   2.211
 6499TIP3   OH219502   1.440   1.646   1.060
 6499TIP3    H119503   1.414   1.556   1.080
 6499TIP3    H219504   1.358   1.695   1.065
 6500TIP3   OH219505   6.051   2.302   3.936
 6500TIP3    H119506   6.064   2.262   3.849
 6500TIP3    H219507   5.974   2.257   3.971
 6501TIP3   OH219508   4.072   4.885   4.226
 6501TIP3    H119509   4.026   4.870   4.308
 6501TIP3    H219510   4.039   4.969   4.195
 6502TIP3   OH219511   1.592   4.030   5.161
 6502TIP3    H119512   1.596   4.060   5.070
 6502TIP3    H219513   1.540   4.096   5.206
 6503TIP3   OH219514   1.203   1.981   2.084
 6503TIP3    H119515   1.171   2.041   2.151
 6503TIP3    H219516   1.220   2.036   2.008
 6504TIP3   OH219517   1.860   5.754   2.059
 6504TIP3    H119518   1.892   5.763   2.149
 6504TIP3    H219519   1.936   5.778   2.005
 6505TIP3   OH219520   6.372   1.940   2.530
 6505TIP3    H119521   6.378   1.877   2.603
 6505TIP3    H219522   6.280   1.965   2.528
 6506TIP3   OH219523   2.856   0.686   3.545
 6506TIP3    H119524   2.763   0.709   3.549
 6506TIP3    H219525   2.873   0.672   3.452
 6507TIP3   OH219526   1.519   0.365   3.696
 6507TIP3    H119527   1.446   0.334   3.643
 6507TIP3    H219528   1.532   0.456   3.668
 6508TIP3   OH219529   2.955   2.422   3.672
 6508TIP3    H119530   2.962   2.516   3.687
 6508TIP3    H219531   2.863   2.402   3.685
 6509TIP3   OH219532   0.900   1.932   3.326
 6509TIP3    H119533   0.986   1.964   3.301
 6509TIP3    H219534   0.839   1.984   3.274
 6510TIP3   OH219535   6.258   3.626   5.076
 6510TIP3    H119536   6.227   3.536   5.082
 6510TIP3    H219537   6.189   3.678   5.116
 6511TIP3   OH219538   1.787   3.452   3.135
 6511TIP3    H119539   1.787   3.429   3.042
 6511TIP3    H219540   1.879   3.468   3.155
 6512TIP3   OH219541   1.115   3.907   1.160
 6512TIP3    H119542   1.076   3.988   1.191
 6512TIP3    H219543   1.109   3.847   1.235
 6513TIP3   OH219544   3.457   4.989   2.117
 6513TIP3    H119545   3.432   5.064   2.062
 6513TIP3    H219546   3.534   5.020   2.165
 6514TIP3   OH219547   0.620   2.727   4.139
 6514TIP3    H119548   0.623   2.681   4.223
 6514TIP3    H219549   0.674   2.673   4.080
 6515TIP3   OH219550   2.971   3.419   1.414
 6515TIP3    H119551   2.885   3.415   1.372
 6515TIP3    H219552   3.033   3.403   1.342
 6516TIP3   OH219553   3.889   4.251   3.513
 6516TIP3    H119554   3.822   4.225   3.577
 6516TIP3    H219555   3.891   4.180   3.450
 6517TIP3   OH219556   3.182   5.006   1.716
 6517TIP3    H119557   3.176   4.951   1.795
 6517TIP3    H219558   3.275   5.026   1.708
 6518TIP3   OH219559   5.966   0.439   0.531
 6518TIP3    H119560   6.000   0.355   0.560
 6518TIP3    H219561   5.909   0.418   0.457
 6519TIP3   OH219562   6.107   3.344   0.673
 6519TIP3    H119563   6.182   3.316   0.725
 6519TIP3    H219564   6.048   3.269   0.672
 6520TIP3   OH219565   3.615   2.518   4.446
 6520TIP3    H119566   3.673   2.501   4.520
 6520TIP3    H219567   3.564   2.594   4.472
 6521TIP3   OH219568   4.041   1.628   2.525
 6521TIP3    H119569   4.013   1.571   2.596
 6521TIP3    H219570   4.047   1.570   2.449
 6522TIP3   OH219571   5.631   5.350   4.475
 6522TIP3    H119572   5.677   5.367   4.393
 6522TIP3    H219573   5.652   5.258   4.496
 6523TIP3   OH219574   6.229   1.149   3.448
 6523TIP3    H119575   6.201   1.155   3.357
 6523TIP3    H219576   6.193   1.065   3.479
 6524TIP3   OH219577   2.870   0.166   2.524
 6524TIP3    H119578   2.964   0.176   2.542
 6524TIP3    H219579   2.827   0.226   2.585
 6525TIP3   OH219580   2.229   5.741   0.474
 6525TIP3    H119581   2.182   5.696   0.544
 6525TIP3    H219582   2.318   5.706   0.479
 6526TIP3   OH219583   4.999   0.387   2.824
 6526TIP3    H119584   4.967   0.468   2.786
 6526TIP3    H219585   5.047   0.414   2.902
 6527TIP3   OH219586   1.991   3.942   4.877
 6527TIP3    H119587   1.953   3.861   4.843
 6527TIP3    H219588   1.971   3.940   4.971
 6528TIP3   OH219589   4.007   5.911   4.705
 6528TIP3    H119590   3.930   5.948   4.748
 6528TIP3    H219591   4.080   5.963   4.737
 6529TIP3   OH219592   5.734   1.586   1.239
 6529TIP3    H119593   5.818   1.549   1.212
 6529TIP3    H219594   5.677   1.574   1.163
 6530TIP3   OH219595   1.210   2.237   4.283
 6530TIP3    H119596   1.283   2.281   4.326
 6530TIP3    H219597   1.153   2.210   4.355
 6531TIP3   OH219598   4.626   0.890   4.086
 6531TIP3    H119599   4.560   0.884   4.016
 6531TIP3    H219600   4.664   0.802   4.090
 6532TIP3   OH219601   3.328   5.706   5.091
 6532TIP3    H119602   3.238   5.719   5.061
 6532TIP3    H219603   3.363   5.795   5.101
 6533TIP3   OH219604   2.236   0.117   1.893
 6533TIP3    H119605   2.175   0.183   1.861
 6533TIP3    H219606   2.236   0.129   1.988
 6534TIP3   OH219607   0.356   1.855   1.080
 6534TIP3    H119608   0.388   1.910   1.008
 6534TIP3    H219609   0.421   1.786   1.088
 6535TIP3   OH219610   1.233   0.304   4.127
 6535TIP3    H119611   1.272   0.300   4.214
 6535TIP3    H219612   1.307   0.298   4.067
 6536TIP3   OH219613   0.581   4.691   4.442
 6536TIP3    H119614   0.581   4.595   4.439
 6536TIP3    H219615   0.530   4.712   4.521
 6537TIP3   OH219616   0.937   2.122   2.706
 6537TIP3    H119617   0.999   2.166   2.764
 6537TIP3    H219618   0.993   2.076   2.642
 6538TIP3   OH219619   0.803   2.539   0.119
 6538TIP3    H119620   0.823   2.524   0.211
 6538TIP3    H219621   0.883   2.515   0.072
 6539TIP3   OH219622   2.863   4.227   1.391
 6539TIP3    H119623   2.881   4.198   1.302
 6539TIP3    H219624   2.811   4.307   1.381
 6540TIP3   OH219625   5.559   1.931   1.486
 6540TIP3    H119626   5.542   1.846   1.525
 6540TIP3    H219627   5.637   1.918   1.432
 6541TIP3   OH219628   4.025   3.748   3.642
 6541TIP3    H119629   4.005   3.660   3.674
 6541TIP3    H219630   4.097   3.778   3.697
 6542TIP3   OH219631   0.411   4.716   3.579
 6542TIP3    H119632   0.454   4.673   3.505
 6542TIP3    H219633   0.477   4.774   3.615
 6543TIP3   OH219634   4.658   3.353   1.101
 6543TIP3    H119635   4.695   3.268   1.125
 6543TIP3    H219636   4.730   3.415   1.110
 6544TIP3   OH219637   0.811   1.662   1.686
 6544TIP3    H119638   0.817   1.567   1.697
 6544TIP3    H219639   0.894   1.695   1.721
 6545TIP3   OH219640   4.175   3.515   1.927
 6545TIP3    H119641   4.216   3.600   1.940
 6545TIP3    H219642   4.247   3.458   1.900
 6546TIP3   OH219643   4.980   3.570   3.788
 6546TIP3    H119644   4.983   3.569   3.693
 6546TIP3    H219645   5.011   3.657   3.813
 6547TIP3   OH219646   5.423   2.876   0.471
 6547TIP3    H119647   5.512   2.890   0.440
 6547TIP3    H219648   5.433   2.830   0.555
 6548TIP3   OH219649   1.660   1.423   0.027
 6548TIP3    H119650   1.640   1.340  -0.015
 6548TIP3    H219651   1.665   1.486  -0.045
 6549TIP3   OH219652   5.357   0.556   1.732
 6549TIP3    H119653   5.272   0.597   1.749
 6549TIP3    H219654   5.357   0.478   1.787
 6550TIP3   OH219655   2.090   3.158   1.946
 6550TIP3    H119656   2.130   3.073   1.966
 6550TIP3    H219657   2.054   3.148   1.858
 6551TIP3   OH219658   1.730   4.254   2.955
 6551TIP3    H119659   1.725   4.336   2.905
 6551TIP3    H219660   1.823   4.229   2.950
 6552TIP3   OH219661   3.953   5.331   0.766
 6552TIP3    H119662   4.036   5.357   0.726
 6552TIP3    H219663   3.903   5.413   0.773
 6553TIP3   OH219664   4.507   1.811   1.175
 6553TIP3    H119665   4.540   1.762   1.100
 6553TIP3    H219666   4.575   1.875   1.194
 6554TIP3   OH219667   5.481   5.648   0.015
 6554TIP3    H119668   5.479   5.586   0.088
 6554TIP3    H219669   5.434   5.725   0.048
 6555TIP3   OH219670   3.224   4.868   1.950
 6555TIP3    H119671   3.171   4.790   1.962
 6555TIP3    H219672   3.307   4.848   1.994
 6556TIP3   OH219673   3.611   1.593   2.327
 6556TIP3    H119674   3.579   1.631   2.245
 6556TIP3    H219675   3.697   1.631   2.340
 6557TIP3   OH219676   6.047   1.953   2.591
 6557TIP3    H119677   6.008   2.013   2.527
 6557TIP3    H219678   5.992   1.964   2.670
 6558TIP3   OH219679   4.761   5.550   3.712
 6558TIP3    H119680   4.844   5.502   3.716
 6558TIP3    H219681   4.768   5.602   3.631
 6559TIP3   OH219682   6.034   0.567   2.948
 6559TIP3    H119683   6.118   0.611   2.934
 6559TIP3    H219684   5.975   0.610   2.886
 6560TIP3   OH219685   6.252   1.117   3.169
 6560TIP3    H119686   6.316   1.182   3.139
 6560TIP3    H219687   6.188   1.113   3.098
 6561TIP3   OH219688   5.356   3.717   0.444
 6561TIP3    H119689   5.332   3.742   0.355
 6561TIP3    H219690   5.449   3.695   0.440
 6562TIP3   OH219691   0.449   5.343   0.481
 6562TIP3    H119692   0.372   5.386   0.443
 6562TIP3    H219693   0.441   5.251   0.455
 6563TIP3   OH219694   5.584   4.444   3.766
 6563TIP3    H119695   5.506   4.458   3.711
 6563TIP3    H219696   5.633   4.526   3.759
 6564TIP3   OH219697   0.318   5.958   3.962
 6564TIP3    H119698   0.309   5.981   3.869
 6564TIP3    H219699   0.251   5.890   3.976
 6565TIP3   OH219700   4.985   1.915   2.639
 6565TIP3    H119701   4.973   1.891   2.547
 6565TIP3    H219702   4.903   1.957   2.665
 6566TIP3   OH219703   5.739   4.612   4.041
 6566TIP3    H119704   5.672   4.675   4.013
 6566TIP3    H219705   5.774   4.650   4.122
 6567TIP3   OH219706   4.216   0.328   4.203
 6567TIP3    H119707   4.198   0.304   4.112
 6567TIP3    H219708   4.297   0.379   4.199
 6568TIP3   OH219709   6.244   0.544   1.821
 6568TIP3    H119710   6.245   0.454   1.852
 6568TIP3    H219711   6.304   0.591   1.879
 6569TIP3   OH219712   2.699   3.787   4.684
 6569TIP3    H119713   2.699   3.693   4.669
 6569TIP3    H219714   2.789   3.814   4.663
 6570TIP3   OH219715   2.595   0.256   1.599
 6570TIP3    H119716   2.646   0.194   1.548
 6570TIP3    H219717   2.654   0.331   1.611
 6571TIP3   OH219718   2.526   4.727   0.235
 6571TIP3    H119719   2.559   4.690   0.153
 6571TIP3    H219720   2.431   4.730   0.223
 6572TIP3   OH219721   0.751   2.295   2.815
 6572TIP3    H119722   0.784   2.220   2.765
 6572TIP3    H219723   0.744   2.263   2.904
 6573TIP3   OH219724   5.743   1.184   4.078
 6573TIP3    H119725   5.727   1.259   4.021
 6573TIP3    H219726   5.756   1.221   4.165
 6574TIP3   OH219727   2.061   3.301   2.729
 6574TIP3    H119728   2.114   3.367   2.774
 6574TIP3    H219729   2.120   3.227   2.716
 6575TIP3   OH219730   2.870   2.716   4.370
 6575TIP3    H119731   2.794   2.672   4.407
 6575TIP3    H219732   2.938   2.648   4.365
 6576TIP3   OH219733   3.788   1.210   0.783
 6576TIP3    H119734   3.730   1.156   0.838
 6576TIP3    H219735   3.731   1.278   0.749
 6577TIP3   OH219736   0.483   4.310   1.138
 6577TIP3    H119737   0.423   4.339   1.070
 6577TIP3    H219738   0.543   4.384   1.150
 6578TIP3   OH219739   0.795   4.171   0.512
 6578TIP3    H119740   0.869   4.195   0.567
 6578TIP3    H219741   0.759   4.093   0.554
 6579TIP3   OH219742   1.709   5.377   0.006
 6579TIP3    H119743   1.690   5.380   0.100
 6579TIP3    H219744   1.703   5.285  -0.017
 6580TIP3   OH219745   2.821   0.357   0.529
 6580TIP3    H119746   2.854   0.275   0.493
 6580TIP3    H219747   2.879   0.424   0.493
 6581TIP3   OH219748   0.129   4.176   0.525
 6581TIP3    H119749   0.112   4.172   0.431
 6581TIP3    H219750   0.061   4.232   0.560
 6582TIP3   OH219751   1.324   3.111   4.178
 6582TIP3    H119752   1.289   3.124   4.089
 6582TIP3    H219753   1.262   3.051   4.220
 6583TIP3   OH219754   0.860   0.819   2.919
 6583TIP3    H119755   0.862   0.803   3.013
 6583TIP3    H219756   0.942   0.780   2.887
 6584TIP3   OH219757   5.885   2.979   3.130
 6584TIP3    H119758   5.812   3.026   3.089
 6584TIP3    H219759   5.952   2.973   3.062
 6585TIP3   OH219760   4.599   4.438   3.601
 6585TIP3    H119761   4.628   4.425   3.691
 6585TIP3    H219762   4.518   4.489   3.610
 6586TIP3   OH219763   4.949   4.824   4.552
 6586TIP3    H119764   5.000   4.834   4.633
 6586TIP3    H219765   4.970   4.735   4.522
 6587TIP3   OH219766   6.380   2.435   4.569
 6587TIP3    H119767   6.333   2.375   4.628
 6587TIP3    H219768   6.351   2.522   4.596
 6588TIP3   OH219769   1.934   5.521   5.061
 6588TIP3    H119770   1.888   5.602   5.084
 6588TIP3    H219771   2.026   5.548   5.052
 6589TIP3   OH219772   5.348   0.515   0.367
 6589TIP3    H119773   5.376   0.551   0.283
 6589TIP3    H219774   5.267   0.467   0.347
 6590TIP3   OH219775   5.853   2.617   2.721
 6590TIP3    H119776   5.883   2.548   2.780
 6590TIP3    H219777   5.929   2.639   2.668
 6591TIP3   OH219778   1.799   2.672   4.744
 6591TIP3    H119779   1.714   2.642   4.713
 6591TIP3    H219780   1.849   2.592   4.761
 6592TIP3   OH219781   4.337   0.363   3.870
 6592TIP3    H119782   4.399   0.298   3.836
 6592TIP3    H219783   4.381   0.447   3.858
 6593TIP3   OH219784   6.295   0.790   1.675
 6593TIP3    H119785   6.346   0.848   1.732
 6593TIP3    H219786   6.293   0.707   1.722
 6594TIP3   OH219787   3.509   0.143   2.036
 6594TIP3    H119788   3.578   0.142   1.970
 6594TIP3    H219789   3.509   0.233   2.070
 6595TIP3   OH219790   2.766   1.620   3.757
 6595TIP3    H119791   2.695   1.642   3.817
 6595TIP3    H219792   2.835   1.685   3.777
 6596TIP3   OH219793   0.967   1.103   3.967
 6596TIP3    H119794   0.980   1.070   3.878
 6596TIP3    H219795   0.919   1.185   3.956
 6597TIP3   OH219796   5.186   1.488   0.659
 6597TIP3    H119797   5.129   1.435   0.603
 6597TIP3    H219798   5.260   1.432   0.678
 6598TIP3   OH219799   1.131   2.105   4.791
 6598TIP3    H119800   1.162   2.161   4.720
 6598TIP3    H219801   1.211   2.076   4.835
 6599TIP3   OH219802   2.608   2.879   3.712
 6599TIP3    H119803   2.613   2.957   3.767
 6599TIP3    H219804   2.582   2.809   3.771
 6600TIP3   OH219805   4.417   2.810   0.218
 6600TIP3    H119806   4.510   2.789   0.207
 6600TIP3    H219807   4.372   2.727   0.207
 6601TIP3   OH219808   3.640   3.385   4.192
 6601TIP3    H119809   3.607   3.296   4.189
 6601TIP3    H219810   3.732   3.378   4.168
 6602TIP3   OH219811   5.838   2.436   3.700
 6602TIP3    H119812   5.745   2.413   3.695
 6602TIP3    H219813   5.882   2.368   3.649
 6603TIP3   OH219814   0.356   3.968   0.037
 6603TIP3    H119815   0.390   4.001  -0.046
 6603TIP3    H219816   0.427   3.981   0.099
 6604TIP3   OH219817   3.234   3.758   1.228
 6604TIP3    H119818   3.222   3.848   1.199
 6604TIP3    H219819   3.187   3.753   1.311
 6605TIP3   OH219820   3.205   1.742   2.714
 6605TIP3    H119821   3.144   1.799   2.668
 6605TIP3    H219822   3.186   1.757   2.807
 6606TIP3   OH219823   2.968   2.453   4.366
 6606TIP3    H119824   3.044   2.420   4.414
 6606TIP3    H219825   2.902   2.384   4.375
 6607TIP3   OH219826   0.725   1.538   1.330
 6607TIP3    H119827   0.746   1.629   1.350
 6607TIP3    H219828   0.785   1.487   1.384
 6608TIP3   OH219829   5.034   3.625   2.473
 6608TIP3    H119830   5.001   3.648   2.386
 6608TIP3    H219831   5.046   3.530   2.470
 6609TIP3   OH219832   1.838   0.511   4.245
 6609TIP3    H119833   1.912   0.571   4.239
 6609TIP3    H219834   1.832   0.489   4.338
 6610TIP3   OH219835   5.560   4.170   3.581
 6610TIP3    H119836   5.538   4.090   3.629
 6610TIP3    H219837   5.592   4.231   3.648
 6611TIP3   OH219838   2.132   1.699   3.007
 6611TIP3    H119839   2.036   1.700   3.004
 6611TIP3    H219840   2.152   1.626   3.066
 6612TIP3   OH219841   5.095   0.679   2.156
 6612TIP3    H119842   5.073   0.736   2.082
 6612TIP3    H219843   5.126   0.598   2.116
 6613TIP3   OH219844   1.018   5.624   4.935
 6613TIP3    H119845   1.098   5.648   4.980
 6613TIP3    H219846   0.964   5.703   4.938
 6614TIP3   OH219847   1.242   1.063   4.930
 6614TIP3    H119848   1.269   1.155   4.923
 6614TIP3    H219849   1.195   1.046   4.848
 6615TIP3   OH219850   5.728   5.683   2.033
 6615TIP3    H119851   5.733   5.593   2.064
 6615TIP3    H219852   5.810   5.697   1.986
 6616TIP3   OH219853   3.307   1.115   2.181
 6616TIP3    H119854   3.374   1.053   2.210
 6616TIP3    H219855   3.234   1.101   2.243
 6617TIP3   OH219856   4.198   3.680   4.937
 6617TIP3    H119857   4.238   3.607   4.983
 6617TIP3    H219858   4.269   3.744   4.927
 6618TIP3   OH219859   5.411   0.098   3.642
 6618TIP3    H119860   5.416   0.088   3.738
 6618TIP3    H219861   5.500   0.121   3.616
 6619TIP3   OH219862   2.451   3.863   3.215
 6619TIP3    H119863   2.530   3.911   3.194
 6619TIP3    H219864   2.427   3.892   3.303
 6620TIP3   OH219865   5.986   5.832   3.510
 6620TIP3    H119866   6.013   5.751   3.467
 6620TIP3    H219867   6.027   5.901   3.459
 6621TIP3   OH219868   0.114   0.214   4.070
 6621TIP3    H119869   0.095   0.122   4.051
 6621TIP3    H219870   0.111   0.258   3.985
 6622TIP3   OH219871   2.304   0.126   4.269
 6622TIP3    H119872   2.366   0.122   4.196
 6622TIP3    H219873   2.224   0.089   4.234
 6623TIP3   OH219874   0.986   5.069   0.265
 6623TIP3    H119875   0.997   5.091   0.173
 6623TIP3    H219876   0.938   5.143   0.302
 6624TIP3   OH219877   0.167   3.382   0.709
 6624TIP3    H119878   0.222   3.380   0.787
 6624TIP3    H219879   0.108   3.456   0.723
 6625TIP3   OH219880   0.439   3.818   1.374
 6625TIP3    H119881   0.373   3.886   1.388
 6625TIP3    H219882   0.511   3.842   1.431
 6626TIP3   OH219883   0.945   3.930   3.162
 6626TIP3    H119884   1.033   3.950   3.132
 6626TIP3    H219885   0.956   3.859   3.224
 6627TIP3   OH219886   2.859   0.696   2.973
 6627TIP3    H119887   2.810   0.614   2.979
 6627TIP3    H219888   2.935   0.682   3.030
 6628TIP3   OH219889   1.577   3.360   5.056
 6628TIP3    H119890   1.505   3.401   5.007
 6628TIP3    H219891   1.654   3.410   5.031
 6629TIP3   OH219892   3.285   5.099   4.496
 6629TIP3    H119893   3.375   5.095   4.529
 6629TIP3    H219894   3.271   5.191   4.475
 6630TIP3   OH219895   5.218   0.267   0.538
 6630TIP3    H119896   5.191   0.218   0.461
 6630TIP3    H219897   5.178   0.353   0.527
 6631TIP3   OH219898   1.873   2.829   4.472
 6631TIP3    H119899   1.780   2.816   4.492
 6631TIP3    H219900   1.900   2.902   4.529
 6632TIP3   OH219901   1.395   5.835   5.176
 6632TIP3    H119902   1.478   5.789   5.166
 6632TIP3    H219903   1.335   5.770   5.210
 6633TIP3   OH219904   2.879   0.815   0.516
 6633TIP3    H119905   2.901   0.795   0.425
 6633TIP3    H219906   2.844   0.904   0.513
 6634TIP3   OH219907   6.230   5.106   3.562
 6634TIP3    H119908   6.262   5.073   3.646
 6634TIP3    H219909   6.293   5.073   3.498
 6635TIP3   OH219910   5.852   3.467   0.382
 6635TIP3    H119911   5.902   3.393   0.416
 6635TIP3    H219912   5.876   3.472   0.290
 6636TIP3   OH219913   1.770   4.767   4.296
 6636TIP3    H119914   1.758   4.675   4.274
 6636TIP3    H219915   1.765   4.770   4.391
 6637TIP3   OH219916   3.127   5.750   0.365
 6637TIP3    H119917   3.173   5.726   0.445
 6637TIP3    H219918   3.188   5.809   0.320
 6638TIP3   OH219919   1.597   4.125   4.902
 6638TIP3    H119920   1.608   4.160   4.814
 6638TIP3    H219921   1.504   4.106   4.909
 6639TIP3   OH219922   5.956   0.894   1.194
 6639TIP3    H119923   5.979   0.858   1.109
 6639TIP3    H219924   6.013   0.849   1.256
 6640TIP3   OH219925   5.728   4.529   1.898
 6640TIP3    H119926   5.780   4.602   1.867
 6640TIP3    H219927   5.637   4.557   1.886
 6641TIP3   OH219928   5.606   5.614   3.160
 6641TIP3    H119929   5.631   5.706   3.153
 6641TIP3    H219930   5.548   5.611   3.237
 6642TIP3   OH219931   2.786   1.409   1.081
 6642TIP3    H119932   2.735   1.429   1.160
 6642TIP3    H219933   2.741   1.455   1.011
 6643TIP3   OH219934   2.979   1.735   3.896
 6643TIP3    H119935   3.011   1.743   3.986
 6643TIP3    H219936   3.018   1.810   3.850
 6644TIP3   OH219937   3.980   3.475   4.858
 6644TIP3    H119938   4.061   3.517   4.832
 6644TIP3    H219939   3.976   3.486   4.953
 6645TIP3   OH219940   2.712   1.073   1.398
 6645TIP3    H119941   2.777   1.100   1.462
 6645TIP3    H219942   2.751   0.997   1.354
   6.35125   5.98801   5.18577   0.00000   0.00000  -2.11709   0.00000  -2.11709  -2.99401
