Title
19942
    1ASP      N    1   2.117   1.557   4.355  0.8040 -0.1757  0.0562
    1ASP    HT1    2   2.113   1.544   4.458  0.1723 -1.1637 -0.0840
    1ASP    HT2    3   2.157   1.650   4.332 -0.3442  1.7100  4.4684
    1ASP    HT3    4   2.187   1.486   4.327  0.1001 -0.5245 -0.8270
    1ASP     CA    5   1.981   1.550   4.290 -0.2502  0.3149 -0.3652
    1ASP     HA    6   1.942   1.457   4.327  0.3339  0.4674  0.6626
    1ASP     CB    7   1.889   1.667   4.338 -0.1301 -0.0231 -0.1689
    1ASP    HB1    8   1.929   1.763   4.298  3.9896 -1.9445 -1.2523
    1ASP    HB2    9   1.892   1.675   4.448  0.5970  0.2236 -0.2016
    1ASP     CG   10   1.749   1.644   4.292  0.2662 -0.1848  0.0722
    1ASP    OD1   11   1.707   1.535   4.243 -0.9727  0.2750  0.2322
    1ASP    OD2   12   1.666   1.738   4.316  0.3853 -0.2602  0.9349
    1ASP      C   13   2.004   1.529   4.143  0.1032  0.5111 -0.4303
    1ASP      O   14   2.068   1.613   4.079  0.0779 -0.2710 -0.0456
    2ALA      N   15   1.945   1.421   4.082  0.1170  0.1932  0.3083
    2ALA     HN   16   1.880   1.361   4.129 -0.8044  0.8449 -0.1020
    2ALA     CA   17   1.955   1.385   3.937  0.1951 -0.5066  0.2296
    2ALA     HA   18   2.012   1.461   3.886  0.7463  0.5067  2.2360
    2ALA     CB   19   2.036   1.252   3.914 -0.0023  0.6134 -0.1992
    2ALA    HB1   20   1.983   1.164   3.955  1.3348  0.0699  0.4083
    2ALA    HB2   21   2.143   1.263   3.940 -0.1238 -0.4342  0.8153
    2ALA    HB3   22   2.022   1.236   3.805 -1.0768  0.9363 -0.1251
    2ALA      C   23   1.814   1.361   3.877 -0.2357 -0.0162 -0.1821
    2ALA      O   24   1.722   1.334   3.952 -0.6938 -0.1568 -0.2239
    3ASP      N   25   1.802   1.386   3.743  0.1153 -0.3664 -0.4003
    3ASP     HN   26   1.876   1.402   3.679 -1.2371  2.1389 -1.4806
    3ASP     CA   27   1.685   1.383   3.659  0.8080  0.9073 -0.5769
    3ASP     HA   28   1.647   1.483   3.673  0.8432  0.6940  1.2452
    3ASP     CB   29   1.718   1.358   3.503  0.5193  0.8476  0.2193
    3ASP    HB1   30   1.626   1.363   3.441  1.2072  0.9183 -0.8053
    3ASP    HB2   31   1.748   1.251   3.493 -0.7426  0.3960  0.8856
    3ASP     CG   32   1.825   1.445   3.445  0.1868 -0.2195 -0.2699
    3ASP    OD1   33   1.852   1.552   3.498 -0.0288  0.2679  0.6227
    3ASP    OD2   34   1.890   1.405   3.340  0.0980  0.3274  0.3269
    3ASP      C   35   1.558   1.309   3.703 -0.2994  1.3112  0.4155
    3ASP      O   36   1.570   1.190   3.746 -0.5184  0.0268 -0.0405
    4GLY      N   37   1.440   1.366   3.695  0.5668 -0.2747  0.4331
    4GLY     HN   38   1.437   1.457   3.655 -0.8001 -1.1890 -1.7702
    4GLY     CA   39   1.307   1.305   3.717  0.1185  0.5202  0.4031
    4GLY    HA1   40   1.246   1.391   3.693  1.3892  0.9184 -1.6747
    4GLY    HA2   41   1.297   1.266   3.817  1.5809  0.0792  0.4056
    4GLY      C   42   1.270   1.188   3.621  0.5988  0.5798 -0.2423
    4GLY      O   43   1.357   1.108   3.586 -0.0391 -0.0329  0.2644
    5PRO      N   44   1.143   1.160   3.610  1.1801  0.2960 -0.2396
    5PRO     CD   45   1.043   1.224   3.703 -0.5350  0.6950  1.5058
    5PRO    HD1   46   1.037   1.334   3.689  0.1410  0.4461 -1.3679
    5PRO    HD2   47   1.067   1.194   3.807 -1.7691 -0.0888  1.5933
    5PRO     CA   48   1.086   1.075   3.507 -0.9091  0.0763  0.8083
    5PRO     HA   49   1.108   0.975   3.542 -0.5413  0.6709  2.3513
    5PRO     CB   50   0.939   1.110   3.510 -0.1656  0.8083  0.2557
    5PRO    HB1   51   0.875   1.020   3.499 -0.0962  0.9632 -1.8583
    5PRO    HB2   52   0.911   1.190   3.438 -1.6783  0.7198  0.7049
    5PRO     CG   53   0.916   1.149   3.659 -0.6540 -0.3402  0.6152
    5PRO    HG1   54   0.820   1.201   3.683 -0.6441 -0.0132 -0.0164
    5PRO    HG2   55   0.921   1.055   3.717 -2.0854 -0.7003  0.2080
    5PRO      C   56   1.146   1.080   3.368  0.2554  0.1602 -0.4992
    5PRO      O   57   1.181   1.188   3.320  0.1009 -0.1899 -0.4140
    6GLY      N   58   1.174   0.964   3.302  0.4735  0.3226 -0.3101
    6GLY     HN   59   1.159   0.884   3.360  3.1337 -0.0840 -0.0322
    6GLY     CA   60   1.250   0.953   3.177 -0.7841  0.2528 -0.1182
    6GLY    HA1   61   1.247   0.849   3.148 -2.0199  0.0151  0.7416
    6GLY    HA2   62   1.350   0.984   3.201 -1.1367  1.3993 -0.0524
    6GLY      C   63   1.191   1.031   3.062 -0.2102  0.0666  0.7262
    6GLY      O   64   1.073   1.065   3.058 -0.5193 -0.3810 -0.3697
    7ASP      N   65   1.286   1.057   2.963  0.2659 -0.1177  0.2078
    7ASP     HN   66   1.382   1.035   2.981  0.8838  0.6426 -1.9034
    7ASP     CA   67   1.260   1.121   2.836  0.1831 -0.6804  0.2710
    7ASP     HA   68   1.197   1.204   2.865 -0.4203 -1.2405  0.6217
    7ASP     CB   69   1.394   1.165   2.768 -0.3140  0.6633 -0.1824
    7ASP    HB1   70   1.461   1.077   2.761 -0.3953  0.6695 -1.1067
    7ASP    HB2   71   1.441   1.243   2.832  0.9507 -0.6334  0.5426
    7ASP     CG   72   1.391   1.222   2.628 -0.6117 -0.0290  0.2729
    7ASP    OD1   73   1.500   1.233   2.563 -0.1242 -0.0118 -0.3959
    7ASP    OD2   74   1.283   1.263   2.584  0.5951  0.3084 -0.4044
    7ASP      C   75   1.178   1.030   2.740  0.2743  0.2573 -0.7985
    7ASP      O   76   1.221   0.918   2.722 -0.5259  0.0641 -0.0073
    8PRO      N   77   1.058   1.068   2.695  0.1320 -0.1919  0.5467
    8PRO     CD   78   0.983   1.183   2.734  0.3005 -0.6276 -0.1860
    8PRO    HD1   79   1.019   1.267   2.671 -0.0363 -1.1744 -1.1291
    8PRO    HD2   80   0.994   1.202   2.843  1.5445  1.3897 -0.6067
    8PRO     CA   81   0.982   0.986   2.589  0.0688  0.1784 -0.3670
    8PRO     HA   82   0.963   0.898   2.649 -0.2569  1.0467  0.8662
    8PRO     CB   83   0.859   1.072   2.562 -0.0209  0.0296  0.1064
    8PRO    HB1   84   0.775   1.013   2.519 -0.6584 -0.0961  1.4866
    8PRO    HB2   85   0.883   1.141   2.478 -2.3309 -1.1393 -1.6454
    8PRO     CG   86   0.834   1.139   2.693 -0.1836  0.3944  0.1691
    8PRO    HG1   87   0.764   1.222   2.669 -0.0786  0.1639 -0.9894
    8PRO    HG2   88   0.784   1.070   2.764 -1.9094 -0.7922 -2.0694
    8PRO      C   89   1.058   0.953   2.463  0.9196  0.6305 -0.7585
    8PRO      O   90   1.027   0.858   2.389 -0.6528 -0.5501 -0.0368
    9ASP      N   91   1.172   1.024   2.442  0.2931 -0.2520 -0.1016
    9ASP     HN   92   1.195   1.097   2.505 -0.5639 -1.5140  1.7841
    9ASP     CA   93   1.261   1.005   2.331 -0.5539 -0.0813 -1.0100
    9ASP     HA   94   1.211   0.957   2.247 -2.2298 -0.1552 -0.0121
    9ASP     CB   95   1.298   1.136   2.265  0.1470  0.2259 -0.7666
    9ASP    HB1   96   1.360   1.119   2.175  1.0146  2.4104 -0.6372
    9ASP    HB2   97   1.354   1.206   2.330 -0.1100  0.9457 -1.3149
    9ASP     CG   98   1.183   1.208   2.204  0.1134 -0.4072  0.1313
    9ASP    OD1   99   1.074   1.146   2.180  0.2963 -0.0855 -0.0248
    9ASP    OD2  100   1.191   1.332   2.180 -0.4214 -0.3019  0.0431
    9ASP      C  101   1.393   0.929   2.378 -0.1390  0.6453  0.2080
    9ASP      O  102   1.501   0.936   2.312  0.1151 -0.5958  0.1196
   10ALA      N  103   1.379   0.855   2.491 -0.1925 -0.1012  0.0753
   10ALA     HN  104   1.304   0.876   2.553  1.2736 -1.8792  2.5983
   10ALA     CA  105   1.454   0.737   2.527 -0.1247  0.2516 -0.3633
   10ALA     HA  106   1.558   0.748   2.501 -0.3444 -0.1491 -1.4850
   10ALA     CB  107   1.447   0.712   2.685  0.0579 -0.0839  0.5603
   10ALA    HB1  108   1.346   0.675   2.714 -0.4999  1.2611  0.3985
   10ALA    HB2  109   1.473   0.805   2.740 -1.5108  0.6551  0.0995
   10ALA    HB3  110   1.520   0.630   2.704  1.5834  1.2713  0.7278
   10ALA      C  111   1.408   0.606   2.462 -0.7756  0.0219  0.0171
   10ALA      O  112   1.292   0.583   2.439 -0.3340 -0.0265 -0.7090
   11GLY      N  113   1.507   0.520   2.430  0.1363  0.1786  0.2613
   11GLY     HN  114   1.599   0.544   2.460  0.4480  0.5415 -0.9303
   11GLY     CA  115   1.497   0.401   2.349 -0.5505  1.0034  0.3167
   11GLY    HA1  116   1.420   0.412   2.274 -0.0123 -2.2157 -0.8535
   11GLY    HA2  117   1.483   0.319   2.418  1.2952  0.5638  0.1997
   11GLY      C  118   1.626   0.377   2.271 -0.1147  0.1132 -0.4152
   11GLY    OT1  119   1.708   0.470   2.245 -0.1613  0.0153 -0.0362
   11GLY    OT2  120   1.655   0.260   2.237 -0.1384  0.3715  0.0230
   12LIT    LIT  121   5.510   2.352   2.914  0.7490  0.8607 -1.0355
   13LIT    LIT  122   2.186   0.910   0.877  1.1323 -0.8808 -0.8753
   14LIT    LIT  123   6.031   0.650   1.184  0.0494  0.4809  0.7110
   15LIT    LIT  124   2.163   4.597   1.302  0.4814 -0.2264  0.0386
   16LIT    LIT  125   2.451   0.454   1.549  1.3084  0.1425 -0.6302
   17LIT    LIT  126   2.433   1.182   3.702 -1.3764 -0.3477  0.2784
   18LIT    LIT  127   1.674   3.159   2.834 -0.1094 -0.1148 -0.2898
   19LIT    LIT  128   2.673   2.272   3.686  0.1542 -0.5714 -0.1340
   20LIT    LIT  129   4.645   3.825   4.243 -0.0366 -0.7086  0.0928
   21LIT    LIT  130   1.098   0.805   1.496  0.8441  0.5392 -1.0780
   22LIT    LIT  131   1.816   1.081   1.838  1.0299  0.5636 -1.1437
   23LIT    LIT  132   4.246   2.137   0.464  0.3694 -0.5007 -0.0980
   24LIT    LIT  133   4.245   2.433   2.318  0.1105 -0.0942  0.4064
   25LIT    LIT  134   4.413   1.689   1.417 -0.5164 -0.5284  0.0780
   26LIT    LIT  135   4.160   2.284   5.067 -0.1299  0.0123  0.4794
   27LIT    LIT  136   5.709   2.519   1.212  0.6293 -0.2516  0.1860
   28LIT    LIT  137   1.532   1.601   4.257 -0.5182 -0.1734 -1.1875
   29LIT    LIT  138   3.689   3.471   0.002  0.1092  0.5982  0.1537
   30LIT    LIT  139   5.152   4.025   3.061  0.2032 -0.6789 -0.8477
   31LIT    LIT  140   1.364   0.211   3.059  0.8251 -0.5668 -0.8000
   32LIT    LIT  141   1.689   5.202   4.027 -0.1201 -0.9713 -0.0633
   33LIT    LIT  142   1.474   3.077   0.455 -0.0470  0.4621  0.8171
   34CLA    CLA  143   4.486   3.967   4.356 -0.0790  0.1553  0.1230
   35CLA    CLA  144   4.292   2.042   2.980 -0.0719  0.3765 -0.1171
   36CLA    CLA  145   1.201   1.569   3.964 -0.2139  0.1003 -0.2764
   37CLA    CLA  146   5.788   1.962   3.268  0.3840 -0.1390  0.1740
   38CLA    CLA  147   4.801   3.209   4.012 -0.4341 -0.1239  0.3079
   39CLA    CLA  148   2.230   0.954   1.742  0.2746 -0.4799 -0.3134
   40CLA    CLA  149   5.303   4.757   2.021 -0.1124  0.2929 -0.1055
   41CLA    CLA  150   5.991   4.834   1.425  0.4974 -0.0109  0.5187
   42CLA    CLA  151   4.828   4.336   2.977 -0.0049  0.1814  0.0313
   43CLA    CLA  152   6.125   3.440   0.404 -0.1342  0.1954  0.4102
   44CLA    CLA  153   5.896   2.639   1.286 -0.3221 -0.1218  0.2715
   45CLA    CLA  154   6.278   0.684   4.363  0.3073 -0.1514  0.4195
   46CLA    CLA  155   4.995   0.792   4.828  0.2350 -0.1621  0.2790
   47CLA    CLA  156   4.512   5.538   4.458 -0.0717  0.1492  0.2388
   48CLA    CLA  157   6.020   4.370   3.042  0.1133  0.1177  0.0447
   49CLA    CLA  158   2.241   3.426   1.961 -0.2810 -0.0142 -0.2751
   50CLA    CLA  159   0.386   3.972   1.464  0.3382  0.0279  0.0405
   51CLA    CLA  160   3.964   2.745   1.750 -0.2282  0.0543 -0.1699
   52TIP3   OH2  161   2.113   4.722   2.885  0.3567 -0.3739  0.1572
   52TIP3    H1  162   2.203   4.747   2.906  0.2702 -1.0796  1.5002
   52TIP3    H2  163   2.121   4.645   2.829  0.5899  1.0849 -1.9055
   53TIP3   OH2  164   1.069   0.505   0.331 -0.6584 -0.1183  0.1423
   53TIP3    H1  165   1.085   0.424   0.282 -0.8523  0.9565 -1.7873
   53TIP3    H2  166   1.140   0.564   0.305 -1.7358  1.0716 -0.2251
   54TIP3   OH2  167   1.011   3.200   1.424 -0.1683  0.7673 -0.0684
   54TIP3    H1  168   1.003   3.295   1.423 -1.5004  0.6945  0.4675
   54TIP3    H2  169   0.923   3.169   1.447  0.2724 -0.5882 -0.0917
   55TIP3   OH2  170   6.027   4.306   1.816  0.2828 -0.1694  0.0174
   55TIP3    H1  171   5.997   4.259   1.894 -1.2158 -0.6495 -0.8010
   55TIP3    H2  172   6.123   4.301   1.820  0.2429 -0.0909  1.8595
   56TIP3   OH2  173   3.373   1.282   3.786 -0.0757  0.2318  0.4966
   56TIP3    H1  174   3.336   1.275   3.875 -2.6389  0.6468 -0.4483
   56TIP3    H2  175   3.455   1.329   3.798 -0.3954  0.3578  2.6487
   57TIP3   OH2  176   0.744   2.502   0.742 -0.2595 -0.5900  0.1331
   57TIP3    H1  177   0.686   2.508   0.665  0.9784  0.7115 -0.7556
   57TIP3    H2  178   0.686   2.512   0.817 -1.2774 -0.0051 -0.7088
   58TIP3   OH2  179   4.814   2.579   0.316  0.3832 -0.2664 -0.5060
   58TIP3    H1  180   4.775   2.600   0.401 -0.6344 -0.2790 -0.9463
   58TIP3    H2  181   4.908   2.590   0.328  0.1593  0.8938  0.2974
   59TIP3   OH2  182   4.600   5.328   1.915 -0.8719 -0.3461 -0.5329
   59TIP3    H1  183   4.542   5.260   1.882 -0.0548 -0.9378 -0.7621
   59TIP3    H2  184   4.582   5.332   2.009 -0.8492 -0.9589 -0.4989
   60TIP3   OH2  185   2.029   1.842   0.176 -0.0830 -0.1449  0.3700
   60TIP3    H1  186   2.013   1.935   0.160  0.0751 -0.0683  0.6461
   60TIP3    H2  187   2.020   1.801   0.090  1.6097  0.3678 -0.0988
   61TIP3   OH2  188   5.589   5.088   2.444  0.4884  0.6970  0.6346
   61TIP3    H1  189   5.499   5.101   2.474 -0.1825 -0.3892 -0.7941
   61TIP3    H2  190   5.616   5.173   2.411 -0.9497  0.4909 -1.2473
   62TIP3   OH2  191   5.973   0.251   0.061  0.1020  0.9438  0.4064
   62TIP3    H1  192   5.960   0.325   0.001 -0.2078 -0.3121 -1.1345
   62TIP3    H2  193   6.065   0.258   0.088 -0.2180  2.5209  1.2101
   63TIP3   OH2  194   1.444   4.374   4.156  0.6408 -0.0327 -0.6434
   63TIP3    H1  195   1.521   4.424   4.182  0.4418  0.5129 -1.0902
   63TIP3    H2  196   1.439   4.303   4.220  1.4324  0.0040 -0.5310
   64TIP3   OH2  197   1.496   0.494   4.121  0.2011  0.1480 -0.3940
   64TIP3    H1  198   1.414   0.454   4.150  1.3684 -1.0572  1.4792
   64TIP3    H2  199   1.544   0.422   4.080  1.2242  0.2297  0.5919
   65TIP3   OH2  200   3.875   0.197   4.289  0.0324 -0.0040  0.0110
   65TIP3    H1  201   3.916   0.114   4.314 -2.2776 -1.3880 -0.5212
   65TIP3    H2  202   3.785   0.190   4.319 -0.5649  1.7992 -1.1845
   66TIP3   OH2  203   0.618   5.766   2.737 -0.5749 -0.7524 -0.0465
   66TIP3    H1  204   0.632   5.843   2.792 -1.1682 -1.2967  0.9209
   66TIP3    H2  205   0.668   5.696   2.781 -0.0455 -0.9254 -0.9039
   67TIP3   OH2  206   4.822   5.613   4.791 -0.6560 -0.1785 -0.2916
   67TIP3    H1  207   4.850   5.656   4.872 -1.3929  0.7842 -0.5288
   67TIP3    H2  208   4.863   5.526   4.794  0.9304  0.5573  0.1531
   68TIP3   OH2  209   1.939   0.040   1.690  0.1905  0.1803 -0.0024
   68TIP3    H1  210   1.975   0.078   1.771  0.6917  0.6596 -0.4366
   68TIP3    H2  211   1.970  -0.050   1.690 -0.2198  0.0298  0.5769
   69TIP3   OH2  212   5.445   0.545   4.420 -0.7945 -0.2619  0.2380
   69TIP3    H1  213   5.385   0.619   4.428  1.9552  2.2045  0.1275
   69TIP3    H2  214   5.503   0.554   4.496  1.2371 -0.6574 -1.1902
   70TIP3   OH2  215   4.293   1.789   0.621 -0.2923  0.0410  0.7516
   70TIP3    H1  216   4.203   1.757   0.627 -0.9924  1.7174 -0.1950
   70TIP3    H2  217   4.345   1.710   0.602 -1.9650 -0.6007 -1.6991
   71TIP3   OH2  218   5.149   0.340   1.596  0.3776 -1.0305 -0.3917
   71TIP3    H1  219   5.135   0.424   1.639  0.8967 -1.6388  1.0378
   71TIP3    H2  220   5.071   0.328   1.541  0.6106  0.6601 -1.1409
   72TIP3   OH2  221   2.226   2.422   0.487 -0.6998 -0.6234 -0.2879
   72TIP3    H1  222   2.217   2.332   0.455  2.6929 -1.8258  1.6231
   72TIP3    H2  223   2.209   2.416   0.581  2.0602  0.0841  0.3587
   73TIP3   OH2  224   0.493   4.040   4.098  0.1183  0.0413 -0.0754
   73TIP3    H1  225   0.444   4.022   4.179 -1.4947  0.0717 -1.0000
   73TIP3    H2  226   0.544   4.118   4.117 -1.4833  0.9992  0.4311
   74TIP3   OH2  227   4.549   2.985   4.019 -0.9680  0.1544 -0.4901
   74TIP3    H1  228   4.526   3.009   4.109 -1.0923 -0.8748 -0.2328
   74TIP3    H2  229   4.630   3.032   4.002  0.0764 -1.0662  0.8400
   75TIP3   OH2  230   3.412   5.820   2.452 -0.7916 -0.6614  0.0199
   75TIP3    H1  231   3.487   5.843   2.398 -1.1468 -1.3308 -0.7776
   75TIP3    H2  232   3.442   5.745   2.503 -0.9139 -0.9190 -0.2871
   76TIP3   OH2  233   2.229   0.668   4.680 -0.0846 -0.2237  0.1158
   76TIP3    H1  234   2.170   0.606   4.637 -0.4439 -0.5755  1.0784
   76TIP3    H2  235   2.175   0.707   4.749  0.2158  0.9700 -0.3042
   77TIP3   OH2  236   4.786   5.798   2.892  0.1290  0.4577  0.0399
   77TIP3    H1  237   4.877   5.824   2.877  0.3459 -0.8344 -1.0012
   77TIP3    H2  238   4.738   5.837   2.819  0.1133 -0.2023 -0.3078
   78TIP3   OH2  239   0.609   2.517   1.234  0.0796 -0.5598 -1.0386
   78TIP3    H1  240   0.513   2.516   1.225 -0.1041  0.1431  0.4158
   78TIP3    H2  241   0.625   2.575   1.309  1.7372  0.3981 -2.0787
   79TIP3   OH2  242   6.232   4.416   0.998 -0.0625  0.1992  0.0079
   79TIP3    H1  243   6.193   4.339   1.041 -1.8847  1.4025  0.6212
   79TIP3    H2  244   6.254   4.385   0.910 -0.5668 -1.0819  0.3050
   80TIP3   OH2  245   5.113   5.310   5.096  0.3585  0.0671  0.0527
   80TIP3    H1  246   5.062   5.338   5.173 -1.0580  2.4863 -1.6183
   80TIP3    H2  247   5.195   5.358   5.102  0.7463 -0.6457  0.6147
   81TIP3   OH2  248   0.553   4.438   4.867  0.3602  0.0185  0.7947
   81TIP3    H1  249   0.460   4.460   4.873  0.4802  1.6963 -1.7634
   81TIP3    H2  250   0.598   4.508   4.913  0.4199 -1.2877  2.8693
   82TIP3   OH2  251   2.555   1.634   0.740  0.0454 -0.1583  0.1917
   82TIP3    H1  252   2.626   1.570   0.749  0.2289 -0.6068 -3.0986
   82TIP3    H2  253   2.577   1.682   0.660 -1.9779  1.5948  0.5946
   83TIP3   OH2  254   5.524   3.949  -0.015  0.2272  0.0668 -0.3524
   83TIP3    H1  255   5.448   3.892  -0.009  1.1395 -1.2945 -0.9510
   83TIP3    H2  256   5.590   3.908   0.041  0.7170  0.8859 -0.2993
   84TIP3   OH2  257   3.196   2.303   2.256 -0.3701 -0.4504 -0.0490
   84TIP3    H1  258   3.215   2.258   2.339  0.1679  0.5818  0.3968
   84TIP3    H2  259   3.253   2.379   2.256 -0.5567 -0.2904 -1.2606
   85TIP3   OH2  260   0.988   3.050   2.176  0.0041  0.0409 -0.0583
   85TIP3    H1  261   0.975   2.957   2.193  0.9953 -0.0050  0.5070
   85TIP3    H2  262   1.055   3.053   2.107  0.1243  0.3375  0.0692
   86TIP3   OH2  263   3.141   5.623   3.442  0.1495 -0.1140  0.5720
   86TIP3    H1  264   3.164   5.605   3.533 -0.8347  0.1104  0.8711
   86TIP3    H2  265   3.139   5.536   3.401  0.2335 -0.2469  0.8436
   87TIP3   OH2  266   3.943   5.471   3.553  0.3265 -0.1021  0.0354
   87TIP3    H1  267   3.879   5.492   3.485  1.5050 -0.5588 -1.2716
   87TIP3    H2  268   3.929   5.378   3.571 -0.0863  0.0528  0.5611
   88TIP3   OH2  269   3.688   0.724   3.820  0.1224 -0.3286 -0.4368
   88TIP3    H1  270   3.670   0.650   3.763  1.5043 -1.1177  0.1070
   88TIP3    H2  271   3.714   0.795   3.761 -1.5021 -0.1537 -0.9821
   89TIP3   OH2  272   4.245   5.966   1.751 -0.3829 -0.1577 -0.5885
   89TIP3    H1  273   4.206   5.933   1.670  1.2851  0.2481 -1.6039
   89TIP3    H2  274   4.331   5.923   1.755  0.8623  2.1530 -0.7166
   90TIP3   OH2  275   4.976   4.874   1.398  0.0089  0.5267 -0.0997
   90TIP3    H1  276   5.025   4.877   1.480 -2.1807 -0.9597  1.3874
   90TIP3    H2  277   5.039   4.842   1.333  1.9149  2.1777  0.8493
   91TIP3   OH2  278   2.466   4.160   1.072  0.0198  0.6266 -0.0323
   91TIP3    H1  279   2.401   4.191   1.009  1.3366  0.7447 -1.3614
   91TIP3    H2  280   2.419   4.093   1.122 -1.3872  1.3236 -0.3566
   92TIP3   OH2  281   4.876   4.216   4.446  0.2839  0.2105  0.3751
   92TIP3    H1  282   4.850   4.225   4.354 -0.3253 -1.1157  0.4053
   92TIP3    H2  283   4.965   4.182   4.442  0.4026  0.5267  0.2826
   93TIP3   OH2  284   1.924   3.176   3.452 -0.7726 -0.5149 -0.6136
   93TIP3    H1  285   1.838   3.218   3.450 -1.5304 -1.9999 -0.9220
   93TIP3    H2  286   1.923   3.124   3.532 -1.4510 -2.9910 -2.1065
   94TIP3   OH2  287   5.449   0.788   5.069 -0.0371 -0.4048  0.4723
   94TIP3    H1  288   5.483   0.811   5.156  0.3813 -0.4073  0.3142
   94TIP3    H2  289   5.507   0.718   5.038  0.4524  0.2916 -0.2304
   95TIP3   OH2  290   1.353   5.713   4.843  0.1656 -0.4749 -0.2770
   95TIP3    H1  291   1.307   5.756   4.915 -0.5274 -0.0719 -0.9487
   95TIP3    H2  292   1.445   5.720   4.866 -0.0743 -1.0230  0.9420
   96TIP3   OH2  293   5.373   5.285   4.372  0.1040  0.6328  0.6934
   96TIP3    H1  294   5.309   5.321   4.310 -0.1662 -0.7569  0.1217
   96TIP3    H2  295   5.363   5.338   4.450 -0.9923  1.1360  0.2343
   97TIP3   OH2  296   1.340   4.289   1.150  0.2101  0.3562  0.7806
   97TIP3    H1  297   1.311   4.360   1.093  0.3017  0.6255  1.0632
   97TIP3    H2  298   1.298   4.211   1.115  0.3830  0.4951  0.2614
   98TIP3   OH2  299   1.685   3.440   4.576  0.0634 -0.6661 -0.0371
   98TIP3    H1  300   1.758   3.380   4.562  0.2650 -0.6984  1.0887
   98TIP3    H2  301   1.620   3.415   4.510  1.3397 -0.1659 -1.5433
   99TIP3   OH2  302   0.842   0.863   3.016  0.2289 -0.5164  0.1614
   99TIP3    H1  303   0.932   0.897   3.010 -0.2394  0.6999 -0.1857
   99TIP3    H2  304   0.850   0.786   3.072  1.3242  0.1743  1.0010
  100TIP3   OH2  305   3.824   1.285   0.308  0.7393  0.4627  0.1902
  100TIP3    H1  306   3.917   1.266   0.315  0.2490 -1.9709  1.3821
  100TIP3    H2  307   3.794   1.233   0.234 -0.4510 -3.0498  2.8367
  101TIP3   OH2  308   1.657   2.786   0.625 -0.1947 -0.0288 -0.5195
  101TIP3    H1  309   1.631   2.860   0.680 -3.4644 -0.9769 -0.6144
  101TIP3    H2  310   1.715   2.734   0.680 -1.3457  0.3738  1.1442
  102TIP3   OH2  311   2.595   4.828   2.680  0.0452  0.0411 -0.0135
  102TIP3    H1  312   2.606   4.857   2.589 -0.3813 -1.4203 -0.5555
  102TIP3    H2  313   2.583   4.910   2.729 -0.8381  0.8205 -1.4304
  103TIP3   OH2  314   1.699   4.687   1.687 -0.7222  0.0150 -0.2424
  103TIP3    H1  315   1.764   4.679   1.757 -0.4236 -0.6155 -0.5777
  103TIP3    H2  316   1.750   4.678   1.606 -0.9933  1.1964 -0.5655
  104TIP3   OH2  317   4.609   5.202   1.572  0.0941 -0.5402  0.0289
  104TIP3    H1  318   4.649   5.218   1.658 -0.5074  0.2384  0.1823
  104TIP3    H2  319   4.633   5.112   1.550 -0.1295 -0.9156  1.2351
  105TIP3   OH2  320   5.397   5.913   4.542  0.0128  0.3530  0.0310
  105TIP3    H1  321   5.378   5.834   4.592  2.0666 -0.4773 -0.4225
  105TIP3    H2  322   5.310   5.950   4.522 -0.9279 -0.8977  1.6026
  106TIP3   OH2  323   0.784   0.952   4.727 -0.2604 -0.0059  0.0424
  106TIP3    H1  324   0.757   1.044   4.731 -0.6291 -0.1253  0.3252
  106TIP3    H2  325   0.876   0.953   4.753 -0.1162  0.3486 -0.4760
  107TIP3   OH2  326   4.134   4.655   4.347 -0.1243  0.0142 -0.7142
  107TIP3    H1  327   4.069   4.590   4.322  0.6382 -0.2382 -2.2018
  107TIP3    H2  328   4.203   4.646   4.280  2.4900 -1.2337  1.9190
  108TIP3   OH2  329   1.073   1.575   0.719  0.2949  0.0071  0.3571
  108TIP3    H1  330   0.984   1.609   0.709  0.5309  2.7956  4.9308
  108TIP3    H2  331   1.062   1.493   0.768  0.2316  0.2266  0.7110
  109TIP3   OH2  332   4.518   4.152   1.818 -0.0725  0.1317 -0.4375
  109TIP3    H1  333   4.591   4.196   1.862 -0.8974 -0.3894  1.5488
  109TIP3    H2  334   4.557   4.115   1.739  1.0773  2.6232 -1.1358
  110TIP3   OH2  335   1.975   3.859   2.116 -0.0725 -0.6478 -0.1120
  110TIP3    H1  336   1.941   3.874   2.204  0.4243  1.6924 -0.2591
  110TIP3    H2  337   2.064   3.827   2.129 -0.2647 -1.0513  0.2247
  111TIP3   OH2  338   2.391   4.035   3.560 -0.1763 -0.3892 -0.8886
  111TIP3    H1  339   2.378   4.115   3.610 -1.0464 -0.9746 -0.1450
  111TIP3    H2  340   2.314   4.029   3.502 -0.3942 -0.9494 -0.5554
  112TIP3   OH2  341   1.339   5.594   3.643  0.0047  0.1096  0.2258
  112TIP3    H1  342   1.253   5.635   3.654 -0.1801 -0.5626  1.5033
  112TIP3    H2  343   1.369   5.577   3.732  1.4243  0.2263 -0.2090
  113TIP3   OH2  344   4.285   4.993   3.333  0.0380 -0.0121  0.0510
  113TIP3    H1  345   4.260   4.933   3.263 -0.5575 -0.6262  0.7716
  113TIP3    H2  346   4.297   4.937   3.410  0.5037  0.6717  0.4912
  114TIP3   OH2  347   3.376   4.726   3.829 -0.2170  0.3735  0.0601
  114TIP3    H1  348   3.284   4.713   3.805 -0.0913 -0.8467  0.1669
  114TIP3    H2  349   3.380   4.702   3.922 -0.1732  2.4447  0.6454
  115TIP3   OH2  350   2.191   3.016   2.679  0.2617  0.7820 -0.2207
  115TIP3    H1  351   2.179   3.055   2.592  1.0294 -0.0154 -0.6965
  115TIP3    H2  352   2.191   3.091   2.739  0.3491  1.3926 -0.9719
  116TIP3   OH2  353   5.900   1.257   4.517  0.0294 -0.0000  0.2405
  116TIP3    H1  354   5.855   1.190   4.465 -0.6316  0.5812  0.0503
  116TIP3    H2  355   5.993   1.236   4.508 -0.0419  0.2120 -1.3680
  117TIP3   OH2  356   2.832   2.473   3.244  0.0150 -0.3485  0.2154
  117TIP3    H1  357   2.764   2.527   3.285  1.2462  1.1133  0.4526
  117TIP3    H2  358   2.901   2.535   3.222  0.6001 -1.5489 -1.5039
  118TIP3   OH2  359   1.668   3.398   4.859 -0.1142 -0.8211 -0.3929
  118TIP3    H1  360   1.677   3.417   4.765 -1.4737 -2.0474 -0.8201
  118TIP3    H2  361   1.755   3.371   4.886  0.8389  1.6058 -0.7476
  119TIP3   OH2  362   0.187   1.256   3.583 -0.4970 -0.3706 -0.0422
  119TIP3    H1  363   0.184   1.349   3.604  0.6399  0.1207 -1.8239
  119TIP3    H2  364   0.252   1.220   3.643  0.4774  0.4028 -0.5880
  120TIP3   OH2  365   4.948   0.371   4.079 -0.2446  0.1344 -0.2426
  120TIP3    H1  366   5.036   0.338   4.063  0.2646  0.8263  0.9704
  120TIP3    H2  367   4.931   0.430   4.006  0.8439  1.0129  0.1913
  121TIP3   OH2  368   2.646   3.175   4.410 -0.2324 -0.0431 -0.4259
  121TIP3    H1  369   2.551   3.187   4.407 -0.1038  0.8639 -2.0875
  121TIP3    H2  370   2.681   3.244   4.354  1.3393 -1.2128 -0.9577
  122TIP3   OH2  371   1.743   1.282   2.682 -0.3700  0.5491  0.3453
  122TIP3    H1  372   1.736   1.220   2.755 -0.3214  2.0282  1.6537
  122TIP3    H2  373   1.666   1.264   2.628  0.5031 -1.7556 -0.2550
  123TIP3   OH2  374   6.281   5.646   3.390 -0.2225 -0.4397 -0.7522
  123TIP3    H1  375   6.217   5.711   3.420 -0.2885 -0.2186 -1.3441
  123TIP3    H2  376   6.230   5.586   3.336 -0.0737 -0.7181 -0.5842
  124TIP3   OH2  377   2.514   2.125   4.438 -0.0869  0.2704 -0.4333
  124TIP3    H1  378   2.430   2.133   4.484  0.1025 -0.6653  0.1227
  124TIP3    H2  379   2.510   2.039   4.396 -0.0197  0.8793 -1.7088
  125TIP3   OH2  380   1.306   1.804   0.203  0.4085  0.1710  0.0837
  125TIP3    H1  381   1.326   1.754   0.282  0.9100 -3.1499 -1.9215
  125TIP3    H2  382   1.261   1.882   0.234  1.6046 -0.4000  3.6647
  126TIP3   OH2  383   0.325   0.035   2.136 -0.1642 -0.0897  0.3027
  126TIP3    H1  384   0.400  -0.022   2.125 -1.1470 -1.3053 -0.3435
  126TIP3    H2  385   0.339   0.078   2.220  1.4413  0.0277 -0.0040
  127TIP3   OH2  386   0.973   2.804   4.722  0.2890 -0.4558 -0.3176
  127TIP3    H1  387   0.937   2.883   4.761  2.7053  1.5305 -1.8313
  127TIP3    H2  388   0.949   2.809   4.630  1.3087 -0.9515 -0.6203
  128TIP3   OH2  389   5.605   5.145   4.283 -0.0608 -0.2424 -0.2123
  128TIP3    H1  390   5.585   5.110   4.196 -1.2483 -0.7097  0.2232
  128TIP3    H2  391   5.526   5.194   4.307  0.0047 -0.6293  0.8404
  129TIP3   OH2  392   0.807   4.201   1.944 -0.3397  0.3800 -0.4593
  129TIP3    H1  393   0.756   4.129   1.981 -1.1110  0.6459 -0.9697
  129TIP3    H2  394   0.813   4.181   1.851 -2.2863  1.9320 -0.9909
  130TIP3   OH2  395   5.253   3.898   3.813 -0.2402 -0.4471  0.1996
  130TIP3    H1  396   5.293   3.813   3.793  0.0199 -0.0743 -1.0138
  130TIP3    H2  397   5.162   3.889   3.785  0.4726  0.5429 -2.8279
  131TIP3   OH2  398   5.703   2.901   1.601  0.0726 -0.0354  0.3527
  131TIP3    H1  399   5.695   2.932   1.692  1.3787 -0.5514  0.6721
  131TIP3    H2  400   5.650   2.962   1.550  0.0506  0.8152  1.3585
  132TIP3   OH2  401   4.999   0.471   5.115  0.2424 -0.0677  0.0502
  132TIP3    H1  402   4.985   0.398   5.055  0.6380 -0.5031  0.4853
  132TIP3    H2  403   5.088   0.501   5.097  0.2641 -0.0214  0.2283
  133TIP3   OH2  404   1.625   1.996   0.321 -0.5097  0.1634  0.0421
  133TIP3    H1  405   1.555   2.033   0.374 -0.3859 -0.4283  0.6498
  133TIP3    H2  406   1.684   2.069   0.304 -0.5163  0.3588  0.8000
  134TIP3   OH2  407   1.597   3.474   2.487  0.0630  0.4663 -0.3643
  134TIP3    H1  408   1.636   3.463   2.401 -0.3325 -0.8089 -0.4120
  134TIP3    H2  409   1.515   3.424   2.482  0.1161  0.2323  0.7877
  135TIP3   OH2  410   3.292   4.309   1.722  0.0823 -0.4270  0.5174
  135TIP3    H1  411   3.303   4.275   1.633 -2.3220 -0.8072  0.3024
  135TIP3    H2  412   3.274   4.402   1.710  1.0959 -0.1836  0.7409
  136TIP3   OH2  413   0.378   5.794   2.607  0.2843 -0.1856 -0.0458
  136TIP3    H1  414   0.299   5.835   2.644 -0.9694 -1.8625 -0.7458
  136TIP3    H2  415   0.431   5.771   2.683 -1.2310 -1.5782  0.6352
  137TIP3   OH2  416   1.901   5.191   5.116 -0.2677  1.0275 -0.1103
  137TIP3    H1  417   1.992   5.179   5.141 -0.9467 -1.7297  1.5400
  137TIP3    H2  418   1.861   5.237   5.190 -0.9500 -1.3685  1.1155
  138TIP3   OH2  419   5.846   1.274   5.039  0.5710  0.2596  0.0836
  138TIP3    H1  420   5.864   1.349   4.982  0.8639 -0.7470 -1.1816
  138TIP3    H2  421   5.907   1.206   5.009 -0.1074 -0.6920  0.8093
  139TIP3   OH2  422   2.409   3.940   2.961  0.5595 -0.0762  0.0128
  139TIP3    H1  423   2.485   3.993   2.987  1.0010 -0.7634  0.1678
  139TIP3    H2  424   2.404   3.951   2.866  1.2450 -0.5064 -0.0838
  140TIP3   OH2  425   4.777   0.302   3.830 -0.0203 -0.2008  0.0059
  140TIP3    H1  426   4.779   0.394   3.853 -0.0820  0.2934 -1.8199
  140TIP3    H2  427   4.684   0.279   3.832  0.1128 -0.9225  2.7830
  141TIP3   OH2  428   5.421   0.799   4.566  0.2229 -0.1294  0.1490
  141TIP3    H1  429   5.413   0.892   4.544 -1.3356 -0.1051  0.7054
  141TIP3    H2  430   5.515   0.781   4.559  0.4180  1.1694 -1.1905
  142TIP3   OH2  431   6.281   4.839   1.557 -0.0633 -0.1335  0.1423
  142TIP3    H1  432   6.187   4.844   1.538 -0.2392 -0.6382  0.8371
  142TIP3    H2  433   6.299   4.919   1.606 -0.2659 -0.3495  0.5694
  143TIP3   OH2  434   0.553   1.773   0.297  0.7300 -0.3102 -0.0869
  143TIP3    H1  435   0.504   1.764   0.215 -1.4380 -0.1030  1.1266
  143TIP3    H2  436   0.538   1.863   0.324  1.1949 -0.4591  0.6947
  144TIP3   OH2  437   5.917   4.145   0.122 -0.2900  0.2802 -0.0277
  144TIP3    H1  438   5.897   4.058   0.086  0.2503  0.2352 -0.2262
  144TIP3    H2  439   6.012   4.148   0.125 -0.2865 -0.1467  2.4917
  145TIP3   OH2  440   3.052   3.486   2.684  0.1030 -0.0648  0.2499
  145TIP3    H1  441   3.100   3.538   2.749 -0.4883 -0.0333  0.6658
  145TIP3    H2  442   3.037   3.402   2.727  0.8383 -0.5133 -0.3314
  146TIP3   OH2  443   4.503   3.322   1.275 -0.2747 -0.2376 -0.1679
  146TIP3    H1  444   4.472   3.361   1.357  0.1515 -0.6349  0.1885
  146TIP3    H2  445   4.599   3.322   1.283 -0.0385  2.3422 -1.8645
  147TIP3   OH2  446   1.322   2.528   4.873 -0.5768 -0.0545  0.1465
  147TIP3    H1  447   1.352   2.567   4.956 -2.9247  2.1789  0.1006
  147TIP3    H2  448   1.272   2.451   4.900  0.2819 -0.4500  0.6405
  148TIP3   OH2  449   6.266   2.764   3.280 -0.1970  0.0281 -0.0013
  148TIP3    H1  450   6.247   2.710   3.204 -0.2351  2.2962 -1.6928
  148TIP3    H2  451   6.359   2.785   3.272 -0.2664  0.5165  0.4173
  149TIP3   OH2  452   5.583   2.342   1.586 -0.0504 -0.4722 -0.0474
  149TIP3    H1  453   5.556   2.308   1.500 -0.7666  1.6528 -0.7190
  149TIP3    H2  454   5.679   2.345   1.581  0.1331 -3.2168  0.4238
  150TIP3   OH2  455   0.279   1.808   0.604  0.3452  0.4017 -0.3676
  150TIP3    H1  456   0.316   1.859   0.676  1.5731 -1.0550  0.0843
  150TIP3    H2  457   0.237   1.873   0.547  1.4058  1.8357  0.4389
  151TIP3   OH2  458   0.661   2.608   3.970  0.1711  0.4555  0.1175
  151TIP3    H1  459   0.595   2.653   4.022 -0.1099  0.1468  0.0289
  151TIP3    H2  460   0.611   2.554   3.909  0.5058  0.1680  0.0947
  152TIP3   OH2  461   0.678   4.699   2.737 -0.4641  0.2227 -0.6022
  152TIP3    H1  462   0.762   4.744   2.750 -0.5645  0.2288  0.0862
  152TIP3    H2  463   0.693   4.642   2.662  0.4568 -0.4736  0.0866
  153TIP3   OH2  464   4.076   5.935   0.042 -0.2482  0.2476  0.2275
  153TIP3    H1  465   3.997   5.950  -0.011 -1.7742 -2.7904  1.3625
  153TIP3    H2  466   4.062   5.849   0.081  3.3877 -0.1384  1.0501
  154TIP3   OH2  467   0.983   0.387   1.264  0.0249  0.1949  0.2424
  154TIP3    H1  468   1.005   0.436   1.343 -0.1404  0.4187  0.1524
  154TIP3    H2  469   0.998   0.296   1.287  0.2389  0.2803  0.4446
  155TIP3   OH2  470   2.814   4.521   1.334  0.0239  0.3704  0.1709
  155TIP3    H1  471   2.790   4.599   1.284 -0.2008  0.3035  0.1725
  155TIP3    H2  472   2.733   4.470   1.340  0.0281  0.4153  0.6692
  156TIP3   OH2  473   3.956   0.182   0.536 -0.4976  0.1773  0.4909
  156TIP3    H1  474   3.939   0.174   0.630  1.1622 -0.3020  0.7868
  156TIP3    H2  475   3.873   0.161   0.495 -0.9420 -0.8121  1.8191
  157TIP3   OH2  476   1.326   3.887   2.263  0.4297 -0.3710 -0.6386
  157TIP3    H1  477   1.382   3.913   2.189  2.6398  0.3880  1.1988
  157TIP3    H2  478   1.369   3.924   2.340 -0.5132 -3.0754  1.3182
  158TIP3   OH2  479   2.483   3.077   1.713 -0.1341 -0.3857 -0.0383
  158TIP3    H1  480   2.501   3.127   1.633 -0.0961  0.2909  0.3913
  158TIP3    H2  481   2.508   3.135   1.784  2.7957 -2.0933  0.4876
  159TIP3   OH2  482   6.198   5.700   2.268 -0.3496  0.0830 -0.2475
  159TIP3    H1  483   6.186   5.647   2.189 -0.2023  0.0406 -0.2425
  159TIP3    H2  484   6.222   5.636   2.336  1.5341  0.3459 -0.6343
  160TIP3   OH2  485   2.962   5.785   2.130  0.5973  0.2003  0.5461
  160TIP3    H1  486   2.960   5.690   2.117  0.5774  0.5094 -2.2584
  160TIP3    H2  487   2.871   5.808   2.149  0.2830 -0.1840 -0.4196
  161TIP3   OH2  488   3.224   1.301   2.315  0.0692 -0.6614 -0.9622
  161TIP3    H1  489   3.191   1.386   2.344  1.3970 -1.2524  2.7769
  161TIP3    H2  490   3.163   1.237   2.351  0.8366 -1.4086 -0.9524
  162TIP3   OH2  491   4.416   4.626   1.996  0.2955  0.2476 -0.0570
  162TIP3    H1  492   4.473   4.562   2.039  0.1101 -0.1917 -0.4533
  162TIP3    H2  493   4.337   4.576   1.975  0.2204  0.5584 -0.5305
  163TIP3   OH2  494   5.265   3.295   0.022 -0.1602 -0.1144 -0.1320
  163TIP3    H1  495   5.171   3.298   0.037 -0.0958  1.8197  0.1399
  163TIP3    H2  496   5.299   3.243   0.095 -0.7560  1.6742  1.5141
  164TIP3   OH2  497   0.257   2.304   3.700 -0.3922  0.3235  0.4474
  164TIP3    H1  498   0.306   2.274   3.623  0.8374  1.0541  0.9298
  164TIP3    H2  499   0.180   2.247   3.702 -1.1697  1.1449 -2.0911
  165TIP3   OH2  500   0.563   5.953   0.783 -0.1383 -0.3485  0.6554
  165TIP3    H1  501   0.507   5.963   0.860 -1.5630  2.0851 -0.5906
  165TIP3    H2  502   0.503   5.929   0.712  0.9099 -0.9607 -0.0551
  166TIP3   OH2  503   3.645   3.898  -0.011  0.7785  0.0803 -0.6110
  166TIP3    H1  504   3.581   3.968  -0.024  1.0086  0.6588  1.1298
  166TIP3    H2  505   3.676   3.910   0.078  1.1714 -1.9686 -0.4145
  167TIP3   OH2  506   1.899   1.800   2.561 -0.1873  0.1992 -0.0428
  167TIP3    H1  507   1.862   1.724   2.516 -1.4694 -0.7814  2.4908
  167TIP3    H2  508   1.830   1.866   2.558 -0.0833  0.3138  0.0669
  168TIP3   OH2  509   2.366   4.914   3.923  0.0132 -0.0095  0.2878
  168TIP3    H1  510   2.317   4.977   3.977  1.6886  1.2627  0.4019
  168TIP3    H2  511   2.421   4.969   3.867  0.1886 -1.3703 -0.9204
  169TIP3   OH2  512   5.415   2.208   1.746  0.2114  0.2299  0.1185
  169TIP3    H1  513   5.465   2.261   1.685 -1.0433  0.3981 -0.7936
  169TIP3    H2  514   5.337   2.260   1.766  0.1680 -0.2022  1.1687
  170TIP3   OH2  515   0.949   4.888   2.031  0.4836 -0.3651  0.1706
  170TIP3    H1  516   1.037   4.869   2.000  0.4093  0.2948 -0.5006
  170TIP3    H2  517   0.895   4.818   1.996  0.7374 -0.7596  0.5676
  171TIP3   OH2  518   2.314   1.010   2.740 -0.2126 -0.2811 -0.2633
  171TIP3    H1  519   2.356   1.081   2.692  0.3349 -1.3433 -1.4350
  171TIP3    H2  520   2.385   0.950   2.762 -0.8661 -1.3040 -0.8355
  172TIP3   OH2  521   2.167   5.104   0.560 -0.0510 -0.1735 -0.4696
  172TIP3    H1  522   2.178   5.139   0.472  1.1467  0.1863 -0.1957
  172TIP3    H2  523   2.141   5.013   0.547 -0.1906 -0.0345 -1.1896
  173TIP3   OH2  524   1.461   3.031   4.666  0.2274  0.5299 -0.0826
  173TIP3    H1  525   1.535   3.048   4.725 -0.8342  0.5728  1.2839
  173TIP3    H2  526   1.448   2.936   4.672  1.3326  0.2210 -1.8057
  174TIP3   OH2  527   6.198   0.358   0.014 -0.1934  0.3048 -0.8767
  174TIP3    H1  528   6.293   0.368   0.025 -0.4749  1.7470  0.5484
  174TIP3    H2  529   6.169   0.441  -0.023 -1.3721  1.5094  2.3926
  175TIP3   OH2  530   5.357   0.349   1.409  0.6338  0.1673 -0.2278
  175TIP3    H1  531   5.363   0.432   1.362 -1.1256  0.3519 -0.1570
  175TIP3    H2  532   5.301   0.367   1.484  0.4103 -1.0396 -0.0824
  176TIP3   OH2  533   0.311   0.932   0.197  0.1171  0.6333  0.3391
  176TIP3    H1  534   0.375   0.885   0.145  0.9630  0.2381  1.6924
  176TIP3    H2  535   0.249   0.865   0.226 -0.4894  0.8905 -0.3439
  177TIP3   OH2  536   3.014   2.894   1.102  0.1930  0.1220  0.3085
  177TIP3    H1  537   3.041   2.831   1.035  0.2966  0.7417 -0.2431
  177TIP3    H2  538   2.921   2.879   1.112  0.1723  0.0337  0.0090
  178TIP3   OH2  539   5.147   5.276   3.281 -0.0293 -0.0892 -0.0167
  178TIP3    H1  540   5.155   5.337   3.208  1.7203 -0.7262 -0.4048
  178TIP3    H2  541   5.100   5.201   3.244 -0.0733  0.0277 -0.1993
  179TIP3   OH2  542   2.447   2.181   1.131  0.8888  0.3957  0.0429
  179TIP3    H1  543   2.475   2.098   1.169  0.0071  0.6749  1.3497
  179TIP3    H2  544   2.520   2.207   1.074  0.7976 -1.6839 -1.1046
  180TIP3   OH2  545   1.392   4.773   0.220 -0.0362 -0.1343 -0.8261
  180TIP3    H1  546   1.376   4.678   0.222 -1.4689  0.0602 -1.4757
  180TIP3    H2  547   1.381   4.796   0.128  0.5210  0.6342 -0.7006
  181TIP3   OH2  548   5.769   2.276   0.783  0.3681  0.2292  0.0139
  181TIP3    H1  549   5.848   2.224   0.771  0.4459  0.6128 -1.3613
  181TIP3    H2  550   5.799   2.359   0.821  0.5805  0.2000 -0.0888
  182TIP3   OH2  551   3.088   3.794   3.440  0.4381  0.4157  0.2555
  182TIP3    H1  552   3.104   3.876   3.488  1.1446  1.1274 -1.1324
  182TIP3    H2  553   3.175   3.761   3.419  0.1455 -0.4391  0.3810
  183TIP3   OH2  554   2.578   5.379   3.357 -0.2135 -0.4610  0.0113
  183TIP3    H1  555   2.508   5.444   3.350 -0.6679 -0.8445  0.8962
  183TIP3    H2  556   2.592   5.349   3.266 -0.6503  0.1765 -0.2707
  184TIP3   OH2  557   1.815   4.974   0.901 -0.0353  0.3367 -0.0643
  184TIP3    H1  558   1.730   4.930   0.891 -0.7452  1.6193  0.1117
  184TIP3    H2  559   1.851   4.976   0.812  0.1281 -0.7809 -0.0449
  185TIP3   OH2  560   1.219   4.531   4.481  0.0721 -0.0173 -0.6311
  185TIP3    H1  561   1.153   4.600   4.478  0.4574  0.5383  1.6161
  185TIP3    H2  562   1.301   4.578   4.499  0.3273 -1.0266  1.0250
  186TIP3   OH2  563   3.050   4.467   0.348 -0.4554 -0.1390  0.5002
  186TIP3    H1  564   3.033   4.560   0.337 -3.4180 -0.3854  2.0506
  186TIP3    H2  565   2.994   4.424   0.282 -0.7361 -0.8517  1.1804
  187TIP3   OH2  566   5.511   4.259   1.375  0.0347 -0.2079 -0.6617
  187TIP3    H1  567   5.461   4.259   1.294 -0.7708  1.2200 -0.2019
  187TIP3    H2  568   5.482   4.337   1.422  1.8178  0.0202  0.1775
  188TIP3   OH2  569   4.504   0.185   3.255 -0.0251  0.9412  0.0185
  188TIP3    H1  570   4.418   0.158   3.287 -1.2395  2.0875 -2.0888
  188TIP3    H2  571   4.558   0.107   3.262 -1.8791 -0.4655 -0.7461
  189TIP3   OH2  572   5.280   2.940   4.628  0.2418 -0.2524 -0.2547
  189TIP3    H1  573   5.252   2.985   4.708  3.6361 -1.1538  1.6652
  189TIP3    H2  574   5.311   3.011   4.572 -1.3077  0.3216 -0.4322
  190TIP3   OH2  575   0.777   3.902   3.519  0.2051  0.4066  0.2551
  190TIP3    H1  576   0.688   3.929   3.543  0.0021 -1.1834  1.3833
  190TIP3    H2  577   0.830   3.924   3.595  1.2413  3.1552 -1.1162
  191TIP3   OH2  578   2.839   0.581   1.193 -0.2528 -0.3914 -0.2082
  191TIP3    H1  579   2.922   0.554   1.154 -0.6084 -1.3876 -0.3139
  191TIP3    H2  580   2.773   0.530   1.147 -0.7975 -0.6342  0.8109
  192TIP3   OH2  581   0.791   4.438   4.220  0.4046 -0.1344  0.5185
  192TIP3    H1  582   0.875   4.466   4.257 -0.1620  1.0471  0.9892
  192TIP3    H2  583   0.767   4.508   4.158 -0.4752 -0.1693  0.7960
  193TIP3   OH2  584   6.240   1.522   2.650  0.1739  0.4850 -0.9037
  193TIP3    H1  585   6.146   1.540   2.647 -0.2403 -1.4202 -0.5732
  193TIP3    H2  586   6.248   1.430   2.623  1.8342  0.2867  0.1331
  194TIP3   OH2  587   2.098   3.508   2.575  1.1005 -0.0080  0.2402
  194TIP3    H1  588   2.163   3.577   2.563  1.1480 -0.2408 -0.9871
  194TIP3    H2  589   2.136   3.431   2.532 -0.5277  0.2086 -1.7700
  195TIP3   OH2  590   5.748   0.459   3.936  0.0000 -0.4092  0.5613
  195TIP3    H1  591   5.715   0.467   4.025 -1.8475  0.3573 -0.1411
  195TIP3    H2  592   5.672   0.478   3.881  1.0123 -1.2167 -1.1787
  196TIP3   OH2  593   0.559   0.158   4.865 -0.4294  0.0398  0.3031
  196TIP3    H1  594   0.566   0.193   4.776  0.9182 -1.2951 -0.1700
  196TIP3    H2  595   0.494   0.088   4.857  0.8220 -1.1583 -0.0800
  197TIP3   OH2  596   4.267   5.557   2.989 -0.3853 -0.2020 -0.0055
  197TIP3    H1  597   4.174   5.545   2.970 -0.3706  0.7829 -0.7601
  197TIP3    H2  598   4.269   5.623   3.059 -0.2814 -1.1218  0.8957
  198TIP3   OH2  599   0.892   2.205   1.868  0.1608 -0.0593  0.0326
  198TIP3    H1  600   0.803   2.226   1.841 -0.5226 -1.6119  0.9169
  198TIP3    H2  601   0.890   2.211   1.964  0.7034 -1.0924  0.1300
  199TIP3   OH2  602   0.147   5.859   0.976 -0.0339 -0.2387 -0.4780
  199TIP3    H1  603   0.229   5.871   1.024  0.4874 -1.2853 -1.0623
  199TIP3    H2  604   0.090   5.813   1.037 -0.4649  1.1398  0.1885
  200TIP3   OH2  605   5.643   3.838   3.850  0.2054  0.5133  0.1760
  200TIP3    H1  606   5.552   3.812   3.839  0.1732  0.5209  0.4115
  200TIP3    H2  607   5.692   3.756   3.847  0.1180  0.4324  0.7704
  201TIP3   OH2  608   0.243   2.535   2.837 -0.0806  0.4593  0.6885
  201TIP3    H1  609   0.180   2.495   2.778  1.8804 -0.7264 -0.6988
  201TIP3    H2  610   0.244   2.628   2.812  1.0217 -0.0825 -1.5230
  202TIP3   OH2  611   4.386   5.429   5.146 -0.1654 -0.0321 -0.2792
  202TIP3    H1  612   4.442   5.358   5.177 -0.3170  0.5051  1.2999
  202TIP3    H2  613   4.442   5.483   5.090  0.7263  0.1435  0.7707
  203TIP3   OH2  614   6.308   0.120   0.248 -0.3676 -0.1366  0.1302
  203TIP3    H1  615   6.346   0.183   0.186 -1.1422  0.9372  0.7300
  203TIP3    H2  616   6.268   0.053   0.192  2.2571 -1.2920 -0.5382
  204TIP3   OH2  617   5.921   2.625   0.067 -0.5492  0.3629 -0.2199
  204TIP3    H1  618   5.846   2.583   0.024  0.1656 -1.4572  0.2314
  204TIP3    H2  619   5.883   2.698   0.116 -1.9160 -0.0265 -0.6601
  205TIP3   OH2  620   0.616   1.733   2.793 -0.1975  0.3097  0.1218
  205TIP3    H1  621   0.653   1.722   2.881 -0.9471  1.1996  0.5633
  205TIP3    H2  622   0.579   1.821   2.793 -0.2346  0.3135 -1.0874
  206TIP3   OH2  623   5.460   5.825   3.621  0.5480 -0.0576  0.6846
  206TIP3    H1  624   5.419   5.777   3.693 -3.1336  2.0061  0.2578
  206TIP3    H2  625   5.452   5.768   3.546 -1.2535  0.0801  0.7356
  207TIP3   OH2  626   0.624   4.366   2.063 -0.2477  0.2376  0.5410
  207TIP3    H1  627   0.662   4.382   2.149 -0.1181  2.7665  0.0849
  207TIP3    H2  628   0.692   4.317   2.016 -0.0168 -0.5041  1.6000
  208TIP3   OH2  629   4.653   4.372   1.103 -0.0920  0.0529  0.1920
  208TIP3    H1  630   4.662   4.278   1.120 -0.8406 -0.1409 -0.4549
  208TIP3    H2  631   4.572   4.380   1.052 -0.1832  1.0806  0.4854
  209TIP3   OH2  632   1.003   1.839   4.626 -0.1231  0.0885 -0.2491
  209TIP3    H1  633   1.014   1.934   4.626 -0.7131  0.2002  1.8023
  209TIP3    H2  634   0.999   1.815   4.719  0.3386 -1.9887 -0.7159
  210TIP3   OH2  635   6.274   4.885   4.401 -0.0121 -0.6731  0.3458
  210TIP3    H1  636   6.285   4.973   4.438 -1.7691 -0.7458  1.1542
  210TIP3    H2  637   6.183   4.862   4.422  0.0935 -2.2538 -0.7929
  211TIP3   OH2  638   2.577   1.562   3.074 -0.1990 -0.0415  0.0897
  211TIP3    H1  639   2.629   1.526   3.001  0.4493  1.0534 -0.0162
  211TIP3    H2  640   2.639   1.616   3.123 -0.8597 -0.0213  0.9265
  212TIP3   OH2  641   0.930   4.934   0.816 -0.5085 -0.5475  0.1238
  212TIP3    H1  642   0.903   4.893   0.898 -3.7573  0.3735 -0.3506
  212TIP3    H2  643   0.938   5.027   0.837 -0.9689 -0.3632 -0.4960
  213TIP3   OH2  644   3.028   0.272   2.231  0.4943  0.7118 -0.2104
  213TIP3    H1  645   3.080   0.274   2.151  0.6664  0.1113 -0.1176
  213TIP3    H2  646   2.951   0.219   2.208  1.2803 -0.7535  0.4535
  214TIP3   OH2  647   5.412   4.282   3.626  0.2774  0.1932 -0.0714
  214TIP3    H1  648   5.454   4.198   3.646 -1.0583 -0.1546  1.3972
  214TIP3    H2  649   5.356   4.262   3.551 -1.1216 -0.6350  1.1357
  215TIP3   OH2  650   3.704   2.815   4.491 -0.2819  0.4516 -0.7943
  215TIP3    H1  651   3.745   2.871   4.426  1.3734  0.0399 -0.1566
  215TIP3    H2  652   3.773   2.799   4.556 -1.8199  0.7066  0.9782
  216TIP3   OH2  653   3.728   5.338   4.654  0.2182  0.3109  0.0452
  216TIP3    H1  654   3.683   5.255   4.667  0.2199  0.4332  0.9345
  216TIP3    H2  655   3.695   5.371   4.570  0.9852 -1.0517 -0.8223
  217TIP3   OH2  656   3.721   0.438   2.311  0.6863  0.6514  0.1264
  217TIP3    H1  657   3.630   0.467   2.309  0.4440 -0.1152 -1.1321
  217TIP3    H2  658   3.718   0.354   2.357  0.8338  0.8245  0.4590
  218TIP3   OH2  659   5.636   1.833   2.762  0.0662 -0.1900 -0.3749
  218TIP3    H1  660   5.633   1.836   2.667 -2.7779  1.7662 -0.3563
  218TIP3    H2  661   5.588   1.754   2.786 -1.6403  0.7334 -0.6128
  219TIP3   OH2  662   0.560   2.024   2.820  0.2243 -0.9677 -0.2220
  219TIP3    H1  663   0.576   2.108   2.776  1.4999 -0.5748  0.9105
  219TIP3    H2  664   0.523   2.048   2.905  1.0573 -1.5165  0.3075
  220TIP3   OH2  665   0.640   5.467   3.494  0.1159  0.3979  0.1624
  220TIP3    H1  666   0.555   5.428   3.475  0.7330 -1.3769  0.8933
  220TIP3    H2  667   0.624   5.521   3.572 -0.9948  2.6723 -1.5167
  221TIP3   OH2  668   5.577   5.194   3.394 -0.0621  0.2167 -0.3235
  221TIP3    H1  669   5.627   5.226   3.319  1.4724  1.3127  1.0982
  221TIP3    H2  670   5.586   5.099   3.391  0.4050  0.2839 -1.2295
  222TIP3   OH2  671   1.733   3.013   5.068 -1.0163  0.3802  0.0468
  222TIP3    H1  672   1.643   2.981   5.068 -1.2203  0.9335 -0.7672
  222TIP3    H2  673   1.730   3.092   5.122 -0.5856 -0.7058  1.7478
  223TIP3   OH2  674   1.737   3.008   1.581 -0.2320 -0.1340 -0.3955
  223TIP3    H1  675   1.681   3.085   1.590  1.8413  1.2780  1.5281
  223TIP3    H2  676   1.822   3.043   1.553  0.5450 -1.8097 -0.2677
  224TIP3   OH2  677   2.093   2.252   4.986 -0.4162 -0.1432  0.4054
  224TIP3    H1  678   2.160   2.268   4.921 -0.9618 -0.7067 -0.3162
  224TIP3    H2  679   2.018   2.305   4.957 -0.6639 -0.4002  0.5704
  225TIP3   OH2  680   4.646   0.129   1.808  0.4039  0.4868 -0.2886
  225TIP3    H1  681   4.674   0.151   1.898  0.9595  0.2273 -0.3898
  225TIP3    H2  682   4.557   0.095   1.818  0.3171  0.8244  0.1182
  226TIP3   OH2  683   0.848   1.453   2.885  0.4263 -0.2137 -0.0315
  226TIP3    H1  684   0.820   1.409   2.966  0.9584  2.1468  1.5505
  226TIP3    H2  685   0.934   1.490   2.906  0.8204  0.0327 -1.8845
  227TIP3   OH2  686   3.890   0.802   0.832 -0.3162 -0.3628 -0.0626
  227TIP3    H1  687   3.854   0.788   0.920 -3.7867  1.1082 -1.0602
  227TIP3    H2  688   3.943   0.881   0.840 -0.8240 -0.0841  0.6676
  228TIP3   OH2  689   3.834   0.320   2.043  0.7503  0.4353  0.0797
  228TIP3    H1  690   3.747   0.348   2.072  0.6653  1.6008 -1.1927
  228TIP3    H2  691   3.825   0.226   2.027 -0.0166  0.3696  0.7904
  229TIP3   OH2  692   4.908   2.510   2.834 -0.3404 -0.0076 -0.1129
  229TIP3    H1  693   4.951   2.429   2.807  2.9245  1.8861 -1.1592
  229TIP3    H2  694   4.964   2.544   2.904 -0.5217  2.2145 -0.9718
  230TIP3   OH2  695   4.040   4.598   3.753 -0.2098 -0.3048 -0.1795
  230TIP3    H1  696   4.064   4.543   3.827  0.9069 -0.4724 -0.6447
  230TIP3    H2  697   4.008   4.679   3.792  0.7819 -0.2212  0.4992
  231TIP3   OH2  698   0.857   3.525   5.016  0.2853  0.5836 -0.2581
  231TIP3    H1  699   0.823   3.441   4.985  1.1490 -0.0700  0.5302
  231TIP3    H2  700   0.813   3.539   5.100 -0.4445  1.3200 -0.7428
  232TIP3   OH2  701   4.747   0.773   0.982 -0.2656  0.1480 -0.2459
  232TIP3    H1  702   4.819   0.834   0.994 -0.2357  0.3346 -1.3220
  232TIP3    H2  703   4.690   0.815   0.917 -1.0076 -0.2935  0.1046
  233TIP3   OH2  704   2.325   3.721   3.130  0.2142 -0.0126  0.0704
  233TIP3    H1  705   2.332   3.639   3.080 -2.4697 -0.1736 -0.2007
  233TIP3    H2  706   2.332   3.790   3.064  3.3462  0.1308  0.3957
  234TIP3   OH2  707   5.853   5.767   2.516 -0.1408 -0.0743  0.0153
  234TIP3    H1  708   5.916   5.696   2.524 -0.4986 -0.4430 -0.4145
  234TIP3    H2  709   5.769   5.724   2.505 -0.4358  0.4168  0.2834
  235TIP3   OH2  710   2.158   4.731   3.794 -0.2494 -0.1550 -0.1132
  235TIP3    H1  711   2.111   4.689   3.866 -0.9771  0.5039 -0.1904
  235TIP3    H2  712   2.229   4.779   3.837 -1.0558  0.7559  0.2494
  236TIP3   OH2  713   2.099   4.758   1.190 -0.1731 -0.1573  0.2510
  236TIP3    H1  714   2.129   4.799   1.108  0.2764 -1.3335 -0.1950
  236TIP3    H2  715   2.013   4.797   1.205 -0.0757  0.4099 -0.5464
  237TIP3   OH2  716   3.005   4.178   0.668  0.0956 -0.3076 -0.2150
  237TIP3    H1  717   2.918   4.186   0.629 -0.4594  1.4764  1.2296
  237TIP3    H2  718   3.026   4.084   0.662 -2.4520 -0.9922  0.4398
  238TIP3   OH2  719   5.717   4.019   4.878  0.0641 -0.0515  0.8540
  238TIP3    H1  720   5.702   4.033   4.785  1.3539 -2.0673  0.2800
  238TIP3    H2  721   5.797   4.067   4.897  1.2696 -1.7156  0.2458
  239TIP3   OH2  722   1.682   2.434   2.726  0.2245  0.0480  0.6224
  239TIP3    H1  723   1.772   2.434   2.757  0.2828 -1.1001  0.5292
  239TIP3    H2  724   1.677   2.506   2.663  1.6519 -1.0814 -0.8710
  240TIP3   OH2  725   4.198   5.282   2.622  0.1797  0.1736 -0.5154
  240TIP3    H1  726   4.261   5.354   2.617 -0.0272  0.4044  0.1853
  240TIP3    H2  727   4.203   5.251   2.712 -2.7388  2.0420  0.4133
  241TIP3   OH2  728   5.875   3.071   4.868  0.4209 -0.2451  0.4313
  241TIP3    H1  729   5.857   2.994   4.922  1.8095 -0.9771 -0.1059
  241TIP3    H2  730   5.909   3.036   4.786  1.8948  0.9258  0.4852
  242TIP3   OH2  731   2.314   1.257   2.573  0.9203 -0.0477  0.0953
  242TIP3    H1  732   2.314   1.258   2.477  2.4448  1.2680  0.0671
  242TIP3    H2  733   2.235   1.306   2.597 -0.3285 -1.7183 -0.4340
  243TIP3   OH2  734   6.260   5.786   5.096  0.3733 -0.0492 -0.0095
  243TIP3    H1  735   6.192   5.767   5.161  1.6978  0.0466  1.4678
  243TIP3    H2  736   6.222   5.758   5.012 -1.9638  1.1946  0.5541
  244TIP3   OH2  737   0.424   0.682   1.513 -0.1989  0.4184  0.7704
  244TIP3    H1  738   0.364   0.617   1.549  0.0973  0.2608  0.9832
  244TIP3    H2  739   0.383   0.710   1.432  0.4353 -1.1977 -0.1468
  245TIP3   OH2  740   0.072   4.104   1.991 -0.2050  0.0612  0.2155
  245TIP3    H1  741   0.155   4.142   2.018  1.4334 -2.6310 -0.6680
  245TIP3    H2  742   0.032   4.171   1.936  1.1252  1.5913  1.0250
  246TIP3   OH2  743   1.670   0.787   0.938 -0.2316 -0.0288  0.2224
  246TIP3    H1  744   1.592   0.774   0.883 -1.9256  1.8736  1.9907
  246TIP3    H2  745   1.696   0.699   0.963 -1.6683 -0.7423 -0.6427
  247TIP3   OH2  746   6.146   5.184   0.815 -0.5053 -0.2360 -0.0043
  247TIP3    H1  747   6.115   5.112   0.761 -2.9594 -0.3153  1.3167
  247TIP3    H2  748   6.197   5.142   0.884 -0.1744 -0.4786 -0.3934
  248TIP3   OH2  749   1.077   0.172   0.337  0.4374  0.3373 -0.2637
  248TIP3    H1  750   1.160   0.150   0.295 -0.6408 -0.4822 -2.0724
  248TIP3    H2  751   1.022   0.095   0.323 -1.2235  1.5635 -0.7066
  249TIP3   OH2  752   4.196   4.021   2.242  0.1356  0.3465  0.6398
  249TIP3    H1  753   4.282   4.003   2.280  0.7436  1.4460 -0.1447
  249TIP3    H2  754   4.216   4.068   2.160 -1.2210  1.1529  0.7510
  250TIP3   OH2  755   1.577   3.678   2.063  0.6409  0.0582  0.0067
  250TIP3    H1  756   1.526   3.758   2.052  0.1391 -0.5433 -3.4510
  250TIP3    H2  757   1.635   3.677   1.986  1.3481 -2.3817  0.4927
  251TIP3   OH2  758   4.158   4.924   4.171  0.5419 -0.1093 -0.4401
  251TIP3    H1  759   4.165   5.017   4.194 -0.1604 -0.5284  1.8001
  251TIP3    H2  760   4.242   4.886   4.199  0.2945 -0.3587 -0.0149
  252TIP3   OH2  761   5.750   2.559   4.547  0.0954  0.1647  0.2373
  252TIP3    H1  762   5.761   2.530   4.457  1.0251  3.9277 -1.0086
  252TIP3    H2  763   5.833   2.599   4.571 -0.7225  0.8821  2.1293
  253TIP3   OH2  764   1.096   5.704   3.678  0.0395  0.3964  0.4300
  253TIP3    H1  765   1.023   5.645   3.697 -1.2956  1.8444 -0.0028
  253TIP3    H2  766   1.054   5.785   3.649  1.8335  1.3117  0.2853
  254TIP3   OH2  767   2.064   5.333   2.958  0.4942 -0.4146  0.1661
  254TIP3    H1  768   2.014   5.282   3.021  0.6738 -0.3998  0.3227
  254TIP3    H2  769   2.029   5.308   2.872  0.0924 -0.2603  0.2867
  255TIP3   OH2  770   4.301   1.020   1.289  1.0940  0.3766 -0.0597
  255TIP3    H1  771   4.232   1.028   1.355 -0.4777  0.3915 -1.6186
  255TIP3    H2  772   4.338   0.933   1.305  0.1430  0.0186  0.3195
  256TIP3   OH2  773   6.122   4.596   2.604 -0.1734  0.2535  0.1851
  256TIP3    H1  774   6.101   4.685   2.575 -2.7116 -0.4941 -0.5815
  256TIP3    H2  775   6.113   4.543   2.524  3.1204 -0.5311  0.1966
  257TIP3   OH2  776   4.337   1.828   0.253 -0.5708  0.2098 -0.0055
  257TIP3    H1  777   4.386   1.846   0.333  0.4323 -0.5038 -0.4472
  257TIP3    H2  778   4.391   1.864   0.183 -1.4414  0.8217 -0.3848
  258TIP3   OH2  779   1.363   3.036   3.052  0.6675 -0.5599 -0.0230
  258TIP3    H1  780   1.372   2.943   3.033  2.0942 -0.7459  1.3364
  258TIP3    H2  781   1.289   3.065   2.998 -1.7083 -3.0813  1.6621
  259TIP3   OH2  782   1.110   5.208   1.574  0.1486 -0.5292 -0.2946
  259TIP3    H1  783   1.132   5.271   1.505  1.5194  0.1982  0.7607
  259TIP3    H2  784   1.015   5.217   1.585  0.1369  0.4472 -1.0100
  260TIP3   OH2  785   2.243   3.661   2.793  0.1246 -0.2621 -0.2699
  260TIP3    H1  786   2.183   3.731   2.767  0.2415 -0.0892 -0.0806
  260TIP3    H2  787   2.320   3.673   2.737 -0.3736 -1.0259 -1.1257
  261TIP3   OH2  788   6.149   3.372   4.260  0.3148  0.2935 -0.2360
  261TIP3    H1  789   6.184   3.352   4.174  1.0766 -0.1630  0.1743
  261TIP3    H2  790   6.176   3.299   4.316  1.5438  1.5247  0.8468
  262TIP3   OH2  791   6.250   2.392   1.860  0.3307  0.6141 -0.0722
  262TIP3    H1  792   6.193   2.348   1.923  1.7855 -0.7533  0.3566
  262TIP3    H2  793   6.304   2.450   1.915  0.8059  0.2888 -0.1903
  263TIP3   OH2  794   6.306   4.583   0.385 -0.4824  0.5215 -0.5205
  263TIP3    H1  795   6.214   4.555   0.389 -0.0812 -0.8003  2.7364
  263TIP3    H2  796   6.346   4.525   0.320 -1.4110 -0.8379  0.0659
  264TIP3   OH2  797   5.526   4.167   4.135 -0.4685 -0.1603  0.3107
  264TIP3    H1  798   5.462   4.182   4.205 -0.2350  2.6581  0.0371
  264TIP3    H2  799   5.497   4.225   4.064  3.4730  3.0647  0.9781
  265TIP3   OH2  800   5.139   5.866   0.498  0.4468  0.2665  0.3515
  265TIP3    H1  801   5.139   5.771   0.511  0.0651  0.0518 -1.0703
  265TIP3    H2  802   5.209   5.897   0.555  0.3847 -0.8276  1.0674
  266TIP3   OH2  803   5.779   0.135   1.410  0.3864 -0.0400  0.2506
  266TIP3    H1  804   5.690   0.133   1.445 -0.2284 -4.4140 -1.0161
  266TIP3    H2  805   5.834   0.099   1.480  0.4587 -1.1812 -0.3746
  267TIP3   OH2  806   0.766   3.298   1.201 -0.2145 -0.4160 -0.7378
  267TIP3    H1  807   0.725   3.368   1.150  0.3478 -0.9041 -1.8826
  267TIP3    H2  808   0.819   3.344   1.267 -2.0170  0.2183  0.3454
  268TIP3   OH2  809   5.537   3.087   4.868 -0.2532 -0.2000  0.6246
  268TIP3    H1  810   5.633   3.087   4.871 -0.2462 -0.5031  3.2498
  268TIP3    H2  811   5.513   3.178   4.853  0.4191 -0.1475 -0.2271
  269TIP3   OH2  812   3.658   3.358   2.569  0.0730 -0.4436  0.4404
  269TIP3    H1  813   3.696   3.364   2.657 -0.0798  0.5966  0.4470
  269TIP3    H2  814   3.660   3.448   2.536  0.7564 -0.9312 -0.8910
  270TIP3   OH2  815   1.931   3.299   4.919 -0.0895  0.2091 -0.1631
  270TIP3    H1  816   1.986   3.251   4.981  0.6591  0.2353 -0.7968
  270TIP3    H2  817   1.941   3.391   4.943 -3.4512  0.0786  2.6768
  271TIP3   OH2  818   2.570   0.463   4.181  0.4972 -0.5945 -0.4779
  271TIP3    H1  819   2.557   0.500   4.268  2.5814  0.5897 -0.5789
  271TIP3    H2  820   2.504   0.395   4.173  0.6146 -1.1314  2.2495
  272TIP3   OH2  821   5.328   0.829   3.718 -0.1519 -0.2594  0.3444
  272TIP3    H1  822   5.261   0.767   3.690 -0.2837  0.1534 -0.2758
  272TIP3    H2  823   5.384   0.779   3.778  0.7401 -1.5030 -1.4197
  273TIP3   OH2  824   3.757   0.834   1.372 -0.1098  0.2499 -0.4512
  273TIP3    H1  825   3.686   0.871   1.320 -0.2076  0.5170 -0.1297
  273TIP3    H2  826   3.713   0.788   1.443 -0.0753 -1.8285 -1.6657
  274TIP3   OH2  827   2.593   2.705   5.058  0.0552 -0.0062 -0.2020
  274TIP3    H1  828   2.599   2.765   4.984 -1.3146  1.4353  0.7847
  274TIP3    H2  829   2.628   2.754   5.132 -0.1191 -0.8146  0.4387
  275TIP3   OH2  830   1.536   5.027   1.191 -0.2918  0.1034 -0.9739
  275TIP3    H1  831   1.538   4.932   1.196  1.7490  0.1358  0.0679
  275TIP3    H2  832   1.509   5.056   1.278 -0.3095  0.4621 -1.0967
  276TIP3   OH2  833   5.075   1.913   4.904 -0.1052  0.1089 -0.0882
  276TIP3    H1  834   5.114   1.909   4.991 -1.2747 -0.6004  0.4267
  276TIP3    H2  835   5.094   2.002   4.874  1.8196 -0.1759  0.1340
  277TIP3   OH2  836   5.402   1.950   1.777 -0.3003 -0.0843  0.5113
  277TIP3    H1  837   5.458   1.955   1.854 -0.3134  0.3907  0.4948
  277TIP3    H2  838   5.393   2.041   1.748 -1.8290 -0.0516  1.0460
  278TIP3   OH2  839   0.741   5.900   4.130 -0.2814 -0.8273  0.7294
  278TIP3    H1  840   0.778   5.816   4.158 -0.0476 -0.5644  1.2025
  278TIP3    H2  841   0.817   5.951   4.101 -0.5805 -1.3941 -1.2206
  279TIP3   OH2  842   3.905   2.427   1.727  0.2574 -1.0343 -0.0355
  279TIP3    H1  843   3.880   2.516   1.751 -0.5438 -1.1147 -0.5457
  279TIP3    H2  844   3.947   2.436   1.641 -2.1539 -1.4158 -1.3422
  280TIP3   OH2  845   3.174   4.844   3.533 -0.3509 -0.5979 -0.1966
  280TIP3    H1  846   3.223   4.903   3.591  0.3479 -0.5623 -0.8194
  280TIP3    H2  847   3.082   4.855   3.560  0.1210 -2.2871  2.4874
  281TIP3   OH2  848   6.001   5.187   3.456  0.1262  0.4158  0.1947
  281TIP3    H1  849   5.937   5.238   3.506  0.6731  0.4910  0.8398
  281TIP3    H2  850   6.063   5.252   3.423  0.9144  0.1814  1.1485
  282TIP3   OH2  851   1.982   2.894   1.539  0.1523 -0.0559  0.2733
  282TIP3    H1  852   2.042   2.839   1.489  1.7085  1.6797  0.1224
  282TIP3    H2  853   1.943   2.835   1.604  0.0382 -1.7924 -1.2904
  283TIP3   OH2  854   3.918   1.778   4.266  0.4087  0.0287 -0.1414
  283TIP3    H1  855   3.841   1.721   4.272  0.8878 -0.4890  1.9876
  283TIP3    H2  856   3.897   1.840   4.196 -1.4971 -0.7326 -0.3074
  284TIP3   OH2  857   2.896   4.307   1.687 -0.2392  0.2272 -0.0544
  284TIP3    H1  858   2.950   4.384   1.671  0.5663 -0.6424 -1.8267
  284TIP3    H2  859   2.909   4.252   1.610 -1.3040 -1.3971  0.8574
  285TIP3   OH2  860   2.967   5.127   3.665  0.0194  0.3685  0.4766
  285TIP3    H1  861   2.892   5.158   3.615  1.0022 -0.4131 -1.5847
  285TIP3    H2  862   2.962   5.032   3.658  1.1404  0.3087  0.4083
  286TIP3   OH2  863   3.496   5.623   0.224  0.2816  0.1831  0.1018
  286TIP3    H1  864   3.503   5.543   0.172 -2.1592 -0.0299 -0.0072
  286TIP3    H2  865   3.476   5.593   0.312  0.9915  0.6477  0.4298
  287TIP3   OH2  866   4.787   4.447   3.898 -0.1336 -0.2856 -0.3473
  287TIP3    H1  867   4.809   4.505   3.825 -2.0807 -1.1836 -1.7488
  287TIP3    H2  868   4.809   4.497   3.976  0.8354  1.2228 -1.5393
  288TIP3   OH2  869   5.961   2.705   4.674  0.1285 -0.0960 -0.1175
  288TIP3    H1  870   6.022   2.760   4.625  0.0874 -0.5353 -0.6773
  288TIP3    H2  871   6.000   2.696   4.761  0.9196 -0.4597 -0.4998
  289TIP3   OH2  872   3.910   2.691   4.655  0.4463 -0.0494  0.2398
  289TIP3    H1  873   3.973   2.651   4.596  0.8469  1.1983 -0.2194
  289TIP3    H2  874   3.962   2.749   4.711 -0.1611  0.2088  0.5526
  290TIP3   OH2  875   3.890   0.173   0.810 -0.5134  0.3957 -0.4888
  290TIP3    H1  876   3.811   0.186   0.863  0.2394 -2.7367  1.6663
  290TIP3    H2  877   3.957   0.227   0.852 -0.7474  0.6047 -0.3845
  291TIP3   OH2  878   3.367   3.602   3.730 -0.9199 -0.0104 -0.1446
  291TIP3    H1  879   3.289   3.651   3.759 -1.9487 -1.3545 -0.5521
  291TIP3    H2  880   3.332   3.525   3.686  0.6636 -0.5765 -0.4711
  292TIP3   OH2  881   4.203   3.639   2.587  0.1798  0.0289  0.1653
  292TIP3    H1  882   4.245   3.590   2.657  1.2721 -2.0324 -1.7725
  292TIP3    H2  883   4.226   3.730   2.603  1.4940 -0.5465  1.7400
  293TIP3   OH2  884   1.675   3.034   1.064  0.5050 -0.4811  0.1650
  293TIP3    H1  885   1.593   2.996   1.095 -0.5389 -1.4829 -3.3781
  293TIP3    H2  886   1.743   2.980   1.104 -0.6397 -1.1684  1.2683
  294TIP3   OH2  887   3.408   5.293   3.736 -0.0316  0.1663 -0.4179
  294TIP3    H1  888   3.500   5.272   3.754  0.3867  2.5150  0.5458
  294TIP3    H2  889   3.364   5.282   3.820 -0.7479 -1.2417 -0.9420
  295TIP3   OH2  890   3.235   5.121   2.349 -0.2497  0.4358  0.0917
  295TIP3    H1  891   3.264   5.107   2.258  0.5285  0.8150  0.2750
  295TIP3    H2  892   3.144   5.151   2.341 -0.8243 -1.3427 -0.4700
  296TIP3   OH2  893   0.877   3.557   0.231  0.2895  0.5121  0.1350
  296TIP3    H1  894   0.836   3.522   0.311  0.2075 -0.0751 -0.1531
  296TIP3    H2  895   0.854   3.493   0.163  1.3760  0.3723 -0.1128
  297TIP3   OH2  896   2.309   1.608   3.040 -0.0462 -0.5618 -0.3549
  297TIP3    H1  897   2.264   1.524   3.034  1.6785 -1.5519  0.0812
  297TIP3    H2  898   2.400   1.586   3.060  0.2098  1.4600  0.9684
  298TIP3   OH2  899   4.197   0.095   0.415 -0.1691  0.5572 -0.0019
  298TIP3    H1  900   4.118   0.106   0.467 -0.4788 -2.2972  0.2696
  298TIP3    H2  901   4.166   0.061   0.331  0.7188  0.2645 -0.2210
  299TIP3   OH2  902   6.353   3.765   0.831 -0.5813 -0.3279 -0.1237
  299TIP3    H1  903   6.351   3.717   0.913 -3.4846  0.7549  0.5476
  299TIP3    H2  904   6.291   3.720   0.774 -0.1458  0.1428 -1.0093
  300TIP3   OH2  905   5.459   0.017   4.236  0.2918 -0.0710  0.5520
  300TIP3    H1  906   5.544  -0.000   4.276  0.7208  1.6557  0.4424
  300TIP3    H2  907   5.477   0.079   4.166 -1.0161  0.0861  0.3243
  301TIP3   OH2  908   4.882   4.204   4.102 -0.2500  0.3114  0.5613
  301TIP3    H1  909   4.804   4.244   4.140 -0.0144  0.6746  0.6613
  301TIP3    H2  910   4.953   4.265   4.121  0.2219 -0.4193  1.2285
  302TIP3   OH2  911   0.840   3.269   0.562 -0.0254 -0.0256 -0.0400
  302TIP3    H1  912   0.857   3.178   0.538 -1.2474 -0.5693  1.0101
  302TIP3    H2  913   0.751   3.268   0.597  0.2878  1.3995  0.8749
  303TIP3   OH2  914   5.495   5.370   2.377  0.0547 -0.8412  0.2838
  303TIP3    H1  915   5.421   5.310   2.384 -0.3364 -0.2154  2.4260
  303TIP3    H2  916   5.457   5.453   2.348 -0.4845 -0.0431  2.9551
  304TIP3   OH2  917   0.784   5.300   3.684  0.0400  0.1134 -0.3144
  304TIP3    H1  918   0.711   5.268   3.631 -0.9860  0.9647  0.5374
  304TIP3    H2  919   0.855   5.314   3.621 -1.0676  0.8600 -1.4488
  305TIP3   OH2  920   0.437   2.050   4.418  0.3300  0.0210 -0.1577
  305TIP3    H1  921   0.438   1.987   4.346 -0.6663 -0.3103  0.1047
  305TIP3    H2  922   0.490   2.010   4.486  0.1989 -0.2490 -0.2169
  306TIP3   OH2  923   5.647   1.864   4.688 -0.4182  0.2996 -0.1301
  306TIP3    H1  924   5.661   1.957   4.671 -2.0085  0.5728 -0.0941
  306TIP3    H2  925   5.579   1.861   4.755 -0.6835 -0.8846 -0.4191
  307TIP3   OH2  926   1.435   3.745   1.493  0.5078 -0.0482 -0.4632
  307TIP3    H1  927   1.425   3.805   1.419  0.4738 -0.2330 -0.6091
  307TIP3    H2  928   1.506   3.687   1.467  1.2576  0.5860  0.1175
  308TIP3   OH2  929   2.485   5.936   0.408 -0.5441 -0.9107  0.1515
  308TIP3    H1  930   2.566   5.889   0.430 -0.0233  0.3296  0.9977
  308TIP3    H2  931   2.505   5.979   0.324  1.2813  2.7147  2.1868
  309TIP3   OH2  932   1.197   4.849   3.748  0.0220 -0.4022 -0.0009
  309TIP3    H1  933   1.208   4.925   3.805 -3.2666  0.2953 -0.0749
  309TIP3    H2  934   1.250   4.868   3.671 -0.3952  1.6418  0.1703
  310TIP3   OH2  935   3.719   3.071   0.486 -0.2710  0.2484  0.5208
  310TIP3    H1  936   3.646   3.033   0.437 -2.1195  0.6904  2.7694
  310TIP3    H2  937   3.741   3.151   0.438 -0.1600 -0.7153 -1.0779
  311TIP3   OH2  938   3.549   5.418   4.001 -0.4424 -0.1995  0.0090
  311TIP3    H1  939   3.550   5.387   4.091 -0.4221  0.0310  0.0878
  311TIP3    H2  940   3.538   5.513   4.008  0.1759 -0.1074 -0.2108
  312TIP3   OH2  941   2.659   1.177   2.792 -0.1161  0.1668  0.3516
  312TIP3    H1  942   2.667   1.125   2.871  0.1022 -0.3597 -0.0103
  312TIP3    H2  943   2.583   1.232   2.806 -1.9657 -2.0876 -0.2846
  313TIP3   OH2  944   3.468   0.098   4.859 -0.3591 -0.1307 -0.4460
  313TIP3    H1  945   3.374   0.091   4.876 -0.5853 -0.7051 -1.7777
  313TIP3    H2  946   3.480   0.055   4.774  1.0701  0.1725 -0.4233
  314TIP3   OH2  947   3.718   1.552   0.227  0.2176 -0.3935 -0.6692
  314TIP3    H1  948   3.682   1.612   0.292 -0.1980 -0.6701 -0.6457
  314TIP3    H2  949   3.745   1.475   0.277 -2.0897 -1.5347 -1.0513
  315TIP3   OH2  950   5.756   3.745   0.985  0.4743 -0.2272  0.5807
  315TIP3    H1  951   5.697   3.804   1.032 -1.4944 -0.4266 -1.4798
  315TIP3    H2  952   5.821   3.803   0.945  0.7331  0.1445  1.4942
  316TIP3   OH2  953   4.184   2.787   2.572 -0.2644  0.3985  0.2134
  316TIP3    H1  954   4.176   2.882   2.565  0.0695  0.4863  0.8998
  316TIP3    H2  955   4.094   2.755   2.573 -0.4171  0.4146 -3.2704
  317TIP3   OH2  956   2.505   3.637   1.558 -0.1761  0.6621  0.1560
  317TIP3    H1  957   2.487   3.615   1.649 -0.0746  0.8085  0.2116
  317TIP3    H2  958   2.419   3.642   1.517 -0.1645 -2.1507 -0.4194
  318TIP3   OH2  959   4.489   4.040   1.120 -0.2093  0.2417 -0.0633
  318TIP3    H1  960   4.430   4.112   1.098 -0.7091 -0.4686 -1.1416
  318TIP3    H2  961   4.575   4.070   1.092 -0.5713  0.0483 -1.4455
  319TIP3   OH2  962   1.584   4.007   1.093  0.1732  0.3394  0.9488
  319TIP3    H1  963   1.529   4.001   1.170 -1.1558 -2.1299 -0.0842
  319TIP3    H2  964   1.539   4.068   1.035 -0.7452 -0.5241  0.7247
  320TIP3   OH2  965   3.709   2.536   4.729  0.4817  0.3133 -0.0259
  320TIP3    H1  966   3.784   2.585   4.696 -0.6090  1.4881 -0.8359
  320TIP3    H2  967   3.712   2.453   4.681  0.1968  1.1199 -1.5126
  321TIP3   OH2  968   1.193   0.305   3.027  0.1879  0.3078  0.4360
  321TIP3    H1  969   1.167   0.394   3.000 -0.3067  0.5973  1.7814
  321TIP3    H2  970   1.110   0.261   3.046  0.2293 -1.2539 -2.3862
  322TIP3   OH2  971   5.366   4.802   0.919  0.2410 -0.5915 -0.1871
  322TIP3    H1  972   5.380   4.740   0.990 -2.0168  0.8108  1.6140
  322TIP3    H2  973   5.291   4.854   0.946  0.0927  0.9075 -3.0333
  323TIP3   OH2  974   0.279   0.143   3.439 -0.3511 -0.7804 -0.1433
  323TIP3    H1  975   0.261   0.216   3.379 -0.2460 -0.5125  0.1511
  323TIP3    H2  976   0.375   0.142   3.447 -0.4251 -0.0756  0.9388
  324TIP3   OH2  977   1.598   5.965   2.887  0.5208  0.4743 -0.2501
  324TIP3    H1  978   1.682   5.992   2.851  0.7032 -0.6666 -0.7169
  324TIP3    H2  979   1.558   5.912   2.818  0.3803 -0.8237  0.7750
  325TIP3   OH2  980   5.224   3.961   1.243 -0.7082  0.5145 -0.2219
  325TIP3    H1  981   5.297   3.972   1.182 -0.4836  1.0969  0.1335
  325TIP3    H2  982   5.181   3.880   1.216  1.5215 -1.2123  1.0516
  326TIP3   OH2  983   5.721   3.957   0.302  0.5421  0.4266 -0.6328
  326TIP3    H1  984   5.793   3.894   0.304  0.8501  0.7906 -0.2850
  326TIP3    H2  985   5.762   4.040   0.280  0.5650  1.0859  1.6842
  327TIP3   OH2  986   2.251   2.634   1.606  0.1344  0.2187 -0.5101
  327TIP3    H1  987   2.278   2.714   1.652 -1.2857  0.0827  0.6109
  327TIP3    H2  988   2.157   2.627   1.622  0.6860 -3.5626  2.5454
  328TIP3   OH2  989   1.047   2.549   3.046 -0.3545 -0.5084 -0.7452
  328TIP3    H1  990   0.987   2.623   3.036 -1.1866 -1.0234  0.2977
  328TIP3    H2  991   1.086   2.561   3.133  0.3254 -0.7272 -1.0092
  329TIP3   OH2  992   1.087   2.027   2.160  0.0017  0.3960 -0.3055
  329TIP3    H1  993   1.009   2.064   2.203 -0.7110  0.4950 -1.6345
  329TIP3    H2  994   1.083   1.933   2.182  0.2813  0.6180  0.7606
  330TIP3   OH2  995   3.941   5.010   2.024 -0.0756 -0.3704  0.7246
  330TIP3    H1  996   4.036   5.007   2.031  0.0315  1.5168  0.4415
  330TIP3    H2  997   3.914   5.078   2.086 -1.0577  0.4548 -0.5540
  331TIP3   OH2  998   6.260   1.982   3.022  0.1535 -0.2642  0.2899
  331TIP3    H1  999   6.310   1.930   2.959  0.5787 -0.7594  1.0295
  331TIP3    H2 1000   6.315   2.059   3.038  0.3083 -0.4155  0.4879
  332TIP3   OH2 1001   4.514   4.426   3.300  0.4398 -0.1059 -0.3676
  332TIP3    H1 1002   4.426   4.460   3.315  0.9623  1.3665 -0.4540
  332TIP3    H2 1003   4.559   4.496   3.252  1.8175 -0.6137  0.1278
  333TIP3   OH2 1004   4.400   0.811   2.574  0.1251 -0.0127  0.6642
  333TIP3    H1 1005   4.394   0.863   2.654  1.5529  0.5053  0.4730
  333TIP3    H2 1006   4.493   0.788   2.567  0.1538  0.4576 -1.1381
  334TIP3   OH2 1007   6.025   5.862   0.365  0.2772 -0.6549  0.0153
  334TIP3    H1 1008   5.969   5.855   0.288  1.1203 -0.3384 -0.6321
  334TIP3    H2 1009   6.015   5.778   0.410 -1.7787 -0.1210  0.6623
  335TIP3   OH2 1010   4.210   4.930   1.989 -0.5368  0.4291  0.1441
  335TIP3    H1 1011   4.257   4.874   2.051  0.2525  1.6151  0.6437
  335TIP3    H2 1012   4.253   5.015   1.995  0.1013  0.3963 -2.6460
  336TIP3   OH2 1013   1.943   3.384   0.943  0.6646 -0.6001  0.7257
  336TIP3    H1 1014   1.922   3.460   0.889  1.6775  0.2689  1.5145
  336TIP3    H2 1015   1.862   3.367   0.991  0.5790  0.3420  0.9432
  337TIP3   OH2 1016   0.949   2.766   1.844 -0.0964  0.6718 -0.9045
  337TIP3    H1 1017   0.930   2.815   1.764  0.2424  0.2652 -1.2403
  337TIP3    H2 1018   0.990   2.685   1.814  0.2457  0.6108 -0.3093
  338TIP3   OH2 1019   4.702   2.681   2.883  0.0933  0.0222  0.8066
  338TIP3    H1 1020   4.775   2.726   2.840 -0.6480 -0.6728 -1.2944
  338TIP3    H2 1021   4.735   2.593   2.901  0.2243  0.1438  1.1677
  339TIP3   OH2 1022   2.011   3.603   4.618 -0.4232 -0.0172 -0.9791
  339TIP3    H1 1023   1.969   3.663   4.679 -1.4198 -0.9345 -0.7562
  339TIP3    H2 1024   2.103   3.630   4.619 -0.5513  0.4511  0.3545
  340TIP3   OH2 1025   6.229   5.053   4.623 -0.5835  0.8500  0.4482
  340TIP3    H1 1026   6.180   5.133   4.603 -2.6768 -0.3359  0.6062
  340TIP3    H2 1027   6.257   5.065   4.714 -0.8798  1.4152  0.4726
  341TIP3   OH2 1028   4.999   4.445   4.168  0.4461 -0.6353 -0.5516
  341TIP3    H1 1029   5.031   4.463   4.080  0.0243 -0.3186 -0.6416
  341TIP3    H2 1030   4.920   4.498   4.177 -0.6830 -2.2337 -0.7286
  342TIP3   OH2 1031   2.056   0.275   3.033 -0.3961 -0.1645  0.1366
  342TIP3    H1 1032   2.103   0.218   2.971  1.0390 -0.7177  1.6504
  342TIP3    H2 1033   2.094   0.361   3.018 -0.5002 -0.1727 -0.1833
  343TIP3   OH2 1034   4.989   3.655   2.138 -0.2065  0.0217 -0.5040
  343TIP3    H1 1035   4.980   3.691   2.050  2.8531 -2.0980 -1.8620
  343TIP3    H2 1036   5.018   3.730   2.191 -2.3642  1.3965 -1.1345
  344TIP3   OH2 1037   1.942   2.483   4.790 -0.7625  0.0338 -0.2351
  344TIP3    H1 1038   1.863   2.429   4.786  0.5122 -2.1567  1.8083
  344TIP3    H2 1039   1.915   2.560   4.841 -1.9010  0.0183 -0.7669
  345TIP3   OH2 1040   5.382   4.613   1.113  0.4109 -0.8289 -0.4772
  345TIP3    H1 1041   5.339   4.601   1.197 -1.5970  4.7088 -0.3182
  345TIP3    H2 1042   5.471   4.642   1.135 -0.5792  2.1662  0.0547
  346TIP3   OH2 1043   4.264   3.548   2.011 -0.1921 -0.0017 -0.5938
  346TIP3    H1 1044   4.176   3.527   1.979 -0.7558  1.2603  0.0700
  346TIP3    H2 1045   4.258   3.539   2.106 -0.2179  2.1240 -0.3458
  347TIP3   OH2 1046   5.414   5.270   3.062  0.1634  0.2155 -0.2715
  347TIP3    H1 1047   5.370   5.217   3.128  1.1572 -1.0592 -0.5822
  347TIP3    H2 1048   5.379   5.239   2.979  1.0468 -0.2554 -0.4783
  348TIP3   OH2 1049   4.196   0.726   4.640 -0.7511  0.4894  0.1138
  348TIP3    H1 1050   4.156   0.736   4.554 -1.3986  1.0673  0.4783
  348TIP3    H2 1051   4.265   0.660   4.626 -0.8403  0.5786 -0.8403
  349TIP3   OH2 1052   3.830   3.239   1.308  0.6483  0.4211 -0.1129
  349TIP3    H1 1053   3.854   3.292   1.385 -1.8990  1.7740 -0.1582
  349TIP3    H2 1054   3.830   3.301   1.235 -1.1525  0.1407 -0.3980
  350TIP3   OH2 1055   5.753   1.929   1.432  0.1427  0.5345  0.5252
  350TIP3    H1 1056   5.756   1.864   1.361 -0.5621 -1.6867  2.4095
  350TIP3    H2 1057   5.831   1.983   1.418 -1.5601  2.4137 -3.8027
  351TIP3   OH2 1058   2.746   0.328   2.576  0.3556  0.4185  0.5121
  351TIP3    H1 1059   2.729   0.380   2.497 -0.4401 -0.0673  0.3523
  351TIP3    H2 1060   2.839   0.340   2.594  0.7353 -0.1480 -0.9940
  352TIP3   OH2 1061   0.318   4.904   2.291 -0.3816 -0.2504  0.1403
  352TIP3    H1 1062   0.371   4.883   2.214 -0.7949 -0.3657 -0.1211
  352TIP3    H2 1063   0.350   4.989   2.320 -1.4205  0.6889 -1.2678
  353TIP3   OH2 1064   1.343   4.755   4.550 -0.1239  0.1073 -0.0070
  353TIP3    H1 1065   1.437   4.770   4.541 -0.1645 -0.0411 -0.7268
  353TIP3    H2 1066   1.311   4.834   4.595  0.2866  0.3373 -0.1084
  354TIP3   OH2 1067   5.675   1.089   0.312  0.0715 -0.8869  0.2013
  354TIP3    H1 1068   5.727   1.053   0.384  2.9184  0.1118 -1.1983
  354TIP3    H2 1069   5.589   1.047   0.320  0.3308 -0.9732  3.9736
  355TIP3   OH2 1070   3.650   5.927   1.075 -0.6309 -0.0719 -0.9151
  355TIP3    H1 1071   3.574   5.949   1.021 -0.6378  1.7387 -0.2438
  355TIP3    H2 1072   3.617   5.929   1.165 -0.1992 -1.2050 -0.7067
  356TIP3   OH2 1073   0.349   5.561   4.605 -0.2023 -0.2828  0.2957
  356TIP3    H1 1074   0.273   5.514   4.571 -0.6210  0.6135 -0.0473
  356TIP3    H2 1075   0.356   5.534   4.696  0.5554 -2.2509 -0.3149
  357TIP3   OH2 1076   4.519   1.842   1.496 -0.5735 -0.0539 -0.3369
  357TIP3    H1 1077   4.536   1.890   1.577 -2.0551  0.1172 -0.1037
  357TIP3    H2 1078   4.544   1.902   1.426  0.2232 -0.0097 -0.0270
  358TIP3   OH2 1079   3.011   2.107   0.250 -0.3475  0.0040  0.2720
  358TIP3    H1 1080   3.000   2.082   0.158 -0.9732 -0.8185  0.5548
  358TIP3    H2 1081   3.101   2.081   0.271 -0.2951 -0.0666 -0.0299
  359TIP3   OH2 1082   3.365   3.173   3.074  0.2878 -0.2062 -0.1262
  359TIP3    H1 1083   3.381   3.089   3.118  2.9558  0.5698  0.5964
  359TIP3    H2 1084   3.348   3.235   3.144 -1.8328 -0.0944 -0.6698
  360TIP3   OH2 1085   1.812   0.833   0.690  0.0310 -0.2762 -0.2641
  360TIP3    H1 1086   1.751   0.822   0.618 -0.0659  0.5046 -0.3153
  360TIP3    H2 1087   1.757   0.839   0.768  0.0959 -0.4554 -0.2037
  361TIP3   OH2 1088   2.831   3.300   2.083  0.6203 -0.2001  0.1170
  361TIP3    H1 1089   2.800   3.210   2.068 -0.1752  0.2028 -0.8281
  361TIP3    H2 1090   2.876   3.323   2.001  0.3779  0.4350  0.1609
  362TIP3   OH2 1091   4.678   0.189   4.079 -0.0313 -0.2289 -0.2082
  362TIP3    H1 1092   4.758   0.239   4.061 -0.7083  1.0510  0.2159
  362TIP3    H2 1093   4.616   0.254   4.110 -1.2872 -1.1924 -0.6424
  363TIP3   OH2 1094   4.604   1.645   2.100  0.0168  0.1711 -0.5663
  363TIP3    H1 1095   4.602   1.727   2.050 -1.0675 -0.8001 -2.2150
  363TIP3    H2 1096   4.662   1.663   2.174  0.6897  2.0712 -1.4960
  364TIP3   OH2 1097   4.175   5.303   3.081 -0.0597  0.6345  0.5935
  364TIP3    H1 1098   4.184   5.333   3.172 -2.7492  0.2378  1.0790
  364TIP3    H2 1099   4.186   5.383   3.029  0.3143  1.0817  1.3318
  365TIP3   OH2 1100   3.751   1.642   4.469 -0.0997  0.3005  0.2770
  365TIP3    H1 1101   3.750   1.696   4.549  1.9733 -0.5926  0.9609
  365TIP3    H2 1102   3.720   1.556   4.498  2.8952 -0.7336  0.7717
  366TIP3   OH2 1103   5.758   4.916   2.607 -0.7998 -0.2152 -0.4491
  366TIP3    H1 1104   5.696   4.959   2.548  0.1673  0.8707 -0.7104
  366TIP3    H2 1105   5.717   4.921   2.693 -0.5889  1.5591 -0.4091
  367TIP3   OH2 1106   3.039   4.434   2.249 -0.3920  0.1079  0.1349
  367TIP3    H1 1107   3.082   4.497   2.306  1.2719 -0.2239 -0.6645
  367TIP3    H2 1108   3.032   4.479   2.165 -0.3688 -0.3168 -0.0986
  368TIP3   OH2 1109   2.076   2.287   1.871  0.7490  0.2583  0.1792
  368TIP3    H1 1110   2.171   2.299   1.875  0.9238 -0.6167 -0.8817
  368TIP3    H2 1111   2.049   2.336   1.793  0.4795 -0.3660 -0.1220
  369TIP3   OH2 1112   5.698   0.722   4.517  0.0615  0.2701  0.1618
  369TIP3    H1 1113   5.725   0.728   4.426  0.2296  2.4277  0.2995
  369TIP3    H2 1114   5.743   0.644   4.550  2.5043  1.1731 -0.8040
  370TIP3   OH2 1115   1.757   5.741   3.033 -0.1435 -0.0396 -0.3697
  370TIP3    H1 1116   1.720   5.661   2.996 -0.8970 -0.1192  0.5088
  370TIP3    H2 1117   1.714   5.812   2.986 -0.2649 -0.1395 -0.4095
  371TIP3   OH2 1118   2.524   5.232   4.360 -0.0264  0.1098  0.5773
  371TIP3    H1 1119   2.587   5.300   4.383  0.2588  0.1177 -0.1997
  371TIP3    H2 1120   2.451   5.280   4.320  0.3709 -0.0578 -0.3901
  372TIP3   OH2 1121   1.192   2.681   3.255 -0.5365  0.6264  0.5789
  372TIP3    H1 1122   1.229   2.700   3.341  0.2868 -0.0934  0.3951
  372TIP3    H2 1123   1.154   2.764   3.226 -0.0763  1.0838  1.2736
  373TIP3   OH2 1124   4.904   5.139   2.909  0.2594  0.9590 -0.3156
  373TIP3    H1 1125   4.840   5.071   2.929  0.3322  1.2368  1.0013
  373TIP3    H2 1126   4.863   5.190   2.839 -0.6633  0.7214  0.0240
  374TIP3   OH2 1127   4.028   1.405   0.732 -0.3494  0.1248 -0.5620
  374TIP3    H1 1128   4.017   1.493   0.697 -0.7757 -0.3124 -1.5767
  374TIP3    H2 1129   3.948   1.359   0.707  0.8989 -1.2516 -2.2209
  375TIP3   OH2 1130   5.221   4.523   0.826  0.1320 -0.1405 -0.0234
  375TIP3    H1 1131   5.206   4.495   0.916  0.3334 -0.5605 -0.1187
  375TIP3    H2 1132   5.261   4.609   0.833  0.0864 -0.1454  0.2850
  376TIP3   OH2 1133   5.360   3.702   4.086 -0.5116 -0.2147 -0.4087
  376TIP3    H1 1134   5.333   3.786   4.124 -3.4731 -1.0813 -0.3443
  376TIP3    H2 1135   5.358   3.717   3.991  0.5271  0.1983 -0.3716
  377TIP3   OH2 1136   2.364   0.279   4.100  0.5558  0.2062  0.0418
  377TIP3    H1 1137   2.354   0.186   4.121 -1.6023  0.3167 -0.3432
  377TIP3    H2 1138   2.373   0.281   4.004  2.3725  0.2997  0.1803
  378TIP3   OH2 1139   2.509   0.066   1.326 -0.7605 -0.1980  0.1470
  378TIP3    H1 1140   2.424   0.095   1.292 -0.0742 -0.6093 -2.0771
  378TIP3    H2 1141   2.487   0.018   1.406 -2.8966 -2.0516 -1.4135
  379TIP3   OH2 1142   0.835   0.480   2.107 -0.1059 -0.0813 -0.2379
  379TIP3    H1 1143   0.873   0.523   2.030 -1.4372  0.9086 -0.3695
  379TIP3    H2 1144   0.861   0.536   2.181  0.9742 -0.9040  0.0329
  380TIP3   OH2 1145   3.564   5.027   0.373  0.0304 -0.9653 -0.5876
  380TIP3    H1 1146   3.598   5.072   0.296  3.1718 -0.3113  1.0247
  380TIP3    H2 1147   3.594   4.937   0.364 -2.2058 -1.6834 -1.5055
  381TIP3   OH2 1148   4.307   6.001   0.659 -0.4476 -0.0780  0.2568
  381TIP3    H1 1149   4.236   5.958   0.611 -0.4417 -0.0327  0.2071
  381TIP3    H2 1150   4.386   5.954   0.632 -0.5183 -0.4771  0.7176
  382TIP3   OH2 1151   5.031   1.962   3.558  0.6928 -0.3368 -0.1234
  382TIP3    H1 1152   5.086   2.038   3.538  2.2260 -1.3278  0.1223
  382TIP3    H2 1153   5.047   1.944   3.651 -0.2655 -0.4931  0.0224
  383TIP3   OH2 1154   1.753   3.727   2.838  0.0440  0.0602 -0.3333
  383TIP3    H1 1155   1.754   3.652   2.779 -1.0264  0.9301 -1.5127
  383TIP3    H2 1156   1.744   3.689   2.926  0.3383 -1.2049 -0.8394
  384TIP3   OH2 1157   3.790   5.973   1.600  0.0267 -0.0781  0.5327
  384TIP3    H1 1158   3.760   5.986   1.690  0.2612 -2.0986  0.9519
  384TIP3    H2 1159   3.884   5.959   1.607 -0.1215 -1.4386  0.1445
  385TIP3   OH2 1160   2.083   4.821   4.162  0.3572  0.2557 -0.1620
  385TIP3    H1 1161   2.171   4.834   4.195  0.2569 -2.1833  1.3675
  385TIP3    H2 1162   2.069   4.726   4.168 -2.4539  0.5851 -0.0685
  386TIP3   OH2 1163   0.914   4.380   2.559 -0.4821 -0.2582 -0.2946
  386TIP3    H1 1164   0.886   4.289   2.557 -0.7906 -0.1528 -1.4305
  386TIP3    H2 1165   0.886   4.412   2.645 -0.0994 -1.3046  0.2305
  387TIP3   OH2 1166   5.984   5.766   4.410  0.6126 -0.1046 -0.3653
  387TIP3    H1 1167   6.060   5.822   4.427 -0.4557  0.8093  1.7434
  387TIP3    H2 1168   5.910   5.827   4.407 -0.0125 -0.8279 -3.4904
  388TIP3   OH2 1169   4.348   4.208   3.443  0.5407  0.2933 -0.5941
  388TIP3    H1 1170   4.384   4.295   3.462  1.9541 -0.6635  1.5165
  388TIP3    H2 1171   4.346   4.165   3.529 -0.9007 -1.4806 -1.4751
  389TIP3   OH2 1172   3.259   3.809   1.257  0.4367 -0.0520 -0.2524
  389TIP3    H1 1173   3.258   3.770   1.344  1.5402 -1.6403 -0.9068
  389TIP3    H2 1174   3.184   3.770   1.212  1.6452 -1.6861 -0.9661
  390TIP3   OH2 1175   3.476   1.825   2.724  0.4356  0.0284 -0.4997
  390TIP3    H1 1176   3.449   1.793   2.810 -1.8985  0.5359 -0.9926
  390TIP3    H2 1177   3.571   1.811   2.723  0.2706 -1.7718  1.3875
  391TIP3   OH2 1178   0.791   5.877   4.473  0.3237  0.1837 -0.3938
  391TIP3    H1 1179   0.868   5.933   4.465 -1.1389  2.2341 -1.2837
  391TIP3    H2 1180   0.796   5.817   4.399  0.7265  0.7964 -0.8746
  392TIP3   OH2 1181   0.019   3.992   5.036 -0.3987 -0.2728  0.0999
  392TIP3    H1 1182   0.011   3.900   5.012  0.8719 -0.4137  0.1751
  392TIP3    H2 1183   0.079   4.029   4.971  0.2284  0.1666  0.9095
  393TIP3   OH2 1184   0.901   2.631   4.225 -0.0867  0.6991 -0.0284
  393TIP3    H1 1185   0.973   2.620   4.163 -1.7071  0.7308 -2.0335
  393TIP3    H2 1186   0.834   2.569   4.196 -1.3074  1.4364  1.0823
  394TIP3   OH2 1187   0.474   4.826   4.289  0.7235 -0.0055  0.5788
  394TIP3    H1 1188   0.560   4.790   4.270  1.1768  0.2411  2.0495
  394TIP3    H2 1189   0.423   4.811   4.209  1.9714 -0.6036 -0.1235
  395TIP3   OH2 1190   3.949   4.287   1.948  0.7117 -0.3385 -0.5145
  395TIP3    H1 1191   3.901   4.210   1.979 -0.9580  0.1604 -1.6788
  395TIP3    H2 1192   3.951   4.345   2.024 -0.3935 -0.4627 -0.3657
  396TIP3   OH2 1193   4.017   0.259   4.058  0.4070  0.0944  0.0259
  396TIP3    H1 1194   4.028   0.165   4.047  0.0289  0.1738 -1.2375
  396TIP3    H2 1195   3.955   0.268   4.131 -1.3723 -0.7404 -1.3142
  397TIP3   OH2 1196   5.653   0.625   1.798  0.5047 -0.4512  0.5767
  397TIP3    H1 1197   5.604   0.554   1.757 -1.0052  1.0827 -0.3736
  397TIP3    H2 1198   5.665   0.690   1.729  1.0950  0.6115  1.6406
  398TIP3   OH2 1199   0.407   4.662   2.622 -0.2669 -0.0051 -0.1370
  398TIP3    H1 1200   0.485   4.646   2.676  0.1897 -0.3848 -0.8983
  398TIP3    H2 1201   0.352   4.584   2.636 -1.0161  0.7157  1.2131
  399TIP3   OH2 1202   0.585   0.301   0.447  0.0086 -0.1874  0.0385
  399TIP3    H1 1203   0.665   0.341   0.416 -0.0615 -0.0198  0.0733
  399TIP3    H2 1204   0.614   0.226   0.500  0.2601  1.4720  2.3982
  400TIP3   OH2 1205   0.860   3.973   3.813 -0.4886  0.3393 -0.1894
  400TIP3    H1 1206   0.840   4.067   3.818 -2.3860 -0.0791  1.4502
  400TIP3    H2 1207   0.916   3.957   3.889  1.6123  0.4592 -1.6300
  401TIP3   OH2 1208   0.814   4.494   0.444  0.1760 -0.4530  0.7007
  401TIP3    H1 1209   0.729   4.538   0.446 -0.1031 -1.0070  1.4117
  401TIP3    H2 1210   0.806   4.427   0.376 -0.3538 -1.2678  1.5470
  402TIP3   OH2 1211   1.521   4.522   4.661  0.3739  0.3780  0.0270
  402TIP3    H1 1212   1.586   4.508   4.729  0.1071  1.9547  0.6685
  402TIP3    H2 1213   1.451   4.571   4.705 -0.4636  0.1789 -1.0435
  403TIP3   OH2 1214   2.065   2.865   2.936 -0.2220  0.4407  0.1885
  403TIP3    H1 1215   2.141   2.908   2.897  0.0543  0.4803  0.7609
  403TIP3    H2 1216   2.023   2.820   2.863 -0.1337  1.1275 -0.2895
  404TIP3   OH2 1217   2.404   0.272   1.589 -0.2179  0.0531 -0.8499
  404TIP3    H1 1218   2.320   0.227   1.597  0.2397 -1.0665 -1.9738
  404TIP3    H2 1219   2.467   0.213   1.629  0.3863 -0.3320 -2.2952
  405TIP3   OH2 1220   0.653   1.308   1.533 -0.0001  0.9383  0.1622
  405TIP3    H1 1221   0.561   1.291   1.551  0.3725  0.3250  1.7163
  405TIP3    H2 1222   0.700   1.241   1.584  1.2597 -0.7381 -2.9229
  406TIP3   OH2 1223   4.344   2.950   2.167  0.5950 -0.6241  0.2458
  406TIP3    H1 1224   4.274   3.013   2.148  0.2367 -0.9800  0.3624
  406TIP3    H2 1225   4.424   3.003   2.172  0.5207 -0.3605 -1.0509
  407TIP3   OH2 1226   6.058   0.027   2.562  0.5525  0.4814 -0.3113
  407TIP3    H1 1227   6.082   0.120   2.559  0.5945  0.4464 -1.1564
  407TIP3    H2 1228   6.138  -0.017   2.590  0.2488  0.7907  1.1217
  408TIP3   OH2 1229   1.835   2.161   0.352  0.2261  0.8067  0.2264
  408TIP3    H1 1230   1.877   2.098   0.410  0.6648 -0.6667 -1.5797
  408TIP3    H2 1231   1.906   2.191   0.295 -0.4842  0.9518 -0.6018
  409TIP3   OH2 1232   4.776   3.455   4.477 -0.0986  0.3881 -0.1475
  409TIP3    H1 1233   4.700   3.457   4.535  1.2484  1.9833  1.7051
  409TIP3    H2 1234   4.812   3.367   4.486 -1.5609 -0.3009 -0.8594
  410TIP3   OH2 1235   1.977   3.310   0.378  0.2428 -0.4084 -0.2966
  410TIP3    H1 1236   2.046   3.318   0.444  0.0004  0.8199 -0.1633
  410TIP3    H2 1237   2.019   3.339   0.296 -0.3361  1.2337 -0.0437
  411TIP3   OH2 1238   5.548   5.282   3.924  0.9069 -0.2602 -0.3754
  411TIP3    H1 1239   5.565   5.255   3.834 -0.1835 -2.2427 -0.0384
  411TIP3    H2 1240   5.634   5.303   3.960  1.6027 -1.4784 -1.2633
  412TIP3   OH2 1241   0.744   0.850   4.208  0.3351  0.3477  0.3695
  412TIP3    H1 1242   0.773   0.762   4.230 -0.3545  0.0021 -0.0478
  412TIP3    H2 1243   0.650   0.849   4.226  0.6935  1.7826  2.8544
  413TIP3   OH2 1244   0.917   0.018   4.259  0.1970  0.6005  0.1902
  413TIP3    H1 1245   0.831   0.057   4.271  0.2560  0.6233  0.5460
  413TIP3    H2 1246   0.914  -0.064   4.310 -0.3497 -0.5051 -1.5233
  414TIP3   OH2 1247   4.614   5.283   4.323  0.0996 -0.2194  0.0435
  414TIP3    H1 1248   4.696   5.323   4.292  0.0033  0.4021  0.5638
  414TIP3    H2 1249   4.569   5.354   4.369 -1.1773 -0.2952 -1.0407
  415TIP3   OH2 1250   4.985   0.700   0.410 -0.5660  0.3733  0.0718
  415TIP3    H1 1251   4.988   0.777   0.467  0.0424 -0.2614  0.9476
  415TIP3    H2 1252   5.013   0.731   0.324  0.4806  0.9825  0.6110
  416TIP3   OH2 1253   1.292   1.581   3.371  0.3619 -0.1280 -0.1086
  416TIP3    H1 1254   1.207   1.537   3.372  0.0013  0.5060  2.0931
  416TIP3    H2 1255   1.302   1.614   3.460  0.8330  3.8407 -1.4780
  417TIP3   OH2 1256   2.341   0.219   4.434 -0.3429  0.0619  0.4064
  417TIP3    H1 1257   2.422   0.244   4.479 -0.9819  2.3967  0.3911
  417TIP3    H2 1258   2.294   0.302   4.422 -2.7099 -1.2183  0.3441
  418TIP3   OH2 1259   2.626   3.751   0.254 -0.2254 -0.3549  0.0982
  418TIP3    H1 1260   2.570   3.706   0.317  0.0779  1.0996  1.4537
  418TIP3    H2 1261   2.565   3.790   0.192 -0.6018 -0.6420  0.2802
  419TIP3   OH2 1262   5.248   2.766   1.299  0.2130 -0.0041 -0.5796
  419TIP3    H1 1263   5.235   2.860   1.310 -0.2087 -0.1550  0.3126
  419TIP3    H2 1264   5.329   2.747   1.346 -1.0197 -0.4702  1.5197
  420TIP3   OH2 1265   1.622   4.480   2.491  0.2224 -0.3063 -0.0908
  420TIP3    H1 1266   1.636   4.421   2.565 -0.0617  0.4795  0.6055
  420TIP3    H2 1267   1.643   4.567   2.525  1.4058 -0.0677 -1.3179
  421TIP3   OH2 1268   3.326   2.491   1.494 -0.5070 -0.1148 -0.0796
  421TIP3    H1 1269   3.365   2.436   1.425 -1.3653 -0.7670 -0.0611
  421TIP3    H2 1270   3.387   2.485   1.567 -0.1530 -0.3393 -0.3904
  422TIP3   OH2 1271   6.143   0.572   1.045  0.5314  0.7514 -0.1159
  422TIP3    H1 1272   6.126   0.592   0.953  1.2190 -1.4987 -0.7939
  422TIP3    H2 1273   6.215   0.509   1.043  0.7851  0.9090  1.9954
  423TIP3   OH2 1274   5.770   4.151   3.323 -0.3193 -0.0966 -0.2632
  423TIP3    H1 1275   5.687   4.175   3.284  0.8961  0.2205 -2.8502
  423TIP3    H2 1276   5.759   4.169   3.417 -2.0725  3.1632 -0.9460
  424TIP3   OH2 1277   3.763   5.761   2.874  0.8442 -0.2682 -0.2650
  424TIP3    H1 1278   3.783   5.732   2.785 -0.8862  1.2067 -1.2017
  424TIP3    H2 1279   3.737   5.682   2.920  0.8349 -0.9177 -1.3488
  425TIP3   OH2 1280   1.792   0.449   3.342 -0.2900  0.2113 -0.4915
  425TIP3    H1 1281   1.745   0.502   3.278  0.9573  1.8088 -0.1606
  425TIP3    H2 1282   1.857   0.509   3.380  0.6766 -1.3595  0.4675
  426TIP3   OH2 1283   3.263   0.657   1.175 -0.0022 -0.2609 -0.4551
  426TIP3    H1 1284   3.233   0.746   1.192  1.3423  0.3132 -0.9878
  426TIP3    H2 1285   3.358   0.664   1.167  0.1997 -1.8464  0.0950
  427TIP3   OH2 1286   6.201   2.268   3.374  0.4981 -0.6618 -0.9476
  427TIP3    H1 1287   6.201   2.296   3.466  0.6195 -0.0754 -1.1246
  427TIP3    H2 1288   6.150   2.334   3.328  1.3535 -0.3464 -1.4763
  428TIP3   OH2 1289   3.446   2.075   3.835 -0.2259 -0.2237  0.2472
  428TIP3    H1 1290   3.390   1.998   3.822  0.9670 -1.1160  0.2310
  428TIP3    H2 1291   3.402   2.145   3.786 -0.6627 -1.2128 -0.8134
  429TIP3   OH2 1292   2.508   3.149   0.594  0.0870  0.0368 -0.6584
  429TIP3    H1 1293   2.499   3.162   0.499 -1.5907  0.9236 -0.4160
  429TIP3    H2 1294   2.430   3.100   0.618  0.2681  0.2238  0.3366
  430TIP3   OH2 1295   1.123   1.369   1.100  0.5559  0.1113 -0.2795
  430TIP3    H1 1296   1.214   1.393   1.117  0.3645  0.8384 -0.2279
  430TIP3    H2 1297   1.106   1.295   1.159  1.0570  0.0977 -0.1517
  431TIP3   OH2 1298   3.690   0.711   0.581 -0.6815  0.6858  0.5348
  431TIP3    H1 1299   3.698   0.627   0.625 -1.9258  0.4797  0.3991
  431TIP3    H2 1300   3.763   0.763   0.614 -0.4234 -0.1467  1.2952
  432TIP3   OH2 1301   2.326   4.474   2.223 -0.0828  0.4167  0.7230
  432TIP3    H1 1302   2.352   4.565   2.230  1.3026 -0.0586  2.5270
  432TIP3    H2 1303   2.281   4.456   2.306 -1.1901 -0.3141 -0.0016
  433TIP3   OH2 1304   1.310   2.783   4.770  0.2730 -0.5457  0.6581
  433TIP3    H1 1305   1.224   2.800   4.732 -0.0020 -0.2945  1.3800
  433TIP3    H2 1306   1.309   2.690   4.793  0.6619 -0.8486 -0.4846
  434TIP3   OH2 1307   3.870   5.187   3.586 -0.3595  0.0256  0.1008
  434TIP3    H1 1308   3.846   5.102   3.623 -1.0652  0.2620  0.2096
  434TIP3    H2 1309   3.964   5.181   3.570  0.0644  0.0479  2.2886
  435TIP3   OH2 1310   5.876   0.757   3.796  0.4527  0.6580  0.2403
  435TIP3    H1 1311   5.847   0.842   3.764  0.9191  0.0512 -1.9313
  435TIP3    H2 1312   5.831   0.693   3.740 -1.9318 -0.7539  3.3954
  436TIP3   OH2 1313   0.831   1.058   2.193  0.0526 -0.1935 -0.3651
  436TIP3    H1 1314   0.773   1.126   2.226  0.1929 -1.2407  2.2481
  436TIP3    H2 1315   0.917   1.100   2.188 -0.1463  0.2275 -0.2407
  437TIP3   OH2 1316   0.511   1.597   4.587 -0.0342  0.2950  0.3177
  437TIP3    H1 1317   0.596   1.640   4.600  0.1370  0.3675 -0.8919
  437TIP3    H2 1318   0.532   1.504   4.583 -0.1472  0.2381  1.0043
  438TIP3   OH2 1319   0.718   5.058   3.832 -0.4507 -0.3723  0.2978
  438TIP3    H1 1320   0.639   5.085   3.787 -0.5349 -1.0843  0.0044
  438TIP3    H2 1321   0.789   5.100   3.784 -0.6873  1.0318  1.1263
  439TIP3   OH2 1322   5.988   0.676   1.984 -0.1873  0.0977 -0.1315
  439TIP3    H1 1323   5.895   0.659   1.999 -0.6844  2.6011  0.0309
  439TIP3    H2 1324   6.030   0.659   2.068 -0.7753  0.6403  0.2706
  440TIP3   OH2 1325   2.428   2.890   2.749  0.3859 -0.4459  0.0438
  440TIP3    H1 1326   2.412   2.885   2.843  0.2679  1.5813  0.1863
  440TIP3    H2 1327   2.341   2.896   2.710  0.3794 -2.4692 -0.3273
  441TIP3   OH2 1328   4.786   2.726   0.080 -0.1185  0.4756 -0.1416
  441TIP3    H1 1329   4.697   2.707   0.050 -0.4996  1.4856  0.2997
  441TIP3    H2 1330   4.778   2.731   0.175  0.8000 -1.3202  0.0606
  442TIP3   OH2 1331   3.145   4.593   1.010 -0.1679 -0.2699 -0.2925
  442TIP3    H1 1332   3.162   4.525   0.945 -0.0630  0.0064 -0.5600
  442TIP3    H2 1333   3.173   4.554   1.093 -0.8680 -0.8473 -0.3201
  443TIP3   OH2 1334   5.751   5.755   4.947 -0.1223 -0.3234 -1.0196
  443TIP3    H1 1335   5.774   5.663   4.935  0.5563 -0.1728 -0.8985
  443TIP3    H2 1336   5.782   5.777   5.036  0.4089  0.2199 -1.3283
  444TIP3   OH2 1337   3.416   1.724   2.962  0.6376 -0.2081 -0.1287
  444TIP3    H1 1338   3.447   1.801   3.010  1.0705 -1.9154  2.5669
  444TIP3    H2 1339   3.336   1.697   3.008  0.8501 -1.7260 -0.5832
  445TIP3   OH2 1340   3.928   4.161   0.524  0.0317 -0.4461 -0.2560
  445TIP3    H1 1341   3.980   4.130   0.450  0.2596 -1.1007  0.1660
  445TIP3    H2 1342   3.910   4.253   0.504  1.5850 -0.1221 -0.2810
  446TIP3   OH2 1343   6.068   5.224   4.463  0.0891  0.4223  0.0961
  446TIP3    H1 1344   6.077   5.155   4.398  0.1879  2.0065 -1.6344
  446TIP3    H2 1345   5.996   5.278   4.432 -1.1246  0.2201  2.3056
  447TIP3   OH2 1346   0.449   3.779   3.064  0.4581 -0.4137 -0.7539
  447TIP3    H1 1347   0.401   3.768   3.146 -0.4235 -4.4059 -1.5894
  447TIP3    H2 1348   0.538   3.750   3.084  0.5226 -0.3542 -0.9560
  448TIP3   OH2 1349   1.491   1.440   3.046 -0.7226 -0.0572  0.0445
  448TIP3    H1 1350   1.471   1.380   3.117 -2.4590  0.5654  0.1198
  448TIP3    H2 1351   1.496   1.526   3.087 -1.1375  0.2264 -0.4805
  449TIP3   OH2 1352   1.913   3.382   3.042  0.0458 -0.0036 -0.1566
  449TIP3    H1 1353   1.978   3.412   2.980  0.1654 -1.0646 -0.5722
  449TIP3    H2 1354   1.855   3.457   3.055  0.7726  0.6340 -0.5413
  450TIP3   OH2 1355   2.704   3.506   1.447 -0.0396  0.1932  0.3773
  450TIP3    H1 1356   2.698   3.423   1.493  1.7654 -0.4529 -0.4545
  450TIP3    H2 1357   2.645   3.565   1.495 -2.2379 -1.8137  0.3139
  451TIP3   OH2 1358   1.740   0.057   2.058  0.0897  0.5293  0.1204
  451TIP3    H1 1359   1.715   0.009   2.138  0.2610  2.6837  1.5595
  451TIP3    H2 1360   1.739   0.149   2.085 -2.0610  1.5681 -2.9676
  452TIP3   OH2 1361   5.948   4.403   3.974 -0.2172 -0.1023 -0.0202
  452TIP3    H1 1362   5.894   4.365   4.043 -1.2663  1.2445 -0.0696
  452TIP3    H2 1363   5.986   4.481   4.014 -1.2424  0.9754 -1.1091
  453TIP3   OH2 1364   3.513   2.124   4.396  0.0172  0.6452 -0.3969
  453TIP3    H1 1365   3.446   2.145   4.331 -0.9209  1.1791  0.6951
  453TIP3    H2 1366   3.465   2.115   4.478  1.1183 -0.3991  0.1668
  454TIP3   OH2 1367   0.082   1.668   3.084  0.6247 -0.4758 -0.2035
  454TIP3    H1 1368   0.171   1.684   3.053  0.6205 -0.2409 -0.0960
  454TIP3    H2 1369   0.028   1.677   3.006  1.0020 -3.7694 -0.9727
  455TIP3   OH2 1370   0.130   2.180   5.118  0.1587  0.6551 -0.4528
  455TIP3    H1 1371   0.218   2.143   5.115 -0.0525  0.1780 -0.8545
  455TIP3    H2 1372   0.074   2.105   5.139 -0.2341  0.8133 -0.9286
  456TIP3   OH2 1373   6.147   0.779   3.642 -1.0832  0.3696  0.2309
  456TIP3    H1 1374   6.077   0.836   3.673 -0.7799  0.3544  0.9760
  456TIP3    H2 1375   6.211   0.779   3.713  1.4077  3.1970 -1.7647
  457TIP3   OH2 1376   5.244   1.545   3.782 -0.2065  0.1602 -0.0174
  457TIP3    H1 1377   5.174   1.582   3.727  0.1380  1.5706  0.4454
  457TIP3    H2 1378   5.324   1.588   3.752  0.4997 -1.4419 -0.5389
  458TIP3   OH2 1379   0.856   1.554   0.041  0.0577 -0.0601  0.4198
  458TIP3    H1 1380   0.921   1.595   0.098 -1.6571  1.0882  1.6221
  458TIP3    H2 1381   0.847   1.615  -0.033 -0.9612  0.7338  1.1718
  459TIP3   OH2 1382   5.006   2.689   2.636 -0.0268  0.3977 -0.4242
  459TIP3    H1 1383   4.931   2.709   2.579 -0.9111  0.9140  0.8827
  459TIP3    H2 1384   4.967   2.643   2.711  0.8879  1.1593  0.5375
  460TIP3   OH2 1385   5.722   5.093   0.072 -0.3604 -0.4796  0.0290
  460TIP3    H1 1386   5.674   5.050   0.143 -0.4258  1.4112  1.2033
  460TIP3    H2 1387   5.715   5.033  -0.002 -1.2665 -1.9986  1.2898
  461TIP3   OH2 1388   2.562   5.555   2.803 -0.5258  0.6701  0.1191
  461TIP3    H1 1389   2.548   5.471   2.760 -1.5502  0.5031  0.7461
  461TIP3    H2 1390   2.618   5.603   2.743  0.5110 -0.6445 -0.0155
  462TIP3   OH2 1391   1.175   5.311   1.303  0.1593 -0.0721  0.6412
  462TIP3    H1 1392   1.141   5.330   1.215 -0.1201 -0.2596  0.7082
  462TIP3    H2 1393   1.255   5.364   1.310  0.1355  0.0085  0.3063
  463TIP3   OH2 1394   4.295   5.386   3.623 -0.3746  0.0339 -0.4129
  463TIP3    H1 1395   4.310   5.472   3.584 -1.1012 -0.7283 -2.4793
  463TIP3    H2 1396   4.327   5.395   3.713 -1.8925  2.9155 -0.0517
  464TIP3   OH2 1397   1.129   3.528   2.091  0.2201 -0.1250 -0.5422
  464TIP3    H1 1398   1.035   3.546   2.089  0.1947 -0.2579 -0.5723
  464TIP3    H2 1399   1.149   3.497   2.002  0.6225  1.5457 -1.0621
  465TIP3   OH2 1400   3.753   4.883   0.130 -0.1603  0.3904 -0.2173
  465TIP3    H1 1401   3.789   4.800   0.100 -1.4564  0.1161 -1.0694
  465TIP3    H2 1402   3.707   4.861   0.211  0.3565  0.4864  0.1119
  466TIP3   OH2 1403   4.208   3.826   5.068  0.1512  0.0182  0.1919
  466TIP3    H1 1404   4.196   3.739   5.031 -0.5674  0.7708 -1.4351
  466TIP3    H2 1405   4.127   3.873   5.046  0.9921  1.4364  0.0128
  467TIP3   OH2 1406   5.711   3.723   4.807  0.1977  0.2160  0.4066
  467TIP3    H1 1407   5.684   3.711   4.716  1.5407  2.1693 -0.3252
  467TIP3    H2 1408   5.672   3.807   4.832 -1.1444 -0.8427  2.0865
  468TIP3   OH2 1409   1.349   4.670   2.780 -0.1773  0.5920 -0.3106
  468TIP3    H1 1410   1.365   4.670   2.874  0.9104 -1.7371 -0.4105
  468TIP3    H2 1411   1.293   4.594   2.765  0.7885  0.0952 -1.6422
  469TIP3   OH2 1412   5.962   1.885   2.237  0.2099 -0.1149  0.1024
  469TIP3    H1 1413   6.057   1.880   2.245  0.1902 -1.4554 -0.2226
  469TIP3    H2 1414   5.941   1.827   2.164 -0.8607  0.1444  0.1883
  470TIP3   OH2 1415   3.977   1.020   4.082 -0.2350  0.0070  0.1128
  470TIP3    H1 1416   3.932   1.086   4.135 -1.4540 -1.2467  0.7189
  470TIP3    H2 1417   3.971   0.940   4.134  0.8194 -0.6903 -0.7970
  471TIP3   OH2 1418   6.106   5.313   4.029 -0.2350  0.1108 -0.5701
  471TIP3    H1 1419   6.185   5.352   3.993 -0.6970 -0.2698 -2.0791
  471TIP3    H2 1420   6.038   5.331   3.964 -1.0345 -0.8962 -0.0494
  472TIP3   OH2 1421   3.281   2.263   2.507 -0.1335  0.4586  0.4364
  472TIP3    H1 1422   3.290   2.328   2.576 -0.5172  0.1029  0.8237
  472TIP3    H2 1423   3.269   2.180   2.553  0.1411  0.1414 -0.0530
  473TIP3   OH2 1424   0.673   1.931   4.267  0.6649 -0.4961 -0.1738
  473TIP3    H1 1425   0.606   1.871   4.300  0.1261  0.7543  1.0906
  473TIP3    H2 1426   0.756   1.885   4.286  0.2807 -0.7009  1.1416
  474TIP3   OH2 1427   3.315   3.324   3.275  0.1156  0.5029 -0.7454
  474TIP3    H1 1428   3.248   3.388   3.297 -0.5985 -0.9433  1.6709
  474TIP3    H2 1429   3.396   3.359   3.312 -0.1636  0.2959  0.0759
  475TIP3   OH2 1430   5.354   1.222   5.088 -0.0115  0.7373  0.1430
  475TIP3    H1 1431   5.433   1.181   5.052  0.4562  0.5791  1.3062
  475TIP3    H2 1432   5.304   1.149   5.123 -0.6593  0.8465 -0.5271
  476TIP3   OH2 1433   3.668   2.542   2.027  0.7255  0.5667 -0.1568
  476TIP3    H1 1434   3.747   2.490   2.038  0.3091  0.1682  1.2359
  476TIP3    H2 1435   3.682   2.619   2.082 -0.4678 -0.2909  1.4484
  477TIP3   OH2 1436   4.643   1.803   3.467  0.0597 -0.0366  0.2180
  477TIP3    H1 1437   4.653   1.766   3.379 -0.9167 -1.0067  0.4989
  477TIP3    H2 1438   4.690   1.741   3.524 -1.8822 -1.1125  0.7342
  478TIP3   OH2 1439   6.166   1.766   1.326 -0.1151 -0.0231  0.0239
  478TIP3    H1 1440   6.260   1.775   1.311  0.6362 -1.6214  2.8742
  478TIP3    H2 1441   6.144   1.837   1.386 -0.1479 -0.9927  1.2078
  479TIP3   OH2 1442   0.332   3.734   2.149  0.5982  0.8638 -0.5144
  479TIP3    H1 1443   0.279   3.689   2.083  1.3158  0.2358 -0.6699
  479TIP3    H2 1444   0.310   3.826   2.137  0.2947  0.7085 -1.2518
  480TIP3   OH2 1445   2.137   0.991   3.410  0.9010  0.1454  0.1336
  480TIP3    H1 1446   2.122   1.059   3.344  0.1021  0.3274  0.4858
  480TIP3    H2 1447   2.153   1.040   3.491  0.0598 -0.0825  0.4441
  481TIP3   OH2 1448   1.148   0.115   1.392 -0.0218 -0.1010  0.5841
  481TIP3    H1 1449   1.054   0.109   1.373  0.4783 -3.6444 -1.6839
  481TIP3    H2 1450   1.159   0.070   1.476 -0.3240 -0.1167  0.6147
  482TIP3   OH2 1451   2.877   3.063   2.692  0.0385 -0.1164  0.9144
  482TIP3    H1 1452   2.785   3.046   2.673  0.7644 -1.8002 -1.5523
  482TIP3    H2 1453   2.904   2.989   2.748  0.0432  0.0939  1.1958
  483TIP3   OH2 1454   2.049   3.422   0.114 -0.1062 -0.3920 -0.5609
  483TIP3    H1 1455   2.117   3.451   0.054  0.4322  0.7782  0.5718
  483TIP3    H2 1456   1.971   3.468   0.086 -0.2873 -1.1594 -1.3909
  484TIP3   OH2 1457   1.441   5.238   4.942 -0.0334 -0.3085  0.6347
  484TIP3    H1 1458   1.419   5.288   4.863 -1.1108 -0.3602  0.8812
  484TIP3    H2 1459   1.448   5.304   5.011 -1.1576 -0.4528  0.8996
  485TIP3   OH2 1460   4.937   3.349   1.012 -0.1602  0.1580 -0.3289
  485TIP3    H1 1461   4.918   3.404   1.088 -1.0976  0.6285 -0.8924
  485TIP3    H2 1462   4.912   3.403   0.937 -2.1488 -1.4026 -0.8675
  486TIP3   OH2 1463   3.668   5.277   3.803 -0.3067 -0.2976 -0.2744
  486TIP3    H1 1464   3.729   5.207   3.827 -0.5589  0.0632  1.6280
  486TIP3    H2 1465   3.661   5.331   3.882 -2.0582  0.4309 -0.8647
  487TIP3   OH2 1466   5.606   2.663   4.139 -0.1222  0.0920  0.2451
  487TIP3    H1 1467   5.529   2.708   4.104  0.3346  0.3437 -0.4609
  487TIP3    H2 1468   5.580   2.571   4.144 -0.9632  0.3731  1.4153
  488TIP3   OH2 1469   2.879   5.167   2.544  0.7666  0.2264  0.5452
  488TIP3    H1 1470   2.879   5.252   2.588  1.8613  0.4697  0.1186
  488TIP3    H2 1471   2.901   5.188   2.453  2.2831 -0.6142  0.6912
  489TIP3   OH2 1472   5.656   5.564   4.581  0.3111  0.0162 -0.8930
  489TIP3    H1 1473   5.751   5.572   4.583  0.4021 -0.8594  1.4969
  489TIP3    H2 1474   5.639   5.473   4.555  0.0431  0.5171 -2.6003
  490TIP3   OH2 1475   5.062   1.785   2.532  0.2145  0.6168  0.1897
  490TIP3    H1 1476   5.130   1.747   2.476  0.7154 -0.1904  1.3259
  490TIP3    H2 1477   5.077   1.747   2.618  0.7101  3.3231  1.4096
  491TIP3   OH2 1478   6.237   2.930   0.871 -0.1110  0.5403 -0.9438
  491TIP3    H1 1479   6.212   2.877   0.947 -0.1153  0.8211 -0.7467
  491TIP3    H2 1480   6.160   2.928   0.814 -0.1740  0.4776 -0.8568
  492TIP3   OH2 1481   3.754   4.307   4.701  0.3351  0.2388  0.1033
  492TIP3    H1 1482   3.663   4.298   4.675 -0.0641  1.4843  1.0077
  492TIP3    H2 1483   3.761   4.258   4.783  0.3862  0.4877  0.2473
  493TIP3   OH2 1484   1.380   2.378  -0.023 -0.1382  0.1967 -0.1161
  493TIP3    H1 1485   1.310   2.332   0.024 -0.1200  0.1802 -0.1045
  493TIP3    H2 1486   1.446   2.393   0.044 -0.3028  0.5709 -0.0363
  494TIP3   OH2 1487   0.213   1.382   3.147 -0.5862  0.3950 -0.1059
  494TIP3    H1 1488   0.177   1.369   3.235  0.8696  0.3200  0.5081
  494TIP3    H2 1489   0.180   1.468   3.120 -0.6430  0.6360  0.7108
  495TIP3   OH2 1490   5.829   4.746   2.977  0.3852 -0.5294 -0.0107
  495TIP3    H1 1491   5.914   4.732   3.019  0.7633  2.4168  0.4342
  495TIP3    H2 1492   5.840   4.829   2.929 -1.5929 -1.1962 -1.7507
  496TIP3   OH2 1493   4.132   5.219   3.483 -0.5595  0.0095  0.1399
  496TIP3    H1 1494   4.199   5.286   3.501  1.2605 -2.1587  2.0667
  496TIP3    H2 1495   4.170   5.165   3.414 -1.3398  0.0341 -0.3170
  497TIP3   OH2 1496   1.307   4.395   3.734  0.4615  0.1286  0.3700
  497TIP3    H1 1497   1.336   4.408   3.644  0.1038  1.2605  0.4041
  497TIP3    H2 1498   1.388   4.390   3.784  0.6631  1.3952  0.2165
  498TIP3   OH2 1499   2.970   5.951   0.747  0.2627 -0.2365  0.2722
  498TIP3    H1 1500   2.969   5.982   0.837  0.5367 -0.1006  0.2335
  498TIP3    H2 1501   3.019   5.869   0.750 -1.2323 -1.1391  0.5102
  499TIP3   OH2 1502   0.638   3.064   3.284  0.0443 -0.9466 -0.0812
  499TIP3    H1 1503   0.643   3.159   3.288  0.7950 -1.0168  2.7280
  499TIP3    H2 1504   0.578   3.040   3.355  0.9358 -2.6090  0.1673
  500TIP3   OH2 1505   3.848   1.913   3.301  0.1930 -0.7327 -0.2907
  500TIP3    H1 1506   3.893   1.831   3.322 -0.6965 -1.2522 -0.3988
  500TIP3    H2 1507   3.759   1.887   3.280  0.1053  0.1824 -1.1056
  501TIP3   OH2 1508   3.289   2.113   0.063  0.3398  0.1792 -0.3318
  501TIP3    H1 1509   3.252   2.201   0.072 -0.3790 -0.0500 -0.8772
  501TIP3    H2 1510   3.378   2.127   0.032  0.9118  0.7654  1.4811
  502TIP3   OH2 1511   2.761   4.008   4.661  0.7264 -0.3707  0.2086
  502TIP3    H1 1512   2.822   4.057   4.716  1.7702 -1.3686 -0.0480
  502TIP3    H2 1513   2.724   4.074   4.602  2.0493  0.1400 -0.0780
  503TIP3   OH2 1514   3.709   4.043   1.510  0.2810 -0.4325  0.1238
  503TIP3    H1 1515   3.718   4.135   1.534  1.1577  0.4740 -3.2447
  503TIP3    H2 1516   3.617   4.034   1.484  0.1839 -0.5695  0.4950
  504TIP3   OH2 1517   0.335   0.718   1.238  0.7268 -0.7137 -0.3240
  504TIP3    H1 1518   0.255   0.760   1.205 -0.0773 -1.1879  0.9423
  504TIP3    H2 1519   0.403   0.784   1.228  0.0232 -0.0362 -0.7547
  505TIP3   OH2 1520   4.150   0.456   3.727 -0.0598  0.3622  0.4071
  505TIP3    H1 1521   4.087   0.515   3.686 -1.4628 -0.0557  1.8522
  505TIP3    H2 1522   4.127   0.370   3.692  0.6004  0.3754 -0.0757
  506TIP3   OH2 1523   6.194   1.383   3.970 -0.3956 -0.2827  0.0299
  506TIP3    H1 1524   6.229   1.308   3.923 -0.8830 -1.0486  0.8548
  506TIP3    H2 1525   6.117   1.410   3.919 -2.3980 -2.6183  1.5524
  507TIP3   OH2 1526   2.211   5.900   1.542 -0.6593  0.0849 -0.1098
  507TIP3    H1 1527   2.233   5.976   1.489 -0.6393 -0.1085 -0.3858
  507TIP3    H2 1528   2.127   5.870   1.507 -0.4005 -0.3464 -0.3773
  508TIP3   OH2 1529   0.205   2.170   4.139 -0.4569  0.1554  0.4475
  508TIP3    H1 1530   0.195   2.181   4.234 -2.2409 -2.3650  0.6475
  508TIP3    H2 1531   0.239   2.081   4.129  0.1597  0.5452 -1.2898
  509TIP3   OH2 1532   3.108   1.256   0.696  0.2814  0.2683 -0.3402
  509TIP3    H1 1533   3.110   1.320   0.624  1.1303 -0.7444 -1.2537
  509TIP3    H2 1534   3.034   1.283   0.749  0.7630  2.1695 -0.5472
  510TIP3   OH2 1535   0.449   1.775   2.239 -0.2464  0.3615  0.1093
  510TIP3    H1 1536   0.529   1.787   2.291 -0.1623 -0.1592  0.1096
  510TIP3    H2 1537   0.378   1.799   2.298 -0.1971 -0.8914  0.7078
  511TIP3   OH2 1538   4.237   3.819   4.101 -0.5454 -0.0167 -0.4334
  511TIP3    H1 1539   4.264   3.839   4.191 -0.4110 -2.5037  0.1572
  511TIP3    H2 1540   4.272   3.732   4.085  0.2939  0.7554 -3.3076
  512TIP3   OH2 1541   4.504   0.670   1.938  0.3554 -0.4104 -0.0938
  512TIP3    H1 1542   4.440   0.600   1.927  0.1399 -0.7619  2.5934
  512TIP3    H2 1543   4.588   0.625   1.946  0.0709 -0.5886  2.8917
  513TIP3   OH2 1544   3.206   1.902   4.249  0.1143  0.5585 -0.2232
  513TIP3    H1 1545   3.234   1.818   4.283 -1.5935  0.2056  0.3894
  513TIP3    H2 1546   3.285   1.939   4.209  0.7608 -1.5602 -1.0171
  514TIP3   OH2 1547   3.005   0.895   2.113  0.0062 -0.3085  0.1641
  514TIP3    H1 1548   2.987   0.982   2.150  0.6390 -0.2149  0.2677
  514TIP3    H2 1549   3.021   0.840   2.189  1.5028 -0.0718  0.0508
  515TIP3   OH2 1550   1.156   1.229   1.508 -0.1457 -0.2229  0.3245
  515TIP3    H1 1551   1.187   1.319   1.511  1.7159 -0.8004 -0.1050
  515TIP3    H2 1552   1.150   1.202   1.599 -0.1517  0.1478  0.4340
  516TIP3   OH2 1553   3.173   3.216   0.212 -0.5376  0.2327  0.7630
  516TIP3    H1 1554   3.098   3.197   0.269 -1.7213  1.2226 -0.4075
  516TIP3    H2 1555   3.249   3.186   0.262 -1.5043  1.1810  2.9405
  517TIP3   OH2 1556   4.049   1.046   0.924 -0.0653  0.7346  0.9398
  517TIP3    H1 1557   4.144   1.038   0.938 -0.1686 -2.0713  0.6580
  517TIP3    H2 1558   4.034   1.140   0.917  2.8725  1.2547 -0.0869
  518TIP3   OH2 1559   5.131   2.289   1.868  0.0156  0.3827  0.0869
  518TIP3    H1 1560   5.055   2.347   1.874  0.7893  1.3874  0.5478
  518TIP3    H2 1561   5.115   2.221   1.933 -0.0427  1.1437  0.8933
  519TIP3   OH2 1562   0.668   3.115   0.064  0.3715 -0.3189 -0.2320
  519TIP3    H1 1563   0.613   3.055   0.013 -0.1752 -0.2548  0.2627
  519TIP3    H2 1564   0.626   3.117   0.150 -0.2137  1.5166 -0.5082
  520TIP3   OH2 1565   4.858   4.950   1.963 -0.0230  0.4507  0.5990
  520TIP3    H1 1566   4.785   4.948   2.024  0.0425  1.7398  0.7427
  520TIP3    H2 1567   4.896   4.862   1.968  0.4817  0.7332  3.0086
  521TIP3   OH2 1568   6.085   1.278   3.081 -0.6685  0.2729  0.6517
  521TIP3    H1 1569   6.095   1.306   3.171  0.9040  1.4797  0.1503
  521TIP3    H2 1570   6.023   1.205   3.085 -0.5633  0.2477  2.6934
  522TIP3   OH2 1571   2.608   3.104   3.224 -0.2670 -0.8311  0.4910
  522TIP3    H1 1572   2.594   3.109   3.319  1.0315  0.9009  0.6545
  522TIP3    H2 1573   2.683   3.045   3.214 -1.3534 -2.2483  0.3799
  523TIP3   OH2 1574   2.854   3.161   1.002 -0.1739 -0.0084  0.0827
  523TIP3    H1 1575   2.895   3.191   0.921  0.7054  1.6737  1.0728
  523TIP3    H2 1576   2.783   3.104   0.974  0.3426  0.2139 -1.8406
  524TIP3   OH2 1577   2.216   4.882   2.532 -0.0487 -0.1815 -0.2048
  524TIP3    H1 1578   2.121   4.887   2.521 -0.2024 -1.2556  0.4856
  524TIP3    H2 1579   2.235   4.789   2.535  1.0530  0.0180 -0.4409
  525TIP3   OH2 1580   4.571   4.001   5.121  0.1779  0.1408 -0.8636
  525TIP3    H1 1581   4.579   4.051   5.039  0.6646  1.1537 -0.2220
  525TIP3    H2 1582   4.662   3.982   5.146  0.1196  1.1457  0.2018
  526TIP3   OH2 1583   3.468   0.729   0.929  0.2979 -0.2108  0.1445
  526TIP3    H1 1584   3.446   0.770   0.845 -1.9411  0.5215  1.0314
  526TIP3    H2 1585   3.448   0.796   0.994  1.3857 -1.0019  1.3273
  527TIP3   OH2 1586   6.303   3.917   1.217  0.0866  0.6197  0.5366
  527TIP3    H1 1587   6.373   3.975   1.248 -1.1024  1.2719  2.1214
  527TIP3    H2 1588   6.299   3.847   1.283 -0.8723  0.6884  0.5585
  528TIP3   OH2 1589   3.380   5.248   3.034  0.2732 -0.1329 -0.8845
  528TIP3    H1 1590   3.417   5.161   3.019  0.0755 -0.0472 -1.9079
  528TIP3    H2 1591   3.405   5.299   2.957 -0.2989  0.4906 -0.6731
  529TIP3   OH2 1592   0.840   4.588   4.514  0.6648 -0.4480 -0.1535
  529TIP3    H1 1593   0.911   4.652   4.504  1.1986 -0.7975  1.1912
  529TIP3    H2 1594   0.805   4.576   4.425  0.8406  1.3694 -0.5087
  530TIP3   OH2 1595   3.325   3.352   3.953  0.0470 -0.1397  0.1992
  530TIP3    H1 1596   3.376   3.416   4.004  1.6211 -1.1243 -0.0680
  530TIP3    H2 1597   3.362   3.357   3.865 -0.9268 -0.2682 -0.2248
  531TIP3   OH2 1598   1.465   2.634   1.403 -0.2334  0.1811 -0.2575
  531TIP3    H1 1599   1.468   2.572   1.476  0.3373 -1.1852 -1.4024
  531TIP3    H2 1600   1.542   2.689   1.416  0.0619 -0.2782 -0.0035
  532TIP3   OH2 1601   1.433   5.177   1.438  0.0761  0.2129  0.0453
  532TIP3    H1 1602   1.455   5.264   1.403  1.3147  0.3559  1.1035
  532TIP3    H2 1603   1.339   5.180   1.451  0.3777  2.4735  2.7213
  533TIP3   OH2 1604   0.868   2.383   1.386  0.6045 -0.4789  0.0772
  533TIP3    H1 1605   0.867   2.368   1.291  0.1670 -0.9036  0.1406
  533TIP3    H2 1606   0.853   2.296   1.423 -0.3969 -0.1318  0.5111
  534TIP3   OH2 1607   2.519   2.614   1.560  0.1624  0.4399  0.1918
  534TIP3    H1 1608   2.491   2.577   1.643 -0.7065  0.9048  0.1223
  534TIP3    H2 1609   2.453   2.681   1.540  1.2853  1.5283 -0.0311
  535TIP3   OH2 1610   5.392   2.707   0.969 -0.1319  0.4184 -0.4520
  535TIP3    H1 1611   5.346   2.678   0.890 -0.2216  0.3086 -0.3600
  535TIP3    H2 1612   5.381   2.635   1.031 -0.1308  0.5383 -0.3117
  536TIP3   OH2 1613   5.530   0.648   4.784 -0.4937 -0.4372 -0.0220
  536TIP3    H1 1614   5.515   0.555   4.768 -0.6010 -0.4540  0.1697
  536TIP3    H2 1615   5.506   0.691   4.702  0.7780 -0.6954 -0.5467
  537TIP3   OH2 1616   4.879   2.803   4.202  0.3640  0.3232  0.2980
  537TIP3    H1 1617   4.864   2.743   4.275  0.3066  0.1696  0.1605
  537TIP3    H2 1618   4.843   2.887   4.232  1.4997  0.6018  0.9622
  538TIP3   OH2 1619   3.159   3.685   1.458  0.0913  0.3138 -0.0004
  538TIP3    H1 1620   3.193   3.738   1.530  1.3651  0.6738 -0.8385
  538TIP3    H2 1621   3.064   3.685   1.471  0.3166 -0.0717  1.9710
  539TIP3   OH2 1622   5.794   4.274   4.162  0.3982 -0.5677 -0.2017
  539TIP3    H1 1623   5.801   4.236   4.250 -1.8662 -0.4622  0.0777
  539TIP3    H2 1624   5.716   4.234   4.125 -0.7976  2.0622 -0.7612
  540TIP3   OH2 1625   0.132   1.886   3.859 -0.2458  0.8166 -0.3122
  540TIP3    H1 1626   0.132   1.970   3.813  0.3030  0.0080 -1.8568
  540TIP3    H2 1627   0.057   1.891   3.918  0.0412  2.5537 -0.0340
  541TIP3   OH2 1628   2.581   2.914   2.371 -0.5628 -0.1141 -0.3240
  541TIP3    H1 1629   2.613   2.976   2.305  0.1848 -1.9439 -1.7502
  541TIP3    H2 1630   2.612   2.950   2.454 -1.7857  2.4209 -0.8583
  542TIP3   OH2 1631   0.418   0.630   2.972 -0.1963  0.4854  0.0496
  542TIP3    H1 1632   0.429   0.593   2.884  0.0152  0.9400 -0.1175
  542TIP3    H2 1633   0.396   0.722   2.956  1.2199  0.9245  0.4880
  543TIP3   OH2 1634   2.335   2.676   4.826  0.3778 -0.7671 -0.3877
  543TIP3    H1 1635   2.319   2.763   4.789  2.5757  0.2040  0.7708
  543TIP3    H2 1636   2.302   2.615   4.760 -2.3605  0.8959 -0.6994
  544TIP3   OH2 1637   0.254   1.718   4.598 -0.0778 -0.1206 -0.5479
  544TIP3    H1 1638   0.284   1.766   4.674 -3.9275 -0.3056  1.3484
  544TIP3    H2 1639   0.321   1.651   4.583  2.0155  1.4830  1.0268
  545TIP3   OH2 1640   3.399   2.386   0.850 -0.0603  0.6375 -0.1221
  545TIP3    H1 1641   3.347   2.309   0.872  0.1407  0.3642 -0.6129
  545TIP3    H2 1642   3.456   2.399   0.926 -1.0723  1.1474  0.5868
  546TIP3   OH2 1643   3.442   5.507   1.192 -0.8417 -0.3740 -0.4394
  546TIP3    H1 1644   3.421   5.438   1.129 -1.7211 -0.9749  0.4934
  546TIP3    H2 1645   3.412   5.473   1.276 -0.9000  0.9716  0.1061
  547TIP3   OH2 1646   5.661   0.825   1.551 -0.3112 -0.2511 -0.2383
  547TIP3    H1 1647   5.733   0.806   1.490 -1.3675 -1.1680 -1.2423
  547TIP3    H2 1648   5.593   0.762   1.528 -1.3352  0.4037  0.8902
  548TIP3   OH2 1649   2.236   4.583   1.504 -0.3462  0.6443  0.4789
  548TIP3    H1 1650   2.255   4.513   1.566 -0.2984  0.3222  0.1044
  548TIP3    H2 1651   2.258   4.664   1.551  0.1011  0.3803  0.7231
  549TIP3   OH2 1652   1.492   5.548   2.971 -0.5897 -0.4631  0.2168
  549TIP3    H1 1653   1.440   5.491   2.914 -0.0020 -1.0040  0.2165
  549TIP3    H2 1654   1.529   5.490   3.037  0.2140 -0.1301  0.0759
  550TIP3   OH2 1655   3.407   3.515   1.406  0.0645 -0.3611  0.0128
  550TIP3    H1 1656   3.315   3.497   1.388 -0.0876  0.2989  0.0974
  550TIP3    H2 1657   3.412   3.526   1.501 -0.1796  1.6752 -0.1574
  551TIP3   OH2 1658   4.074   0.822   3.656  0.3868  0.5935 -0.1822
  551TIP3    H1 1659   4.160   0.827   3.615  0.0806 -0.2784 -0.9577
  551TIP3    H2 1660   4.092   0.809   3.749  1.1099 -0.8503 -0.5091
  552TIP3   OH2 1661   3.383   0.760   2.655 -0.8732 -0.2627  0.0016
  552TIP3    H1 1662   3.332   0.769   2.736 -0.4603  1.4663  0.1251
  552TIP3    H2 1663   3.317   0.759   2.586 -1.1495  1.7449  0.1758
  553TIP3   OH2 1664   2.593   1.298   3.669 -0.1323 -0.1431 -0.3521
  553TIP3    H1 1665   2.605   1.332   3.580  0.5761 -0.9960 -0.6010
  553TIP3    H2 1666   2.677   1.257   3.690 -0.3119  0.0005  0.6942
  554TIP3   OH2 1667   3.108   4.344   0.878 -0.5554 -0.0921 -0.2409
  554TIP3    H1 1668   3.198   4.314   0.867 -0.6574 -0.8449  0.8675
  554TIP3    H2 1669   3.055   4.279   0.830 -0.7684 -1.7416  2.0787
  555TIP3   OH2 1670   3.481   1.626   4.966  0.5508 -0.0259  0.3547
  555TIP3    H1 1671   3.554   1.566   4.981 -0.9568 -2.0443  0.0011
  555TIP3    H2 1672   3.411   1.571   4.933 -0.6842  2.0884 -0.7700
  556TIP3   OH2 1673   6.083   3.017   3.276 -0.5392  0.4895  0.0983
  556TIP3    H1 1674   6.044   3.033   3.361 -1.7494  1.5564 -0.6165
  556TIP3    H2 1675   6.169   2.980   3.295 -0.7814  0.7258  1.7627
  557TIP3   OH2 1676   4.621   3.321   1.608  0.2989  0.4997 -0.1618
  557TIP3    H1 1677   4.708   3.360   1.617  1.2372 -1.6679  1.0392
  557TIP3    H2 1678   4.571   3.358   1.681  1.8086 -1.8877  2.2775
  558TIP3   OH2 1679   2.235   1.322   3.018  0.4255 -0.2169  0.2083
  558TIP3    H1 1680   2.209   1.231   3.009  0.1215 -0.2622  1.3968
  558TIP3    H2 1681   2.221   1.343   3.110 -0.8673  1.4516 -0.3033
  559TIP3   OH2 1682   2.248   5.534   5.146 -0.4414 -0.0232 -0.5326
  559TIP3    H1 1683   2.203   5.526   5.230  0.3015 -0.0723 -0.1253
  559TIP3    H2 1684   2.179   5.550   5.082 -1.1115 -0.9866 -0.0660
  560TIP3   OH2 1685   2.162   2.056   4.130 -0.2545  0.3962  1.1347
  560TIP3    H1 1686   2.093   2.072   4.066  0.1930 -0.0902  0.5167
  560TIP3    H2 1687   2.121   2.072   4.215 -1.0626  0.2997  0.7652
  561TIP3   OH2 1688   4.714   1.187   3.414 -0.1382 -0.4295 -0.5043
  561TIP3    H1 1689   4.701   1.280   3.392 -0.9191 -0.4696 -0.2484
  561TIP3    H2 1690   4.745   1.148   3.332  0.9462  0.1915 -0.4165
  562TIP3   OH2 1691   0.247   4.609   0.714  0.2801  0.7031  0.3390
  562TIP3    H1 1692   0.182   4.644   0.652  0.4013  0.3933  0.0308
  562TIP3    H2 1693   0.317   4.674   0.715 -0.8877  2.0026  2.1422
  563TIP3   OH2 1694   4.898   3.538   4.243  0.4175 -0.3732  0.0845
  563TIP3    H1 1695   4.929   3.449   4.227 -2.9258 -1.8314  0.9828
  563TIP3    H2 1696   4.830   3.529   4.310 -0.6083  2.7725 -0.3386
  564TIP3   OH2 1697   2.924   0.505   3.230  1.2305  0.2912  0.4767
  564TIP3    H1 1698   2.978   0.506   3.151  2.6993 -1.9558  1.3539
  564TIP3    H2 1699   2.985   0.492   3.301 -0.3464 -1.7670  1.5812
  565TIP3   OH2 1700   2.971   2.069   0.840  0.3717 -0.9729 -0.7171
  565TIP3    H1 1701   2.930   2.030   0.917  0.5851  0.0640 -0.0566
  565TIP3    H2 1702   2.931   2.155   0.833 -0.7603 -1.6025 -2.6847
  566TIP3   OH2 1703   4.520   5.172   0.238  0.4727  0.0080 -0.1079
  566TIP3    H1 1704   4.433   5.143   0.266 -0.0734  1.6202 -0.0389
  566TIP3    H2 1705   4.563   5.202   0.318  0.1469  1.4994 -0.4524
  567TIP3   OH2 1706   1.823   0.855   4.083  0.0803 -0.0471 -0.0376
  567TIP3    H1 1707   1.736   0.831   4.113 -0.4265  0.7348 -0.8500
  567TIP3    H2 1708   1.820   0.844   3.988 -0.0837  2.7664 -0.4450
  568TIP3   OH2 1709   5.770   3.761   2.363 -0.6566  0.7745 -0.3526
  568TIP3    H1 1710   5.797   3.724   2.279 -1.3668  1.2079 -0.7844
  568TIP3    H2 1711   5.839   3.824   2.385  0.6157 -0.8088  0.4370
  569TIP3   OH2 1712   1.893   4.944   1.206 -0.3202  0.3718  0.0038
  569TIP3    H1 1713   1.809   4.988   1.212 -0.9226 -0.8267  0.7248
  569TIP3    H2 1714   1.958   5.013   1.220 -1.2005  1.1517  0.3245
  570TIP3   OH2 1715   2.464   2.624   3.048 -0.1475  0.2024  0.2365
  570TIP3    H1 1716   2.502   2.563   3.111 -0.6164  1.6629  2.0176
  570TIP3    H2 1717   2.371   2.604   3.048  0.0809 -1.0411 -1.4741
  571TIP3   OH2 1718   3.498   1.354   1.965  0.2414  0.4543 -0.1115
  571TIP3    H1 1719   3.518   1.297   1.890 -0.2152  0.7375 -0.4510
  571TIP3    H2 1720   3.461   1.295   2.030  1.7374 -0.0092  0.3650
  572TIP3   OH2 1721   0.508   0.918   1.988  0.2099  0.2203 -0.4867
  572TIP3    H1 1722   0.511   0.844   2.049  1.4244 -0.8533 -1.7614
  572TIP3    H2 1723   0.525   0.995   2.042 -0.2817 -0.5215  0.7534
  573TIP3   OH2 1724   0.683   3.649   4.223 -0.0897 -0.0083 -0.0942
  573TIP3    H1 1725   0.704   3.658   4.130 -0.4044  1.3747 -0.0418
  573TIP3    H2 1726   0.592   3.678   4.231  0.6212  2.0980  0.9748
  574TIP3   OH2 1727   4.697   4.263   2.242  0.5341  0.5503 -0.2239
  574TIP3    H1 1728   4.777   4.314   2.253  1.0770 -0.3500  0.1636
  574TIP3    H2 1729   4.654   4.267   2.327  0.9481 -0.2208  0.0330
  575TIP3   OH2 1730   0.358   5.599   0.557 -0.4004  0.3245 -0.2907
  575TIP3    H1 1731   0.446   5.562   0.560  0.3719  2.0747 -0.5091
  575TIP3    H2 1732   0.341   5.628   0.646 -1.3783 -1.3053  0.0972
  576TIP3   OH2 1733   0.363   2.968   4.283 -0.2537 -0.1297 -0.1539
  576TIP3    H1 1734   0.428   3.035   4.261  0.0038  0.7078  2.8279
  576TIP3    H2 1735   0.413   2.887   4.289 -0.2309 -0.2760 -1.7557
  577TIP3   OH2 1736   0.838   0.921   1.862 -0.3911 -0.1762 -0.6960
  577TIP3    H1 1737   0.777   0.851   1.885  1.3545 -1.7730 -0.6537
  577TIP3    H2 1738   0.908   0.914   1.926  0.4383  0.8070 -1.4661
  578TIP3   OH2 1739   4.055   5.301   1.661 -0.9099 -0.2340 -0.5055
  578TIP3    H1 1740   4.143   5.286   1.626 -0.2203 -2.2875  1.7863
  578TIP3    H2 1741   4.065   5.286   1.755 -3.2946  1.7020  0.1428
  579TIP3   OH2 1742   3.528   4.986   2.718  0.2996  0.3971  0.2300
  579TIP3    H1 1743   3.520   5.014   2.626  2.6184 -0.2678 -0.2326
  579TIP3    H2 1744   3.608   5.028   2.749  0.1723 -0.3176  1.5937
  580TIP3   OH2 1745   6.334   1.613   3.721 -0.2833  0.7392 -0.3663
  580TIP3    H1 1746   6.311   1.691   3.671 -2.7864  0.1237 -0.3062
  580TIP3    H2 1747   6.264   1.550   3.702 -0.6325 -0.0055  2.7691
  581TIP3   OH2 1748   2.164   5.467   3.174  0.0596 -0.4562  0.3594
  581TIP3    H1 1749   2.155   5.557   3.143 -0.3791 -0.2974  0.9297
  581TIP3    H2 1750   2.106   5.416   3.117  0.0484 -0.3301  0.2574
  582TIP3   OH2 1751   2.469   4.344   1.974  0.8078 -0.1992 -0.3427
  582TIP3    H1 1752   2.438   4.368   2.062 -0.8055 -0.5452 -0.7779
  582TIP3    H2 1753   2.561   4.370   1.973  0.6967  0.3775  1.2394
  583TIP3   OH2 1754   2.498  -0.015   4.445 -0.6585  0.1348  0.1741
  583TIP3    H1 1755   2.452   0.069   4.443  0.1504  0.5773 -0.3990
  583TIP3    H2 1756   2.585   0.005   4.410  0.3502 -0.4410  2.2086
  584TIP3   OH2 1757   1.871   0.304   0.994  0.0230  0.2967 -0.4360
  584TIP3    H1 1758   1.807   0.236   1.014  0.1320  0.5217  0.7825
  584TIP3    H2 1759   1.892   0.291   0.902 -1.1028 -0.3406 -0.6236
  585TIP3   OH2 1760   1.291   4.872   1.118  0.2196  0.7236  0.2679
  585TIP3    H1 1761   1.266   4.891   1.208 -0.8066  1.1085 -0.0840
  585TIP3    H2 1762   1.255   4.945   1.067 -1.0775 -0.5533 -0.7214
  586TIP3   OH2 1763   3.892   3.552   5.119  0.0915 -0.1252 -0.4408
  586TIP3    H1 1764   3.936   3.594   5.045  1.0871 -0.0903  0.1481
  586TIP3    H2 1765   3.804   3.532   5.087  0.3389  0.3595 -1.4575
  587TIP3   OH2 1766   4.809   3.599   2.844  0.0142  0.6115  0.3161
  587TIP3    H1 1767   4.797   3.580   2.751 -0.3736  2.7386 -0.1130
  587TIP3    H2 1768   4.752   3.674   2.860 -1.2706 -0.7491  2.7071
  588TIP3   OH2 1769   4.949   1.301   0.486 -0.5265 -0.2725  0.0671
  588TIP3    H1 1770   5.022   1.254   0.446  0.7569  0.8843  0.9670
  588TIP3    H2 1771   4.986   1.385   0.512 -1.9596  0.0086  1.3240
  589TIP3   OH2 1772   3.184   1.019   1.538 -0.3210 -0.4518 -0.2387
  589TIP3    H1 1773   3.108   1.071   1.512  0.8656  1.5636  0.1249
  589TIP3    H2 1774   3.151   0.929   1.541 -2.5073  0.2618 -0.7240
  590TIP3   OH2 1775   6.306   3.692   4.992 -0.3840 -0.1386 -0.2110
  590TIP3    H1 1776   6.262   3.648   4.919 -0.8175 -0.3363  0.1636
  590TIP3    H2 1777   6.298   3.631   5.065  1.5496 -0.7079 -0.4209
  591TIP3   OH2 1778   0.258   3.656   5.025 -0.5379 -0.9165 -0.0800
  591TIP3    H1 1779   0.191   3.692   4.967  0.2250 -0.9130 -1.0028
  591TIP3    H2 1780   0.317   3.609   4.965  1.0772  0.2998  0.5009
  592TIP3   OH2 1781   1.700   3.651   1.356  0.6233 -0.1753 -0.1934
  592TIP3    H1 1782   1.660   3.670   1.271 -0.1645  0.7858  0.3720
  592TIP3    H2 1783   1.675   3.561   1.375  0.3813 -0.2316 -0.7494
  593TIP3   OH2 1784   5.959   1.513   1.747 -0.0850 -0.5406 -0.6795
  593TIP3    H1 1785   6.015   1.468   1.684 -0.4937 -2.0130 -0.0217
  593TIP3    H2 1786   5.889   1.552   1.694  0.4569 -0.3746 -1.2857
  594TIP3   OH2 1787   3.273   1.133   5.015  0.0339 -0.0625 -0.6353
  594TIP3    H1 1788   3.311   1.080   5.085  1.2882 -1.3317 -2.2012
  594TIP3    H2 1789   3.283   1.079   4.936 -1.5189  1.2237 -1.7689
  595TIP3   OH2 1790   1.319   0.767   5.063 -0.3187 -0.4409 -0.3133
  595TIP3    H1 1791   1.406   0.802   5.081 -0.5452  0.1724 -0.4088
  595TIP3    H2 1792   1.279   0.757   5.149 -0.1234 -0.8264 -0.2608
  596TIP3   OH2 1793   5.650   2.599   1.039 -0.5577 -0.0724  0.2459
  596TIP3    H1 1794   5.708   2.673   1.022  1.1939 -1.5748 -0.7059
  596TIP3    H2 1795   5.562   2.633   1.025  0.2591  1.5209 -1.3430
  597TIP3   OH2 1796   3.696   2.290   4.555 -0.2914 -0.4907 -0.4662
  597TIP3    H1 1797   3.662   2.226   4.617  1.3635 -0.6473  0.3209
  597TIP3    H2 1798   3.655   2.267   4.472 -2.3555 -0.4329  0.4731
  598TIP3   OH2 1799   0.175   5.204   1.036 -0.6357  0.0113 -0.3673
  598TIP3    H1 1800   0.157   5.295   1.059 -0.0938  0.1616 -0.5412
  598TIP3    H2 1801   0.192   5.205   0.942 -0.3759 -0.2304 -0.3238
  599TIP3   OH2 1802   0.750   5.037   2.857  0.2518 -0.4944 -0.3558
  599TIP3    H1 1803   0.717   5.011   2.943 -0.5440  2.5370  0.3514
  599TIP3    H2 1804   0.676   5.024   2.797 -0.1226  0.1248 -0.0268
  600TIP3   OH2 1805   5.286   1.513   1.663  0.2322 -0.1690 -0.1085
  600TIP3    H1 1806   5.261   1.603   1.682  0.4933 -0.2313  0.5812
  600TIP3    H2 1807   5.380   1.517   1.644  0.6905 -0.5298  1.8512
  601TIP3   OH2 1808   1.495   5.787   1.800  0.2899  0.7642  0.1206
  601TIP3    H1 1809   1.579   5.818   1.834  1.2764 -1.6657  0.1191
  601TIP3    H2 1810   1.518   5.709   1.748 -1.8258  0.8811 -1.1062
  602TIP3   OH2 1811   5.531   0.757   0.519 -0.3725 -0.3575 -0.0193
  602TIP3    H1 1812   5.582   0.827   0.558 -1.2545 -0.2682  1.0417
  602TIP3    H2 1813   5.491   0.712   0.594 -2.0710 -0.2228 -0.7834
  603TIP3   OH2 1814   2.676   0.724   0.572 -0.3041  0.1966  0.0665
  603TIP3    H1 1815   2.697   0.652   0.631 -0.2848  0.4734  0.4027
  603TIP3    H2 1816   2.696   0.803   0.623  0.8882  0.4383 -0.7275
  604TIP3   OH2 1817   5.094   5.662   0.232  0.1753  0.6819  0.2738
  604TIP3    H1 1818   5.034   5.609   0.180  1.8019 -0.1416 -0.8558
  604TIP3    H2 1819   5.175   5.611   0.234  1.4325  2.5846  0.1708
  605TIP3   OH2 1820   4.868   0.368   2.925  0.2019  0.4958 -0.3249
  605TIP3    H1 1821   4.922   0.289   2.934 -0.0214  0.2377 -1.1399
  605TIP3    H2 1822   4.778   0.336   2.933  0.1390  1.1644  2.8623
  606TIP3   OH2 1823   0.110   5.368   3.121 -0.1399 -0.2185  0.3673
  606TIP3    H1 1824   0.167   5.393   3.047  0.4265  0.2917  0.9538
  606TIP3    H2 1825   0.060   5.293   3.089  0.2663 -0.1548 -0.4530
  607TIP3   OH2 1826   1.388   4.043   2.791  0.4561  0.1758 -0.0836
  607TIP3    H1 1827   1.324   3.977   2.816 -1.0876  1.7845  0.4549
  607TIP3    H2 1828   1.335   4.115   2.756  1.6734  2.6391  2.7150
  608TIP3   OH2 1829   3.095   4.904   4.740  0.1223  0.4969  0.3628
  608TIP3    H1 1830   3.128   4.954   4.815  0.9079 -0.8361  0.9501
  608TIP3    H2 1831   3.000   4.900   4.753  0.1198  1.2522  0.6468
  609TIP3   OH2 1832   0.601   2.547   0.524 -0.5159 -0.7595  0.3174
  609TIP3    H1 1833   0.575   2.545   0.432 -0.3254 -1.1937  0.2676
  609TIP3    H2 1834   0.586   2.637   0.552  0.1780 -0.4212 -0.3587
  610TIP3   OH2 1835   2.075   4.756   3.375 -0.1844  0.0660  0.4173
  610TIP3    H1 1836   2.052   4.699   3.302 -0.0963  0.1999  0.2858
  610TIP3    H2 1837   1.991   4.792   3.403 -0.0702  1.1010 -0.5130
  611TIP3   OH2 1838   5.415   5.348   0.727 -0.0290  0.2613 -0.0596
  611TIP3    H1 1839   5.360   5.322   0.802  1.2209 -1.4135  0.3195
  611TIP3    H2 1840   5.376   5.431   0.698 -1.2944  0.3529  1.6768
  612TIP3   OH2 1841   5.063   2.033   2.717  0.6356 -0.3673 -0.1053
  612TIP3    H1 1842   5.102   1.946   2.708  0.5285 -0.6586  1.8281
  612TIP3    H2 1843   5.000   2.024   2.788 -0.5214  0.9350 -0.8962
  613TIP3   OH2 1844   5.784   2.791   5.102  0.0737 -0.3872 -0.0345
  613TIP3    H1 1845   5.754   2.709   5.062 -0.5581 -0.3078  0.2641
  613TIP3    H2 1846   5.704   2.836   5.127  0.3981  0.5383 -0.5984
  614TIP3   OH2 1847   6.190   0.917   4.716 -0.5399 -0.5507 -0.8268
  614TIP3    H1 1848   6.119   0.871   4.672 -1.4808  0.7925 -0.7841
  614TIP3    H2 1849   6.240   0.958   4.645 -0.4014 -0.6751 -0.8012
  615TIP3   OH2 1850   1.102   0.197   2.141  0.2134 -0.2334 -0.1092
  615TIP3    H1 1851   1.007   0.192   2.146  0.0747  2.0781  0.6599
  615TIP3    H2 1852   1.131   0.202   2.232  1.3238 -3.2102 -0.1939
  616TIP3   OH2 1853   3.359   5.759   1.034 -0.1686 -0.2244 -0.4356
  616TIP3    H1 1854   3.403   5.676   1.049 -1.2263 -0.8404 -0.6138
  616TIP3    H2 1855   3.307   5.773   1.113 -0.6549 -0.1692 -0.7606
  617TIP3   OH2 1856   1.782   0.998   2.310  0.1298 -0.1691 -0.0013
  617TIP3    H1 1857   1.712   0.941   2.278  0.8480 -2.0795  1.5763
  617TIP3    H2 1858   1.746   1.086   2.305 -1.4675 -0.8493 -1.4905
  618TIP3   OH2 1859   5.417   2.505   0.296 -0.5154 -0.2438 -0.2151
  618TIP3    H1 1860   5.325   2.530   0.305 -1.2242 -2.3067 -1.2823
  618TIP3    H2 1861   5.453   2.516   0.384 -1.9888 -0.1808  0.4123
  619TIP3   OH2 1862   2.387   1.851   2.817 -0.6078  0.1947  0.5219
  619TIP3    H1 1863   2.409   1.771   2.769  1.2529  1.9821 -1.9027
  619TIP3    H2 1864   2.300   1.835   2.852 -0.0874 -3.0575  0.6418
  620TIP3   OH2 1865   1.148   3.296   4.073 -0.3562 -0.4289 -0.6653
  620TIP3    H1 1866   1.129   3.376   4.123  0.0844 -1.5887  1.4531
  620TIP3    H2 1867   1.124   3.319   3.983 -1.5165  1.6476  0.0868
  621TIP3   OH2 1868   5.947   4.717   3.405 -0.2115  0.2598 -0.0602
  621TIP3    H1 1869   5.868   4.671   3.379 -1.2542  1.4236  0.9592
  621TIP3    H2 1870   5.976   4.762   3.325 -0.9236  0.3393 -0.2731
  622TIP3   OH2 1871   6.118   3.006   1.212  0.2601 -0.6880 -0.1732
  622TIP3    H1 1872   6.135   2.912   1.215 -0.6536 -0.8825 -0.5822
  622TIP3    H2 1873   6.025   3.013   1.188  0.4438  0.3234 -0.6618
  623TIP3   OH2 1874   5.466   1.752   0.500  0.1060  0.1791  0.0286
  623TIP3    H1 1875   5.392   1.732   0.441  0.2135  2.0936 -0.8164
  623TIP3    H2 1876   5.451   1.696   0.576 -1.8003 -0.0372 -0.4500
  624TIP3   OH2 1877   4.648   0.882   1.236 -0.2103  0.9322 -0.1053
  624TIP3    H1 1878   4.666   0.794   1.201  0.6531  1.1880 -0.3256
  624TIP3    H2 1879   4.578   0.868   1.300  0.4346 -0.0474  0.4280
  625TIP3   OH2 1880   2.835   0.569   2.907  0.4754 -0.7079  0.2304
  625TIP3    H1 1881   2.857   0.661   2.918  0.2203 -0.6557  0.3086
  625TIP3    H2 1882   2.769   0.551   2.974 -0.0343 -0.7475 -0.2710
  626TIP3   OH2 1883   2.900   0.891   3.846 -0.2181  0.3564  0.2482
  626TIP3    H1 1884   2.979   0.838   3.863 -0.7939 -0.9704 -0.9488
  626TIP3    H2 1885   2.878   0.929   3.930 -0.4163 -2.2765  1.4996
  627TIP3   OH2 1886   0.791   3.204   4.663  0.1188 -0.2334  0.2181
  627TIP3    H1 1887   0.806   3.113   4.639 -1.2827 -0.5908  0.6261
  627TIP3    H2 1888   0.851   3.253   4.607  0.8382 -1.3873 -0.0637
  628TIP3   OH2 1889   0.108   2.293   0.292 -0.4791 -0.3616  0.4584
  628TIP3    H1 1890   0.196   2.328   0.306 -0.5093  0.4466 -1.1176
  628TIP3    H2 1891   0.114   2.201   0.318  1.1530 -0.5994 -0.6292
  629TIP3   OH2 1892   5.890   4.466   3.707  0.5410 -0.2319 -0.1225
  629TIP3    H1 1893   5.963   4.507   3.662 -0.0883  0.8208 -0.2053
  629TIP3    H2 1894   5.910   4.474   3.800  1.9615 -2.6249 -0.1347
  630TIP3   OH2 1895   1.553   1.466   2.262 -0.4912 -0.1560 -0.4939
  630TIP3    H1 1896   1.540   1.504   2.349  0.3062 -1.4473  0.2228
  630TIP3    H2 1897   1.467   1.469   2.222 -0.7371  1.1118  0.0488
  631TIP3   OH2 1898   2.988   1.238   2.448  0.0273 -0.0915 -0.0764
  631TIP3    H1 1899   2.972   1.205   2.537  1.9596  0.3172  0.4851
  631TIP3    H2 1900   2.953   1.327   2.449  0.6705  0.1651  0.5263
  632TIP3   OH2 1901   1.258   1.451   0.173 -0.3479 -0.1381  0.2351
  632TIP3    H1 1902   1.242   1.361   0.143  0.6143 -0.9861  2.1112
  632TIP3    H2 1903   1.351   1.466   0.154 -0.3897  0.2856  0.3661
  633TIP3   OH2 1904   3.837   0.968   0.510 -0.0279 -0.2300 -0.4036
  633TIP3    H1 1905   3.805   1.052   0.542  1.8502  0.0113  1.0038
  633TIP3    H2 1906   3.788   0.952   0.429  1.0167  3.2385 -1.8938
  634TIP3   OH2 1907   3.190   2.879   0.688  0.2672  0.0480 -0.3990
  634TIP3    H1 1908   3.101   2.909   0.707  0.5955  0.4942  0.4956
  634TIP3    H2 1909   3.191   2.787   0.717  0.5564  0.5166  1.1955
  635TIP3   OH2 1910   0.237   1.619   1.516 -0.1904  0.0231  0.1443
  635TIP3    H1 1911   0.323   1.596   1.551 -1.0816  0.8091  3.2579
  635TIP3    H2 1912   0.254   1.654   1.429  2.4486 -1.1325  0.1147
  636TIP3   OH2 1913   6.195   2.119   2.392  0.1271 -0.3297  0.4832
  636TIP3    H1 1914   6.162   2.148   2.477 -0.8490  1.8676 -0.5728
  636TIP3    H2 1915   6.195   2.023   2.397 -0.9122 -0.2636  2.5572
  637TIP3   OH2 1916   3.356   3.054   3.659  0.2376  0.2765  0.0407
  637TIP3    H1 1917   3.318   2.981   3.708  0.3221  0.0703 -0.1985
  637TIP3    H2 1918   3.449   3.031   3.651  0.5580  1.0782  1.1766
  638TIP3   OH2 1919   3.186   0.639   4.327 -0.1533  0.2449  0.2268
  638TIP3    H1 1920   3.130   0.671   4.256  0.9919  1.6394 -0.0938
  638TIP3    H2 1921   3.162   0.693   4.403 -2.4256 -2.2068  1.4275
  639TIP3   OH2 1922   6.245   4.704   5.114  0.2644 -0.4613 -0.4431
  639TIP3    H1 1923   6.154   4.702   5.084 -0.2903  1.3769  0.9555
  639TIP3    H2 1924   6.257   4.620   5.159 -0.8496 -0.5756 -0.3259
  640TIP3   OH2 1925   2.222   5.531   2.833 -0.7901 -0.4450 -0.0171
  640TIP3    H1 1926   2.182   5.462   2.885  0.3338 -1.0463  0.0734
  640TIP3    H2 1927   2.275   5.485   2.768  1.0498  0.3028  0.8810
  641TIP3   OH2 1928   1.664   4.884   2.004 -0.6646  0.1647  0.0518
  641TIP3    H1 1929   1.741   4.829   2.022 -0.4358  0.1053 -1.0373
  641TIP3    H2 1930   1.590   4.825   2.016 -0.4249 -0.3583 -0.9912
  642TIP3   OH2 1931   2.209   3.055   1.534 -0.1141  0.1529 -0.1206
  642TIP3    H1 1932   2.132   2.999   1.537 -0.4706  0.5061 -1.6611
  642TIP3    H2 1933   2.192   3.122   1.599  0.0032 -1.0978  1.2576
  643TIP3   OH2 1934   0.297   3.081   2.179 -0.2435 -0.4129  0.5267
  643TIP3    H1 1935   0.332   3.153   2.231 -2.7815  0.8837  0.5914
  643TIP3    H2 1936   0.237   3.036   2.238 -1.4276 -0.3242 -0.5766
  644TIP3   OH2 1937   4.480   2.026   4.467  0.2721  0.0305  0.4083
  644TIP3    H1 1938   4.570   2.005   4.492  0.4222  1.1821  0.9121
  644TIP3    H2 1939   4.486   2.052   4.375  0.4837  0.2480  0.4831
  645TIP3   OH2 1940   4.997   2.389   4.301 -0.0310 -0.7126 -0.3153
  645TIP3    H1 1941   5.046   2.404   4.220 -1.2092 -0.7650 -1.0737
  645TIP3    H2 1942   4.930   2.325   4.276 -1.8485  0.9462  0.1025
  646TIP3   OH2 1943   2.338   3.482   0.167  0.5118 -0.2003 -0.2248
  646TIP3    H1 1944   2.246   3.497   0.192  0.8117  2.2366 -0.3608
  646TIP3    H2 1945   2.355   3.546   0.099  2.3760 -0.5052 -0.0960
  647TIP3   OH2 1946   0.263   5.888   2.282 -0.1215 -0.7328 -0.1199
  647TIP3    H1 1947   0.340   5.941   2.258 -0.4529 -0.5931 -0.9005
  647TIP3    H2 1948   0.226   5.933   2.358 -0.0005 -0.2354 -0.3518
  648TIP3   OH2 1949   3.117   0.489   4.971  0.1015  0.2375 -0.0227
  648TIP3    H1 1950   3.185   0.458   4.911  0.7056  1.2423  0.1225
  648TIP3    H2 1951   3.130   0.435   5.050  2.6469  2.2802  1.0967
  649TIP3   OH2 1952   4.989   0.527   4.694  0.3062 -0.5473  0.0837
  649TIP3    H1 1953   4.998   0.545   4.600  1.6165 -0.6198  0.1770
  649TIP3    H2 1954   4.990   0.614   4.735  1.7508 -0.5826  0.1654
  650TIP3   OH2 1955   2.374   5.417   2.639  0.7297  0.0191  0.1014
  650TIP3    H1 1956   2.363   5.468   2.559  0.8446  0.3072  0.2691
  650TIP3    H2 1957   2.439   5.350   2.616 -1.0902 -1.5373 -0.8135
  651TIP3   OH2 1958   4.742   0.567   3.461 -0.3236  0.2008  0.2171
  651TIP3    H1 1959   4.754   0.653   3.501  0.3783  0.7583 -1.1205
  651TIP3    H2 1960   4.827   0.523   3.472 -0.0508  0.4377 -0.7599
  652TIP3   OH2 1961   0.906   4.052   0.382 -0.2249  0.3913  0.0404
  652TIP3    H1 1962   0.915   3.987   0.312 -0.1828 -1.9698  2.0920
  652TIP3    H2 1963   0.995   4.073   0.407 -0.2333 -0.5524  0.9012
  653TIP3   OH2 1964   1.359   2.291   4.041 -0.0497 -0.7621 -0.0784
  653TIP3    H1 1965   1.280   2.343   4.024 -0.0278 -1.2078 -1.7369
  653TIP3    H2 1966   1.359   2.225   3.971  1.0254 -1.6778  0.7689
  654TIP3   OH2 1967   1.224   2.808   3.924  0.0977 -0.0403 -0.0795
  654TIP3    H1 1968   1.148   2.854   3.888  0.2038 -0.6974 -1.1902
  654TIP3    H2 1969   1.275   2.782   3.847  0.0468 -1.9845  0.4902
  655TIP3   OH2 1970   1.099   2.887   4.986 -0.3067  0.0387 -0.4338
  655TIP3    H1 1971   1.187   2.875   4.951 -0.9831  0.5823 -2.4576
  655TIP3    H2 1972   1.063   2.798   4.990  0.5265 -0.2703  1.0824
  656TIP3   OH2 1973   3.472   3.901   4.205  0.4526  0.0198  0.1937
  656TIP3    H1 1974   3.429   3.861   4.130  0.2797 -1.1166  0.8822
  656TIP3    H2 1975   3.407   3.898   4.275  1.3942 -1.1260  1.0665
  657TIP3   OH2 1976   1.680   0.465   4.777  0.0814  0.0570 -0.0832
  657TIP3    H1 1977   1.613   0.490   4.841 -0.7519 -1.8284 -0.1642
  657TIP3    H2 1978   1.759   0.449   4.829 -0.6420 -1.6598  0.5569
  658TIP3   OH2 1979   0.925   5.301   0.446 -0.0941  0.0672 -0.0272
  658TIP3    H1 1980   0.963   5.213   0.440  1.1406  0.5369  0.4919
  658TIP3    H2 1981   0.878   5.312   0.363 -0.1256 -1.0102 -0.1762
  659TIP3   OH2 1982   1.566   0.008   4.326  1.0195  0.1973  0.1392
  659TIP3    H1 1983   1.539   0.098   4.347 -1.6367 -0.4267 -0.2552
  659TIP3    H2 1984   1.624   0.017   4.251 -1.3438  1.4832 -1.6584
  660TIP3   OH2 1985   1.573   3.413   0.588  0.2163 -0.3656  0.4663
  660TIP3    H1 1986   1.530   3.393   0.671  0.9444 -0.1355  0.9133
  660TIP3    H2 1987   1.536   3.497   0.561 -0.8404 -0.9751 -0.0201
  661TIP3   OH2 1988   0.611   1.686   0.789 -0.5303 -0.0272 -1.1406
  661TIP3    H1 1989   0.538   1.747   0.785  0.4836  1.3267 -0.2421
  661TIP3    H2 1990   0.648   1.687   0.701 -1.5460 -0.6938 -1.5894
  662TIP3   OH2 1991   5.383   0.995   2.148  0.0905  0.3275  0.1276
  662TIP3    H1 1992   5.323   0.936   2.102  2.4510 -1.2629 -1.1291
  662TIP3    H2 1993   5.393   0.955   2.235 -0.5547  0.5251  0.2957
  663TIP3   OH2 1994   5.370   1.332   0.634  0.2999 -0.1683  0.3661
  663TIP3    H1 1995   5.294   1.349   0.691 -0.8587  0.0284 -1.1705
  663TIP3    H2 1996   5.332   1.308   0.550  1.9667 -0.6023 -0.3041
  664TIP3   OH2 1997   5.884   1.386   3.541  0.2321 -0.2086 -0.2140
  664TIP3    H1 1998   5.904   1.394   3.448 -0.3173 -0.3118 -0.3397
  664TIP3    H2 1999   5.791   1.406   3.549 -0.2427 -2.2427  0.0217
  665TIP3   OH2 2000   6.338   5.331   0.655 -0.6534  0.1417  0.2034
  665TIP3    H1 2001   6.268   5.294   0.710 -1.2236  0.7615 -0.0961
  665TIP3    H2 2002   6.327   5.426   0.663  1.0523  0.2810  1.2870
  666TIP3   OH2 2003   1.814   4.212   1.705 -0.0726 -0.2746  0.0728
  666TIP3    H1 2004   1.822   4.272   1.780 -1.6518 -1.8019  1.5417
  666TIP3    H2 2005   1.864   4.135   1.730 -1.0754 -1.0272 -0.1639
  667TIP3   OH2 2006   6.187   3.508   1.794 -0.0192  0.1286 -0.1044
  667TIP3    H1 2007   6.198   3.533   1.886 -1.6626 -1.0286  0.4694
  667TIP3    H2 2008   6.238   3.572   1.745  1.5135  0.3237  1.6415
  668TIP3   OH2 2009   3.254   4.900   2.735  0.0028  0.6076 -0.2831
  668TIP3    H1 2010   3.257   4.813   2.775 -1.3597  1.0905  0.9604
  668TIP3    H2 2011   3.341   4.936   2.750 -0.4347  0.7734  2.3873
  669TIP3   OH2 2012   6.169   5.135   2.639  0.1404  0.2257  0.2822
  669TIP3    H1 2013   6.133   5.048   2.626  1.6889 -0.0840 -2.5888
  669TIP3    H2 2014   6.144   5.184   2.560  1.8493  1.4537  0.4465
  670TIP3   OH2 2015   1.052   0.690   0.690 -0.0144  0.1768 -0.2878
  670TIP3    H1 2016   1.008   0.753   0.633  0.0894  0.1390 -0.4102
  670TIP3    H2 2017   1.132   0.668   0.643  0.2576  0.4346  0.0456
  671TIP3   OH2 2018   5.306   3.428   3.708 -0.0315  0.5045 -0.3449
  671TIP3    H1 2019   5.284   3.484   3.633 -1.0611 -0.2106 -0.5859
  671TIP3    H2 2020   5.247   3.354   3.701 -0.6979  0.8011  1.6477
  672TIP3   OH2 2021   1.990   4.918   3.653 -0.3427  0.5081 -0.3847
  672TIP3    H1 2022   2.058   4.860   3.688  1.9121  3.0494 -0.2375
  672TIP3    H2 2023   1.951   4.958   3.730 -1.9366 -0.7563 -0.4844
  673TIP3   OH2 2024   0.163   0.217   0.421  0.3723  0.0748 -0.1947
  673TIP3    H1 2025   0.098   0.184   0.358  0.6318  0.4846 -0.6814
  673TIP3    H2 2026   0.187   0.141   0.473 -0.1913 -0.1707 -0.2873
  674TIP3   OH2 2027   5.568   3.418   2.232 -0.5753 -0.0853 -0.1388
  674TIP3    H1 2028   5.651   3.379   2.203  0.4376  1.3207  0.7637
  674TIP3    H2 2029   5.579   3.429   2.326 -2.0771 -0.4878  0.1100
  675TIP3   OH2 2030   1.575   1.599   5.153  0.3324 -0.1669 -0.4860
  675TIP3    H1 2031   1.529   1.515   5.158 -0.4276  0.1485 -1.6009
  675TIP3    H2 2032   1.513   1.657   5.107  1.0258  0.8676 -0.1386
  676TIP3   OH2 2033   0.599   0.169   1.946 -0.3952  0.0461  0.0863
  676TIP3    H1 2034   0.533   0.238   1.951 -1.3924 -0.8439 -0.4202
  676TIP3    H2 2035   0.647   0.188   1.866  0.7120  1.3200  1.0100
  677TIP3   OH2 2036   3.516   0.223   0.634 -0.7090  0.8604  0.0447
  677TIP3    H1 2037   3.507   0.217   0.729 -1.7400 -0.6079 -0.1103
  677TIP3    H2 2038   3.447   0.284   0.607 -1.6612 -0.1578  0.0953
  678TIP3   OH2 2039   5.190   0.273   4.002 -0.1368 -0.2106  0.1147
  678TIP3    H1 2040   5.178   0.179   4.010  1.1377 -0.4117 -0.0576
  678TIP3    H2 2041   5.240   0.298   4.080  0.5364  0.1043 -0.3976
  679TIP3   OH2 2042   0.231   3.930   0.894 -0.2186  0.0396 -0.0546
  679TIP3    H1 2043   0.164   3.863   0.879 -1.0908  0.9895 -0.4988
  679TIP3    H2 2044   0.183   4.004   0.931  0.6329  0.6394 -0.1226
  680TIP3   OH2 2045   3.734   5.364   2.635  0.0676  0.2470 -0.0560
  680TIP3    H1 2046   3.779   5.302   2.578 -1.0167 -1.0646  0.4729
  680TIP3    H2 2047   3.782   5.360   2.717 -0.6282 -0.7178  0.3209
  681TIP3   OH2 2048   1.575   5.519   0.566 -0.2985 -0.5791 -0.1478
  681TIP3    H1 2049   1.560   5.484   0.655  0.5310 -0.7778 -0.0817
  681TIP3    H2 2050   1.585   5.441   0.512  1.1567 -0.4591 -0.0733
  682TIP3   OH2 2051   1.438   2.005   2.822 -0.1179  0.2133 -0.7087
  682TIP3    H1 2052   1.440   1.919   2.781  0.7756  0.1832 -0.6149
  682TIP3    H2 2053   1.530   2.027   2.837 -0.3762  0.8090  0.0582
  683TIP3   OH2 2054   3.525   0.172   3.691 -0.2460  0.1565 -0.2446
  683TIP3    H1 2055   3.592   0.149   3.627 -0.2078  0.5967 -0.3672
  683TIP3    H2 2056   3.566   0.156   3.776  0.0190  0.4322 -0.3187
  684TIP3   OH2 2057   0.223   0.828   4.913 -0.0320  0.4619 -0.1660
  684TIP3    H1 2058   0.237   0.762   4.981  0.3825  0.3788 -0.3291
  684TIP3    H2 2059   0.288   0.807   4.845 -1.3707 -0.3347 -1.2503
  685TIP3   OH2 2060   4.163   5.485   3.314 -0.1599 -0.9743 -0.5900
  685TIP3    H1 2061   4.088   5.485   3.374  0.0065 -0.5583 -0.3774
  685TIP3    H2 2062   4.188   5.577   3.308  0.1308 -1.0751 -0.9168
  686TIP3   OH2 2063   1.806   2.823   4.122 -0.1563  0.1218  0.0304
  686TIP3    H1 2064   1.815   2.917   4.131  1.7290 -0.0115 -0.1937
  686TIP3    H2 2065   1.792   2.792   4.211 -1.2000  0.6257  0.0591
  687TIP3   OH2 2066   3.120   5.330   4.153 -0.1541 -0.2499 -0.0003
  687TIP3    H1 2067   3.112   5.249   4.202 -1.3256 -0.3277 -0.2994
  687TIP3    H2 2068   3.119   5.303   4.061  1.3514 -0.0487 -0.0977
  688TIP3   OH2 2069   0.440   0.230   4.580 -0.0895 -0.0178 -0.2937
  688TIP3    H1 2070   0.354   0.188   4.574 -0.6324  1.0320 -0.0706
  688TIP3    H2 2071   0.421   0.324   4.576  1.0808  0.2176 -0.5799
  689TIP3   OH2 2072   1.411   3.723   2.920  0.6404  0.0231  0.1096
  689TIP3    H1 2073   1.467   3.770   2.983 -0.5741  1.6467  0.0340
  689TIP3    H2 2074   1.365   3.659   2.973  1.0219  0.0938  0.5385
  690TIP3   OH2 2075   4.298   5.577   2.026 -0.2139 -0.7259  0.3161
  690TIP3    H1 2076   4.256   5.650   1.981 -0.1604 -0.3886  0.8049
  690TIP3    H2 2077   4.374   5.616   2.070 -0.9979 -0.7776  1.7886
  691TIP3   OH2 2078   0.245   0.983   2.641 -0.0445 -0.1446 -0.2818
  691TIP3    H1 2079   0.267   0.991   2.734 -0.7495 -0.1689 -0.1071
  691TIP3    H2 2080   0.305   1.044   2.598  1.4597 -1.3435 -0.0110
  692TIP3   OH2 2081   5.139   4.706   0.243 -0.3342  0.0529  0.4696
  692TIP3    H1 2082   5.175   4.625   0.207 -1.7184  0.2094 -1.4112
  692TIP3    H2 2083   5.057   4.679   0.284  0.1950  0.2253  1.6918
  693TIP3   OH2 2084   3.935   4.588   1.644  0.2583 -0.5918 -0.1462
  693TIP3    H1 2085   3.956   4.498   1.670 -1.9870 -0.8581  0.9830
  693TIP3    H2 2086   3.923   4.634   1.726 -1.7865 -0.0910 -0.6793
  694TIP3   OH2 2087   2.202   5.137   2.638  0.1252 -0.1015  0.9095
  694TIP3    H1 2088   2.236   5.200   2.573  1.1256 -0.9112  0.6360
  694TIP3    H2 2089   2.197   5.054   2.590  0.2096 -0.5562  1.6833
  695TIP3   OH2 2090   3.279   4.707   5.126 -0.4576  0.0545 -0.5348
  695TIP3    H1 2091   3.303   4.615   5.126 -1.5479 -0.2571 -1.3722
  695TIP3    H2 2092   3.324   4.744   5.201 -2.0136 -1.7204  1.3962
  696TIP3   OH2 2093   4.861   2.162   1.746 -0.1914 -0.0089 -0.3066
  696TIP3    H1 2094   4.925   2.096   1.773  0.5163  0.7486 -0.0910
  696TIP3    H2 2095   4.829   2.201   1.828  0.3933  0.8333 -0.4635
  697TIP3   OH2 2096   0.821   3.734   2.586 -0.1701  0.0860  0.0518
  697TIP3    H1 2097   0.810   3.819   2.543  0.0384  0.5680  0.9371
  697TIP3    H2 2098   0.732   3.701   2.598 -0.2218 -0.2585 -1.1194
  698TIP3   OH2 2099   1.269   0.069   4.836 -0.3035 -0.2651  0.2867
  698TIP3    H1 2100   1.254  -0.012   4.786  2.0504 -0.5278 -0.1202
  698TIP3    H2 2101   1.219   0.057   4.916 -0.6361 -1.7821 -0.1105
  699TIP3   OH2 2102   1.218   3.537   1.468  0.3125 -0.1242 -0.1674
  699TIP3    H1 2103   1.290   3.600   1.462  0.5081 -0.1560  1.5424
  699TIP3    H2 2104   1.140   3.591   1.479  0.5460 -0.1481  1.8902
  700TIP3   OH2 2105   3.071   4.009   3.660 -0.2541 -0.2301  0.1454
  700TIP3    H1 2106   2.981   4.030   3.635 -0.1104 -0.3890 -0.5416
  700TIP3    H2 2107   3.112   4.094   3.677 -0.1736 -0.0487 -0.8589
  701TIP3   OH2 2108   1.677   3.166   4.345  0.4359  0.9743 -0.4702
  701TIP3    H1 2109   1.749   3.141   4.403 -1.5066 -1.8290  1.0275
  701TIP3    H2 2110   1.694   3.120   4.263  0.4260  0.3714 -0.1424
  702TIP3   OH2 2111   4.834   5.662   3.413 -0.4973  0.3598 -0.4989
  702TIP3    H1 2112   4.905   5.693   3.470 -0.3759  0.1403 -0.5258
  702TIP3    H2 2113   4.851   5.568   3.404 -0.7128  0.3320 -0.6197
  703TIP3   OH2 2114   2.445   2.523   2.453  0.5312  0.2038 -0.1370
  703TIP3    H1 2115   2.397   2.579   2.392 -0.3108 -1.1602 -0.7838
  703TIP3    H2 2116   2.454   2.576   2.532 -1.5122  0.7658 -0.2107
  704TIP3   OH2 2117   5.074   4.194   1.361 -0.2382 -0.3521 -0.1773
  704TIP3    H1 2118   5.079   4.256   1.288  0.2722  0.3881  0.4709
  704TIP3    H2 2119   5.113   4.114   1.327  0.6039  0.1910 -0.5129
  705TIP3   OH2 2120   1.383   3.295   2.463  0.4480 -0.5122  0.3362
  705TIP3    H1 2121   1.329   3.300   2.384  1.5109  1.1632 -0.3409
  705TIP3    H2 2122   1.433   3.214   2.453  1.1621  0.0742 -1.1486
  706TIP3   OH2 2123   3.682   5.439   0.608  0.0982 -0.3133 -0.5418
  706TIP3    H1 2124   3.620   5.454   0.679  0.1471  0.0016 -0.5629
  706TIP3    H2 2125   3.637   5.470   0.530  1.0782  2.0291 -0.2738
  707TIP3   OH2 2126   3.771   4.678   0.900  0.1851  1.0016  0.3989
  707TIP3    H1 2127   3.849   4.726   0.874 -0.1969  0.7942 -1.2112
  707TIP3    H2 2128   3.804   4.595   0.933  0.6132  0.5197 -1.1830
  708TIP3   OH2 2129   3.964   5.528   3.122 -0.7343  0.0386 -0.0176
  708TIP3    H1 2130   3.882   5.525   3.073  0.0161 -1.3036 -1.2616
  708TIP3    H2 2131   3.979   5.438   3.150  0.1920  0.3108  0.4224
  709TIP3   OH2 2132   5.121   3.308   2.019 -0.0142  0.3221 -0.2400
  709TIP3    H1 2133   5.187   3.240   2.002 -0.8610 -0.1470 -1.8588
  709TIP3    H2 2134   5.168   3.391   2.006  0.2194 -0.0084 -1.7723
  710TIP3   OH2 2135   4.713   4.739   2.348  0.4450 -0.1972  0.2301
  710TIP3    H1 2136   4.670   4.769   2.267  1.5235 -1.3989 -0.8292
  710TIP3    H2 2137   4.739   4.819   2.392 -0.2324  0.4897 -0.5751
  711TIP3   OH2 2138   5.327   4.347   2.627 -0.2911  0.2438 -0.0251
  711TIP3    H1 2139   5.401   4.317   2.680  0.0165  1.5349  0.2985
  711TIP3    H2 2140   5.276   4.402   2.686 -0.2923  1.1844 -0.8878
  712TIP3   OH2 2141   3.991   0.606   4.462  0.7624 -0.4873 -0.4215
  712TIP3    H1 2142   3.964   0.578   4.374  0.8346 -1.2363 -0.2152
  712TIP3    H2 2143   3.909   0.629   4.506  0.6321 -0.9765 -0.3988
  713TIP3   OH2 2144   0.516   5.555   4.142 -0.5492  0.4037  0.5234
  713TIP3    H1 2145   0.480   5.468   4.123  1.0212  0.1025 -1.4247
  713TIP3    H2 2146   0.452   5.596   4.200 -0.6522 -2.5730  2.7345
  714TIP3   OH2 2147   5.364   4.916   1.585 -0.3973  0.3519 -0.5245
  714TIP3    H1 2148   5.319   4.944   1.665 -1.3656  1.4590 -1.4105
  714TIP3    H2 2149   5.413   4.838   1.611 -2.3976 -0.5941  0.6416
  715TIP3   OH2 2150   3.630   2.734   4.901  0.6657  0.4375 -0.6768
  715TIP3    H1 2151   3.592   2.806   4.851 -1.7425 -0.8525 -0.8666
  715TIP3    H2 2152   3.647   2.666   4.836 -0.6564 -0.5287 -0.0687
  716TIP3   OH2 2153   6.151   0.750   1.300 -0.0832 -0.5373 -0.0217
  716TIP3    H1 2154   6.125   0.826   1.352 -0.3511 -0.9301  0.4180
  716TIP3    H2 2155   6.236   0.724   1.335 -0.5742 -1.2204  0.6829
  717TIP3   OH2 2156   1.353   1.567   4.953 -0.1240 -0.4314 -0.2044
  717TIP3    H1 2157   1.318   1.656   4.951 -0.2686 -0.4520  0.7188
  717TIP3    H2 2158   1.276   1.510   4.947  0.0602 -0.5239 -2.1226
  718TIP3   OH2 2159   5.287   2.298   0.874  0.0114 -0.5101 -0.3545
  718TIP3    H1 2160   5.370   2.253   0.858  1.4332  2.0507 -0.7596
  718TIP3    H2 2161   5.228   2.265   0.806  0.8348 -1.9791 -0.3918
  719TIP3   OH2 2162   6.321   0.306   4.833 -0.1433 -0.4078 -0.1733
  719TIP3    H1 2163   6.266   0.379   4.860  0.5976  0.5800 -1.2694
  719TIP3    H2 2164   6.373   0.340   4.761 -0.3537 -2.2611 -1.2512
  720TIP3   OH2 2165   3.199   2.210   0.647 -0.3658 -0.5225 -0.4299
  720TIP3    H1 2166   3.140   2.262   0.592  0.7687  0.8203 -0.4355
  720TIP3    H2 2167   3.150   2.193   0.727 -0.6529  0.8883 -0.2807
  721TIP3   OH2 2168   2.685   2.276   2.692  0.3581  0.3555  0.4464
  721TIP3    H1 2169   2.708   2.187   2.719  1.4665  0.6542  0.5218
  721TIP3    H2 2170   2.769   2.319   2.678 -0.1079  1.8849  2.0320
  722TIP3   OH2 2171   5.098   3.711   1.216 -0.3191  0.3699 -0.2184
  722TIP3    H1 2172   5.162   3.670   1.274  2.2796  2.3078 -1.4916
  722TIP3    H2 2173   5.123   3.682   1.128 -0.0073  2.5023 -0.9030
  723TIP3   OH2 2174   1.228   3.281   2.221  0.2167 -0.2885  0.5095
  723TIP3    H1 2175   1.215   3.337   2.144 -1.0694 -0.2571  0.7424
  723TIP3    H2 2176   1.201   3.194   2.192 -2.4272  0.1117  1.5229
  724TIP3   OH2 2177   5.141   0.729   0.884  0.0967  0.5250 -0.0509
  724TIP3    H1 2178   5.147   0.712   0.790 -1.0789 -0.4091  0.0234
  724TIP3    H2 2179   5.109   0.647   0.921  1.2317  0.6480  1.2673
  725TIP3   OH2 2180   0.494   0.669   2.708  0.4670  0.0445  0.4061
  725TIP3    H1 2181   0.414   0.716   2.685 -0.5316 -1.4129  0.6990
  725TIP3    H2 2182   0.549   0.733   2.753  0.1841  1.5168 -1.2521
  726TIP3   OH2 2183   1.010   5.812   2.945  0.5811 -0.3870  1.1189
  726TIP3    H1 2184   0.941   5.748   2.963 -0.1286  0.3755  1.1338
  726TIP3    H2 2185   1.018   5.863   3.025 -0.2777  0.8531  0.4462
  727TIP3   OH2 2186   3.191   1.886   3.870 -0.0322 -0.3810 -0.1499
  727TIP3    H1 2187   3.167   1.974   3.899  2.6733 -0.3498  2.4991
  727TIP3    H2 2188   3.112   1.834   3.885 -1.0568  1.2015  0.2153
  728TIP3   OH2 2189   0.779   2.991   3.505  0.4577 -0.2761 -0.3327
  728TIP3    H1 2190   0.773   3.083   3.531  2.0885 -0.6111  1.5471
  728TIP3    H2 2191   0.706   2.948   3.550 -0.4926  0.1130 -1.4628
  729TIP3   OH2 2192   2.474   0.339   2.136  0.1790 -0.2817 -0.2895
  729TIP3    H1 2193   2.408   0.305   2.076 -0.5277  0.4927  0.0358
  729TIP3    H2 2194   2.440   0.319   2.223 -0.5433  1.7237 -0.0733
  730TIP3   OH2 2195   4.128   2.210   1.915  0.0685 -0.1891  0.8332
  730TIP3    H1 2196   4.153   2.119   1.928  0.7102 -0.0493  0.6286
  730TIP3    H2 2197   4.047   2.206   1.865  0.6394 -0.6446 -0.0908
  731TIP3   OH2 2198   1.786   2.165   2.419  0.4158 -0.4242  0.0121
  731TIP3    H1 2199   1.722   2.205   2.361 -0.8908  1.4036  2.5177
  731TIP3    H2 2200   1.861   2.225   2.419  0.1943 -0.1434  0.5977
  732TIP3   OH2 2201   4.689   1.620   3.944  0.3003  0.4455 -0.0587
  732TIP3    H1 2202   4.649   1.566   4.012 -0.3797  1.1489  0.1096
  732TIP3    H2 2203   4.739   1.685   3.992  1.3494 -0.1867 -0.2656
  733TIP3   OH2 2204   5.818   5.093   4.046  0.2916 -0.2604 -0.1125
  733TIP3    H1 2205   5.811   5.188   4.047 -1.8118 -0.3734 -0.0803
  733TIP3    H2 2206   5.808   5.069   3.954 -0.4700 -0.5048  0.0259
  734TIP3   OH2 2207   0.987   5.764   0.420 -0.2148 -0.4254  0.7867
  734TIP3    H1 2208   0.968   5.693   0.358  0.6586  1.7700 -2.2439
  734TIP3    H2 2209   1.059   5.812   0.380  1.4237  0.3912  4.3058
  735TIP3   OH2 2210   3.859   5.734   2.599 -0.0208  0.4619 -0.3182
  735TIP3    H1 2211   3.855   5.828   2.611 -1.2246  0.3185  0.6147
  735TIP3    H2 2212   3.941   5.719   2.552  1.4154  1.7399  1.6198
  736TIP3   OH2 2213   3.755   4.714   1.292 -0.1221  0.2725 -0.4962
  736TIP3    H1 2214   3.681   4.723   1.232 -0.1561  0.0843 -0.4834
  736TIP3    H2 2215   3.729   4.764   1.370 -1.1612 -1.5307  0.3765
  737TIP3   OH2 2216   0.767   4.726   0.704  0.4645 -0.0233  0.1627
  737TIP3    H1 2217   0.812   4.801   0.741 -2.2838  0.7243  2.2614
  737TIP3    H2 2218   0.757   4.748   0.611  2.6228  0.5923  0.0126
  738TIP3   OH2 2219   3.564   2.105   4.710  0.1401 -0.8523  0.2394
  738TIP3    H1 2220   3.516   2.143   4.783 -1.3577  1.5320 -1.8405
  738TIP3    H2 2221   3.515   2.026   4.687  0.3725 -1.3761  1.4636
  739TIP3   OH2 2222   0.958   3.362   2.525  0.5765 -0.2997 -0.2686
  739TIP3    H1 2223   0.988   3.272   2.534  0.7807 -0.2350 -0.3105
  739TIP3    H2 2224   0.994   3.407   2.601  1.4061  0.0003 -0.8374
  740TIP3   OH2 2225   5.307   4.513   5.153 -0.1003 -0.5966  0.4003
  740TIP3    H1 2226   5.330   4.581   5.216 -0.0233 -0.0074 -0.2524
  740TIP3    H2 2227   5.354   4.537   5.073  0.5774 -1.8611  0.3881
  741TIP3   OH2 2228   0.788   5.483   2.720  0.2146 -0.7334  0.2048
  741TIP3    H1 2229   0.874   5.524   2.708  0.6335 -1.9462 -1.2617
  741TIP3    H2 2230   0.768   5.496   2.813  1.5856  0.3044  0.3946
  742TIP3   OH2 2231   4.887   0.869   3.263  0.1161  0.1277 -0.2359
  742TIP3    H1 2232   4.844   0.822   3.192  0.0373  0.3051 -0.3056
  742TIP3    H2 2233   4.925   0.946   3.222  3.1094 -1.4801 -0.7845
  743TIP3   OH2 2234   5.973   3.920   2.420 -1.1800  0.2410  0.0384
  743TIP3    H1 2235   5.994   3.942   2.511 -2.6224  1.1039  0.1842
  743TIP3    H2 2236   6.037   3.853   2.397  0.5018  1.4256  1.0275
  744TIP3   OH2 2237   4.729   4.248   1.962  0.3036  0.4563 -0.1781
  744TIP3    H1 2238   4.716   4.252   2.057  0.6832  0.5805 -0.1320
  744TIP3    H2 2239   4.802   4.187   1.950 -0.3446 -0.2841 -0.4437
  745TIP3   OH2 2240   4.805   5.517   0.899  0.1119 -0.6333 -0.2662
  745TIP3    H1 2241   4.808   5.470   0.983  0.7013  0.4480  0.3453
  745TIP3    H2 2242   4.756   5.460   0.841  1.2174 -2.2238  0.3109
  746TIP3   OH2 2243   1.897   0.945   2.722 -0.0965 -0.2192  0.4730
  746TIP3    H1 2244   1.904   0.999   2.800  2.3595 -0.9238  0.8249
  746TIP3    H2 2245   1.805   0.951   2.696 -0.5099  1.7192  2.1759
  747TIP3   OH2 2246   0.082   4.305   4.838 -0.0314  0.5373 -0.4970
  747TIP3    H1 2247   0.160   4.297   4.782 -0.2684 -0.7631 -0.6656
  747TIP3    H2 2248   0.015   4.339   4.779  0.1934  0.8836 -0.5559
  748TIP3   OH2 2249   2.405   4.098   1.617  0.1315 -0.1549  0.6201
  748TIP3    H1 2250   2.452   4.181   1.605 -0.0281 -0.4137 -2.9702
  748TIP3    H2 2251   2.473   4.035   1.640  0.5161  0.6244  1.6733
  749TIP3   OH2 2252   3.760   3.250   4.123 -0.2356  0.1692  0.5308
  749TIP3    H1 2253   3.803   3.217   4.044  0.9737  0.5453  1.0004
  749TIP3    H2 2254   3.774   3.345   4.120 -1.1757  0.3188  0.6318
  750TIP3   OH2 2255   3.033   3.397   4.498  0.3550  0.4188  0.3761
  750TIP3    H1 2256   2.961   3.442   4.454 -0.2887 -1.0932 -0.1956
  750TIP3    H2 2257   3.112   3.435   4.460 -0.1533  1.3028  0.1763
  751TIP3   OH2 2258   5.128   3.049   0.478 -0.4043  0.0866  0.0229
  751TIP3    H1 2259   5.138   2.962   0.517 -1.0502 -0.7892 -1.6485
  751TIP3    H2 2260   5.216   3.073   0.449 -0.0856  0.3557  1.1678
  752TIP3   OH2 2261   2.514   5.357   2.204 -0.7567 -0.3809 -0.5077
  752TIP3    H1 2262   2.576   5.351   2.131 -0.1856 -1.8064  0.0429
  752TIP3    H2 2263   2.441   5.301   2.178 -0.9290 -0.2430 -0.3243
  753TIP3   OH2 2264   1.376   0.973   1.235  0.2816  0.2971  0.4386
  753TIP3    H1 2265   1.461   0.930   1.227  0.2893  0.3807  0.0057
  753TIP3    H2 2266   1.312   0.906   1.209  0.3650  0.8321 -1.2504
  754TIP3   OH2 2267   4.075   3.579   4.336  0.3618 -0.6838  0.6559
  754TIP3    H1 2268   4.095   3.565   4.244  0.7890  0.0979  0.6199
  754TIP3    H2 2269   4.158   3.608   4.375 -0.3935  1.6718  0.7022
  755TIP3   OH2 2270   3.197   3.490   2.224 -0.0050  0.2388 -0.0062
  755TIP3    H1 2271   3.175   3.446   2.143  0.7139 -0.5740  0.2166
  755TIP3    H2 2272   3.165   3.431   2.293  0.5950  0.2421  0.2905
  756TIP3   OH2 2273   2.447   3.228   5.054 -0.0863 -0.6627 -0.9919
  756TIP3    H1 2274   2.504   3.300   5.028 -0.0353 -1.0666 -2.0678
  756TIP3    H2 2275   2.391   3.214   4.978 -0.5204 -1.3408 -0.5535
  757TIP3   OH2 2276   1.580   1.902   1.914  0.1263  0.5299  0.3982
  757TIP3    H1 2277   1.603   1.970   1.850  0.9672  0.1292  0.2568
  757TIP3    H2 2278   1.487   1.886   1.899  0.0731  1.1815 -0.0184
  758TIP3   OH2 2279   3.484   4.951   4.134 -0.3361 -0.4690  0.2062
  758TIP3    H1 2280   3.573   4.985   4.122 -0.5360  0.8244  2.0464
  758TIP3    H2 2281   3.489   4.896   4.212 -0.7573 -2.1134 -0.8585
  759TIP3   OH2 2282   5.711   0.515   0.665  0.1127 -0.1049  0.0074
  759TIP3    H1 2283   5.625   0.505   0.623 -1.4537  0.1180  2.8871
  759TIP3    H2 2284   5.762   0.441   0.632 -2.1204 -1.8536  0.1687
  760TIP3   OH2 2285   3.792   1.750   0.646 -0.2657  0.1392 -0.0883
  760TIP3    H1 2286   3.732   1.799   0.590 -0.5424 -0.1670 -0.0587
  760TIP3    H2 2287   3.761   1.660   0.642  0.6735 -0.1807 -0.7312
  761TIP3   OH2 2288   2.850   0.157   5.014 -0.0803 -0.8098  0.0747
  761TIP3    H1 2289   2.900   0.120   5.087 -1.4662  0.9820  2.0619
  761TIP3    H2 2290   2.778   0.094   5.001  0.1197 -1.1002  0.3465
  762TIP3   OH2 2291   1.521   2.989   3.624 -0.2738 -0.5340  0.3764
  762TIP3    H1 2292   1.529   3.029   3.538 -1.4109 -0.7816  0.1337
  762TIP3    H2 2293   1.605   3.007   3.667  0.3985 -0.6272 -0.8593
  763TIP3   OH2 2294   1.912   4.026   2.906 -0.3925 -0.2283 -0.4159
  763TIP3    H1 2295   1.825   4.019   2.865 -0.5328 -0.0733 -0.1487
  763TIP3    H2 2296   1.899   3.994   2.995 -0.2034 -0.0814 -0.3345
  764TIP3   OH2 2297   0.341   0.132   0.799 -0.1817 -0.2567 -0.4864
  764TIP3    H1 2298   0.375   0.088   0.722 -2.4218 -0.8420 -1.2328
  764TIP3    H2 2299   0.251   0.156   0.775 -0.0054  2.1808  0.9076
  765TIP3   OH2 2300   3.676   5.161   0.089  0.3800 -0.6963  0.2156
  765TIP3    H1 2301   3.726   5.082   0.110  0.7802 -1.5402 -3.2348
  765TIP3    H2 2302   3.743   5.228   0.075  0.4447 -1.0855 -1.5957
  766TIP3   OH2 2303   5.123   0.354   0.528  0.2845  0.3022  0.0332
  766TIP3    H1 2304   5.203   0.301   0.527  0.2918  0.3170 -0.1924
  766TIP3    H2 2305   5.100   0.363   0.435  0.5194  1.0568  0.0442
  767TIP3   OH2 2306   2.257   0.602   0.270  0.1558 -0.1860 -0.0168
  767TIP3    H1 2307   2.281   0.617   0.178 -0.0706 -0.0631 -0.0560
  767TIP3    H2 2308   2.341   0.601   0.316  0.1618  3.1125  0.3058
  768TIP3   OH2 2309   1.673   3.776   3.728  0.0059  0.3000  0.1167
  768TIP3    H1 2310   1.742   3.766   3.662 -0.7266  1.7259 -0.9377
  768TIP3    H2 2311   1.598   3.812   3.679 -0.1164  2.7809  1.9262
  769TIP3   OH2 2312   2.489   0.819   1.645 -0.1455  0.1656  0.2296
  769TIP3    H1 2313   2.419   0.877   1.674  0.2057  1.1099 -0.7727
  769TIP3    H2 2314   2.560   0.834   1.708 -0.4654 -0.0644  0.6584
  770TIP3   OH2 2315   5.526   0.396   0.437 -0.4018 -0.1977 -0.9298
  770TIP3    H1 2316   5.462   0.325   0.438  0.9258 -1.4474 -1.1914
  770TIP3    H2 2317   5.610   0.352   0.422  0.7024  1.2374  0.6190
  771TIP3   OH2 2318   1.125   3.976   0.549 -0.6410 -0.6930 -0.0560
  771TIP3    H1 2319   1.070   3.906   0.515  0.2043 -1.1573 -0.4855
  771TIP3    H2 2320   1.187   3.931   0.608 -0.4202 -0.2446  0.0579
  772TIP3   OH2 2321   2.483   2.979   3.848  0.3608  0.0276  0.9393
  772TIP3    H1 2322   2.509   2.986   3.940 -0.8862  0.8159  1.2457
  772TIP3    H2 2323   2.566   2.971   3.801  1.1068  1.2616  1.9815
  773TIP3   OH2 2324   4.994   3.581   2.512  0.1799 -0.6155 -0.0620
  773TIP3    H1 2325   4.899   3.568   2.508  0.1580 -0.2808 -1.3617
  773TIP3    H2 2326   5.026   3.547   2.429  1.1219 -0.1713  0.1034
  774TIP3   OH2 2327   0.177   0.987   2.162  0.1564 -0.0742  0.1612
  774TIP3    H1 2328   0.184   0.981   2.067  1.5002  0.6656  0.1767
  774TIP3    H2 2329   0.240   1.055   2.186 -2.2626  1.9330  1.3151
  775TIP3   OH2 2330   4.985   4.688   1.999 -0.2400  0.1602 -0.0241
  775TIP3    H1 2331   5.006   4.621   1.934  0.5095 -0.7164  1.0707
  775TIP3    H2 2332   5.070   4.713   2.036 -0.6688  0.3776  0.8550
  776TIP3   OH2 2333   5.845   3.321   3.520  0.2189 -0.8399 -0.8931
  776TIP3    H1 2334   5.923   3.294   3.567 -0.4617  1.4656  1.8190
  776TIP3    H2 2335   5.840   3.416   3.534 -3.6004 -1.0267 -0.0332
  777TIP3   OH2 2336   5.886   5.777   0.163 -0.2438 -0.3798  0.6329
  777TIP3    H1 2337   5.804   5.738   0.134  0.8539 -1.7125 -0.8806
  777TIP3    H2 2338   5.951   5.745   0.100  1.1550  2.0267  0.7306
  778TIP3   OH2 2339   6.092   0.621   4.109  0.2518  0.1766 -0.6088
  778TIP3    H1 2340   6.126   0.695   4.057 -0.6535  1.7597  0.9286
  778TIP3    H2 2341   6.109   0.647   4.200  0.9735 -2.0945 -0.0412
  779TIP3   OH2 2342   4.039   3.708   0.094  0.3973 -0.1508 -0.3891
  779TIP3    H1 2343   4.102   3.673   0.031  1.2917  2.8779 -1.3316
  779TIP3    H2 2344   4.029   3.800   0.069 -2.1721  0.1996  1.5770
  780TIP3   OH2 2345   1.514   5.507   5.043 -0.1089 -0.0374  0.2649
  780TIP3    H1 2346   1.429   5.521   5.085 -0.7357 -0.8699 -0.6995
  780TIP3    H2 2347   1.523   5.581   4.983 -0.6540 -0.5040 -0.4076
  781TIP3   OH2 2348   1.552   0.272   3.424 -0.0332 -0.4286 -0.4385
  781TIP3    H1 2349   1.627   0.310   3.471  0.4035 -0.5652 -1.0158
  781TIP3    H2 2350   1.481   0.274   3.488  0.4544 -0.2742  0.1131
  782TIP3   OH2 2351   0.467   4.363   3.149 -0.1189  0.4538 -0.3861
  782TIP3    H1 2352   0.372   4.367   3.163 -0.1629 -0.2887 -0.4422
  782TIP3    H2 2353   0.477   4.316   3.066  0.2252  2.7855 -1.7609
  783TIP3   OH2 2354   2.713   0.892   0.333 -0.7481 -0.3345  0.3197
  783TIP3    H1 2355   2.643   0.864   0.274 -1.1498 -1.2063  1.1888
  783TIP3    H2 2356   2.693   0.849   0.416 -0.6469  1.5139  1.3414
  784TIP3   OH2 2357   5.036   1.906   1.163  0.2412 -0.0958  0.5404
  784TIP3    H1 2358   4.974   1.903   1.235  1.5081 -1.2611  1.6261
  784TIP3    H2 2359   4.983   1.932   1.087 -0.7982  3.0253  2.1712
  785TIP3   OH2 2360   4.483   4.170   4.122 -0.5829 -0.6127  0.5581
  785TIP3    H1 2361   4.466   4.103   4.189 -0.6689 -1.8594 -0.6460
  785TIP3    H2 2362   4.556   4.221   4.156  1.7820 -3.4391  0.1467
  786TIP3   OH2 2363   1.912   1.052   2.000  0.4648 -0.3598 -0.0783
  786TIP3    H1 2364   1.999   1.087   2.021 -0.3445  0.1678  2.9395
  786TIP3    H2 2365   1.898   0.983   2.065 -1.1058 -0.8909 -0.9398
  787TIP3   OH2 2366   0.547   5.902   5.030 -0.0583 -0.1850 -0.0399
  787TIP3    H1 2367   0.585   5.839   4.968 -2.3878 -0.5000 -1.2570
  787TIP3    H2 2368   0.581   5.874   5.115  0.1771 -2.1722 -0.7196
  788TIP3   OH2 2369   5.627   2.150   4.154 -0.0347  0.0803 -0.4134
  788TIP3    H1 2370   5.570   2.082   4.116 -2.5471  1.8909 -0.1534
  788TIP3    H2 2371   5.704   2.102   4.185 -1.3280 -2.5236 -0.9240
  789TIP3   OH2 2372   5.813   3.613   3.838  0.3295 -0.4030  0.1881
  789TIP3    H1 2373   5.865   3.554   3.893  0.3879  0.7037  1.3580
  789TIP3    H2 2374   5.839   3.592   3.748  0.9251 -1.5987  0.6252
  790TIP3   OH2 2375   5.583   2.776   3.092 -0.6302 -0.3658 -0.0528
  790TIP3    H1 2376   5.620   2.738   3.172  0.1209  1.3512  0.4736
  790TIP3    H2 2377   5.604   2.869   3.098 -1.1785 -0.0743 -1.9263
  791TIP3   OH2 2378   2.535   4.535   3.741 -0.1721 -0.4363  0.4347
  791TIP3    H1 2379   2.492   4.450   3.734  0.5993 -0.7772 -0.5724
  791TIP3    H2 2380   2.525   4.574   3.653  0.1030  0.1991  0.6787
  792TIP3   OH2 2381   4.820   4.653   1.719  0.2014 -0.5373 -0.8359
  792TIP3    H1 2382   4.792   4.672   1.629  0.8872  1.0242 -0.7494
  792TIP3    H2 2383   4.823   4.738   1.762  1.1621 -1.1089  0.2943
  793TIP3   OH2 2384   5.290   3.575   1.371  0.1018  0.5201 -0.0077
  793TIP3    H1 2385   5.354   3.511   1.401  0.0978 -0.0380 -1.1328
  793TIP3    H2 2386   5.338   3.629   1.308 -0.0425  1.2775  0.5288
  794TIP3   OH2 2387   0.884   2.759   3.000 -0.2173  0.5277 -0.2737
  794TIP3    H1 2388   0.789   2.767   2.994 -0.7178 -2.5136  1.5989
  794TIP3    H2 2389   0.908   2.811   3.077 -0.8993 -1.2537  1.2125
  795TIP3   OH2 2390   4.623   2.963   2.379 -0.5596 -0.2639  0.3282
  795TIP3    H1 2391   4.676   2.894   2.337  1.9757 -0.1892  3.0709
  795TIP3    H2 2392   4.628   3.037   2.318  1.7688 -0.5939  0.0240
  796TIP3   OH2 2393   1.691   4.482   2.214  0.0700  0.4001  0.2097
  796TIP3    H1 2394   1.606   4.446   2.188  0.4762 -2.9807  2.7859
  796TIP3    H2 2395   1.683   4.494   2.309  1.8776  2.0186  0.2192
  797TIP3   OH2 2396   0.287   0.685   0.491 -0.4086 -0.2900  0.0489
  797TIP3    H1 2397   0.249   0.760   0.537 -0.3494 -0.1459 -0.1382
  797TIP3    H2 2398   0.375   0.713   0.467 -1.0971  0.3899 -1.9239
  798TIP3   OH2 2399   3.780   0.937   5.136  0.3060 -0.4925  0.1303
  798TIP3    H1 2400   3.720   0.878   5.181 -0.6492 -0.0905 -0.5634
  798TIP3    H2 2401   3.722   0.997   5.088  1.2116  1.6989  1.6540
  799TIP3   OH2 2402   5.314   4.443   2.108 -0.1015  0.0690 -0.9391
  799TIP3    H1 2403   5.306   4.519   2.050 -0.6217  1.2961  0.6730
  799TIP3    H2 2404   5.339   4.480   2.193 -1.9982 -1.3648  0.3250
  800TIP3   OH2 2405   1.699   4.588   4.875 -0.0142  1.2204  0.2041
  800TIP3    H1 2406   1.791   4.590   4.900  0.1690  1.1155 -0.4416
  800TIP3    H2 2407   1.657   4.652   4.932  0.4091  1.0644  0.6950
  801TIP3   OH2 2408   0.753   3.902   1.017 -0.2058  0.3906 -0.7485
  801TIP3    H1 2409   0.695   3.855   0.956 -0.7607  0.9825 -0.6840
  801TIP3    H2 2410   0.694   3.941   1.081  0.3604 -0.1261  0.1183
  802TIP3   OH2 2411   4.716   1.272   1.885 -0.3847 -0.1989 -0.1417
  802TIP3    H1 2412   4.723   1.316   1.970  2.5001  0.6892 -0.7104
  802TIP3    H2 2413   4.670   1.335   1.829  2.5815  1.7441 -0.6005
  803TIP3   OH2 2414   3.394   1.312   0.814 -0.3681  1.2002  0.5305
  803TIP3    H1 2415   3.308   1.305   0.774 -0.0747  2.2257 -0.3042
  803TIP3    H2 2416   3.426   1.399   0.790  1.5402  0.2890 -0.4842
  804TIP3   OH2 2417   0.222   3.700   3.251  0.2765 -0.3770 -0.3899
  804TIP3    H1 2418   0.135   3.703   3.211  0.4581 -0.0020 -0.7627
  804TIP3    H2 2419   0.216   3.629   3.315 -0.5508  0.1639  0.1631
  805TIP3   OH2 2420   1.638   0.812   4.908 -0.6804 -0.9100 -0.0088
  805TIP3    H1 2421   1.726   0.844   4.886  0.5936 -3.9304  0.2656
  805TIP3    H2 2422   1.617   0.855   4.991  0.0950  0.5588 -0.5368
  806TIP3   OH2 2423   2.209   2.392   4.156 -0.1099  0.2336 -0.0487
  806TIP3    H1 2424   2.251   2.313   4.122 -0.9149 -0.8632  1.3869
  806TIP3    H2 2425   2.117   2.382   4.134 -0.1542  1.0048 -0.2400
  807TIP3   OH2 2426   6.200   1.489   0.133  0.1524 -0.2507  0.6150
  807TIP3    H1 2427   6.258   1.491   0.057 -0.6692  1.9605 -0.0210
  807TIP3    H2 2428   6.119   1.529   0.102 -0.2915  0.4709  2.5917
  808TIP3   OH2 2429   2.993   0.227   4.764  0.1314  0.2561  0.5748
  808TIP3    H1 2430   2.964   0.315   4.741  1.9167  0.9826  0.9287
  808TIP3    H2 2431   2.912   0.176   4.771 -0.8073  1.2321 -2.0490
  809TIP3   OH2 2432   5.699   2.980   1.885  0.6237 -0.0231  0.0623
  809TIP3    H1 2433   5.702   2.893   1.926 -0.0133 -0.1695 -0.1787
  809TIP3    H2 2434   5.683   3.040   1.958  0.5881 -0.1610  0.1684
  810TIP3   OH2 2435   3.065   1.816   1.966  0.3420 -0.2561  0.4211
  810TIP3    H1 2436   3.082   1.881   2.034 -0.6505  0.6998 -0.2137
  810TIP3    H2 2437   3.147   1.811   1.917  0.5990  0.1197  0.8048
  811TIP3   OH2 2438   6.298   2.043   1.776 -0.2154 -0.2609  0.5307
  811TIP3    H1 2439   6.257   2.122   1.813  1.2201  0.3136  0.9528
  811TIP3    H2 2440   6.228   2.003   1.725 -1.1681  0.9504  0.8081
  812TIP3   OH2 2441   2.235   3.663   1.443  0.2363 -0.1498  0.3717
  812TIP3    H1 2442   2.146   3.633   1.424  0.4467  0.0414 -1.0056
  812TIP3    H2 2443   2.226   3.756   1.463  0.2188  0.1085 -0.7505
  813TIP3   OH2 2444   0.536   2.434   3.783  0.0052  0.0796  0.2908
  813TIP3    H1 2445   0.517   2.479   3.701 -1.9244  1.2345  1.2883
  813TIP3    H2 2446   0.510   2.343   3.768 -0.5841  0.3408 -0.2976
  814TIP3   OH2 2447   3.837   4.060   2.082 -0.4160  0.0948 -0.3275
  814TIP3    H1 2448   3.924   4.022   2.066  0.4354  1.7552  0.1861
  814TIP3    H2 2449   3.841   4.095   2.171 -1.0795  1.5647 -0.8373
  815TIP3   OH2 2450   1.034   4.635   2.994  0.5252  0.1438 -0.1197
  815TIP3    H1 2451   1.060   4.548   3.024  3.2976  0.3071 -1.7227
  815TIP3    H2 2452   1.065   4.694   3.062 -0.3874 -0.0230  0.4529
  816TIP3   OH2 2453   2.367   1.676   1.774  0.6533 -0.1511 -0.0796
  816TIP3    H1 2454   2.463   1.681   1.783  0.5096  0.5681  1.3343
  816TIP3    H2 2455   2.335   1.680   1.864 -0.7235 -0.2852 -0.5498
  817TIP3   OH2 2456   3.563   0.612   0.177 -0.1567 -0.2135 -0.2344
  817TIP3    H1 2457   3.548   0.548   0.247  1.5516  0.0943  0.4505
  817TIP3    H2 2458   3.531   0.568   0.098 -0.5340 -1.2511  0.4651
  818TIP3   OH2 2459   3.770   2.389   2.556 -0.2239  0.0486 -0.0721
  818TIP3    H1 2460   3.809   2.355   2.476  1.1485  2.6340 -0.5810
  818TIP3    H2 2461   3.814   2.342   2.627  1.7725  0.8482 -0.7361
  819TIP3   OH2 2462   2.093   0.747   4.873 -0.2536 -0.9136  0.3380
  819TIP3    H1 2463   2.097   0.830   4.919  1.4591 -0.3528 -0.7358
  819TIP3    H2 2464   2.082   0.681   4.942 -1.1112  0.1477  1.2350
  820TIP3   OH2 2465   6.073   0.367   2.001  0.6340 -0.1863  0.0308
  820TIP3    H1 2466   5.992   0.406   2.032  1.5127  2.4422 -0.7179
  820TIP3    H2 2467   6.051   0.275   1.984 -2.7452  0.8077 -2.0044
  821TIP3   OH2 2468   1.818   4.436   3.289  0.0757  0.1734 -0.0353
  821TIP3    H1 2469   1.784   4.367   3.232  0.2231 -1.3941  1.6895
  821TIP3    H2 2470   1.754   4.507   3.281 -1.8312 -1.3908  0.5352
  822TIP3   OH2 2471   2.870   4.778   2.402  0.1627  0.1219  0.5990
  822TIP3    H1 2472   2.819   4.851   2.436  0.2076  1.1214 -1.3603
  822TIP3    H2 2473   2.923   4.749   2.476 -1.7597  0.3348  2.1436
  823TIP3   OH2 2474   2.630   5.012   1.660  0.1765  0.0799 -0.3837
  823TIP3    H1 2475   2.591   4.952   1.597 -2.5370  0.7756  0.4838
  823TIP3    H2 2476   2.724   5.010   1.641 -0.2253 -1.8000 -2.5839
  824TIP3   OH2 2477   4.078   3.759   1.146  0.6177  0.4805  0.3708
  824TIP3    H1 2478   3.988   3.791   1.152  0.7390  0.8245  0.3670
  824TIP3    H2 2479   4.103   3.743   1.237  0.2861 -0.3619  0.3163
  825TIP3   OH2 2480   0.956   4.631   4.842  0.0179  0.2820  0.7885
  825TIP3    H1 2481   0.930   4.712   4.798 -0.1638 -0.1848  0.0260
  825TIP3    H2 2482   0.920   4.561   4.787 -0.2493 -0.3156  1.7012
  826TIP3   OH2 2483   5.065   3.021   3.922  0.4282 -0.5526 -0.3247
  826TIP3    H1 2484   5.027   3.106   3.945 -0.0871 -0.7801 -0.3056
  826TIP3    H2 2485   5.103   2.990   4.004 -0.1950 -0.7478 -0.1029
  827TIP3   OH2 2486   2.352   2.300   1.845 -0.0441  1.0923 -0.5445
  827TIP3    H1 2487   2.411   2.225   1.852 -0.8735  0.5705  1.6004
  827TIP3    H2 2488   2.342   2.314   1.751  1.9087 -0.0357 -0.9765
  828TIP3   OH2 2489   5.457   1.477   2.536  0.5254  0.2378  0.2453
  828TIP3    H1 2490   5.534   1.449   2.584  1.4653 -0.5494 -1.5924
  828TIP3    H2 2491   5.451   1.414   2.463 -0.6437  1.5046 -0.8081
  829TIP3   OH2 2492   5.184   3.019   3.349 -0.2031 -0.5934 -0.3857
  829TIP3    H1 2493   5.195   3.085   3.281 -0.1512  0.0850  0.2674
  829TIP3    H2 2494   5.209   2.937   3.307 -0.2037 -0.1922 -1.1899
  830TIP3   OH2 2495   1.262   3.533   0.387 -0.0873 -0.1664 -0.7359
  830TIP3    H1 2496   1.223   3.460   0.434  0.7873  0.4181  1.0208
  830TIP3    H2 2497   1.202   3.551   0.315 -1.7992 -0.7722  0.4794
  831TIP3   OH2 2498   5.035   5.951   3.008 -0.4750 -0.1457 -0.6309
  831TIP3    H1 2499   5.092   5.875   3.002  0.1361  0.0637  1.8090
  831TIP3    H2 2500   4.974   5.931   3.079  0.5228  2.0896  0.9857
  832TIP3   OH2 2501   5.891   1.778   2.519 -0.2116  0.1889  0.2916
  832TIP3    H1 2502   5.937   1.714   2.573  0.5323  1.2749  1.0055
  832TIP3    H2 2503   5.923   1.763   2.430  1.1486  0.5798  0.6953
  833TIP3   OH2 2504   5.770   0.670   5.151 -0.1016  0.1183  0.1595
  833TIP3    H1 2505   5.739   0.680   5.241  1.5337  1.0827  0.6528
  833TIP3    H2 2506   5.774   0.759   5.116 -0.1051 -0.1936 -0.6705
  834TIP3   OH2 2507   0.220   3.265   4.400  0.4442 -0.6151 -0.0765
  834TIP3    H1 2508   0.223   3.172   4.422 -0.5029  0.0649  3.8205
  834TIP3    H2 2509   0.312   3.291   4.393  0.7186 -1.7834 -1.0017
  835TIP3   OH2 2510   5.045   1.040   2.850 -0.2871  0.3741  0.1118
  835TIP3    H1 2511   5.120   1.011   2.798  0.6364  0.1865  1.4777
  835TIP3    H2 2512   5.038   0.975   2.920 -0.5437  1.4166  1.0811
  836TIP3   OH2 2513   0.488   2.169   1.359  0.2145  0.2216 -0.5657
  836TIP3    H1 2514   0.496   2.233   1.430 -0.5689  0.9208 -1.0842
  836TIP3    H2 2515   0.518   2.086   1.397  1.6984  0.9779 -0.0155
  837TIP3   OH2 2516   1.259   0.920   0.058  0.0631 -0.3456 -0.2234
  837TIP3    H1 2517   1.202   0.980   0.107  0.4899 -0.3687  0.3111
  837TIP3    H2 2518   1.348   0.942   0.088  0.3076 -0.5313 -0.8057
  838TIP3   OH2 2519   4.137   1.670   2.709  0.0175 -0.0942 -0.2038
  838TIP3    H1 2520   4.093   1.606   2.653  1.1290 -1.1258  0.0720
  838TIP3    H2 2521   4.230   1.660   2.689  0.2375  1.2586  0.0470
  839TIP3   OH2 2522   0.659   2.256   0.190 -0.7402 -0.1842 -0.9917
  839TIP3    H1 2523   0.747   2.228   0.168  0.0317  0.1388  1.4451
  839TIP3    H2 2524   0.639   2.325   0.126  0.7285 -0.3241 -1.6245
  840TIP3   OH2 2525   4.070   3.897   0.516 -0.0206  0.1651 -0.3149
  840TIP3    H1 2526   4.114   3.812   0.523  0.0574  0.1939 -0.4637
  840TIP3    H2 2527   4.025   3.907   0.600  2.2934  1.2897  0.8739
  841TIP3   OH2 2528   3.064   4.629   0.029  0.2393 -0.2745 -0.4909
  841TIP3    H1 2529   2.992   4.687   0.052  1.3873  1.7306 -1.6763
  841TIP3    H2 2530   3.133   4.651   0.092  0.2018 -1.4258 -0.0271
  842TIP3   OH2 2531   5.267   1.751   3.998 -0.0324  0.3322 -0.1271
  842TIP3    H1 2532   5.213   1.681   4.033 -1.6139  0.5689 -1.8972
  842TIP3    H2 2533   5.301   1.716   3.916 -0.1610  1.3133 -0.6167
  843TIP3   OH2 2534   0.055   3.485   1.261  0.5427 -0.0709 -0.4810
  843TIP3    H1 2535   0.126   3.490   1.325 -0.7875  0.4011  1.0325
  843TIP3    H2 2536   0.035   3.392   1.255 -0.1380 -0.0334  0.7839
  844TIP3   OH2 2537   0.260   1.866   2.430  0.1396  0.2619  0.3853
  844TIP3    H1 2538   0.244   1.857   2.524  0.9955  1.6934  0.7002
  844TIP3    H2 2539   0.226   1.953   2.408  0.1836  0.0454 -0.5821
  845TIP3   OH2 2540   5.365   5.853   2.401  0.2312 -0.0585 -0.2586
  845TIP3    H1 2541   5.279   5.845   2.359  0.0659 -0.6917  0.1839
  845TIP3    H2 2542   5.369   5.780   2.463  0.5864  0.6982  0.6356
  846TIP3   OH2 2543   1.670   3.702   5.108  0.0212  0.1417 -0.3899
  846TIP3    H1 2544   1.615   3.624   5.101  0.9862 -0.5253 -0.8241
  846TIP3    H2 2545   1.641   3.744   5.189 -1.1979 -0.1077 -0.6753
  847TIP3   OH2 2546   2.422   1.615   4.544  0.0077 -0.1765  0.0225
  847TIP3    H1 2547   2.337   1.658   4.549  0.1222  0.2025 -1.0965
  847TIP3    H2 2548   2.402   1.526   4.515  0.0189  0.0094 -0.5572
  848TIP3   OH2 2549   0.918   3.205   0.153 -0.3116  0.4202  0.3375
  848TIP3    H1 2550   0.836   3.166   0.125  0.4107 -0.1924 -1.0079
  848TIP3    H2 2551   0.952   3.248   0.075  0.3656  1.1703  1.0309
  849TIP3   OH2 2552   0.327   5.011   0.542  0.4640  0.0619  0.2884
  849TIP3    H1 2553   0.314   5.096   0.584  0.0475 -0.1923  0.6803
  849TIP3    H2 2554   0.239   4.980   0.523  0.6415  0.1675 -0.7727
  850TIP3   OH2 2555   1.947   0.280   4.280 -0.1877  0.3578  0.2844
  850TIP3    H1 2556   2.031   0.325   4.291 -1.4032  2.7689  0.5763
  850TIP3    H2 2557   1.915   0.268   4.369 -0.3163 -0.2289  0.1602
  851TIP3   OH2 2558   6.344   5.256   2.400 -0.8244  0.5208 -0.0232
  851TIP3    H1 2559   6.269   5.218   2.353 -1.3786  2.5312 -0.8943
  851TIP3    H2 2560   6.322   5.349   2.408  2.1951  1.5027 -1.6100
  852TIP3   OH2 2561   0.213   4.422   1.887 -0.3939  0.1648  0.2375
  852TIP3    H1 2562   0.242   4.453   1.801 -1.0543 -2.5284 -1.0587
  852TIP3    H2 2563   0.124   4.388   1.872 -1.0392  0.7593  2.2984
  853TIP3   OH2 2564   4.118   5.222   4.219  0.0257 -0.4106 -0.8153
  853TIP3    H1 2565   4.146   5.197   4.307 -0.3657  0.3371 -0.4653
  853TIP3    H2 2566   4.159   5.308   4.204 -1.4998  0.4014 -0.5487
  854TIP3   OH2 2567   4.240   1.396   1.189 -0.3398  0.4360  0.1905
  854TIP3    H1 2568   4.319   1.348   1.213 -0.8135 -0.7728 -0.6143
  854TIP3    H2 2569   4.168   1.344   1.226 -0.7998  1.2732  0.5061
  855TIP3   OH2 2570  -0.003   0.809   1.952  0.1847 -0.1148  0.2625
  855TIP3    H1 2571  -0.070   0.873   1.977 -1.4090 -0.8317 -1.8777
  855TIP3    H2 2572   0.074   0.863   1.928 -0.7430  0.9630 -0.4106
  856TIP3   OH2 2573   3.374   1.774   1.761 -0.3984  0.0026  0.3275
  856TIP3    H1 2574   3.388   1.790   1.854 -0.4301  0.8828  0.1910
  856TIP3    H2 2575   3.358   1.680   1.755  0.2377 -0.1692  1.1273
  857TIP3   OH2 2576   4.627   5.450   3.721 -0.4302  0.2301  0.1178
  857TIP3    H1 2577   4.545   5.435   3.768 -0.0519 -2.6437  0.0252
  857TIP3    H2 2578   4.695   5.418   3.781  0.4352  0.5473 -0.6800
  858TIP3   OH2 2579   0.226   1.284   4.424 -0.0241  0.2069 -0.1478
  858TIP3    H1 2580   0.183   1.257   4.343 -1.3202  0.4953  0.4236
  858TIP3    H2 2581   0.303   1.333   4.395  0.9504 -1.8090 -1.1956
  859TIP3   OH2 2582   2.232   4.594   3.522 -0.2661  0.2095  0.3342
  859TIP3    H1 2583   2.172   4.643   3.465  0.9684  1.0542 -0.2899
  859TIP3    H2 2584   2.205   4.617   3.611  0.2031  1.9726  0.0504
  860TIP3   OH2 2585   5.812   1.608   1.539  0.2025  0.5510 -0.2120
  860TIP3    H1 2586   5.839   1.617   1.448  0.2139  2.6665 -0.0538
  860TIP3    H2 2587   5.753   1.532   1.540  2.7600 -1.6067 -1.3109
  861TIP3   OH2 2588   2.286   3.216   4.846 -0.1958 -0.1130  0.5599
  861TIP3    H1 2589   2.294   3.274   4.770 -0.0899 -0.2488  0.4693
  861TIP3    H2 2590   2.225   3.148   4.818 -0.2190 -0.1191  0.6248
  862TIP3   OH2 2591   5.801   1.174   2.830 -0.1413  0.3764  0.0991
  862TIP3    H1 2592   5.818   1.268   2.832  1.2261  0.1696 -0.2820
  862TIP3    H2 2593   5.812   1.146   2.921 -1.3097  0.6939  0.3445
  863TIP3   OH2 2594   5.757   0.892   0.100  0.5193 -0.3157  0.0332
  863TIP3    H1 2595   5.783   0.971   0.051  0.5779 -0.8487 -0.8063
  863TIP3    H2 2596   5.686   0.922   0.157 -0.2674  0.1078 -1.1301
  864TIP3   OH2 2597   5.613   5.287   0.341 -0.0737  0.2345 -0.2414
  864TIP3    H1 2598   5.607   5.363   0.283  0.4883 -0.2811 -0.9929
  864TIP3    H2 2599   5.522   5.270   0.367 -0.3794  0.2968 -1.2088
  865TIP3   OH2 2600   2.215   4.407   2.714  0.1049 -0.4492  0.2365
  865TIP3    H1 2601   2.201   4.338   2.778 -0.8882  2.1117  3.0365
  865TIP3    H2 2602   2.128   4.423   2.677  0.4286 -1.0332 -0.7905
  866TIP3   OH2 2603   6.158   4.958   3.469 -0.3738  0.5227  0.2364
  866TIP3    H1 2604   6.138   5.051   3.463  0.2350  0.8821  2.5984
  866TIP3    H2 2605   6.178   4.932   3.380 -0.7994  2.5944 -0.5255
  867TIP3   OH2 2606   1.397   5.709   3.192 -0.4869 -0.3163  0.1938
  867TIP3    H1 2607   1.410   5.676   3.103 -0.1251 -0.4993  0.3131
  867TIP3    H2 2608   1.319   5.764   3.186 -0.1380  0.1388 -0.3641
  868TIP3   OH2 2609   1.533   3.824   4.866  0.1391  0.6462 -0.5434
  868TIP3    H1 2610   1.579   3.789   4.942 -0.8903  0.1118 -0.1495
  868TIP3    H2 2611   1.456   3.869   4.902 -0.6383 -0.0444 -1.2835
  869TIP3   OH2 2612   0.837   2.518   1.984  0.2309  0.2840 -0.4263
  869TIP3    H1 2613   0.834   2.597   2.037  0.9786 -0.0256  0.1096
  869TIP3    H2 2614   0.865   2.449   2.045 -2.1269 -0.7886 -0.4381
  870TIP3   OH2 2615   3.617   5.205   2.403  0.0074 -0.5972 -0.1374
  870TIP3    H1 2616   3.695   5.228   2.353  0.2232  1.9417  1.2308
  870TIP3    H2 2617   3.555   5.275   2.385 -1.8061 -2.2792 -0.7641
  871TIP3   OH2 2618   3.835   2.116   2.512  0.0484  0.7487 -0.3725
  871TIP3    H1 2619   3.904   2.159   2.461  0.4748 -1.6864 -2.0189
  871TIP3    H2 2620   3.882   2.060   2.573 -0.4854  0.5158 -0.1742
  872TIP3   OH2 2621   5.619   4.914   3.462  0.1789 -0.1964  0.2106
  872TIP3    H1 2622   5.696   4.926   3.517  1.5881  0.4750 -1.8041
  872TIP3    H2 2623   5.626   4.825   3.429  1.1361  0.4364 -1.4055
  873TIP3   OH2 2624   3.575   0.344   2.865 -0.1270 -0.0417 -0.2715
  873TIP3    H1 2625   3.647   0.282   2.851  0.7428  1.1327 -1.1434
  873TIP3    H2 2626   3.595   0.418   2.808 -1.4631  0.7953  0.2942
  874TIP3   OH2 2627   0.381   3.606   0.876 -0.2323  0.3493 -0.4586
  874TIP3    H1 2628   0.439   3.582   0.804 -0.1658  0.6047 -0.4890
  874TIP3    H2 2629   0.294   3.614   0.836 -1.0592 -3.4810  0.1154
  875TIP3   OH2 2630   0.265   1.633   4.206  0.3356  0.1334  0.1610
  875TIP3    H1 2631   0.208   1.622   4.130 -1.3427  2.0837  1.0357
  875TIP3    H2 2632   0.215   1.596   4.279 -0.6911  3.2607  1.2234
  876TIP3   OH2 2633   3.136   0.349   3.445 -0.0746 -0.2510  0.4326
  876TIP3    H1 2634   3.090   0.289   3.503 -0.3903  0.5740  1.0462
  876TIP3    H2 2635   3.227   0.347   3.474  0.0076 -0.7811  0.1491
  877TIP3   OH2 2636   4.742   2.150   0.808  0.2462  0.2572 -0.3467
  877TIP3    H1 2637   4.655   2.138   0.846 -0.1187 -0.3957 -1.3508
  877TIP3    H2 2638   4.728   2.214   0.738  0.8166  1.0689  0.2637
  878TIP3   OH2 2639   0.059   2.340   0.855  0.4836 -0.2279 -0.5390
  878TIP3    H1 2640   0.049   2.248   0.877  1.7864 -0.6321 -1.5110
  878TIP3    H2 2641   0.120   2.374   0.921 -1.3329  0.4078  0.8876
  879TIP3   OH2 2642   4.290   4.878   1.715  0.0456 -0.0038 -0.1752
  879TIP3    H1 2643   4.222   4.838   1.661  0.7279  0.3119 -1.3085
  879TIP3    H2 2644   4.242   4.919   1.787 -1.0495  0.7638 -1.2876
  880TIP3   OH2 2645   4.414   0.547   3.616 -0.2037  0.0461 -0.0816
  880TIP3    H1 2646   4.329   0.516   3.647 -0.3350 -0.9281 -1.3243
  880TIP3    H2 2647   4.464   0.467   3.600  0.5792  0.5786 -0.3355
  881TIP3   OH2 2648   4.845   0.383   2.458  0.5694  0.2858 -0.8291
  881TIP3    H1 2649   4.865   0.468   2.417  1.7414 -0.1510 -1.2290
  881TIP3    H2 2650   4.919   0.327   2.432 -0.3941 -0.9755 -0.9127
  882TIP3   OH2 2651   0.338   5.003   1.201  0.2233  0.2889 -0.1080
  882TIP3    H1 2652   0.359   5.037   1.287 -1.8518  0.5534  0.3391
  882TIP3    H2 2653   0.285   5.072   1.160  0.8527  0.0096 -1.4639
  883TIP3   OH2 2654   0.328   4.282   4.745 -0.3931  0.0744  0.1470
  883TIP3    H1 2655   0.398   4.341   4.718  0.4180 -1.2654 -0.8121
  883TIP3    H2 2656   0.362   4.239   4.823 -1.3184  1.4238  1.3348
  884TIP3   OH2 2657   4.546   3.451   3.422 -0.2309  0.2604  0.0949
  884TIP3    H1 2658   4.540   3.515   3.352 -0.7379  0.5873  0.4346
  884TIP3    H2 2659   4.565   3.503   3.501  1.6608 -0.2021  0.0102
  885TIP3   OH2 2660   1.853   3.883   2.379 -0.0911  0.1199  0.0606
  885TIP3    H1 2661   1.778   3.824   2.372 -1.3723  1.7779 -1.4940
  885TIP3    H2 2662   1.817   3.962   2.421  0.1701  1.7333 -2.5373
  886TIP3   OH2 2663   4.646   2.267   5.065 -0.0569 -0.1898 -0.2693
  886TIP3    H1 2664   4.613   2.317   5.140  0.6135 -2.1282  1.4018
  886TIP3    H2 2665   4.727   2.228   5.097 -0.7449 -2.6277 -1.3508
  887TIP3   OH2 2666   0.115   5.372   4.417 -0.2450 -0.3046  0.0043
  887TIP3    H1 2667   0.097   5.310   4.345  0.1501 -0.2513 -0.1425
  887TIP3    H2 2668   0.087   5.457   4.383 -0.9292 -0.4200  0.2611
  888TIP3   OH2 2669   2.208   5.600   4.719  0.0701  0.0916 -0.4301
  888TIP3    H1 2670   2.279   5.536   4.725  1.6368  1.4854 -2.6235
  888TIP3    H2 2671   2.139   5.556   4.669 -0.1228 -0.8265  0.6025
  889TIP3   OH2 2672   5.236   5.568   4.487  0.6680 -0.5815 -0.2690
  889TIP3    H1 2673   5.264   5.578   4.578  0.8576 -2.7579 -0.0374
  889TIP3    H2 2674   5.156   5.517   4.492 -1.6665  2.6787 -1.1628
  890TIP3   OH2 2675   3.101   1.458   0.505  0.0623 -0.1640 -0.0038
  890TIP3    H1 2676   3.112   1.424   0.416  0.3874 -1.1199  0.3879
  890TIP3    H2 2677   3.094   1.552   0.493  0.1771 -0.2667 -1.0414
  891TIP3   OH2 2678   4.445   5.861   1.317 -0.2449  0.4533 -0.0191
  891TIP3    H1 2679   4.361   5.835   1.279 -0.6575  1.9940 -0.2569
  891TIP3    H2 2680   4.435   5.955   1.333  0.9056  0.3720  1.3588
  892TIP3   OH2 2681   0.240   0.686   4.237 -0.3758 -0.3526  0.3339
  892TIP3    H1 2682   0.147   0.682   4.259 -0.8100  2.0881 -0.7106
  892TIP3    H2 2683   0.246   0.654   4.147 -0.8019  2.5381 -0.8155
  893TIP3   OH2 2684   0.628   5.318   2.892 -0.4938 -0.7256  0.2877
  893TIP3    H1 2685   0.723   5.303   2.898 -0.3887 -1.1273 -1.6530
  893TIP3    H2 2686   0.601   5.269   2.814 -1.8239  1.5831 -0.7996
  894TIP3   OH2 2687   2.362   3.834   2.392 -0.1315 -0.0763  0.2929
  894TIP3    H1 2688   2.278   3.810   2.432  0.2040 -1.3647  0.2556
  894TIP3    H2 2689   2.423   3.766   2.421  0.9674  0.9724  0.5046
  895TIP3   OH2 2690   4.085   4.195   1.438  0.1762 -0.0169  0.5276
  895TIP3    H1 2691   4.078   4.275   1.490 -0.6908 -1.3233  2.5539
  895TIP3    H2 2692   4.178   4.172   1.442  0.8042  1.7800 -1.6305
  896TIP3   OH2 2693   3.785   4.349   0.788  0.0155 -0.2686 -0.0671
  896TIP3    H1 2694   3.820   4.359   0.877  1.0355 -1.6325 -0.2861
  896TIP3    H2 2695   3.846   4.398   0.733  0.0055 -0.3335 -0.1360
  897TIP3   OH2 2696   2.481   1.325   4.931 -0.0552  0.0692 -0.5115
  897TIP3    H1 2697   2.534   1.292   4.858  0.7591  0.5886 -0.1750
  897TIP3    H2 2698   2.545   1.340   5.002 -0.6280  0.8696 -0.1505
  898TIP3   OH2 2699   5.251   3.534   1.956 -0.2143  0.5035  0.0656
  898TIP3    H1 2700   5.175   3.592   1.960  0.5282  1.4469  1.1794
  898TIP3    H2 2701   5.293   3.557   1.873  0.5886  2.2911  0.9080
  899TIP3   OH2 2702   2.644   4.086   2.960 -0.2722 -0.2056 -0.3085
  899TIP3    H1 2703   2.631   4.096   2.865 -0.5503 -1.6023 -0.4323
  899TIP3    H2 2704   2.729   4.127   2.977 -0.5494  0.7022 -1.0371
  900TIP3   OH2 2705   4.788   5.684   0.243  0.1782 -0.3793 -0.6802
  900TIP3    H1 2706   4.856   5.748   0.221 -0.2600  0.2281 -0.3016
  900TIP3    H2 2707   4.782   5.686   0.338 -1.0527  0.3063 -0.7570
  901TIP3   OH2 2708   4.846   3.488   1.756  0.1681  0.0827  0.1142
  901TIP3    H1 2709   4.910   3.517   1.691  2.1931 -1.2877  1.3612
  901TIP3    H2 2710   4.805   3.568   1.789  0.7410  0.9430 -1.2287
  902TIP3   OH2 2711   4.100   2.501   4.890  0.2026  0.6362  0.0694
  902TIP3    H1 2712   4.160   2.472   4.822 -0.9041 -3.4797  0.6146
  902TIP3    H2 2713   4.057   2.578   4.852  1.9673  0.5030 -2.4744
  903TIP3   OH2 2714   1.883   2.353   4.114  0.3643 -0.1928 -0.4411
  903TIP3    H1 2715   1.790   2.350   4.095  0.4719  0.0283 -1.0414
  903TIP3    H2 2716   1.910   2.442   4.091  0.0925  0.8832  2.9283
  904TIP3   OH2 2717   3.460   3.494   1.122 -0.1795  0.1378 -0.3497
  904TIP3    H1 2718   3.472   3.515   1.215 -0.0096  0.7970 -0.5163
  904TIP3    H2 2719   3.439   3.401   1.121  4.2083 -1.0587  0.0226
  905TIP3   OH2 2720   3.277   3.983   4.682  0.0583 -0.0811  0.0390
  905TIP3    H1 2721   3.219   3.911   4.703 -0.2893 -0.8999 -3.3165
  905TIP3    H2 2722   3.222   4.047   4.637  1.0731  0.7134 -0.1198
  906TIP3   OH2 2723   5.627   1.489   3.545 -0.1226 -0.3381 -0.2969
  906TIP3    H1 2724   5.559   1.421   3.547 -2.0403  1.4909  0.4082
  906TIP3    H2 2725   5.599   1.553   3.610  1.3913  1.3221 -1.1809
  907TIP3   OH2 2726   5.916   1.722   4.688 -0.0451  0.0239  0.0383
  907TIP3    H1 2727   5.827   1.758   4.690 -0.3801 -0.7084 -0.9492
  907TIP3    H2 2728   5.968   1.784   4.739 -1.2331  0.1583  1.1724
  908TIP3   OH2 2729   5.760   2.545   2.065  0.5804 -0.0609 -0.2491
  908TIP3    H1 2730   5.772   2.639   2.048  0.6843 -0.2836 -1.4893
  908TIP3    H2 2731   5.769   2.504   1.979  1.5025 -1.3123  0.4197
  909TIP3   OH2 2732   0.471   4.850   0.047  0.5121 -0.3197 -0.0727
  909TIP3    H1 2733   0.496   4.930   0.092 -1.5943  0.5875 -0.4063
  909TIP3    H2 2734   0.554   4.810   0.022  1.6800  0.6209  1.9991
  910TIP3   OH2 2735   6.169   2.288   2.192  0.0109 -0.0725 -0.2908
  910TIP3    H1 2736   6.258   2.321   2.179  0.4109 -0.8931  0.2821
  910TIP3    H2 2737   6.173   2.239   2.274 -0.7156 -1.0033 -0.7818
  911TIP3   OH2 2738   1.806   3.525   0.022  0.2069  0.5934  0.2607
  911TIP3    H1 2739   1.726   3.548  -0.024  0.5408  0.3194 -0.4703
  911TIP3    H2 2740   1.789   3.549   0.113 -1.3826 -1.0906  0.4776
  912TIP3   OH2 2741   0.828   3.969   3.248  0.3714  0.2123 -0.1114
  912TIP3    H1 2742   0.745   4.016   3.242  0.2366  0.1827  1.2262
  912TIP3    H2 2743   0.836   3.945   3.341  0.7954 -1.7403 -0.5981
  913TIP3   OH2 2744   4.083   2.457   2.827  0.2705  0.6451 -0.1182
  913TIP3    H1 2745   4.018   2.387   2.820 -0.0448  1.0015 -0.8133
  913TIP3    H2 2746   4.163   2.418   2.790 -0.2299  1.0364 -1.7217
  914TIP3   OH2 2747   5.643   5.292   4.524  0.1526  0.1225  0.4079
  914TIP3    H1 2748   5.609   5.231   4.459 -2.7700  1.5437  0.4139
  914TIP3    H2 2749   5.737   5.295   4.508  0.2516 -3.2266 -0.4860
  915TIP3   OH2 2750   1.810   2.589   2.482  0.4795 -0.2686 -0.8769
  915TIP3    H1 2751   1.872   2.621   2.418  0.5639 -2.0933 -1.7748
  915TIP3    H2 2752   1.733   2.564   2.431 -0.4221  0.5301  0.0406
  916TIP3   OH2 2753   0.946   5.206   0.963 -0.1621 -0.7514  0.2168
  916TIP3    H1 2754   0.934   5.260   1.042  0.0400 -1.5582  0.8192
  916TIP3    H2 2755   0.935   5.267   0.890  0.8002  0.2548  0.8816
  917TIP3   OH2 2756   1.976   5.955   0.179 -0.2793 -0.6041 -0.0834
  917TIP3    H1 2757   1.994   5.870   0.219  1.8449 -0.7565 -1.2221
  917TIP3    H2 2758   1.892   5.943   0.134  1.0119 -2.8632 -2.0945
  918TIP3   OH2 2759   2.889   0.856   4.271  0.2318  0.2690 -0.3191
  918TIP3    H1 2760   2.877   0.932   4.213 -3.3078 -0.6544 -0.9749
  918TIP3    H2 2761   2.914   0.785   4.212  1.3687  0.3697  0.0110
  919TIP3   OH2 2762   2.141   0.191   3.397  0.2708 -0.3569  0.0985
  919TIP3    H1 2763   2.091   0.159   3.322  0.0880  0.7596 -0.2724
  919TIP3    H2 2764   2.165   0.281   3.373  1.1850 -0.3787  0.9002
  920TIP3   OH2 2765   2.737   5.016   0.861 -0.3790  0.0374  0.0258
  920TIP3    H1 2766   2.710   4.926   0.845  1.4984 -0.7946  1.1326
  920TIP3    H2 2767   2.662   5.069   0.835 -2.1036 -1.9199  0.7211
  921TIP3   OH2 2768   3.582   4.946   2.178  0.0746 -0.0087  0.0332
  921TIP3    H1 2769   3.654   4.912   2.231 -0.4265 -0.8600  0.2051
  921TIP3    H2 2770   3.504   4.903   2.214 -0.2507 -0.8219 -1.5414
  922TIP3   OH2 2771   5.071   4.505   3.905  0.1746  0.3990  0.1224
  922TIP3    H1 2772   5.040   4.427   3.861  1.0823 -0.0785  0.3056
  922TIP3    H2 2773   5.105   4.561   3.835  3.3436 -1.1418  0.2730
  923TIP3   OH2 2774   3.323   1.271   2.593 -0.0047  0.1138 -0.5436
  923TIP3    H1 2775   3.239   1.308   2.567 -0.2611  1.0346  1.3955
  923TIP3    H2 2776   3.387   1.339   2.573  0.4406 -0.8337 -2.6264
  924TIP3   OH2 2777   4.348   1.648   1.735 -0.0042 -0.6154 -0.3760
  924TIP3    H1 2778   4.358   1.702   1.813 -1.9459 -1.7336  0.7176
  924TIP3    H2 2779   4.407   1.573   1.750  0.3120 -0.3745 -0.4132
  925TIP3   OH2 2780   6.208   4.661   0.765 -0.3229 -0.4971 -0.2074
  925TIP3    H1 2781   6.116   4.662   0.741 -0.6756  0.1901  1.0844
  925TIP3    H2 2782   6.255   4.671   0.681 -1.4773  1.8843 -0.6638
  926TIP3   OH2 2783   5.675   1.198   3.318  0.2246 -0.0417  0.1813
  926TIP3    H1 2784   5.654   1.178   3.409  0.6130 -0.5581  0.1603
  926TIP3    H2 2785   5.600   1.249   3.286  0.6704  1.2770  1.1663
  927TIP3   OH2 2786   1.540   4.792   2.323 -0.5234 -0.3879 -0.4160
  927TIP3    H1 2787   1.524   4.783   2.229  0.3090 -0.5791 -0.5486
  927TIP3    H2 2788   1.455   4.777   2.363 -0.3993 -3.1162 -0.9686
  928TIP3   OH2 2789   5.416   3.553   0.176  0.5163 -0.4244  0.2794
  928TIP3    H1 2790   5.465   3.475   0.150 -0.9410 -1.3534  0.1981
  928TIP3    H2 2791   5.443   3.568   0.267  2.0804  0.0189 -0.2306
  929TIP3   OH2 2792   4.025   0.709   2.862 -0.0494 -0.2956  0.3701
  929TIP3    H1 2793   4.098   0.650   2.848  0.8249  0.8238  0.0749
  929TIP3    H2 2794   4.013   0.710   2.957  0.7667  0.0347  0.4735
  930TIP3   OH2 2795   2.099   4.231   2.915 -0.6907 -0.2591 -0.2403
  930TIP3    H1 2796   2.035   4.303   2.910 -1.3991 -0.9471 -1.5477
  930TIP3    H2 2797   2.046   4.152   2.925 -0.0402 -0.7986 -0.8969
  931TIP3   OH2 2798   2.661   5.406   2.453 -0.4834  0.0933  0.0521
  931TIP3    H1 2799   2.613   5.407   2.370 -0.1968 -0.3946 -0.1265
  931TIP3    H2 2800   2.750   5.431   2.430 -1.0688  3.1508  0.6997
  932TIP3   OH2 2801   3.667   4.800   4.631 -0.0292  0.2885 -0.1927
  932TIP3    H1 2802   3.660   4.880   4.681  0.0239 -0.1984  0.6109
  932TIP3    H2 2803   3.759   4.774   4.639 -0.4384 -0.8591  1.1732
  933TIP3   OH2 2804   5.442   0.582   2.911 -0.0014  0.1669 -0.0121
  933TIP3    H1 2805   5.380   0.650   2.884 -0.5977 -0.0363  0.7925
  933TIP3    H2 2806   5.494   0.564   2.833  0.2524  1.6311 -0.1944
  934TIP3   OH2 2807   5.650   1.776   3.874  0.3139  0.2960 -0.6630
  934TIP3    H1 2808   5.719   1.835   3.902 -0.5767  1.9311 -1.7469
  934TIP3    H2 2809   5.659   1.699   3.931  0.9657  1.8259  1.4001
  935TIP3   OH2 2810   4.422   2.962   1.748  0.0119 -0.0407 -0.0514
  935TIP3    H1 2811   4.440   3.046   1.789 -0.3982 -0.1133  0.2813
  935TIP3    H2 2812   4.327   2.960   1.737 -0.0215 -0.6194  0.2973
  936TIP3   OH2 2813   2.998   3.256   2.829 -0.4414  0.3758  0.4452
  936TIP3    H1 2814   2.968   3.170   2.798 -1.9803  0.7736  0.7419
  936TIP3    H2 2815   3.057   3.236   2.901 -0.5977 -0.4476  0.3577
  937TIP3   OH2 2816   1.940   3.121   4.192  0.4392 -0.3870  0.0067
  937TIP3    H1 2817   2.022   3.094   4.150  1.2977 -0.9098  1.8860
  937TIP3    H2 2818   1.926   3.211   4.162  1.9015 -0.1739 -0.1222
  938TIP3   OH2 2819   6.299   1.330   4.239  0.5606 -0.1138 -0.4496
  938TIP3    H1 2820   6.227   1.341   4.176  1.4131  0.0174 -1.4157
  938TIP3    H2 2821   6.315   1.419   4.272  1.2922  0.1097 -1.3790
  939TIP3   OH2 2822   1.617   2.779   4.846 -0.8040  0.0864  0.0257
  939TIP3    H1 2823   1.606   2.732   4.763 -0.6408 -0.3043  0.2235
  939TIP3    H2 2824   1.528   2.790   4.879 -0.8573  0.1018 -0.1197
  940TIP3   OH2 2825   5.060   0.796   1.773  0.4027 -0.6763 -0.1250
  940TIP3    H1 2826   4.992   0.841   1.723  0.8170  0.0995 -0.0065
  940TIP3    H2 2827   5.038   0.703   1.766  0.1648 -0.5434 -1.3335
  941TIP3   OH2 2828   3.756   4.222   2.529 -0.0666 -0.7173 -0.0726
  941TIP3    H1 2829   3.720   4.247   2.445  0.9797 -1.6769 -0.8363
  941TIP3    H2 2830   3.836   4.174   2.508  0.5563 -0.4425  1.4816
  942TIP3   OH2 2831   6.312   0.913   0.894  0.3442  0.5007  0.5623
  942TIP3    H1 2832   6.292   0.865   0.974  1.0571  0.8625  0.9687
  942TIP3    H2 2833   6.345   0.998   0.924  0.8611  0.5438 -0.0993
  943TIP3   OH2 2834   3.170   1.880   0.798  0.5955  0.2985 -0.1139
  943TIP3    H1 2835   3.217   1.842   0.871 -1.2337  0.1715  1.0560
  943TIP3    H2 2836   3.112   1.945   0.837 -2.2534 -1.4712 -1.0391
  944TIP3   OH2 2837   3.720   4.658   3.522 -0.7285 -0.1656  0.2948
  944TIP3    H1 2838   3.658   4.711   3.572 -0.1569  0.1491  0.6709
  944TIP3    H2 2839   3.670   4.629   3.445 -1.6600 -0.7917  1.1183
  945TIP3   OH2 2840   5.715   2.879   3.956 -0.0676 -0.0329  0.3727
  945TIP3    H1 2841   5.621   2.875   3.936  0.0157 -0.0220 -0.0204
  945TIP3    H2 2842   5.719   2.925   4.040 -0.4832 -0.9812  0.9239
  946TIP3   OH2 2843   5.792   2.707   2.449  0.1917  0.4649 -0.6749
  946TIP3    H1 2844   5.729   2.766   2.490 -0.7311 -2.2673  2.2107
  946TIP3    H2 2845   5.739   2.641   2.405  1.0294 -0.8302  0.1889
  947TIP3   OH2 2846   6.073   2.610   2.469  0.8626  0.2383 -0.2559
  947TIP3    H1 2847   6.021   2.554   2.526 -1.1327  0.8764 -1.3709
  947TIP3    H2 2848   6.014   2.681   2.443  2.4440  1.2823 -1.1773
  948TIP3   OH2 2849   5.355   3.470   1.688 -0.9221 -0.2347 -0.3403
  948TIP3    H1 2850   5.444   3.439   1.704  0.1665  1.7253 -2.0223
  948TIP3    H2 2851   5.301   3.391   1.690  1.0206 -1.6270 -0.3336
  949TIP3   OH2 2852   5.333   2.256   3.601  0.4363 -0.8704 -0.1903
  949TIP3    H1 2853   5.391   2.286   3.531  1.4364 -1.3308  0.4150
  949TIP3    H2 2854   5.387   2.262   3.680 -1.6225  3.0504  1.2393
  950TIP3   OH2 2855   6.202   2.200   2.673 -0.3560  0.3413 -0.9486
  950TIP3    H1 2856   6.165   2.186   2.760  0.7675 -0.0582 -0.5132
  950TIP3    H2 2857   6.285   2.246   2.690 -0.6957  1.3544 -1.8977
  951TIP3   OH2 2858   3.856   2.251   2.844 -0.2561  0.3381  0.8294
  951TIP3    H1 2859   3.779   2.201   2.816 -0.6961  1.1538  0.5683
  951TIP3    H2 2860   3.892   2.201   2.917 -0.0431 -0.9642 -0.1241
  952TIP3   OH2 2861   1.456   1.572   1.665  0.9735 -0.0040 -0.0202
  952TIP3    H1 2862   1.501   1.643   1.618  0.7459  0.7781  0.9114
  952TIP3    H2 2863   1.500   1.568   1.750  0.1029 -0.0513  0.4427
  953TIP3   OH2 2864   3.902   3.812   0.305  0.2080 -0.1156 -0.2934
  953TIP3    H1 2865   3.954   3.844   0.378 -0.8952 -0.8049  0.8377
  953TIP3    H2 2866   3.965   3.799   0.234  1.5377 -0.7046  0.9465
  954TIP3   OH2 2867   5.466   5.715   0.394  0.1414 -0.1510  0.0055
  954TIP3    H1 2868   5.526   5.789   0.402  0.8340 -0.9114  3.5095
  954TIP3    H2 2869   5.522   5.638   0.388 -0.5104 -0.6802  0.5694
  955TIP3   OH2 2870   3.158   4.906   4.046 -0.4648  0.3677 -0.6871
  955TIP3    H1 2871   3.120   4.844   3.984  0.3304 -0.9297  0.0740
  955TIP3    H2 2872   3.251   4.884   4.047 -0.6144 -0.4301  1.7742
  956TIP3   OH2 2873   2.552   4.134   3.255  0.0139  0.6490  0.4409
  956TIP3    H1 2874   2.535   4.162   3.165  0.9755  0.0028  0.0352
  956TIP3    H2 2875   2.516   4.045   3.259  0.2864  0.5456  0.5908
  957TIP3   OH2 2876   5.545   2.531   1.302  0.0234  0.6003  0.0044
  957TIP3    H1 2877   5.468   2.474   1.305  0.3973  0.1384  1.2170
  957TIP3    H2 2878   5.514   2.614   1.338  0.5403 -0.1817  2.4440
  958TIP3   OH2 2879   0.432   5.855   4.710  0.2437 -0.0936 -0.3802
  958TIP3    H1 2880   0.421   5.885   4.620  2.3428  0.2125 -0.5820
  958TIP3    H2 2881   0.354   5.802   4.728 -0.6426  0.5939 -2.0427
  959TIP3   OH2 2882   2.303   5.967   2.254  0.1289  0.1620  0.5349
  959TIP3    H1 2883   2.242   5.919   2.197 -0.0739  1.1101 -0.0754
  959TIP3    H2 2884   2.336   6.038   2.199 -2.7121  3.3146  2.5017
  960TIP3   OH2 2885   3.200   0.054   4.876  0.8815  0.5216  0.2304
  960TIP3    H1 2886   3.123   0.111   4.883  1.0836  0.7628  0.5477
  960TIP3    H2 2887   3.167  -0.027   4.838  0.3000  0.2984  1.1596
  961TIP3   OH2 2888   1.737   3.098   3.737 -0.1420 -0.6937  0.0725
  961TIP3    H1 2889   1.716   3.093   3.830 -0.7500  0.7545  0.0425
  961TIP3    H2 2890   1.749   3.192   3.720  1.8199 -1.0775 -0.9318
  962TIP3   OH2 2891   2.310   3.234   4.089  0.4889 -0.6807 -0.2550
  962TIP3    H1 2892   2.333   3.154   4.138  2.1100 -0.3578 -0.4215
  962TIP3    H2 2893   2.321   3.209   3.997  0.2586 -0.4825 -0.3344
  963TIP3   OH2 2894   0.533   3.850   1.699 -0.3854 -0.2412 -0.5978
  963TIP3    H1 2895   0.500   3.871   1.612 -1.8879 -0.2273 -0.0596
  963TIP3    H2 2896   0.507   3.924   1.754  2.5103  0.8367 -0.5287
  964TIP3   OH2 2897   2.055   3.342   3.823 -0.2609 -0.4416  0.2855
  964TIP3    H1 2898   2.063   3.377   3.912  2.8893  1.0606 -0.4187
  964TIP3    H2 2899   2.112   3.265   3.822  2.1650  1.2212 -1.0312
  965TIP3   OH2 2900   0.447   4.796   3.285  0.1314  0.1105  0.2875
  965TIP3    H1 2901   0.353   4.802   3.269  0.1226 -0.5060  0.0900
  965TIP3    H2 2902   0.480   4.884   3.267 -0.5402  0.5746  1.2480
  966TIP3   OH2 2903   1.856   2.735   4.921 -0.7056 -0.2257 -0.1292
  966TIP3    H1 2904   1.908   2.810   4.950  0.7012 -1.2773  0.2037
  966TIP3    H2 2905   1.766   2.767   4.921 -0.4708  0.6903  2.5959
  967TIP3   OH2 2906   2.885   1.297   4.042 -0.3426  0.1058 -0.5696
  967TIP3    H1 2907   2.974   1.289   4.078  0.0233 -0.0011 -1.4673
  967TIP3    H2 2908   2.863   1.390   4.051  1.0862  0.7758 -3.0780
  968TIP3   OH2 2909   0.835   5.333   1.954  0.4132  0.1581  0.3893
  968TIP3    H1 2910   0.840   5.255   1.899  1.6831 -0.1860  0.9729
  968TIP3    H2 2911   0.911   5.385   1.928 -0.0993  0.9386  0.4207
  969TIP3   OH2 2912   4.156   4.901   0.923  0.4643 -0.1287  0.0619
  969TIP3    H1 2913   4.130   4.986   0.958 -1.9897  0.2114 -2.2766
  969TIP3    H2 2914   4.075   4.850   0.921  1.4369 -1.7295 -0.6666
  970TIP3   OH2 2915   1.242   4.154   3.385 -0.3586  0.7326  1.0510
  970TIP3    H1 2916   1.292   4.230   3.416  2.0300 -0.6487  0.9009
  970TIP3    H2 2917   1.263   4.149   3.292 -0.6549  0.0209  1.0188
  971TIP3   OH2 2918   2.707   1.376   0.954  0.4321 -0.5903 -0.0655
  971TIP3    H1 2919   2.712   1.346   0.863  0.5171 -2.6957  0.5929
  971TIP3    H2 2920   2.614   1.375   0.975  0.5726 -2.8526  0.6827
  972TIP3   OH2 2921   3.109   5.300   5.027 -0.2444 -0.3596  0.1569
  972TIP3    H1 2922   3.050   5.337   4.962  1.5366  1.2044 -0.6852
  972TIP3    H2 2923   3.136   5.375   5.080 -0.9379 -1.4564  2.1453
  973TIP3   OH2 2924   2.274   2.807   5.053 -0.9324  0.1470  0.1125
  973TIP3    H1 2925   2.301   2.745   4.984  2.8863  1.2031  0.4506
  973TIP3    H2 2926   2.246   2.751   5.125 -1.3980 -1.0719 -0.9700
  974TIP3   OH2 2927   5.784   5.238   1.622  0.0406  0.2761 -0.2262
  974TIP3    H1 2928   5.720   5.272   1.559  0.0005  0.8442  0.1112
  974TIP3    H2 2929   5.759   5.146   1.634 -0.2827  0.3066 -0.6320
  975TIP3   OH2 2930   0.399   5.326   4.336  0.1209  0.1875 -0.2883
  975TIP3    H1 2931   0.303   5.330   4.332  0.1574  0.5996 -3.1641
  975TIP3    H2 2932   0.421   5.245   4.291  1.1449  0.3411 -0.0845
  976TIP3   OH2 2933   2.967   3.890   2.456  0.2312 -0.0614 -0.0788
  976TIP3    H1 2934   2.896   3.902   2.393 -0.1178 -0.6205  0.2037
  976TIP3    H2 2935   3.002   3.978   2.469 -1.3094  0.4605  0.8219
  977TIP3   OH2 2936   3.386   5.710   4.323 -0.2756  1.0295 -0.3442
  977TIP3    H1 2937   3.309   5.668   4.285  0.7673 -1.0101 -0.3366
  977TIP3    H2 2938   3.453   5.707   4.254  0.1796  1.6724  0.0483
  978TIP3   OH2 2939   0.834   1.091   4.346  0.7657  0.1991  0.5729
  978TIP3    H1 2940   0.923   1.101   4.314  0.2504  0.1672 -0.9503
  978TIP3    H2 2941   0.809   1.002   4.322 -0.1938  0.7138 -0.4541
  979TIP3   OH2 2942   4.126   4.768   5.089 -0.4231  0.2713  0.0386
  979TIP3    H1 2943   4.095   4.840   5.033 -1.6015 -1.3885 -1.5646
  979TIP3    H2 2944   4.119   4.691   5.033  2.1729 -0.9154  1.2223
  980TIP3   OH2 2945   4.667   4.062   3.607 -0.4293 -0.3835  0.1868
  980TIP3    H1 2946   4.652   4.157   3.605 -1.7410 -0.5636  0.5509
  980TIP3    H2 2947   4.693   4.044   3.697  0.1397 -0.3366  0.0366
  981TIP3   OH2 2948   1.700   3.309   1.013 -0.3398 -0.1584  0.2447
  981TIP3    H1 2949   1.609   3.340   1.021 -0.9255 -1.2180 -1.5758
  981TIP3    H2 2950   1.697   3.220   1.047  0.4753  0.4073  1.8918
  982TIP3   OH2 2951   1.472   1.310   1.458  0.5706  0.4792 -0.3571
  982TIP3    H1 2952   1.489   1.350   1.372 -0.4444 -1.1743 -1.3840
  982TIP3    H2 2953   1.454   1.384   1.516 -1.8178  1.5547 -2.3087
  983TIP3   OH2 2954   5.298   3.502   2.407  0.1654  0.4743 -0.3326
  983TIP3    H1 2955   5.297   3.461   2.494 -1.1145  0.4942 -0.3188
  983TIP3    H2 2956   5.288   3.595   2.425 -0.1683  0.4718 -0.4962
  984TIP3   OH2 2957   1.382   0.440   0.135  0.6769 -0.4894 -0.4245
  984TIP3    H1 2958   1.332   0.518   0.112  0.1306 -1.4309 -2.7564
  984TIP3    H2 2959   1.323   0.367   0.114  0.6128 -1.6035  2.9811
  985TIP3   OH2 2960   3.539   3.670   1.837  0.2577  0.0021 -0.2723
  985TIP3    H1 2961   3.575   3.732   1.900  0.8249 -0.5552 -0.0238
  985TIP3    H2 2962   3.465   3.630   1.882 -0.2926  0.7138 -0.5485
  986TIP3   OH2 2963   5.364   4.421   4.017  1.0449 -0.2507 -0.4501
  986TIP3    H1 2964   5.345   4.458   3.931 -0.9888  0.3321  0.1771
  986TIP3    H2 2965   5.312   4.341   4.021 -1.0573  1.0731  1.1269
  987TIP3   OH2 2966   2.523   5.036   3.187 -0.1276 -0.1678  0.1131
  987TIP3    H1 2967   2.481   4.956   3.155  0.8891 -0.8655  0.4667
  987TIP3    H2 2968   2.451   5.091   3.216 -0.7865 -1.8202  1.8561
  988TIP3   OH2 2969   3.349   1.740   2.032  0.1456 -0.0574  0.5930
  988TIP3    H1 2970   3.341   1.649   2.058  2.8048 -0.0907  1.5569
  988TIP3    H2 2971   3.365   1.788   2.113 -1.1760  1.3199  0.1095
  989TIP3   OH2 2972   1.341   5.679   2.585  0.2543  0.3452  0.0223
  989TIP3    H1 2973   1.322   5.596   2.543  2.7121 -0.8547  1.1062
  989TIP3    H2 2974   1.271   5.738   2.555 -0.4377 -1.5344 -2.3188
  990TIP3   OH2 2975   1.361   5.979   4.599  0.0715 -0.5302  0.4882
  990TIP3    H1 2976   1.323   6.022   4.522  1.3459  0.1890  0.2345
  990TIP3    H2 2977   1.353   5.885   4.580 -0.2811 -0.3718 -0.1890
  991TIP3   OH2 2978   4.872   1.478   4.117 -0.0904  0.2815 -0.0707
  991TIP3    H1 2979   4.854   1.522   4.200  1.4867  1.2020 -0.1944
  991TIP3    H2 2980   4.839   1.389   4.130  1.0187  0.1090  1.9133
  992TIP3   OH2 2981   1.181   3.871   3.510 -0.4329  0.6714  0.3117
  992TIP3    H1 2982   1.164   3.965   3.511  1.1726  1.0360  2.7952
  992TIP3    H2 2983   1.177   3.845   3.602  0.1420 -1.5000 -0.2167
  993TIP3   OH2 2984   3.259   2.079   0.366  0.0842 -0.3192  0.6451
  993TIP3    H1 2985   3.307   2.124   0.296 -0.5703  0.2059  0.5159
  993TIP3    H2 2986   3.263   2.140   0.440 -0.8986  0.0223  0.4350
  994TIP3   OH2 2987   1.062   2.115   4.712 -0.3962  0.2845  0.3994
  994TIP3    H1 2988   1.049   2.197   4.666 -1.5859  0.3685  0.8277
  994TIP3    H2 2989   1.026   2.131   4.799 -0.7401 -0.7154  0.4538
  995TIP3   OH2 2990   6.150   4.159   1.089 -0.1453 -0.1350 -0.1377
  995TIP3    H1 2991   6.204   4.115   1.022 -0.5728 -0.0415 -0.5507
  995TIP3    H2 2992   6.165   4.108   1.169 -2.8686 -2.9221 -1.1996
  996TIP3   OH2 2993   1.925   2.212   2.682 -0.2046  0.3329 -0.0647
  996TIP3    H1 2994   1.959   2.143   2.739 -0.5936  0.4810  0.3517
  996TIP3    H2 2995   1.906   2.167   2.599  0.9013  0.2318 -0.2754
  997TIP3   OH2 2996   0.523   1.505   1.170  0.0587 -0.8215 -0.1504
  997TIP3    H1 2997   0.562   1.552   1.243 -1.3455  0.7769 -0.3617
  997TIP3    H2 2998   0.564   1.543   1.092  1.4709 -2.4420 -0.2470
  998TIP3   OH2 2999   2.585   2.828   3.520  0.5178 -0.5633 -0.0762
  998TIP3    H1 3000   2.532   2.907   3.517 -1.5284 -1.8396  0.0849
  998TIP3    H2 3001   2.654   2.842   3.455  0.5838  1.5550  0.3859
  999TIP3   OH2 3002   2.340   0.452   2.381  0.2520 -0.6143  0.2561
  999TIP3    H1 3003   2.398   0.407   2.443  1.0517  0.1467  0.0658
  999TIP3    H2 3004   2.345   0.544   2.406  0.6487 -0.2869 -0.9942
 1000TIP3   OH2 3005   1.604   1.802   3.023  0.5551  0.5794 -0.1331
 1000TIP3    H1 3006   1.536   1.736   3.039  0.1987  0.8768 -0.4054
 1000TIP3    H2 3007   1.566   1.884   3.053  0.7045  0.7850 -0.4955
 1001TIP3   OH2 3008   3.523   3.210   0.253 -0.5913  0.1284 -0.7210
 1001TIP3    H1 3009   3.616   3.206   0.276 -0.5331 -1.2997 -1.1089
 1001TIP3    H2 3010   3.483   3.261   0.323  0.6538  1.7791 -1.1551
 1002TIP3   OH2 3011   3.985   0.023   2.748 -0.5388  0.1252 -0.6548
 1002TIP3    H1 3012   4.011  -0.063   2.716 -0.7852 -0.3854  0.4690
 1002TIP3    H2 3013   4.064   0.077   2.741 -0.0941 -0.4824 -0.3870
 1003TIP3   OH2 3014   5.685   3.105   0.952 -0.2385 -0.3671 -0.2256
 1003TIP3    H1 3015   5.615   3.047   0.982  1.2925 -1.9749  0.4139
 1003TIP3    H2 3016   5.676   3.183   1.007 -0.9404 -0.9298  0.4922
 1004TIP3   OH2 3017   0.972   2.556   1.611  0.6208 -0.5459  0.2523
 1004TIP3    H1 3018   0.930   2.519   1.534 -0.1557  0.3539  0.2316
 1004TIP3    H2 3019   1.041   2.494   1.633  1.8852 -0.0684 -2.0945
 1005TIP3   OH2 3020   4.447   5.738   2.686  0.7700 -0.5878  0.1125
 1005TIP3    H1 3021   4.459   5.675   2.758  0.8005 -0.4224  0.2538
 1005TIP3    H2 3022   4.487   5.819   2.718  0.9836 -0.5758 -0.1834
 1006TIP3   OH2 3023   1.956   4.928   2.524 -0.7865 -0.1458  0.2765
 1006TIP3    H1 3024   1.890   4.910   2.457  0.1557  1.7596 -1.3127
 1006TIP3    H2 3025   1.910   4.977   2.592 -1.4967 -0.9794  0.4034
 1007TIP3   OH2 3026   5.213   4.298   3.383 -0.1598  0.2078  0.6001
 1007TIP3    H1 3027   5.139   4.297   3.444 -0.7081 -0.7066 -0.0530
 1007TIP3    H2 3028   5.189   4.364   3.318  1.8915  3.6627  3.0294
 1008TIP3   OH2 3029   2.250   4.306   4.270  0.4709 -0.1530 -0.5709
 1008TIP3    H1 3030   2.221   4.304   4.179  0.8576  1.3846 -0.7558
 1008TIP3    H2 3031   2.192   4.245   4.315  0.7902 -1.5369 -1.9765
 1009TIP3   OH2 3032   3.884   2.983   2.610 -0.2091 -0.3849 -0.2002
 1009TIP3    H1 3033   3.849   3.055   2.663  0.1266  1.5982 -2.5381
 1009TIP3    H2 3034   3.979   2.991   2.618 -0.1680 -0.6609 -0.4010
 1010TIP3   OH2 3035   2.241   1.628   2.016  0.1569  0.8952 -0.2925
 1010TIP3    H1 3036   2.213   1.679   2.093  0.3765  0.1494  0.2909
 1010TIP3    H2 3037   2.187   1.549   2.020 -1.0590  1.5941 -1.8765
 1011TIP3   OH2 3038   5.484   0.177   3.047 -0.7302  0.0324 -0.1573
 1011TIP3    H1 3039   5.561   0.144   3.092 -0.8520 -0.2348 -0.1464
 1011TIP3    H2 3040   5.420   0.191   3.116 -0.7600  0.0672 -0.1913
 1012TIP3   OH2 3041   5.695   3.692   4.162  0.2986 -0.1322 -0.2913
 1012TIP3    H1 3042   5.708   3.725   4.073  1.2891  0.7848  0.1710
 1012TIP3    H2 3043   5.659   3.767   4.210 -1.4266 -0.9857 -0.1894
 1013TIP3   OH2 3044   6.041   4.929   1.821  0.2326 -0.5389  0.1465
 1013TIP3    H1 3045   6.068   5.021   1.815  2.1406 -1.0412  0.4560
 1013TIP3    H2 3046   6.021   4.904   1.730  0.9526 -0.1686 -0.1201
 1014TIP3   OH2 3047   3.167   4.415   4.169  0.1940 -0.6990  0.4047
 1014TIP3    H1 3048   3.092   4.459   4.127  0.0439  0.7667  2.0727
 1014TIP3    H2 3049   3.174   4.331   4.124 -2.5815 -0.9766  0.3000
 1015TIP3   OH2 3050   4.510   4.465   4.981  0.3558  0.2709  0.4456
 1015TIP3    H1 3051   4.487   4.551   5.016 -2.0064  0.0929 -0.5439
 1015TIP3    H2 3052   4.459   4.403   5.033 -0.6119 -0.2507 -1.0831
 1016TIP3   OH2 3053   6.052   3.579   1.498 -0.1424 -0.3703 -0.6801
 1016TIP3    H1 3054   6.050   3.521   1.422 -0.0286 -1.7082  0.2892
 1016TIP3    H2 3055   6.108   3.533   1.561  0.9667  1.3935 -0.3046
 1017TIP3   OH2 3056   3.674   5.275   1.210  0.1148 -0.3242 -0.7340
 1017TIP3    H1 3057   3.585   5.255   1.239  0.3710 -1.6936 -0.8111
 1017TIP3    H2 3058   3.679   5.239   1.121  0.8711 -0.6287 -0.5758
 1018TIP3   OH2 3059   0.301   2.528   2.392  0.4051  0.4263  0.3694
 1018TIP3    H1 3060   0.285   2.603   2.449 -1.4079  0.3823 -0.0238
 1018TIP3    H2 3061   0.327   2.457   2.452  0.0628  0.7967  0.9557
 1019TIP3   OH2 3062   5.466   0.707   0.013 -0.0246  0.1755 -0.0772
 1019TIP3    H1 3063   5.415   0.788   0.013 -0.2692  0.0259  0.1324
 1019TIP3    H2 3064   5.513   0.708   0.096 -0.3584 -0.0975  0.1186
 1020TIP3   OH2 3065   4.490   4.017   2.100 -0.1968  0.2980 -0.0266
 1020TIP3    H1 3066   4.423   3.950   2.085  1.4744 -1.2340 -1.0003
 1020TIP3    H2 3067   4.494   4.066   2.019 -0.2798  0.5011  0.0931
 1021TIP3   OH2 3068   4.570   3.024   1.209  0.2876 -0.1513  0.3168
 1021TIP3    H1 3069   4.508   3.066   1.269  0.0528  1.1195 -0.7588
 1021TIP3    H2 3070   4.642   3.087   1.201 -0.0710  0.0907 -1.3375
 1022TIP3   OH2 3071   5.833   3.898   3.205  0.1157  0.7828  0.5970
 1022TIP3    H1 3072   5.761   3.835   3.208  0.7077  0.0045 -0.7108
 1022TIP3    H2 3073   5.794   3.981   3.232 -0.5291 -0.2456  3.1162
 1023TIP3   OH2 3074   6.335   3.611   4.180 -0.0538  0.2347 -0.4498
 1023TIP3    H1 3075   6.308   3.698   4.149 -0.3870  0.2974  0.0105
 1023TIP3    H2 3076   6.263   3.554   4.156 -0.2933  0.2745  0.1609
 1024TIP3   OH2 3077   0.668   1.151   4.993  0.5722 -0.3569  0.0777
 1024TIP3    H1 3078   0.623   1.219   5.042  1.4557  0.0166  0.3845
 1024TIP3    H2 3079   0.601   1.084   4.979  0.3061 -0.5235  1.8690
 1025TIP3   OH2 3080   2.827   0.103   3.590  0.2485  0.0241  0.2857
 1025TIP3    H1 3081   2.877   0.184   3.593 -0.2416  0.3258  0.4374
 1025TIP3    H2 3082   2.885   0.037   3.627  1.0067  0.1152 -0.7325
 1026TIP3   OH2 3083   5.783   5.240   0.556 -0.1093 -0.0685  0.4273
 1026TIP3    H1 3084   5.749   5.159   0.594  2.5581 -1.0412  0.9416
 1026TIP3    H2 3085   5.731   5.252   0.476 -1.3935 -1.5837  0.9715
 1027TIP3   OH2 3086   2.712   0.954   0.765  0.3914 -0.1774  0.4036
 1027TIP3    H1 3087   2.757   0.996   0.691  0.9696 -0.9687  0.2967
 1027TIP3    H2 3088   2.644   1.017   0.790  1.2569  0.8325  0.2658
 1028TIP3   OH2 3089   5.858   0.746   0.592  0.1987 -0.2395 -0.6570
 1028TIP3    H1 3090   5.790   0.681   0.574 -1.4965  1.4920 -0.8158
 1028TIP3    H2 3091   5.883   0.730   0.682  0.8704 -2.0145 -1.1233
 1029TIP3   OH2 3092   2.048   3.814   3.232  0.1918 -0.2897 -0.2140
 1029TIP3    H1 3093   2.073   3.751   3.299  0.0963 -1.3272 -1.1329
 1029TIP3    H2 3094   2.122   3.818   3.172  0.0010  0.1109 -0.4326
 1030TIP3   OH2 3095   3.278   3.631   0.980 -0.2975  0.3002 -0.4649
 1030TIP3    H1 3096   3.351   3.605   1.036 -0.1090  0.3791 -0.6774
 1030TIP3    H2 3097   3.275   3.565   0.911 -0.3935  0.3273 -0.4870
 1031TIP3   OH2 3098   5.724   2.442   1.824  0.2893  0.3300 -0.1006
 1031TIP3    H1 3099   5.760   2.356   1.804 -1.8934 -0.1486 -2.5427
 1031TIP3    H2 3100   5.721   2.487   1.740 -1.2609  1.6943  0.6135
 1032TIP3   OH2 3101   3.605   0.612   2.044 -0.2844  0.3546  0.1611
 1032TIP3    H1 3102   3.560   0.539   2.086  0.1928 -0.9551 -1.5334
 1032TIP3    H2 3103   3.637   0.665   2.118 -0.1937 -1.4007  1.4547
 1033TIP3   OH2 3104   2.866   0.001   2.234 -0.7436  0.8459 -0.2890
 1033TIP3    H1 3105   2.825   0.076   2.193 -0.7539  0.8795 -0.2176
 1033TIP3    H2 3106   2.802  -0.070   2.224 -0.3591  0.6091 -1.1586
 1034TIP3   OH2 3107   5.838   3.013   3.511  0.2063  0.0445  0.6979
 1034TIP3    H1 3108   5.870   3.021   3.601  1.0730  1.4305  0.3046
 1034TIP3    H2 3109   5.745   3.031   3.517  0.4490  1.2554  1.2092
 1035TIP3   OH2 3110   2.057   1.613   1.429  0.2329  0.3768 -0.5598
 1035TIP3    H1 3111   2.131   1.656   1.386  1.6988 -1.4846 -0.0199
 1035TIP3    H2 3112   2.090   1.589   1.515 -0.6250 -1.4493 -0.7043
 1036TIP3   OH2 3113   3.977   1.787   2.943 -0.0239  0.2382  0.1270
 1036TIP3    H1 3114   4.038   1.739   2.887 -2.0065 -0.3863 -1.6659
 1036TIP3    H2 3115   3.891   1.749   2.922 -1.3965  2.9982  0.3453
 1037TIP3   OH2 3116   4.549   5.611   4.752  0.0631  0.2191  0.0133
 1037TIP3    H1 3117   4.642   5.589   4.766 -0.4345 -1.4158  1.1285
 1037TIP3    H2 3118   4.534   5.596   4.659  0.9516  0.6956 -0.2173
 1038TIP3   OH2 3119   3.271   2.634   0.748  0.0587  0.2328 -0.2181
 1038TIP3    H1 3120   3.254   2.568   0.680 -2.1115 -2.5764  2.6998
 1038TIP3    H2 3121   3.345   2.598   0.798  0.0723  0.9944  0.3219
 1039TIP3   OH2 3122   5.374   2.001   2.641 -0.3708  0.5214 -0.4039
 1039TIP3    H1 3123   5.434   2.026   2.711  0.0578 -0.5060 -0.3904
 1039TIP3    H2 3124   5.421   1.934   2.591 -0.6661  1.2195 -1.6886
 1040TIP3   OH2 3125   1.877   0.052   0.085  0.5527  0.1212  0.2486
 1040TIP3    H1 3126   1.811   0.006   0.137  1.6989 -0.5522  1.1374
 1040TIP3    H2 3127   1.879   0.140   0.123  2.4555 -0.7753  2.4734
 1041TIP3   OH2 3128   5.929   3.246   4.479  0.3940 -0.2074  0.0931
 1041TIP3    H1 3129   5.973   3.323   4.516 -1.6596  0.8000  0.5302
 1041TIP3    H2 3130   5.939   3.256   4.384  0.6635  0.2632  0.1679
 1042TIP3   OH2 3131   5.182   4.326   4.331 -0.2599  0.0672 -0.0007
 1042TIP3    H1 3132   5.123   4.362   4.264 -0.2564  0.1653  0.0485
 1042TIP3    H2 3133   5.245   4.395   4.347 -1.1659  0.6484  1.2127
 1043TIP3   OH2 3134   1.153   0.264   4.685  0.5497  0.4313  0.0979
 1043TIP3    H1 3135   1.204   0.196   4.729 -0.3058 -0.1794  0.1679
 1043TIP3    H2 3136   1.093   0.216   4.628  0.0316  1.1320  0.0320
 1044TIP3   OH2 3137   5.561   3.910   2.156 -0.3384  0.3525  0.4640
 1044TIP3    H1 3138   5.568   3.964   2.235 -2.4719 -0.2197  1.1045
 1044TIP3    H2 3139   5.569   3.820   2.188  0.6652  0.1653 -0.2624
 1045TIP3   OH2 3140   2.195   3.108   0.270 -0.4175  0.5203 -0.1109
 1045TIP3    H1 3141   2.170   3.136   0.182  0.7197  0.0165 -0.6280
 1045TIP3    H2 3142   2.264   3.043   0.255 -0.6130 -0.0012  1.1412
 1046TIP3   OH2 3143   2.716   2.023   4.780  0.3517  0.1338 -0.1281
 1046TIP3    H1 3144   2.735   1.947   4.835  0.3026  0.3156  0.1402
 1046TIP3    H2 3145   2.623   2.040   4.794 -0.0012 -0.6757 -1.3354
 1047TIP3   OH2 3146   3.137   3.429   0.496  0.3740 -0.0737 -0.1143
 1047TIP3    H1 3147   3.065   3.440   0.434  1.9308  0.2394 -1.9732
 1047TIP3    H2 3148   3.096   3.392   0.574 -1.6793 -0.4894 -1.3069
 1048TIP3   OH2 3149   1.667   5.651   1.085 -0.2343 -0.0976  0.5370
 1048TIP3    H1 3150   1.674   5.692   0.999 -0.2953  0.5355  0.8280
 1048TIP3    H2 3151   1.668   5.724   1.147 -1.3631 -0.4628  1.0199
 1049TIP3   OH2 3152   0.743   0.441   0.649 -0.4653 -0.1645  0.0765
 1049TIP3    H1 3153   0.753   0.424   0.742  1.4744  1.4898  0.2132
 1049TIP3    H2 3154   0.795   0.372   0.607 -2.6558 -1.9388  0.0494
 1050TIP3   OH2 3155   2.731   0.240   1.381  0.4813 -0.2763 -0.4370
 1050TIP3    H1 3156   2.656   0.199   1.336  0.2067 -1.3556  0.9216
 1050TIP3    H2 3157   2.806   0.219   1.325  0.0099 -0.6549 -0.9448
 1051TIP3   OH2 3158   1.465   0.246   4.401  0.6534  0.1254 -0.2322
 1051TIP3    H1 3159   1.401   0.302   4.357 -0.0426 -0.1397  0.4282
 1051TIP3    H2 3160   1.527   0.308   4.441  1.2153  0.3689 -1.4535
 1052TIP3   OH2 3161   2.038   5.720   0.265  0.4125  0.3197 -0.3574
 1052TIP3    H1 3162   2.130   5.742   0.253  0.6395 -0.7667 -0.6100
 1052TIP3    H2 3163   2.031   5.628   0.242 -0.6502  0.2651  0.1243
 1053TIP3   OH2 3164   5.125   2.420   4.058  0.2369 -0.4595 -0.0276
 1053TIP3    H1 3165   5.106   2.476   3.983 -2.1590 -1.7440 -0.4733
 1053TIP3    H2 3166   5.197   2.364   4.029 -0.4344 -0.7106 -1.2438
 1054TIP3   OH2 3167   2.457   1.858   3.856  0.2809  0.1977 -0.1242
 1054TIP3    H1 3168   2.410   1.776   3.870 -0.9539  0.8589 -0.1995
 1054TIP3    H2 3169   2.389   1.920   3.828  0.7937  1.7663  1.8372
 1055TIP3   OH2 3170   0.639   3.177   5.104 -0.3132 -0.3413  0.1978
 1055TIP3    H1 3171   0.622   3.196   5.197  1.2980 -2.6745  1.0765
 1055TIP3    H2 3172   0.559   3.134   5.074 -1.4687  1.8294 -0.0125
 1056TIP3   OH2 3173   1.829   3.350   3.672  0.2984 -0.8183  0.1254
 1056TIP3    H1 3174   1.821   3.417   3.604 -0.2910 -1.0322 -0.0215
 1056TIP3    H2 3175   1.923   3.345   3.689  0.3309  0.3081  0.4012
 1057TIP3   OH2 3176   6.335   5.719   4.495 -0.2582  0.3791 -0.2447
 1057TIP3    H1 3177   6.351   5.813   4.490 -0.0796  0.3594 -0.0716
 1057TIP3    H2 3178   6.323   5.692   4.404 -1.9000  0.8334 -0.1997
 1058TIP3   OH2 3179   2.825   2.863   1.658 -0.0013  1.0196  0.2671
 1058TIP3    H1 3180   2.793   2.798   1.720  0.4743  1.3951  0.9144
 1058TIP3    H2 3181   2.915   2.881   1.685  1.1630 -0.7285 -2.1216
 1059TIP3   OH2 3182   1.481   1.773   2.699  0.5019 -0.0836  0.7855
 1059TIP3    H1 3183   1.435   1.771   2.615  1.4238 -0.9951  0.2777
 1059TIP3    H2 3184   1.509   1.682   2.713 -1.7395 -0.5422  3.3054
 1060TIP3   OH2 3185   1.093   3.913   1.774 -0.1762 -0.2982  0.3867
 1060TIP3    H1 3186   1.141   3.990   1.746 -0.9169  0.0776  0.1186
 1060TIP3    H2 3187   1.061   3.935   1.862 -0.2317 -0.3680  0.3844
 1061TIP3   OH2 3188   0.478   5.202   4.865 -0.0103  0.1513 -0.2352
 1061TIP3    H1 3189   0.410   5.268   4.882  0.0602  0.6413 -1.6817
 1061TIP3    H2 3190   0.473   5.186   4.771  0.3442 -1.5400  0.0034
 1062TIP3   OH2 3191   0.823   2.797   1.095 -0.1109 -0.2013 -0.3474
 1062TIP3    H1 3192   0.838   2.880   1.140  0.8506  0.4458 -1.7851
 1062TIP3    H2 3193   0.880   2.735   1.141 -1.6813 -0.3732  1.4625
 1063TIP3   OH2 3194   0.619   3.893   2.854 -0.0947 -0.0903 -0.0054
 1063TIP3    H1 3195   0.591   3.944   2.930 -1.4316 -0.4490 -0.2282
 1063TIP3    H2 3196   0.599   3.949   2.779 -0.7876 -0.5967 -0.2046
 1064TIP3   OH2 3197   1.241   5.631   0.670 -0.2389 -0.1169 -0.5071
 1064TIP3    H1 3198   1.257   5.623   0.576  1.0102 -1.0321 -0.2437
 1064TIP3    H2 3199   1.158   5.678   0.676 -0.4316 -0.1948 -2.0654
 1065TIP3   OH2 3200   1.703   5.095   3.865 -0.0643  0.0443 -0.0563
 1065TIP3    H1 3201   1.662   5.009   3.858 -0.4751  0.2595 -0.2709
 1065TIP3    H2 3202   1.730   5.116   3.776 -1.8876  1.0874 -0.3975
 1066TIP3   OH2 3203   1.216   4.585   3.921  0.2396  0.0201 -0.8029
 1066TIP3    H1 3204   1.221   4.496   3.884  0.4583 -0.2425 -0.1604
 1066TIP3    H2 3205   1.201   4.641   3.846  2.5427 -0.3025 -1.5822
 1067TIP3   OH2 3206   0.199   3.233   3.402 -0.6283  0.6556  0.0458
 1067TIP3    H1 3207   0.147   3.209   3.325 -0.2490 -0.5037  0.1337
 1067TIP3    H2 3208   0.133   3.257   3.468 -1.1211 -1.2284  0.3017
 1068TIP3   OH2 3209   1.197   4.466   2.741 -0.1278  0.0992  0.2871
 1068TIP3    H1 3210   1.205   4.390   2.682  0.7466  1.5798 -1.6232
 1068TIP3    H2 3211   1.105   4.494   2.731 -0.6253 -1.0180  1.4703
 1069TIP3   OH2 3212   1.668   3.971   4.681  0.1105  0.3684  0.2538
 1069TIP3    H1 3213   1.593   3.957   4.624  0.7411 -0.1792 -0.4749
 1069TIP3    H2 3214   1.675   3.890   4.732  0.1887  0.4317  0.3461
 1070TIP3   OH2 3215   1.092   2.769   2.521  0.7573 -0.4371  0.4932
 1070TIP3    H1 3216   1.014   2.810   2.558  1.3468  1.2638 -0.0473
 1070TIP3    H2 3217   1.062   2.731   2.439  0.3619 -0.3768  0.6073
 1071TIP3   OH2 3218   4.149   3.600   4.958  0.2606 -0.3922 -0.4037
 1071TIP3    H1 3219   4.160   3.617   4.864 -0.5323 -1.3799 -0.6877
 1071TIP3    H2 3220   4.147   3.505   4.965 -0.3129 -0.3196  0.5463
 1072TIP3   OH2 3221   4.216   5.118   2.840  0.3546 -0.2068 -0.3294
 1072TIP3    H1 3222   4.259   5.067   2.908 -0.2325 -0.4771 -0.1579
 1072TIP3    H2 3223   4.145   5.163   2.885  0.2115 -0.0745 -0.6854
 1073TIP3   OH2 3224   2.241   1.286   1.436 -0.0070  0.3399  0.6028
 1073TIP3    H1 3225   2.161   1.262   1.482  0.2652 -0.3238  0.7371
 1073TIP3    H2 3226   2.262   1.373   1.469 -0.8621  0.6735  0.3100
 1074TIP3   OH2 3227   3.928   2.744   0.058 -0.3452 -0.2195 -0.2680
 1074TIP3    H1 3228   3.936   2.653   0.032  0.9291 -0.3194  0.3868
 1074TIP3    H2 3229   3.899   2.741   0.149 -2.8372  0.1006 -0.9705
 1075TIP3   OH2 3230   4.424   3.654   5.175  0.5072  0.3973  0.1470
 1075TIP3    H1 3231   4.359   3.724   5.164 -0.9964 -0.9828 -0.2122
 1075TIP3    H2 3232   4.492   3.674   5.110  0.6391  2.0662  0.7553
 1076TIP3   OH2 3233   2.319   5.466   0.426  0.2127 -0.2967  0.0350
 1076TIP3    H1 3234   2.370   5.542   0.399  0.8910 -0.2918  1.2797
 1076TIP3    H2 3235   2.270   5.441   0.347  1.2875  0.3770 -0.8701
 1077TIP3   OH2 3236   5.020   1.263   3.565 -0.2873 -0.2495 -0.0329
 1077TIP3    H1 3237   4.972   1.334   3.522 -2.0787 -0.0201  2.1511
 1077TIP3    H2 3238   5.083   1.307   3.622 -1.0213 -0.3983  0.9125
 1078TIP3   OH2 3239   2.269   2.041   4.567 -0.3280 -0.4457  0.5741
 1078TIP3    H1 3240   2.211   1.971   4.596 -0.5522 -1.4970 -2.1428
 1078TIP3    H2 3241   2.211   2.115   4.552 -0.9735 -1.2915 -1.4729
 1079TIP3   OH2 3242   1.421   5.857   0.188  0.8864  0.0602 -0.5436
 1079TIP3    H1 3243   1.378   5.772   0.183  0.9575 -0.0981  0.9984
 1079TIP3    H2 3244   1.485   5.847   0.258  1.3856  1.1861 -0.8121
 1080TIP3   OH2 3245   5.161   2.591   2.077 -0.0390  0.0092 -0.3919
 1080TIP3    H1 3246   5.161   2.505   2.035  0.3149 -1.0657  1.6585
 1080TIP3    H2 3247   5.252   2.620   2.073  0.0554 -0.2412 -0.0893
 1081TIP3   OH2 3248   4.194   2.283   2.425  0.0628  0.2727  0.3971
 1081TIP3    H1 3249   4.130   2.221   2.388 -0.6266  1.0741  0.2132
 1081TIP3    H2 3250   4.215   2.247   2.511 -0.4935 -0.1135  0.3805
 1082TIP3   OH2 3251   3.213   1.344   0.181 -0.4346  0.0441 -0.0203
 1082TIP3    H1 3252   3.207   1.416   0.119 -0.0974  0.9068  0.9309
 1082TIP3    H2 3253   3.122   1.321   0.200 -0.5538 -0.8892 -1.5490
 1083TIP3   OH2 3254   5.790   3.883   5.155  0.0177  0.0429 -0.0297
 1083TIP3    H1 3255   5.837   3.930   5.224  1.1696  0.0392 -0.7729
 1083TIP3    H2 3256   5.825   3.920   5.073  0.2558 -1.4361 -0.6274
 1084TIP3   OH2 3257   3.235   1.003   3.903  0.9523 -0.2959 -0.2833
 1084TIP3    H1 3258   3.230   0.992   3.998  2.6833 -1.9288 -0.3224
 1084TIP3    H2 3259   3.328   0.989   3.882  0.4321 -1.0705 -2.3308
 1085TIP3   OH2 3260   4.383   2.011   0.492 -0.2995 -0.1846  0.4826
 1085TIP3    H1 3261   4.474   2.017   0.463 -0.4465 -0.7756 -0.1245
 1085TIP3    H2 3262   4.371   1.918   0.513 -1.0427 -0.3130 -0.4242
 1086TIP3   OH2 3263   5.858   0.487   2.163  0.2792  0.5919  0.0383
 1086TIP3    H1 3264   5.813   0.407   2.134 -0.3118  0.9354 -0.0109
 1086TIP3    H2 3265   5.789   0.553   2.167  0.7283  1.0539  0.2726
 1087TIP3   OH2 3266   1.961   3.455   1.747 -0.1356 -0.2774  0.0144
 1087TIP3    H1 3267   1.984   3.536   1.792  3.1463 -0.3380 -1.2966
 1087TIP3    H2 3268   2.006   3.386   1.796  0.5303 -0.7540 -1.2226
 1088TIP3   OH2 3269   2.029   3.829   2.745 -0.5326 -0.1027  0.4193
 1088TIP3    H1 3270   1.984   3.908   2.773  0.1923  0.3651  0.2853
 1088TIP3    H2 3271   1.967   3.758   2.764 -2.9577  0.7666 -3.0987
 1089TIP3   OH2 3272   2.735   5.725   1.546 -0.1180  0.6792 -0.1569
 1089TIP3    H1 3273   2.648   5.758   1.521 -0.7733 -0.9357 -0.1123
 1089TIP3    H2 3274   2.784   5.804   1.570 -2.3209  1.4558  2.2190
 1090TIP3   OH2 3275   0.871   0.883   0.508  0.0506  0.0807  0.4413
 1090TIP3    H1 3276   0.820   0.963   0.522  0.4992  0.8060 -1.6860
 1090TIP3    H2 3277   0.891   0.883   0.414 -0.9643 -3.1515  0.0825
 1091TIP3   OH2 3278   5.859   5.596   2.204  0.5083  0.0973 -0.1297
 1091TIP3    H1 3279   5.776   5.590   2.252 -0.0711  1.1561 -0.9406
 1091TIP3    H2 3280   5.890   5.685   2.220  0.9852  0.0297 -0.6264
 1092TIP3   OH2 3281   1.355   4.322   2.346 -0.1919  0.5506  0.0073
 1092TIP3    H1 3282   1.311   4.403   2.369  0.0711  0.4001  1.0862
 1092TIP3    H2 3283   1.437   4.324   2.395 -0.5336 -0.7157  0.6586
 1093TIP3   OH2 3284   3.919   0.478   2.511  0.4523  0.1904 -0.1502
 1093TIP3    H1 3285   3.930   0.573   2.523  2.2517 -0.1360  1.3313
 1093TIP3    H2 3286   3.835   0.469   2.467 -0.7234  2.3969  1.4045
 1094TIP3   OH2 3287   5.560   1.097   2.715 -0.3148 -0.3441 -0.3628
 1094TIP3    H1 3288   5.572   1.003   2.729 -1.1017 -0.3206  0.6381
 1094TIP3    H2 3289   5.642   1.136   2.744 -0.2646 -0.6673 -0.0593
 1095TIP3   OH2 3290   3.803   2.138   1.767 -0.1190  0.1484 -0.2224
 1095TIP3    H1 3291   3.711   2.118   1.753 -0.0723 -0.4137  0.2244
 1095TIP3    H2 3292   3.817   2.222   1.723 -0.7237 -0.0019 -0.7100
 1096TIP3   OH2 3293   4.123   2.838   4.765  0.4360 -0.0015  0.2792
 1096TIP3    H1 3294   4.169   2.920   4.780  1.4437 -0.6495  0.8174
 1096TIP3    H2 3295   4.184   2.785   4.713 -0.3677 -0.2637 -0.4204
 1097TIP3   OH2 3296   5.813   5.761   3.649  0.0698  0.2033  0.1725
 1097TIP3    H1 3297   5.754   5.699   3.605 -0.1782  0.1413  0.5757
 1097TIP3    H2 3298   5.769   5.845   3.640 -0.6951 -0.0217  1.4886
 1098TIP3   OH2 3299   4.516   1.410   1.715 -0.1649  0.4506 -0.8850
 1098TIP3    H1 3300   4.567   1.347   1.664  1.3537 -0.1528  1.2580
 1098TIP3    H2 3301   4.433   1.366   1.732 -0.1893  0.1555 -1.7170
 1099TIP3   OH2 3302   2.531   4.019   2.461 -0.0187 -0.3721 -0.2155
 1099TIP3    H1 3303   2.455   3.961   2.454  0.0338 -0.3431 -1.1727
 1099TIP3    H2 3304   2.600   3.963   2.499 -0.0786 -0.8473 -0.7792
 1100TIP3   OH2 3305   3.120   5.160   4.603 -0.0299 -0.3155  0.2980
 1100TIP3    H1 3306   3.064   5.083   4.595 -0.5486  0.1878 -1.3358
 1100TIP3    H2 3307   3.148   5.178   4.513 -0.3833  1.7213  0.5477
 1101TIP3   OH2 3308   2.964   4.384   3.535 -0.3476  0.3841  0.4681
 1101TIP3    H1 3309   2.933   4.294   3.539 -0.1205  0.3202  0.8109
 1101TIP3    H2 3310   2.927   4.419   3.454  0.0194 -0.1831  0.0503
 1102TIP3   OH2 3311   6.013   5.450   3.793  0.2779 -0.0165  0.1388
 1102TIP3    H1 3312   6.082   5.515   3.784 -1.0846  1.6480  1.3232
 1102TIP3    H2 3313   5.967   5.453   3.709  0.5765  0.0927 -0.0251
 1103TIP3   OH2 3314   2.881   3.390   1.803  0.7834 -0.3316 -0.0822
 1103TIP3    H1 3315   2.924   3.417   1.721  1.3738 -2.5938 -0.5904
 1103TIP3    H2 3316   2.828   3.314   1.778 -0.5266  0.0866  1.3084
 1104TIP3   OH2 3317   5.177   5.195   3.999 -0.0459  0.1730  0.2145
 1104TIP3    H1 3318   5.087   5.172   4.021  0.4245  0.2020  2.4836
 1104TIP3    H2 3319   5.196   5.271   4.054  1.2319  0.4400 -0.5496
 1105TIP3   OH2 3320   3.387   3.268   0.025 -0.2025 -0.0940 -0.2963
 1105TIP3    H1 3321   3.459   3.253   0.086 -0.3370 -0.7996 -0.3063
 1105TIP3    H2 3322   3.308   3.264   0.080 -0.2071  1.3436 -0.1693
 1106TIP3   OH2 3323   1.065   5.150   3.193 -0.2911 -0.0826  0.2903
 1106TIP3    H1 3324   1.148   5.197   3.199  0.3266 -1.0257 -0.4563
 1106TIP3    H2 3325   1.059   5.101   3.275  1.0467 -1.7792 -0.5508
 1107TIP3   OH2 3326   0.069   3.999   0.177  0.8605 -0.0133  0.1680
 1107TIP3    H1 3327   0.150   4.013   0.129  0.1106  2.0330 -0.5982
 1107TIP3    H2 3328   0.030   3.921   0.137  1.4460  0.2045 -0.8605
 1108TIP3   OH2 3329   3.431   2.313   0.257  0.3295 -0.1197  0.1787
 1108TIP3    H1 3330   3.477   2.329   0.339  0.4227  0.5895  0.0003
 1108TIP3    H2 3331   3.501   2.295   0.194  0.3837  0.9966 -0.1010
 1109TIP3   OH2 3332   3.410   1.251   1.293 -0.0419 -0.0666  0.2967
 1109TIP3    H1 3333   3.328   1.238   1.246 -0.2199 -2.9565  1.2097
 1109TIP3    H2 3334   3.386   1.249   1.386  0.6558  2.8057  0.6257
 1110TIP3   OH2 3335   3.327   4.355   4.383  0.3943  0.6456  0.0874
 1110TIP3    H1 3336   3.265   4.381   4.315 -1.2574  0.4565  1.4703
 1110TIP3    H2 3337   3.367   4.275   4.349  0.0075  0.8488 -0.8859
 1111TIP3   OH2 3338   0.442   2.176   2.390  0.4162 -0.4410  0.0137
 1111TIP3    H1 3339   0.488   2.165   2.306 -0.2844 -0.1680 -0.4164
 1111TIP3    H2 3340   0.367   2.116   2.383 -0.1899  0.3076  0.0396
 1112TIP3   OH2 3341   3.275   3.076   4.012 -0.3277  0.6156 -0.2569
 1112TIP3    H1 3342   3.287   3.160   3.967  0.0644  0.0860 -1.1661
 1112TIP3    H2 3343   3.290   3.097   4.105  4.0886  0.8330 -0.7786
 1113TIP3   OH2 3344   3.666   1.451   5.066  0.4989  0.6070  0.4805
 1113TIP3    H1 3345   3.625   1.413   5.144 -0.3034 -0.3227 -0.3634
 1113TIP3    H2 3346   3.752   1.481   5.096  0.4822 -0.3644  1.5669
 1114TIP3   OH2 3347   4.018   4.141   2.443 -0.3927 -0.2105  0.2667
 1114TIP3    H1 3348   4.084   4.098   2.389  0.0164 -0.0260  0.6131
 1114TIP3    H2 3349   4.048   4.128   2.533 -0.1304  0.9982  0.3714
 1115TIP3   OH2 3350   0.596   1.140   3.957 -0.2922 -0.1884  0.3322
 1115TIP3    H1 3351   0.638   1.225   3.974 -1.4087  0.3521  0.4578
 1115TIP3    H2 3352   0.669   1.080   3.941  0.4833  1.0356 -0.8935
 1116TIP3   OH2 3353   0.270   5.298   0.640  0.5019 -0.2995  0.0932
 1116TIP3    H1 3354   0.299   5.349   0.565  0.4820  0.8263  0.8386
 1116TIP3    H2 3355   0.186   5.335   0.665 -0.2420 -1.6650 -0.2486
 1117TIP3   OH2 3356   4.306   5.674   3.570 -0.3184 -0.3090  0.5646
 1117TIP3    H1 3357   4.238   5.729   3.531  0.8498 -0.7390 -2.4150
 1117TIP3    H2 3358   4.388   5.720   3.552  0.3265 -0.1403  3.4339
 1118TIP3   OH2 3359   0.052   0.380   4.160  0.1955 -0.3041  0.4498
 1118TIP3    H1 3360   0.081   0.433   4.234 -1.1813  2.9394 -1.1670
 1118TIP3    H2 3361  -0.037   0.353   4.183  0.2121 -0.3306  0.4835
 1119TIP3   OH2 3362   5.581   0.904   1.875  0.0092  0.0602  0.3848
 1119TIP3    H1 3363   5.495   0.888   1.838  0.5345  0.7774 -1.2201
 1119TIP3    H2 3364   5.629   0.823   1.861 -0.2917 -0.2277  0.9881
 1120TIP3   OH2 3365   2.474   0.999   4.567  0.0471 -0.1390 -0.1797
 1120TIP3    H1 3366   2.455   1.015   4.659 -0.6749  1.1970 -0.5310
 1120TIP3    H2 3367   2.391   0.968   4.530 -0.1668  1.0414 -0.7286
 1121TIP3   OH2 3368   5.589   1.114   4.654 -0.2301 -0.2391 -0.0943
 1121TIP3    H1 3369   5.644   1.073   4.587 -0.9651  0.6583 -1.2825
 1121TIP3    H2 3370   5.575   1.045   4.719  1.5274 -0.7615 -0.2175
 1122TIP3   OH2 3371   5.154   4.683   3.617  0.1379 -0.0604 -0.2136
 1122TIP3    H1 3372   5.206   4.733   3.681 -0.2559  1.0614 -0.7349
 1122TIP3    H2 3373   5.066   4.722   3.623  0.3077  0.7389 -2.0837
 1123TIP3   OH2 3374   5.668   3.953   4.254  0.2080  0.2122  0.2521
 1123TIP3    H1 3375   5.627   4.008   4.188  1.3359  1.5190  0.5860
 1123TIP3    H2 3376   5.762   3.968   4.242  0.5048 -0.9727  0.9375
 1124TIP3   OH2 3377   1.854   1.997   4.879 -0.2511 -0.1979 -0.4090
 1124TIP3    H1 3378   1.764   1.965   4.886 -0.0555 -0.3737  2.3192
 1124TIP3    H2 3379   1.908   1.927   4.917  0.9683  0.2723 -1.1994
 1125TIP3   OH2 3380   0.485   4.641   5.067 -0.1403 -0.5374 -0.3350
 1125TIP3    H1 3381   0.445   4.661   4.983 -1.0487 -1.8903 -0.2500
 1125TIP3    H2 3382   0.429   4.573   5.105  0.5413 -0.3124  1.1338
 1126TIP3   OH2 3383   0.833   2.745   0.413 -0.0422  0.0247 -0.3737
 1126TIP3    H1 3384   0.773   2.737   0.339  0.6875 -0.5419 -0.9089
 1126TIP3    H2 3385   0.789   2.808   0.472 -1.5769 -1.0491 -0.3152
 1127TIP3   OH2 3386   1.679   1.115   0.533 -0.1697 -0.3222  0.0632
 1127TIP3    H1 3387   1.772   1.135   0.541 -0.1505 -0.1664 -0.5254
 1127TIP3    H2 3388   1.647   1.114   0.624  0.3615 -0.1731  0.2550
 1128TIP3   OH2 3389   3.442   5.247   1.353  0.0494  0.1313  0.3082
 1128TIP3    H1 3390   3.383   5.174   1.336  1.7948 -1.7417  1.7542
 1128TIP3    H2 3391   3.456   5.244   1.448  1.7973  1.0380  0.1067
 1129TIP3   OH2 3392   3.818   2.189   2.056 -0.5274  0.0774 -0.3067
 1129TIP3    H1 3393   3.835   2.170   1.964 -0.3161 -4.2035  0.4394
 1129TIP3    H2 3394   3.843   2.281   2.066  1.4762  0.1200 -4.0154
 1130TIP3   OH2 3395   4.506   3.920   0.823 -0.2826  0.1319  0.1735
 1130TIP3    H1 3396   4.411   3.910   0.828 -0.3441 -1.4026 -2.2728
 1130TIP3    H2 3397   4.536   3.903   0.912 -2.2504  0.0678  0.8757
 1131TIP3   OH2 3398   0.329   4.868   3.854  0.1457 -0.4053 -0.3556
 1131TIP3    H1 3399   0.421   4.855   3.836 -0.0999 -0.6025 -1.5128
 1131TIP3    H2 3400   0.304   4.793   3.908  0.1448 -1.6109 -1.9468
 1132TIP3   OH2 3401   1.943   0.920   3.145 -0.2555  0.0488 -0.4653
 1132TIP3    H1 3402   1.991   0.843   3.175  1.2079  1.2052  0.2718
 1132TIP3    H2 3403   1.884   0.942   3.218  1.1724  1.0975  0.4319
 1133TIP3   OH2 3404   3.062   0.485   1.067 -0.2504 -0.1201  0.6851
 1133TIP3    H1 3405   3.042   0.473   0.974  0.6034 -2.3237  0.7295
 1133TIP3    H2 3406   3.146   0.531   1.068  0.2931 -1.0882  0.3395
 1134TIP3   OH2 3407   5.162   2.092   3.349 -0.2453 -0.1123  0.1868
 1134TIP3    H1 3408   5.102   2.103   3.275  0.4367  1.4490 -0.1640
 1134TIP3    H2 3409   5.247   2.077   3.310 -0.0571 -0.3336  0.6703
 1135TIP3   OH2 3410   4.663   0.952   4.068 -0.0505  1.0203  0.3741
 1135TIP3    H1 3411   4.606   0.990   4.135 -0.3020 -0.2349  0.8875
 1135TIP3    H2 3412   4.733   1.017   4.057  0.1226  1.1619  2.0230
 1136TIP3   OH2 3413   1.155   0.955   0.385  0.0385  0.0251  0.0621
 1136TIP3    H1 3414   1.223   0.936   0.451 -0.5058 -1.6763  0.1937
 1136TIP3    H2 3415   1.103   1.025   0.424  0.4420 -0.1311  0.9262
 1137TIP3   OH2 3416   3.969   4.312   4.526 -0.0616  0.2854  0.2555
 1137TIP3    H1 3417   4.027   4.268   4.589 -1.7611 -0.8256  1.1009
 1137TIP3    H2 3418   3.904   4.356   4.581 -0.0799  1.4747 -0.6889
 1138TIP3   OH2 3419   2.136   2.061   3.569 -0.0007  0.3532  0.1700
 1138TIP3    H1 3420   2.082   2.008   3.628  0.7332 -2.1525 -1.2706
 1138TIP3    H2 3421   2.084   2.140   3.554 -1.2604  0.0002  2.2431
 1139TIP3   OH2 3422   0.430   3.247   2.376  0.3345  0.1000  0.4316
 1139TIP3    H1 3423   0.435   3.337   2.346 -0.6764 -0.6739 -2.3798
 1139TIP3    H2 3424   0.519   3.214   2.372  0.4225  0.4221 -0.5810
 1140TIP3   OH2 3425   2.329   3.820   3.705  0.0510  0.1839  0.3326
 1140TIP3    H1 3426   2.365   3.881   3.640 -1.0649  0.1920 -0.3060
 1140TIP3    H2 3427   2.357   3.734   3.674 -0.2777  0.2051 -0.0269
 1141TIP3   OH2 3428   4.254   1.288   1.715 -0.1947  0.0833 -0.0343
 1141TIP3    H1 3429   4.275   1.252   1.629  0.3415 -1.5530  0.7275
 1141TIP3    H2 3430   4.218   1.213   1.763  0.3939  0.7186  1.4535
 1142TIP3   OH2 3431   1.203   2.749   4.382  0.3440  0.1549  0.0616
 1142TIP3    H1 3432   1.191   2.727   4.290  0.0454 -0.8961  0.3422
 1142TIP3    H2 3433   1.151   2.829   4.395 -0.3394 -0.1985 -0.4667
 1143TIP3   OH2 3434   5.696   4.098   4.570 -0.1776  0.0529  0.3136
 1143TIP3    H1 3435   5.676   4.191   4.574 -0.9564 -0.1092  0.3919
 1143TIP3    H2 3436   5.767   4.091   4.506 -0.3803  0.6574  0.0170
 1144TIP3   OH2 3437   4.743   0.564   0.356 -0.5065  0.0635  0.2682
 1144TIP3    H1 3438   4.825   0.613   0.364 -1.6342  1.8224  2.1734
 1144TIP3    H2 3439   4.676   0.631   0.340 -1.9984 -0.9210  1.9862
 1145TIP3   OH2 3440   4.678   0.381   0.122  0.0386  0.4181  0.2553
 1145TIP3    H1 3441   4.670   0.440   0.197  0.7687 -0.4767  1.0713
 1145TIP3    H2 3442   4.637   0.300   0.151  0.7393 -0.0917 -0.1261
 1146TIP3   OH2 3443   1.710   4.134   2.185  0.2563  0.2836 -0.1747
 1146TIP3    H1 3444   1.718   4.113   2.277 -0.7253 -1.6628 -0.4861
 1146TIP3    H2 3445   1.773   4.077   2.141 -0.5423 -0.1295 -0.8254
 1147TIP3   OH2 3446   6.130   0.224   0.410 -0.2246  0.6252  0.9113
 1147TIP3    H1 3447   6.193   0.171   0.361 -1.8687 -0.2793 -0.3642
 1147TIP3    H2 3448   6.183   0.288   0.457  1.4820  2.3215 -2.9256
 1148TIP3   OH2 3449   2.445   1.329   2.844 -0.5855 -0.2280  0.7800
 1148TIP3    H1 3450   2.386   1.353   2.916 -1.3898 -1.7657  0.7006
 1148TIP3    H2 3451   2.388   1.281   2.783  0.4538 -0.4812 -0.0068
 1149TIP3   OH2 3452   5.241   0.761   1.355  0.5136 -0.1573  0.0774
 1149TIP3    H1 3453   5.158   0.780   1.311  0.5640 -0.8269 -0.3138
 1149TIP3    H2 3454   5.274   0.847   1.383 -0.7798  0.0282  1.1017
 1150TIP3   OH2 3455   2.426   0.320   1.155 -0.3053 -0.3662  0.6746
 1150TIP3    H1 3456   2.377   0.401   1.173 -1.2086 -0.3610 -1.5842
 1150TIP3    H2 3457   2.376   0.252   1.199 -1.7471 -0.1950 -0.6238
 1151TIP3   OH2 3458   6.016   0.429   3.922 -0.2792  0.2159  0.3378
 1151TIP3    H1 3459   6.055   0.458   4.004  1.1308 -3.2035  1.0579
 1151TIP3    H2 3460   5.923   0.445   3.932  0.0315  1.0996  2.0479
 1152TIP3   OH2 3461   3.031   2.185   1.485 -0.0045  0.6895 -0.3155
 1152TIP3    H1 3462   3.051   2.278   1.493  0.0992  0.7380 -1.0492
 1152TIP3    H2 3463   3.088   2.142   1.548 -1.0617  1.2337  1.0666
 1153TIP3   OH2 3464   4.957   0.113   2.586  0.4229 -0.1421 -0.3337
 1153TIP3    H1 3465   4.939   0.105   2.492 -1.6092  1.0316 -0.1057
 1153TIP3    H2 3466   4.872   0.096   2.628  1.5673 -1.9639  1.4009
 1154TIP3   OH2 3467   2.174   0.011   3.976  0.2342 -0.5523  0.1210
 1154TIP3    H1 3468   2.176   0.095   3.929 -1.1390 -1.5361 -1.8285
 1154TIP3    H2 3469   2.265  -0.005   4.000  0.9106  0.3802 -1.6102
 1155TIP3   OH2 3470   0.661   3.980   5.113  0.0217 -0.0963  0.2861
 1155TIP3    H1 3471   0.714   3.949   5.040 -0.2797  0.3832 -0.1448
 1155TIP3    H2 3472   0.598   3.910   5.130  1.3917 -1.1019  1.4438
 1156TIP3   OH2 3473   5.570   3.037   1.332 -0.0434 -0.1009  0.4485
 1156TIP3    H1 3474   5.480   3.066   1.347 -0.3871  0.6634 -2.4738
 1156TIP3    H2 3475   5.563   2.970   1.264  1.5316 -0.8103  0.9266
 1157TIP3   OH2 3476   6.150   5.907   3.855 -0.3456  0.1975 -0.3961
 1157TIP3    H1 3477   6.238   5.931   3.886 -0.3186 -0.8226  0.3790
 1157TIP3    H2 3478   6.155   5.917   3.760  1.1260 -1.3607 -0.5422
 1158TIP3   OH2 3479   5.602   5.693   0.941  0.0604 -0.4380 -0.3449
 1158TIP3    H1 3480   5.675   5.631   0.949 -0.6070 -1.1964 -0.0120
 1158TIP3    H2 3481   5.550   5.679   1.020 -0.7216 -0.2519 -0.8140
 1159TIP3   OH2 3482   4.392   1.670   2.624  1.1873 -0.1645 -0.0087
 1159TIP3    H1 3483   4.385   1.755   2.581 -0.5202 -0.4344 -0.3438
 1159TIP3    H2 3484   4.467   1.627   2.582 -0.0258 -0.1733 -2.3167
 1160TIP3   OH2 3485   3.014   2.658   1.970 -0.1283 -0.5356  0.4554
 1160TIP3    H1 3486   2.944   2.594   1.982 -0.3880 -0.2070  0.7154
 1160TIP3    H2 3487   3.067   2.623   1.898  0.5917 -1.7847  1.5608
 1161TIP3   OH2 3488   6.230   2.044   0.778  0.0732  0.1006 -0.3122
 1161TIP3    H1 3489   6.324   2.036   0.765  0.4250 -0.2556  2.0241
 1161TIP3    H2 3490   6.199   1.954   0.785 -0.3121  0.2314 -0.3010
 1162TIP3   OH2 3491   6.158   4.302   3.806  0.0471 -0.3695 -0.6146
 1162TIP3    H1 3492   6.205   4.385   3.810  0.0787 -0.4262  0.5409
 1162TIP3    H2 3493   6.075   4.320   3.852  0.7062 -1.3720  1.0367
 1163TIP3   OH2 3494   4.072   2.827   2.208 -0.2645  0.2844 -0.1612
 1163TIP3    H1 3495   4.013   2.888   2.252 -0.8007  0.3523 -0.9570
 1163TIP3    H2 3496   4.159   2.850   2.241 -0.6741  0.0879  1.1444
 1164TIP3   OH2 3497   0.254   1.095   0.443 -0.3507 -0.3203 -0.1984
 1164TIP3    H1 3498   0.249   1.042   0.523 -1.8590  1.5478  1.0351
 1164TIP3    H2 3499   0.259   1.031   0.372  1.7792 -2.0588  1.3695
 1165TIP3   OH2 3500   2.979   0.585   2.212  0.0854 -0.0553  0.0378
 1165TIP3    H1 3501   2.934   0.607   2.131  1.5945 -0.6656 -1.0272
 1165TIP3    H2 3502   2.968   0.491   2.220  2.8021 -0.6315 -1.4214
 1166TIP3   OH2 3503   1.469   2.764   4.489  0.1313  0.1885 -0.6880
 1166TIP3    H1 3504   1.374   2.758   4.479 -0.3146 -0.6170  2.7052
 1166TIP3    H2 3505   1.490   2.696   4.554  3.1501 -0.0898 -1.8086
 1167TIP3   OH2 3506   3.915   4.695   4.556  0.7151  0.1298  0.4730
 1167TIP3    H1 3507   3.931   4.768   4.497 -0.8327  1.1610  1.2591
 1167TIP3    H2 3508   4.000   4.650   4.563  1.0225  0.1748 -2.2032
 1168TIP3   OH2 3509   6.054   5.835   3.490 -0.0529  0.2188 -0.1684
 1168TIP3    H1 3510   6.012   5.911   3.530 -0.0478  0.8503 -1.3196
 1168TIP3    H2 3511   6.018   5.760   3.537 -1.5638  0.8237 -0.3036
 1169TIP3   OH2 3512   0.457   1.490   3.872 -0.0242 -0.9302  0.2029
 1169TIP3    H1 3513   0.526   1.493   3.806 -1.1042  0.4937 -0.9162
 1169TIP3    H2 3514   0.399   1.562   3.849  0.3313  0.6285  3.5671
 1170TIP3   OH2 3515   3.808   3.737   2.897  0.2924 -0.0601  0.5591
 1170TIP3    H1 3516   3.772   3.778   2.975 -2.5091 -1.2821  0.0146
 1170TIP3    H2 3517   3.747   3.761   2.827  1.8949 -0.2469 -0.9818
 1171TIP3   OH2 3518   5.167   2.650   4.979 -0.5442 -0.1739 -0.1696
 1171TIP3    H1 3519   5.211   2.709   4.917 -0.7791 -0.1538 -0.3175
 1171TIP3    H2 3520   5.074   2.674   4.974 -0.4032  0.8513  1.2730
 1172TIP3   OH2 3521   3.005   3.087   3.636  0.4148  0.0392  0.0729
 1172TIP3    H1 3522   3.068   3.017   3.650  1.0991  0.3145 -1.4222
 1172TIP3    H2 3523   3.028   3.123   3.550 -1.1892  0.7709 -0.0851
 1173TIP3   OH2 3524   6.160   0.712   2.571  0.2141 -0.6351  0.6694
 1173TIP3    H1 3525   6.180   0.722   2.664 -0.4219  0.4086  0.7008
 1173TIP3    H2 3526   6.243   0.730   2.526  0.3004 -0.2522  0.9872
 1174TIP3   OH2 3527   0.398   2.364   2.591  0.2435  0.2574  0.1892
 1174TIP3    H1 3528   0.415   2.296   2.525 -0.6166  0.3389 -0.1234
 1174TIP3    H2 3529   0.483   2.376   2.635  1.2364  1.1819 -1.8309
 1175TIP3   OH2 3530   0.092   2.861   0.183  0.1301  0.2458 -0.5231
 1175TIP3    H1 3531   0.101   2.949   0.147  1.8704 -0.6720 -2.5149
 1175TIP3    H2 3532   0.011   2.828   0.144 -0.3719  0.8252  0.0015
 1176TIP3   OH2 3533   4.698   4.903   0.478  0.1821  0.0376 -0.9600
 1176TIP3    H1 3534   4.657   4.827   0.521 -0.7215  0.5887 -0.8251
 1176TIP3    H2 3535   4.673   4.894   0.386 -2.4697  1.6987 -0.5215
 1177TIP3   OH2 3536   3.463   1.508   1.530 -0.5975 -0.0326 -0.3332
 1177TIP3    H1 3537   3.383   1.508   1.584 -1.7337 -2.2200 -1.8357
 1177TIP3    H2 3538   3.480   1.415   1.514  0.4728  0.4819 -2.5838
 1178TIP3   OH2 3539   1.717   1.753   3.620 -0.1296  0.1129 -0.5484
 1178TIP3    H1 3540   1.755   1.669   3.595 -0.7595 -0.4895  0.4646
 1178TIP3    H2 3541   1.792   1.813   3.625  0.5311 -0.7578  0.1933
 1179TIP3   OH2 3542   0.372   0.907   3.162 -0.2715  0.0319  0.5433
 1179TIP3    H1 3543   0.453   0.856   3.162 -0.1295  0.2492  0.0277
 1179TIP3    H2 3544   0.400   0.998   3.172 -0.4235  0.1443 -0.0063
 1180TIP3   OH2 3545   3.540   1.773   4.745 -0.4658 -0.5536  0.1963
 1180TIP3    H1 3546   3.471   1.751   4.683 -2.1629  0.6271  1.5795
 1180TIP3    H2 3547   3.538   1.703   4.810  0.9537 -1.5107 -0.7482
 1181TIP3   OH2 3548   4.671   3.898   2.560 -0.6415 -0.2274 -0.1930
 1181TIP3    H1 3549   4.634   3.811   2.576 -1.5883  0.3864  1.2039
 1181TIP3    H2 3550   4.688   3.900   2.466 -0.9568 -1.7882 -0.3066
 1182TIP3   OH2 3551   2.430   4.514   0.413 -0.3279 -0.5024  0.0071
 1182TIP3    H1 3552   2.411   4.445   0.477 -1.1261  0.5407  0.9477
 1182TIP3    H2 3553   2.373   4.493   0.339 -3.2436  0.9294  1.6289
 1183TIP3   OH2 3554   4.898   0.306   1.894  0.1687  0.1172  0.4785
 1183TIP3    H1 3555   4.840   0.265   1.830 -1.0045 -1.5230  2.4734
 1183TIP3    H2 3556   4.918   0.236   1.956  3.0010  1.0733  0.7737
 1184TIP3   OH2 3557   3.267   4.039   0.123  0.6175  0.2560 -0.8429
 1184TIP3    H1 3558   3.259   4.118   0.176  0.8587  0.1416 -0.6318
 1184TIP3    H2 3559   3.227   3.970   0.176  1.8820 -0.0838 -0.2961
 1185TIP3   OH2 3560   0.282   3.968   4.322  0.2033  0.2227  0.1827
 1185TIP3    H1 3561   0.195   3.943   4.291  0.1349 -0.5753  0.9782
 1185TIP3    H2 3562   0.266   4.004   4.410  0.7409 -0.5925  0.6272
 1186TIP3   OH2 3563   3.017   5.810   2.861 -0.0766 -0.2211  0.6317
 1186TIP3    H1 3564   2.933   5.846   2.889  0.0097 -0.0899  0.7200
 1186TIP3    H2 3565   3.080   5.881   2.877 -0.1842  0.2489 -0.8471
 1187TIP3   OH2 3566   1.586   4.114   1.600 -0.2658 -0.3690 -0.4888
 1187TIP3    H1 3567   1.598   4.138   1.508  0.9176 -0.2272 -0.3070
 1187TIP3    H2 3568   1.657   4.158   1.646 -0.7778 -0.5368  0.4821
 1188TIP3   OH2 3569   4.421   5.400   3.325  0.3202  0.0400 -0.0926
 1188TIP3    H1 3570   4.456   5.455   3.255  0.2330 -2.2089 -2.0470
 1188TIP3    H2 3571   4.338   5.440   3.348 -0.1615  0.2895 -2.0705
 1189TIP3   OH2 3572   2.057   3.355   1.293 -0.6876 -0.1253 -0.6576
 1189TIP3    H1 3573   2.042   3.432   1.239  4.9527  1.4011 -0.6828
 1189TIP3    H2 3574   2.068   3.389   1.382 -2.0695 -1.5458  0.1152
 1190TIP3   OH2 3575   5.358   3.004   0.085  0.0182  0.2429 -0.8166
 1190TIP3    H1 3576   5.429   3.059   0.050  0.4030 -0.8576 -1.8231
 1190TIP3    H2 3577   5.383   2.988   0.176 -0.0706  1.6659 -0.5272
 1191TIP3   OH2 3578   5.097   0.331   0.840  0.7847  0.1536  0.8841
 1191TIP3    H1 3579   5.025   0.277   0.872  0.0766  0.2405 -0.5210
 1191TIP3    H2 3580   5.054   0.410   0.806  1.7652  1.5293  2.6228
 1192TIP3   OH2 3581   4.052   3.068   4.909  0.4198 -0.2502  0.3030
 1192TIP3    H1 3582   3.979   3.013   4.882  0.3001 -0.1244  0.3692
 1192TIP3    H2 3583   4.107   3.010   4.963 -0.7794  0.2343  2.1349
 1193TIP3   OH2 3584   0.384   3.173   1.443  0.0563  0.0648  0.1862
 1193TIP3    H1 3585   0.420   3.108   1.503 -1.1448 -0.0451  0.8061
 1193TIP3    H2 3586   0.290   3.155   1.440 -0.0388  0.6032 -1.0794
 1194TIP3   OH2 3587   3.043   3.923   0.698  0.5634 -0.4337 -0.2839
 1194TIP3    H1 3588   3.007   3.838   0.674  0.5840 -1.0490  1.6568
 1194TIP3    H2 3589   3.060   3.916   0.792  1.6305  1.3411 -0.2966
 1195TIP3   OH2 3590   2.464   3.082   3.460  0.2304 -0.0042 -0.2293
 1195TIP3    H1 3591   2.380   3.087   3.505 -0.3198  0.8201 -1.3140
 1195TIP3    H2 3592   2.518   3.148   3.503  0.2338 -0.3255  0.2675
 1196TIP3   OH2 3593   4.423   2.829   1.519  0.4870  0.1052 -0.8229
 1196TIP3    H1 3594   4.414   2.886   1.595 -0.9900  2.0473 -2.3509
 1196TIP3    H2 3595   4.516   2.828   1.499  0.6888  0.8696  0.0631
 1197TIP3   OH2 3596   0.795   0.450   0.306 -0.0101  0.1726  0.1427
 1197TIP3    H1 3597   0.885   0.479   0.321  0.8202 -1.1939 -1.8898
 1197TIP3    H2 3598   0.800   0.395   0.229 -2.5199 -0.4587  0.3618
 1198TIP3   OH2 3599   3.744   5.954   4.002 -0.1509  0.2157 -0.1922
 1198TIP3    H1 3600   3.719   6.014   3.932 -1.4374 -0.5601 -0.4418
 1198TIP3    H2 3601   3.824   5.911   3.970 -0.5917  0.0439 -1.0943
 1199TIP3   OH2 3602   4.137   5.162   3.839 -0.7895  0.3435  0.1099
 1199TIP3    H1 3603   4.118   5.255   3.828  0.5540  1.0933  3.0837
 1199TIP3    H2 3604   4.062   5.128   3.888 -0.4298  0.3244  0.6573
 1200TIP3   OH2 3605   2.415   2.477   0.906 -0.2895  0.3006 -0.4149
 1200TIP3    H1 3606   2.456   2.528   0.976 -0.0179 -0.9131  0.3412
 1200TIP3    H2 3607   2.321   2.480   0.926 -0.2927  0.6375 -0.4737
 1201TIP3   OH2 3608   1.546   5.770   0.432  0.1046  0.0022  0.7173
 1201TIP3    H1 3609   1.630   5.743   0.471  1.0540  1.5464 -0.1622
 1201TIP3    H2 3610   1.484   5.704   0.462  1.8086 -1.7152  0.6556
 1202TIP3   OH2 3611   4.892   4.311   5.067 -0.3251  0.1065  0.4670
 1202TIP3    H1 3612   4.983   4.283   5.078 -0.2668  0.4765  0.9705
 1202TIP3    H2 3613   4.894   4.367   4.989  0.0782  0.9198  1.0389
 1203TIP3   OH2 3614   4.916   2.240   5.149  0.1042  0.6559  0.1897
 1203TIP3    H1 3615   4.987   2.180   5.126  0.0370  0.2852  0.9100
 1203TIP3    H2 3616   4.950   2.326   5.127 -0.4032  0.2741 -2.3799
 1204TIP3   OH2 3617   4.441   3.462   1.825  0.1141  0.7748  0.2001
 1204TIP3    H1 3618   4.379   3.492   1.892 -1.4412 -2.4548  0.4049
 1204TIP3    H2 3619   4.442   3.532   1.760 -0.1141  2.9965  2.4434
 1205TIP3   OH2 3620   0.059   5.422   1.449 -0.0749  0.5200 -0.4575
 1205TIP3    H1 3621   0.048   5.331   1.421  0.6656 -0.1993  1.4723
 1205TIP3    H2 3622  -0.026   5.463   1.430 -0.5869 -0.6799 -0.8769
 1206TIP3   OH2 3623   2.650   3.807   2.599  0.5422  0.1233 -0.3847
 1206TIP3    H1 3624   2.677   3.809   2.690  0.0829 -0.9880 -0.2027
 1206TIP3    H2 3625   2.732   3.812   2.549  0.9928 -1.5035  0.1353
 1207TIP3   OH2 3626   5.296   1.124   1.735 -0.5592 -0.2547 -0.3891
 1207TIP3    H1 3627   5.229   1.146   1.800 -2.0185 -2.0084 -1.2349
 1207TIP3    H2 3628   5.323   1.035   1.757  0.8169  0.0731 -0.6644
 1208TIP3   OH2 3629   0.886   2.056   2.356  0.1756  0.3704 -0.1593
 1208TIP3    H1 3630   0.836   2.136   2.370  1.1231  1.1631 -1.1067
 1208TIP3    H2 3631   0.864   2.000   2.430 -1.6230  0.9243 -0.2344
 1209TIP3   OH2 3632   5.524   0.139   1.511  0.2557  0.0656 -0.3191
 1209TIP3    H1 3633   5.471   0.117   1.588 -0.6583  0.6673 -0.7552
 1209TIP3    H2 3634   5.476   0.210   1.469  2.4895  2.1834  0.4420
 1210TIP3   OH2 3635   1.560   5.779   3.967  0.5117  0.7185  0.6218
 1210TIP3    H1 3636   1.465   5.767   3.970  0.5301 -0.6161 -1.6809
 1210TIP3    H2 3637   1.595   5.690   3.958  1.7399  1.3527 -1.6796
 1211TIP3   OH2 3638   3.195   5.949   3.836  0.1534  1.1081 -0.2435
 1211TIP3    H1 3639   3.230   6.012   3.774  0.1473  0.4309 -0.9494
 1211TIP3    H2 3640   3.264   5.939   3.902  0.3940  1.3996 -0.4511
 1212TIP3   OH2 3641   0.500   2.755   0.697 -0.1906 -0.3601 -0.1491
 1212TIP3    H1 3642   0.416   2.710   0.708 -0.5270  0.4171  0.5522
 1212TIP3    H2 3643   0.481   2.829   0.638  0.0031 -0.1826  0.0078
 1213TIP3   OH2 3644   2.585   5.227   2.689 -0.2386  0.3680 -0.1934
 1213TIP3    H1 3645   2.631   5.289   2.633 -0.8316 -0.1916 -1.3291
 1213TIP3    H2 3646   2.654   5.175   2.730  0.2068 -1.7831 -3.3598
 1214TIP3   OH2 3647   6.132   5.514   3.126 -0.9972 -0.1953  0.8841
 1214TIP3    H1 3648   6.164   5.507   3.036 -1.7353 -0.7422  0.6593
 1214TIP3    H2 3649   6.172   5.440   3.172 -1.8695 -0.8393  0.6194
 1215TIP3   OH2 3650   4.396   5.079   2.379 -0.2791  0.0887  0.4786
 1215TIP3    H1 3651   4.436   5.008   2.328  1.4735  0.1362  1.6787
 1215TIP3    H2 3652   4.347   5.034   2.448  0.8620  0.0003  1.2621
 1216TIP3   OH2 3653   2.241   0.490   2.643 -0.4807 -0.5145 -0.0077
 1216TIP3    H1 3654   2.272   0.557   2.582 -1.5272  0.8121  0.8571
 1216TIP3    H2 3655   2.315   0.430   2.652  0.9831  1.2187  0.1634
 1217TIP3   OH2 3656   4.537   1.490   4.133  0.6720 -0.2675  0.5361
 1217TIP3    H1 3657   4.590   1.433   4.189  2.1599 -0.2694 -0.7950
 1217TIP3    H2 3658   4.482   1.429   4.084  1.0325 -0.4471  0.3474
 1218TIP3   OH2 3659   4.238   3.186   4.737 -0.0144 -0.0559  0.0772
 1218TIP3    H1 3660   4.210   3.273   4.707 -0.6535  0.4445  1.9874
 1218TIP3    H2 3661   4.178   3.164   4.808  1.1705 -1.3308  0.7393
 1219TIP3   OH2 3662   1.695   4.676   2.652  0.0521  0.1079 -0.0551
 1219TIP3    H1 3663   1.658   4.764   2.650  0.9836  0.5288  0.4392
 1219TIP3    H2 3664   1.680   4.646   2.742  1.7908  0.7086  0.4895
 1220TIP3   OH2 3665   5.209   3.345   4.829  0.3350 -0.2402 -0.1222
 1220TIP3    H1 3666   5.222   3.426   4.879  0.1597  0.3174 -0.9578
 1220TIP3    H2 3667   5.253   3.361   4.746  3.3043 -2.2742  0.8794
 1221TIP3   OH2 3668   2.376   1.056   3.194 -0.1637  0.0272  0.1633
 1221TIP3    H1 3669   2.406   1.138   3.155 -0.0596  0.2086  0.6234
 1221TIP3    H2 3670   2.297   1.034   3.146 -0.7603  0.9248  0.7047
 1222TIP3   OH2 3671   2.997   2.618   0.472 -0.6273  0.0499  0.1966
 1222TIP3    H1 3672   3.029   2.681   0.536 -0.1127 -0.8445  0.8247
 1222TIP3    H2 3673   2.981   2.671   0.393  0.1652  0.8962  0.5873
 1223TIP3   OH2 3674   1.552   4.798   5.022 -0.3866 -0.3068  0.0331
 1223TIP3    H1 3675   1.472   4.847   5.003  0.0562  1.4502  2.2320
 1223TIP3    H2 3676   1.570   4.815   5.115  1.3785 -2.4144  0.1923
 1224TIP3   OH2 3677   3.283   1.038   0.902 -0.1387  0.1804 -0.0132
 1224TIP3    H1 3678   3.277   1.103   0.972  0.1042 -1.3926  1.5202
 1224TIP3    H2 3679   3.362   1.062   0.854 -0.6279  1.6316 -0.1563
 1225TIP3   OH2 3680   5.059   2.954   2.828  0.2693  0.2015 -0.5893
 1225TIP3    H1 3681   5.057   2.877   2.771  1.4965 -0.7604  0.6045
 1225TIP3    H2 3682   5.143   2.996   2.810  1.3267 -0.8963  1.4251
 1226TIP3   OH2 3683   4.174   0.479   3.143  0.0058 -0.1513  0.0131
 1226TIP3    H1 3684   4.098   0.453   3.090 -1.0909  1.6341  0.5977
 1226TIP3    H2 3685   4.235   0.517   3.080 -0.5302  0.3482 -0.2193
 1227TIP3   OH2 3686   1.651   1.974   3.895  0.4263 -0.2179 -0.6045
 1227TIP3    H1 3687   1.668   1.948   3.985  0.8149  0.4738 -0.4713
 1227TIP3    H2 3688   1.627   1.892   3.850  0.7133 -0.6451  0.0079
 1228TIP3   OH2 3689   0.318   1.343   0.643  0.8153  0.1391  0.0726
 1228TIP3    H1 3690   0.222   1.340   0.645  0.8066  0.0435 -0.3280
 1228TIP3    H2 3691   0.338   1.416   0.585  0.9865  0.2433  0.2635
 1229TIP3   OH2 3692   0.775   1.769   1.041 -0.0458  1.4112  0.9504
 1229TIP3    H1 3693   0.833   1.704   1.082 -0.6917  1.2310  1.5993
 1229TIP3    H2 3694   0.735   1.722   0.967 -0.3605  1.1302  1.2979
 1230TIP3   OH2 3695   3.861   2.528   1.340 -0.2676 -0.0812 -0.2653
 1230TIP3    H1 3696   3.925   2.552   1.408  1.0138 -2.5099 -0.5215
 1230TIP3    H2 3697   3.881   2.587   1.267  0.0461  0.8214  0.5243
 1231TIP3   OH2 3698   0.421   3.174   3.537 -0.0425  0.1483 -0.2701
 1231TIP3    H1 3699   0.392   3.129   3.616 -1.0164  1.2264  0.0107
 1231TIP3    H2 3700   0.343   3.177   3.481  0.5703 -0.3860 -1.1917
 1232TIP3   OH2 3701   1.912   0.415   2.436 -0.0274  0.4657 -0.0678
 1232TIP3    H1 3702   1.935   0.504   2.410 -0.4164  1.0722  1.5164
 1232TIP3    H2 3703   1.827   0.400   2.395  0.5011  0.4299 -1.1720
 1233TIP3   OH2 3704   0.375   0.252   3.939 -0.1546  0.2868 -0.3085
 1233TIP3    H1 3705   0.386   0.339   3.978  0.4505  0.1180 -0.0933
 1233TIP3    H2 3706   0.312   0.265   3.868 -0.7566  0.7261  0.3037
 1234TIP3   OH2 3707   2.193   3.514   3.658 -0.6239 -0.2486 -0.1641
 1234TIP3    H1 3708   2.280   3.488   3.689 -0.7978 -0.9838 -0.2679
 1234TIP3    H2 3709   2.132   3.463   3.712 -0.9285 -1.9476 -2.0043
 1235TIP3   OH2 3710   2.007   1.394   2.877  0.0534  0.4671  0.7300
 1235TIP3    H1 3711   1.947   1.465   2.899  0.4421  1.1941 -0.4851
 1235TIP3    H2 3712   2.069   1.392   2.950  0.2718  1.6545  0.5990
 1236TIP3   OH2 3713   5.795   1.092   1.302 -0.2000 -0.1047 -0.6797
 1236TIP3    H1 3714   5.726   1.111   1.239  0.1758 -0.5683 -1.2430
 1236TIP3    H2 3715   5.874   1.131   1.264 -0.0184 -0.1543 -0.3627
 1237TIP3   OH2 3716   0.207   2.842   4.799 -0.0891  0.0057  0.6642
 1237TIP3    H1 3717   0.252   2.758   4.808 -0.7315 -0.6595 -1.5355
 1237TIP3    H2 3718   0.120   2.826   4.835 -0.3351 -0.4216 -0.0906
 1238TIP3   OH2 3719   4.499   2.479   4.210  0.0694 -0.0456 -0.9555
 1238TIP3    H1 3720   4.505   2.495   4.116 -2.1360  1.1273 -0.9558
 1238TIP3    H2 3721   4.554   2.547   4.250  3.2366 -2.1343 -1.3445
 1239TIP3   OH2 3722   4.899   4.592   0.336 -0.1694  0.2259 -0.1337
 1239TIP3    H1 3723   4.879   4.540   0.414 -1.1603 -1.0369 -1.1867
 1239TIP3    H2 3724   4.814   4.608   0.295  0.3786  0.4590 -1.2030
 1240TIP3   OH2 3725   4.451   2.860   4.454 -0.1992 -0.5000  0.8073
 1240TIP3    H1 3726   4.406   2.862   4.370 -0.0035  0.2027  0.7161
 1240TIP3    H2 3727   4.526   2.801   4.440 -0.3293 -0.6104  0.5785
 1241TIP3   OH2 3728   4.951   3.748   0.041  0.0510  0.0673  0.0938
 1241TIP3    H1 3729   4.980   3.834   0.072  1.0552 -0.8071  1.7432
 1241TIP3    H2 3730   4.995   3.737  -0.043  0.7489  0.7445  0.3520
 1242TIP3   OH2 3731   5.537   1.358   1.392  0.0460 -0.5965  0.4455
 1242TIP3    H1 3732   5.460   1.332   1.443 -0.2415 -0.1358  0.2584
 1242TIP3    H2 3733   5.529   1.453   1.384  1.2151 -0.3955  1.3440
 1243TIP3   OH2 3734   5.872   0.913   2.598 -0.2050  0.1884 -0.1069
 1243TIP3    H1 3735   5.835   0.855   2.664 -0.2620  0.1835 -0.1424
 1243TIP3    H2 3736   5.796   0.944   2.548 -0.0518 -1.0523 -1.1773
 1244TIP3   OH2 3737   4.024   0.649   0.634 -0.3453 -0.1636  0.1478
 1244TIP3    H1 3738   3.972   0.694   0.701  0.6926  0.1382  0.7693
 1244TIP3    H2 3739   3.977   0.667   0.552 -1.2667  0.0202  0.6968
 1245TIP3   OH2 3740   0.346   3.413   1.692  0.0730  0.6817 -0.1042
 1245TIP3    H1 3741   0.322   3.407   1.600 -1.2852 -0.1347  0.2696
 1245TIP3    H2 3742   0.436   3.380   1.696 -0.2216 -0.2804 -0.9946
 1246TIP3   OH2 3743   4.348   3.662   3.002  0.1960 -0.8166  0.2264
 1246TIP3    H1 3744   4.324   3.685   3.091  0.2234  0.4210 -0.0660
 1246TIP3    H2 3745   4.336   3.567   2.997  0.8028 -1.0009  1.7227
 1247TIP3   OH2 3746   6.347   1.458   0.955 -0.1562  0.0709 -0.0554
 1247TIP3    H1 3747   6.262   1.502   0.950 -0.9735 -1.5322 -1.1851
 1247TIP3    H2 3748   6.346   1.414   1.040 -0.5276 -0.0898 -0.1426
 1248TIP3   OH2 3749   6.057   3.260   2.556  0.2020  0.3852 -0.2062
 1248TIP3    H1 3750   6.147   3.285   2.538  0.5168 -0.3512  0.3084
 1248TIP3    H2 3751   6.026   3.324   2.620  0.3589  0.6335 -0.3803
 1249TIP3   OH2 3752   1.850   5.414   0.602  0.2952  0.3655 -0.6880
 1249TIP3    H1 3753   1.769   5.377   0.566 -0.1957 -0.0501  0.8079
 1249TIP3    H2 3754   1.847   5.507   0.578 -0.9792  0.5071 -0.0446
 1250TIP3   OH2 3755   4.826   0.089   0.653 -0.4499 -0.0362  0.3330
 1250TIP3    H1 3756   4.787   0.163   0.701 -0.1593  0.3619 -0.0371
 1250TIP3    H2 3757   4.917   0.086   0.685 -0.6384 -0.6533  0.8329
 1251TIP3   OH2 3758   0.828   1.127   0.619 -0.3713 -0.7054  0.0738
 1251TIP3    H1 3759   0.850   1.156   0.708 -1.7914 -0.5609  0.3964
 1251TIP3    H2 3760   0.735   1.108   0.622 -0.4100 -0.8642 -1.3568
 1252TIP3   OH2 3761   4.590   3.682   3.274  0.2361 -0.2650 -0.5016
 1252TIP3    H1 3762   4.599   3.702   3.181  1.1656  1.2541 -0.1129
 1252TIP3    H2 3763   4.586   3.767   3.317 -1.6021 -0.9124  0.7591
 1253TIP3   OH2 3764   5.115   5.795   4.428  0.1890 -0.0068  0.2180
 1253TIP3    H1 3765   5.030   5.802   4.472 -0.8736  1.8830 -1.8805
 1253TIP3    H2 3766   5.143   5.705   4.443 -3.5565 -1.6456 -1.2233
 1254TIP3   OH2 3767   3.586   0.526   2.649  0.5253 -0.1576 -0.4905
 1254TIP3    H1 3768   3.530   0.463   2.604  0.9153 -1.1158  0.3425
 1254TIP3    H2 3769   3.538   0.609   2.643 -0.2767 -0.6523 -1.0641
 1255TIP3   OH2 3770   2.286   1.940   0.881 -0.0013  0.1394  0.0727
 1255TIP3    H1 3771   2.280   1.846   0.899 -4.1295 -0.1501 -1.6158
 1255TIP3    H2 3772   2.226   1.981   0.944  2.2231  1.8364  1.2270
 1256TIP3   OH2 3773   2.380   5.276   1.385  0.2950  0.4554 -0.2300
 1256TIP3    H1 3774   2.465   5.242   1.414  0.8309  1.7941 -0.1569
 1256TIP3    H2 3775   2.375   5.364   1.422 -2.0902 -0.3419  1.5658
 1257TIP3   OH2 3776   2.758   3.621   4.452 -0.3569 -0.0124  0.0354
 1257TIP3    H1 3777   2.811   3.603   4.374  0.2576  0.7459  0.2712
 1257TIP3    H2 3778   2.671   3.587   4.430  0.2062 -1.2683 -0.3659
 1258TIP3   OH2 3779   2.511   4.085   0.277 -0.5704 -0.6536 -0.3896
 1258TIP3    H1 3780   2.504   4.162   0.334 -1.6165 -0.5515 -0.6377
 1258TIP3    H2 3781   2.590   4.101   0.225  1.0125 -1.2344  1.7158
 1259TIP3   OH2 3782   0.178   5.333   4.125 -0.0473 -0.2019 -0.4981
 1259TIP3    H1 3783   0.266   5.369   4.138  0.1221 -0.2624 -1.4265
 1259TIP3    H2 3784   0.176   5.307   4.033 -1.0865 -0.0822 -0.5171
 1260TIP3   OH2 3785   3.982   0.733   3.143 -0.2629  0.2373  0.6886
 1260TIP3    H1 3786   3.994   0.828   3.151  0.5062  0.1148  1.0852
 1260TIP3    H2 3787   4.027   0.697   3.219 -0.8221 -0.4358  0.7072
 1261TIP3   OH2 3788   3.590   2.355   0.507  0.2500  0.0338 -0.0064
 1261TIP3    H1 3789   3.532   2.327   0.578 -1.0254  3.3247  0.4201
 1261TIP3    H2 3790   3.666   2.392   0.551  0.8425 -0.5836 -0.4825
 1262TIP3   OH2 3791   5.949   5.655   0.731  0.7203 -0.4092  1.0520
 1262TIP3    H1 3792   6.037   5.659   0.766  0.2228 -1.6236  2.5435
 1262TIP3    H2 3793   5.933   5.563   0.714  0.3052 -0.0390 -0.8146
 1263TIP3   OH2 3794   5.747   5.843   0.666 -0.0450 -0.1444  0.0446
 1263TIP3    H1 3795   5.811   5.776   0.690  1.1434  0.9075 -0.0919
 1263TIP3    H2 3796   5.662   5.802   0.683  0.6604 -1.4372  0.6004
 1264TIP3   OH2 3797   3.635   2.430   1.084  0.2552 -0.3237  0.0487
 1264TIP3    H1 3798   3.549   2.440   1.124 -0.2064 -0.0028 -0.9811
 1264TIP3    H2 3799   3.641   2.337   1.062 -0.3748 -0.1271 -1.0256
 1265TIP3   OH2 3800   0.508   0.245   0.984 -0.2327 -0.3712 -0.1038
 1265TIP3    H1 3801   0.453   0.217   0.910 -2.2327  0.6065  0.9224
 1265TIP3    H2 3802   0.500   0.341   0.985  0.2389 -0.3289  1.0258
 1266TIP3   OH2 3803   4.167   3.651   0.603  0.1998  0.5892 -0.3972
 1266TIP3    H1 3804   4.231   3.635   0.672  0.5866  1.0488 -0.6367
 1266TIP3    H2 3805   4.093   3.595   0.625  1.0058 -0.5829 -0.5590
 1267TIP3   OH2 3806   0.533   0.186   2.666  0.4851  0.1547 -0.3704
 1267TIP3    H1 3807   0.509   0.268   2.623  0.0821  0.2702  0.0648
 1267TIP3    H2 3808   0.611   0.207   2.717  0.5948  0.1768 -0.5482
 1268TIP3   OH2 3809   2.921   3.504   3.154 -0.1718  0.1672  0.5023
 1268TIP3    H1 3810   2.903   3.594   3.127  0.0492 -0.0001 -0.2042
 1268TIP3    H2 3811   2.849   3.453   3.116  0.2059 -0.0846  0.1127
 1269TIP3   OH2 3812   5.519   0.609   0.281 -0.0547  0.1216  0.7435
 1269TIP3    H1 3813   5.515   0.683   0.341  0.7775 -0.8754  2.0751
 1269TIP3    H2 3814   5.502   0.532   0.335  1.3718 -0.8753 -0.1483
 1270TIP3   OH2 3815   1.040   1.339   0.839 -0.2042  0.1332  0.1281
 1270TIP3    H1 3816   0.968   1.277   0.837  0.1224 -0.2294 -1.0565
 1270TIP3    H2 3817   1.066   1.343   0.931 -0.1080 -1.6275  0.2022
 1271TIP3   OH2 3818   3.886   2.466   0.043  0.0910  0.5655  0.3499
 1271TIP3    H1 3819   3.820   2.510   0.097  0.6422  1.4972  0.2800
 1271TIP3    H2 3820   3.848   2.380   0.025 -0.5650  0.6259  1.3390
 1272TIP3   OH2 3821   4.491   4.260   4.470 -0.3243  0.1719  0.7745
 1272TIP3    H1 3822   4.403   4.297   4.477 -0.5854 -0.4460  0.7818
 1272TIP3    H2 3823   4.477   4.166   4.459  0.2263  0.3236 -1.9053
 1273TIP3   OH2 3824   3.552   0.317   2.066  0.1521  0.8274  0.1944
 1273TIP3    H1 3825   3.497   0.254   2.019 -0.1767  2.0304 -1.1122
 1273TIP3    H2 3826   3.490   0.369   2.117  0.1046  1.7223 -0.7290
 1274TIP3   OH2 3827   0.321   5.738   0.814  0.2136 -0.7627  0.0526
 1274TIP3    H1 3828   0.339   5.652   0.854 -0.2844 -0.3522  1.1983
 1274TIP3    H2 3829   0.260   5.780   0.875  0.1366  0.2504 -0.7089
 1275TIP3   OH2 3830   2.402   3.976   1.982 -0.5326 -0.3245  0.1350
 1275TIP3    H1 3831   2.347   4.041   1.937  0.3586  0.0833 -0.3864
 1275TIP3    H2 3832   2.481   4.025   2.005 -0.3746 -0.9148  0.8508
 1276TIP3   OH2 3833   2.139   1.019   3.706  0.1842 -0.1390  0.2884
 1276TIP3    H1 3834   2.167   0.941   3.754  0.3205 -0.7757 -0.7859
 1276TIP3    H2 3835   2.044   1.010   3.698  0.1335  0.0778  0.6064
 1277TIP3   OH2 3836   5.601   4.328   3.858 -0.1399  0.3027  0.1590
 1277TIP3    H1 3837   5.549   4.365   3.787  0.7696  0.1031 -0.6362
 1277TIP3    H2 3838   5.650   4.403   3.893  0.7437  0.1097 -0.6137
 1278TIP3   OH2 3839   0.048   4.763   0.565 -0.2363  0.2438 -0.0533
 1278TIP3    H1 3840   0.032   4.845   0.518  1.0641  0.7374  0.3212
 1278TIP3    H2 3841   0.018   4.695   0.504 -0.3682  0.9493 -0.8005
 1279TIP3   OH2 3842   4.372   4.798   0.269 -0.0933  0.2637  0.0041
 1279TIP3    H1 3843   4.406   4.728   0.325 -0.7281  0.2795  0.4252
 1279TIP3    H2 3844   4.290   4.824   0.311  1.2438  2.8933  1.2367
 1280TIP3   OH2 3845   2.725   5.925   4.218  0.1711  0.0352 -0.1440
 1280TIP3    H1 3846   2.652   5.963   4.266  0.1682  0.3204 -0.3704
 1280TIP3    H2 3847   2.686   5.852   4.170 -0.2466  0.9846 -1.2975
 1281TIP3   OH2 3848   5.573   1.522   1.697 -0.1354  0.4841  0.6347
 1281TIP3    H1 3849   5.591   1.436   1.735 -0.4918  0.1669  0.0964
 1281TIP3    H2 3850   5.616   1.584   1.756  0.4753 -0.0871  0.7936
 1282TIP3   OH2 3851   2.432   0.084   5.002 -0.0067 -0.6746 -0.2288
 1282TIP3    H1 3852   2.500   0.020   4.984 -0.2607 -0.3581 -2.7633
 1282TIP3    H2 3853   2.478   0.167   5.009  0.3742 -1.0291  3.4883
 1283TIP3   OH2 3854   5.282   0.034   2.939  0.3848 -0.0551  0.0989
 1283TIP3    H1 3855   5.372   0.065   2.952  0.8711 -0.3723 -2.0963
 1283TIP3    H2 3856   5.231   0.114   2.924  0.4806  0.0594  0.3725
 1284TIP3   OH2 3857   4.781   5.305   5.046 -0.0348 -0.0230 -0.2102
 1284TIP3    H1 3858   4.849   5.249   5.083  0.1956  0.9002  0.8247
 1284TIP3    H2 3859   4.824   5.354   4.976  0.0921 -0.2045 -0.2587
 1285TIP3   OH2 3860   2.386   5.562   2.390  0.4484  0.0255 -0.0010
 1285TIP3    H1 3861   2.337   5.640   2.418  0.4730  0.0170  0.0645
 1285TIP3    H2 3862   2.350   5.541   2.304 -1.4727 -1.5121  1.0979
 1286TIP3   OH2 3863   6.155   3.482   2.079  0.5114  0.2898  0.1716
 1286TIP3    H1 3864   6.169   3.558   2.135  1.2181  1.1676 -1.1574
 1286TIP3    H2 3865   6.156   3.407   2.140  1.6020  1.1620  1.2866
 1287TIP3   OH2 3866   4.609   2.640   4.416  0.6379 -0.0529 -0.1495
 1287TIP3    H1 3867   4.700   2.611   4.419  0.0777 -1.8442  2.6218
 1287TIP3    H2 3868   4.567   2.595   4.489 -2.2328  1.6117 -0.6393
 1288TIP3   OH2 3869   3.169   3.328   2.463 -0.8605  0.7773  0.0418
 1288TIP3    H1 3870   3.190   3.249   2.513 -2.1903  1.2551  1.4178
 1288TIP3    H2 3871   3.126   3.386   2.525  1.6602  3.3966 -0.4079
 1289TIP3   OH2 3872   3.025   2.493   4.109 -0.0776  0.2582 -0.0863
 1289TIP3    H1 3873   3.054   2.402   4.118 -0.8904 -0.0831 -0.8178
 1289TIP3    H2 3874   2.948   2.500   4.165  1.3216  1.1641  1.8452
 1290TIP3   OH2 3875   3.837   4.082   0.201 -0.2379  0.0505 -0.6674
 1290TIP3    H1 3876   3.914   4.104   0.254 -0.3787  1.9195 -1.1731
 1290TIP3    H2 3877   3.786   4.024   0.257  0.7671  0.0580  0.3117
 1291TIP3   OH2 3878   5.727   3.788   1.315 -0.1561 -0.7288 -0.0596
 1291TIP3    H1 3879   5.749   3.881   1.316  1.3444 -0.9782 -2.4851
 1291TIP3    H2 3880   5.801   3.745   1.358 -0.2782 -0.9012 -0.0194
 1292TIP3   OH2 3881   2.568   4.142   2.696 -0.0923  0.2170 -0.6693
 1292TIP3    H1 3882   2.533   4.230   2.712 -0.4826 -0.3124  1.7122
 1292TIP3    H2 3883   2.516   4.110   2.622 -1.6774  1.0706  0.0242
 1293TIP3   OH2 3884   2.845   4.799   1.633 -0.3403  0.1219 -0.1079
 1293TIP3    H1 3885   2.891   4.877   1.663 -1.4708  0.7820 -0.0274
 1293TIP3    H2 3886   2.804   4.762   1.711  0.3662 -0.6911 -0.1063
 1294TIP3   OH2 3887   2.964   3.732   2.946  0.7691 -0.9440  0.1372
 1294TIP3    H1 3888   2.990   3.770   2.862  0.3459  1.0914  0.8720
 1294TIP3    H2 3889   3.037   3.753   3.005  0.1087 -0.4179  0.7861
 1295TIP3   OH2 3890   0.296   4.464   1.096  0.2329  0.5436  0.0281
 1295TIP3    H1 3891   0.351   4.497   1.168 -0.8728  1.3312  0.5376
 1295TIP3    H2 3892   0.275   4.541   1.044  0.3359  0.1048 -0.6752
 1296TIP3   OH2 3893   5.314   5.557   0.570  0.4727  0.5309  0.2365
 1296TIP3    H1 3894   5.230   5.596   0.594  1.2337  0.9974  2.4234
 1296TIP3    H2 3895   5.344   5.608   0.495 -0.7372  1.0055  0.0579
 1297TIP3   OH2 3896   0.901   5.768   4.905 -0.5398  0.4465  0.0797
 1297TIP3    H1 3897   0.820   5.808   4.873  0.1837  2.4077  0.5693
 1297TIP3    H2 3898   0.872   5.699   4.966 -1.8403  1.4057  0.5746
 1298TIP3   OH2 3899   0.551   2.118   2.154 -0.1622 -0.7508  0.5333
 1298TIP3    H1 3900   0.594   2.201   2.133 -0.4943 -0.6398  0.2904
 1298TIP3    H2 3901   0.511   2.090   2.071  1.2865 -1.9570  0.1885
 1299TIP3   OH2 3902   1.600   1.150   0.790  0.2298  0.6248  0.0324
 1299TIP3    H1 3903   1.659   1.173   0.862 -0.6216  0.3436  0.8340
 1299TIP3    H2 3904   1.512   1.158   0.827 -0.3728  3.0232 -1.6956
 1300TIP3   OH2 3905   0.696   5.869   3.311  0.3492 -0.4283 -0.7269
 1300TIP3    H1 3906   0.758   5.938   3.337 -0.3483  0.1083 -0.4639
 1300TIP3    H2 3907   0.676   5.888   3.219  1.9270 -1.6503 -1.3669
 1301TIP3   OH2 3908   0.840   3.045   2.853  0.0796  0.4319 -0.2993
 1301TIP3    H1 3909   0.834   3.073   2.762 -0.1279 -0.3322 -0.5294
 1301TIP3    H2 3910   0.753   3.011   2.874  0.6492 -1.2210 -0.4497
 1302TIP3   OH2 3911   5.140   5.269   1.451 -0.3313  0.2674  0.3337
 1302TIP3    H1 3912   5.111   5.200   1.512 -0.2423 -0.2566 -0.2079
 1302TIP3    H2 3913   5.108   5.350   1.491 -2.0465 -0.2276  0.0869
 1303TIP3   OH2 3914   1.830   2.768   0.415 -0.3713  0.5255 -0.2424
 1303TIP3    H1 3915   1.770   2.794   0.485 -1.0758  0.6693 -0.8846
 1303TIP3    H2 3916   1.879   2.694   0.451  0.2591  1.4780  0.8899
 1304TIP3   OH2 3917   1.951   5.456   0.206 -0.1331 -0.0492 -0.4082
 1304TIP3    H1 3918   1.906   5.389   0.256  1.2811  0.1701  1.2496
 1304TIP3    H2 3919   2.039   5.421   0.193 -0.0946  0.4575 -1.6571
 1305TIP3   OH2 3920   2.043   1.971   3.258 -0.3920 -0.0595 -0.5034
 1305TIP3    H1 3921   2.083   1.949   3.342  0.1392  1.3364 -0.3686
 1305TIP3    H2 3922   1.957   2.006   3.281 -0.8421 -1.0379 -0.6529
 1306TIP3   OH2 3923   1.453   0.956   0.444 -1.4180  0.1389 -0.0867
 1306TIP3    H1 3924   1.401   0.980   0.521  0.3367  0.7975  0.9540
 1306TIP3    H2 3925   1.526   1.018   0.444 -0.9408 -0.3702 -1.8356
 1307TIP3   OH2 3926   2.910   5.705   4.950 -0.0201  0.4962  0.0714
 1307TIP3    H1 3927   2.974   5.659   5.005 -0.1280  0.2995  0.0323
 1307TIP3    H2 3928   2.963   5.746   4.881 -0.1879 -2.3503 -1.9055
 1308TIP3   OH2 3929   1.094   3.147   2.432  0.0309 -0.2325  0.1374
 1308TIP3    H1 3930   1.131   3.194   2.358  0.5761 -0.1794  0.4375
 1308TIP3    H2 3931   1.081   3.058   2.399  4.2084 -1.4438  1.0850
 1309TIP3   OH2 3932   1.715   4.351   0.541 -0.6186  0.1081 -0.2286
 1309TIP3    H1 3933   1.785   4.314   0.486  0.5563  0.6458  0.8384
 1309TIP3    H2 3934   1.718   4.297   0.620 -1.6986 -0.1120 -0.3343
 1310TIP3   OH2 3935   1.968   5.779   5.145  0.8107 -0.0107 -0.3506
 1310TIP3    H1 3936   1.983   5.686   5.127 -0.9935 -0.3220 -0.4153
 1310TIP3    H2 3937   1.914   5.780   5.225  1.8215  1.0465  0.3642
 1311TIP3   OH2 3938   5.418   1.124   2.973 -0.5640  0.0886  0.1044
 1311TIP3    H1 3939   5.432   1.125   2.878  2.2003  1.0570  0.4214
 1311TIP3    H2 3940   5.413   1.031   2.995  0.2901 -0.2004 -0.8331
 1312TIP3   OH2 3941   5.732   5.839   4.567  0.2319 -0.8824  0.2870
 1312TIP3    H1 3942   5.678   5.762   4.551  0.7548 -1.5800  1.7373
 1312TIP3    H2 3943   5.711   5.898   4.494 -2.7846 -0.9212  0.9712
 1313TIP3   OH2 3944   0.204   4.181   2.996  0.2618  0.1551  0.5248
 1313TIP3    H1 3945   0.195   4.128   2.916 -1.3651  0.5424  0.4184
 1313TIP3    H2 3946   0.139   4.250   2.986  0.7033  0.7642  1.7647
 1314TIP3   OH2 3947   4.724   0.948   0.729 -0.2018 -0.3044  0.2001
 1314TIP3    H1 3948   4.634   0.962   0.759 -1.0629 -0.0528 -2.2803
 1314TIP3    H2 3949   4.728   0.993   0.644  1.7146 -1.8209 -0.5721
 1315TIP3   OH2 3950   4.291   2.320   0.531  0.1730 -0.3077  0.3901
 1315TIP3    H1 3951   4.215   2.358   0.573 -0.4030 -1.6211  0.5671
 1315TIP3    H2 3952   4.325   2.390   0.475 -0.5607  0.6061  1.0672
 1316TIP3   OH2 3953   6.318   0.958   2.533 -0.2080  1.0519  0.1748
 1316TIP3    H1 3954   6.392   0.962   2.593 -0.2468  0.6975  0.2490
 1316TIP3    H2 3955   6.241   0.972   2.589 -0.2414  0.7625  0.2032
 1317TIP3   OH2 3956   3.303   2.695   2.061 -0.2156 -0.5896 -0.4086
 1317TIP3    H1 3957   3.383   2.643   2.072 -1.2009 -1.8537  1.2908
 1317TIP3    H2 3958   3.259   2.656   1.986 -0.0353 -0.9700 -0.3174
 1318TIP3   OH2 3959   3.281   5.797   1.286 -0.1192  0.2736  0.2301
 1318TIP3    H1 3960   3.371   5.822   1.309  0.3073 -1.2703  0.3671
 1318TIP3    H2 3961   3.226   5.853   1.340  0.7926 -0.1455  1.6438
 1319TIP3   OH2 3962   0.083   1.903   4.406  0.0786  0.7202  0.1532
 1319TIP3    H1 3963   0.030   1.839   4.452 -0.4126 -0.0254 -1.3868
 1319TIP3    H2 3964   0.169   1.897   4.447 -0.5338  0.6258  1.4465
 1320TIP3   OH2 3965   5.304   3.496   4.587  0.3304 -0.8064  0.2677
 1320TIP3    H1 3966   5.214   3.519   4.562  0.3673  0.9116  1.5254
 1320TIP3    H2 3967   5.357   3.527   4.515  0.0086 -0.8024  0.0294
 1321TIP3   OH2 3968   3.156   5.294   3.474  0.2943  0.1359 -0.1847
 1321TIP3    H1 3969   3.103   5.254   3.543 -1.2224  2.1050 -0.1365
 1321TIP3    H2 3970   3.095   5.307   3.401  1.5669 -0.7130 -1.4642
 1322TIP3   OH2 3971   1.636   5.252   1.076  0.4739 -0.5823  0.0845
 1322TIP3    H1 3972   1.686   5.218   1.001 -0.4667  0.1094 -0.8899
 1322TIP3    H2 3973   1.604   5.173   1.120  0.6173 -1.0034 -0.5383
 1323TIP3   OH2 3974   1.848   4.715   4.348 -0.3979  0.3768 -0.3247
 1323TIP3    H1 3975   1.900   4.790   4.320 -1.9118  1.6450  0.1379
 1323TIP3    H2 3976   1.901   4.673   4.416  0.7101  0.6608 -0.9744
 1324TIP3   OH2 3977   5.841   2.230   3.112  0.2108  0.4657 -0.2697
 1324TIP3    H1 3978   5.754   2.239   3.072 -0.6532  0.5071  1.5052
 1324TIP3    H2 3979   5.835   2.150   3.164  1.8298 -0.4780 -1.4239
 1325TIP3   OH2 3980   1.674   4.125   3.884 -0.1258 -0.1118  0.2278
 1325TIP3    H1 3981   1.764   4.094   3.876  0.5903  1.3487  1.8423
 1325TIP3    H2 3982   1.635   4.069   3.951  0.7884  1.4668  2.2278
 1326TIP3   OH2 3983   5.947   5.998   4.033  0.3120  0.1239  0.3762
 1326TIP3    H1 3984   6.026   5.956   4.068  1.4780  1.5319 -0.4096
 1326TIP3    H2 3985   5.905   5.929   3.981  0.6961 -0.8233  1.2702
 1327TIP3   OH2 3986   6.016   5.295   2.849  0.1460  0.1143 -0.5010
 1327TIP3    H1 3987   6.100   5.336   2.827  0.2589  0.0719 -0.1537
 1327TIP3    H2 3988   6.032   5.201   2.840  0.6740 -0.0042  1.3684
 1328TIP3   OH2 3989   4.281   1.619   0.998  0.2314  0.8165  0.5621
 1328TIP3    H1 3990   4.272   1.561   1.073  0.3766  0.4013  0.2653
 1328TIP3    H2 3991   4.304   1.561   0.925  0.5057  1.2573  0.2855
 1329TIP3   OH2 3992   1.088   0.714   3.426  0.7982 -0.8073 -0.3357
 1329TIP3    H1 3993   1.175   0.678   3.407  0.8745 -1.2147  0.7473
 1329TIP3    H2 3994   1.035   0.638   3.449  0.9685 -0.2649  2.0309
 1330TIP3   OH2 3995   4.464   2.809   0.318  0.1909  0.4076  0.1509
 1330TIP3    H1 3996   4.483   2.854   0.236 -1.9177 -0.1185 -0.6948
 1330TIP3    H2 3997   4.472   2.716   0.297  1.0055  0.2965  0.9256
 1331TIP3   OH2 3998   2.061   3.794   4.799 -0.4969 -0.0242  0.1950
 1331TIP3    H1 3999   1.981   3.828   4.840 -0.7809  0.0667 -0.4185
 1331TIP3    H2 4000   2.128   3.804   4.866 -0.9815 -0.0181  0.6910
 1332TIP3   OH2 4001   1.034   5.089   3.882 -0.3181 -0.1017 -0.3160
 1332TIP3    H1 4002   0.970   5.112   3.950 -0.7433 -0.7695 -0.4786
 1332TIP3    H2 4003   1.035   5.165   3.824  0.5195  0.7474  0.7695
 1333TIP3   OH2 4004   0.712   4.238   0.357  0.0938  0.5948  0.1333
 1333TIP3    H1 4005   0.708   4.265   0.448 -0.0499 -0.9768  0.6154
 1333TIP3    H2 4006   0.779   4.169   0.355 -1.0890 -0.5850 -0.5933
 1334TIP3   OH2 4007   1.174   1.877   3.513  0.2113  0.1673 -0.1088
 1334TIP3    H1 4008   1.258   1.883   3.467  1.6872 -0.9381  2.2417
 1334TIP3    H2 4009   1.173   1.954   3.570 -0.3158  0.1131 -0.0407
 1335TIP3   OH2 4010   6.123   0.464   4.939  0.3510  0.0683  0.0141
 1335TIP3    H1 4011   6.028   0.465   4.935  0.2899  2.8969  0.6175
 1335TIP3    H2 4012   6.144   0.421   5.022 -0.5025  1.2586  0.8739
 1336TIP3   OH2 4013   0.261   3.969   4.840  0.0561 -0.1822  0.0230
 1336TIP3    H1 4014   0.276   4.052   4.885  1.4229  0.6078 -1.7162
 1336TIP3    H2 4015   0.335   3.914   4.866 -0.8395 -0.8976  1.1616
 1337TIP3   OH2 4016   3.837   0.260   3.824  0.2596 -0.5192  0.1526
 1337TIP3    H1 4017   3.805   0.183   3.871  1.3679 -2.4793 -2.0987
 1337TIP3    H2 4018   3.902   0.299   3.882 -1.9339  0.1712  2.3163
 1338TIP3   OH2 4019   0.825   2.051   2.991 -0.0845  0.0453 -0.2343
 1338TIP3    H1 4020   0.889   1.980   2.993 -0.8303 -0.6270  1.0815
 1338TIP3    H2 4021   0.742   2.008   2.967 -0.6526  0.3515  1.1113
 1339TIP3   OH2 4022   3.159   1.562   1.250  0.3169  0.2079  0.3738
 1339TIP3    H1 4023   3.116   1.532   1.170  2.2745  0.7518 -0.9549
 1339TIP3    H2 4024   3.125   1.651   1.263  0.7299  0.5131 -0.4868
 1340TIP3   OH2 4025   1.457   5.651   4.298  0.1027 -0.3575  0.3403
 1340TIP3    H1 4026   1.413   5.690   4.374 -0.2892  2.8348 -1.3755
 1340TIP3    H2 4027   1.386   5.613   4.246  0.2829 -1.8051  1.1060
 1341TIP3   OH2 4028   2.919   5.045   1.710  0.0264 -0.3381 -0.5182
 1341TIP3    H1 4029   3.004   5.087   1.709  0.1044 -0.4182 -2.7985
 1341TIP3    H2 4030   2.895   5.041   1.803  1.3363  1.9721 -0.0021
 1342TIP3   OH2 4031   3.372   3.324   3.655 -0.1733 -0.0500 -0.0579
 1342TIP3    H1 4032   3.383   3.229   3.661  0.5042  0.1138  2.0539
 1342TIP3    H2 4033   3.433   3.350   3.586 -0.3780 -1.1431 -0.6764
 1343TIP3   OH2 4034   5.014   3.269   3.005 -0.0417 -0.0430 -0.1908
 1343TIP3    H1 4035   5.013   3.262   2.910  0.3917 -1.2519 -0.1214
 1343TIP3    H2 4036   4.921   3.266   3.030 -0.1401 -0.0244 -0.5529
 1344TIP3   OH2 4037   2.489   5.214   3.930 -0.7663  0.4320 -0.0969
 1344TIP3    H1 4038   2.549   5.158   3.979 -1.2623 -1.1772 -1.2544
 1344TIP3    H2 4039   2.431   5.250   3.997 -0.0342  0.0969  0.7524
 1345TIP3   OH2 4040   2.721   2.697   2.250 -0.0152 -0.1051  0.2681
 1345TIP3    H1 4041   2.686   2.774   2.295  1.7092 -0.3228  2.1035
 1345TIP3    H2 4042   2.781   2.732   2.184  1.6352  0.1715  1.8524
 1346TIP3   OH2 4043   1.574   1.172   4.114  0.6518  0.6385  0.1800
 1346TIP3    H1 4044   1.597   1.086   4.080  0.9292  0.8392 -0.1450
 1346TIP3    H2 4045   1.588   1.232   4.041  0.4818  0.9631  0.4096
 1347TIP3   OH2 4046   6.282   2.256   3.970  0.0620 -0.1619 -0.4562
 1347TIP3    H1 4047   6.350   2.232   4.033 -0.3668 -1.9676 -0.6209
 1347TIP3    H2 4048   6.325   2.316   3.909  1.6122 -1.4609 -0.7154
 1348TIP3   OH2 4049   5.445   4.132   3.357 -0.2017  0.1757 -0.3783
 1348TIP3    H1 4050   5.365   4.172   3.391 -0.3085  0.0306 -0.4572
 1348TIP3    H2 4051   5.490   4.203   3.311  0.1569  0.4841  0.4253
 1349TIP3   OH2 4052   1.775   3.295   2.755  0.1010  0.0173 -0.3557
 1349TIP3    H1 4053   1.734   3.357   2.694 -1.2729 -0.0878  0.4356
 1349TIP3    H2 4054   1.848   3.344   2.793 -1.9640  1.8036  1.5171
 1350TIP3   OH2 4055   1.631   0.654   3.227  0.5217  0.4975  0.3551
 1350TIP3    H1 4056   1.643   0.693   3.140 -0.6971  0.4560  0.1457
 1350TIP3    H2 4057   1.599   0.726   3.281  0.5052  0.3352  0.5618
 1351TIP3   OH2 4058   2.412   4.985   4.787  0.2273 -0.4637  0.0565
 1351TIP3    H1 4059   2.363   5.021   4.861  0.7790 -0.5995  0.4975
 1351TIP3    H2 4060   2.389   5.040   4.713 -0.7005 -0.6104  0.2230
 1352TIP3   OH2 4061   3.068   3.371   0.010  0.2867 -0.4148  0.4275
 1352TIP3    H1 4062   3.114   3.314   0.072  0.8722  1.8065  2.1735
 1352TIP3    H2 4063   2.976   3.348   0.020  0.3955 -0.3141  1.9717
 1353TIP3   OH2 4064   6.047   1.161   3.814  0.7191  0.1630  0.4239
 1353TIP3    H1 4065   5.968   1.205   3.846  0.4416 -0.7264  1.0055
 1353TIP3    H2 4066   6.028   1.141   3.723  0.7025  0.8899  0.2578
 1354TIP3   OH2 4067   4.328   3.813   2.024 -0.0515  0.1756 -0.2482
 1354TIP3    H1 4068   4.319   3.718   2.033 -0.1991  0.0504 -1.5854
 1354TIP3    H2 4069   4.375   3.825   1.941 -0.0162  1.2778 -0.0842
 1355TIP3   OH2 4070   2.148   2.081   1.400 -0.2494  0.4082 -0.1696
 1355TIP3    H1 4071   2.086   2.016   1.434  0.8136 -0.6288 -0.1378
 1355TIP3    H2 4072   2.212   2.091   1.470  1.2839 -0.8269 -1.3364
 1356TIP3   OH2 4073   2.165   1.842   2.492 -0.2547  0.0519 -0.2340
 1356TIP3    H1 4074   2.071   1.825   2.501 -0.3822  0.7525 -0.1805
 1356TIP3    H2 4075   2.202   1.757   2.468 -0.6671 -0.6262  1.3528
 1357TIP3   OH2 4076   4.035   5.481   2.410 -0.6502 -0.4656  0.7767
 1357TIP3    H1 4077   4.100   5.431   2.460  0.9956 -0.7655 -1.5097
 1357TIP3    H2 4078   4.070   5.570   2.407 -1.1050 -0.2819  0.7476
 1358TIP3   OH2 4079   0.140   3.428   4.754  0.4526 -0.0079 -0.7543
 1358TIP3    H1 4080   0.213   3.489   4.749 -0.5303  1.1943 -0.8013
 1358TIP3    H2 4081   0.107   3.422   4.664  0.9224 -1.1021 -0.8687
 1359TIP3   OH2 4082   1.307   3.921   1.305 -0.1938 -0.5730  0.3489
 1359TIP3    H1 4083   1.219   3.959   1.302  0.4446  1.0307 -3.3858
 1359TIP3    H2 4084   1.361   3.991   1.341 -0.1668 -0.9922  1.1520
 1360TIP3   OH2 4085   3.127   0.898   1.184  0.4568 -0.1876 -0.1112
 1360TIP3    H1 4086   3.033   0.913   1.170  0.3717  0.3623  0.8985
 1360TIP3    H2 4087   3.165   0.986   1.183  0.7674 -0.3021  0.6997
 1361TIP3   OH2 4088   2.481   0.357   2.608  0.1840 -0.2227 -0.1994
 1361TIP3    H1 4089   2.572   0.386   2.617  0.1397 -0.5608  2.1685
 1361TIP3    H2 4090   2.483   0.264   2.630 -0.6737 -0.3371 -0.5775
 1362TIP3   OH2 4091   6.221   2.905   2.406 -0.0528  0.5531  0.3853
 1362TIP3    H1 4092   6.268   2.842   2.461 -0.3106  0.3851  0.4175
 1362TIP3    H2 4093   6.278   2.982   2.403  0.6697  0.0081 -0.3568
 1363TIP3   OH2 4094   1.363   3.338   3.435  0.2833  0.2716  0.2851
 1363TIP3    H1 4095   1.304   3.281   3.386  0.2590  0.5623 -0.0263
 1363TIP3    H2 4096   1.318   3.422   3.439  0.2609  0.2315  0.8565
 1364TIP3   OH2 4097   5.895   3.454   3.002 -0.4271 -0.6675  0.1561
 1364TIP3    H1 4098   5.942   3.389   3.054 -0.5307 -0.8443  0.0320
 1364TIP3    H2 4099   5.806   3.453   3.038 -0.9049 -1.8481 -0.9560
 1365TIP3   OH2 4100   2.585   3.587   4.774  0.4405 -0.7935 -0.2459
 1365TIP3    H1 4101   2.563   3.575   4.866 -2.7023 -0.3192 -0.8104
 1365TIP3    H2 4102   2.576   3.681   4.759  1.1461 -0.8366 -1.0124
 1366TIP3   OH2 4103   1.280   2.100   3.266 -0.1972 -0.2022 -0.2778
 1366TIP3    H1 4104   1.350   2.044   3.301  0.4440 -0.5890 -2.0585
 1366TIP3    H2 4105   1.284   2.179   3.319  1.0780 -0.5360  0.1702
 1367TIP3   OH2 4106   2.288   2.626   3.354 -0.0050 -1.1884  0.3814
 1367TIP3    H1 4107   2.282   2.683   3.277 -0.1501 -1.3835  0.2498
 1367TIP3    H2 4108   2.380   2.599   3.356  0.4180  0.2191  1.2793
 1368TIP3   OH2 4109   2.287   0.485   1.452  1.0327 -0.0125  0.5317
 1368TIP3    H1 4110   2.246   0.461   1.369  0.9283  0.7876  0.3485
 1368TIP3    H2 4111   2.224   0.543   1.495 -0.0833 -2.3530  2.3366
 1369TIP3   OH2 4112   2.810   2.076   5.178 -0.2972 -0.4016 -0.0391
 1369TIP3    H1 4113   2.819   2.007   5.112 -0.9283 -1.3373  0.8380
 1369TIP3    H2 4114   2.717   2.076   5.200 -0.1697  0.2078  0.5410
 1370TIP3   OH2 4115   2.301   3.984   1.232  0.0738  0.4429  0.5071
 1370TIP3    H1 4116   2.309   3.894   1.199  0.4848  1.0603 -1.1761
 1370TIP3    H2 4117   2.273   3.973   1.323 -3.4845 -1.3744 -0.6022
 1371TIP3   OH2 4118   1.468   0.601   4.422 -0.2006  0.0141  0.0861
 1371TIP3    H1 4119   1.378   0.570   4.413  0.2228 -0.8087 -1.6787
 1371TIP3    H2 4120   1.459   0.691   4.454 -1.6090 -0.2483  0.4897
 1372TIP3   OH2 4121   2.504   0.794   3.946  0.1262 -0.2051 -0.1477
 1372TIP3    H1 4122   2.517   0.837   3.862  2.4878 -1.2109 -0.3493
 1372TIP3    H2 4123   2.481   0.866   4.006 -1.1802  0.5719 -1.4990
 1373TIP3   OH2 4124   1.405   3.769   3.391  0.6928  0.1125  0.0992
 1373TIP3    H1 4125   1.423   3.838   3.327  1.6475 -0.0789  0.1396
 1373TIP3    H2 4126   1.335   3.805   3.446 -0.3425  0.1624 -1.2147
 1374TIP3   OH2 4127   3.535   2.566   1.788 -0.0056 -0.3521  0.2582
 1374TIP3    H1 4128   3.583   2.648   1.778 -3.2789  1.6576 -0.3035
 1374TIP3    H2 4129   3.560   2.534   1.875  0.9774  1.4671  0.6924
 1375TIP3   OH2 4130   0.981   2.927   3.902 -0.1435 -0.7531 -0.5054
 1375TIP3    H1 4131   1.013   2.992   3.838 -2.1849  0.4624 -0.3794
 1375TIP3    H2 4132   0.940   2.859   3.848  1.0983 -1.4491 -0.5959
 1376TIP3   OH2 4133   2.935   4.678   2.700 -0.4102 -0.2111  0.6387
 1376TIP3    H1 4134   3.030   4.681   2.712 -0.5718  0.4344  1.8349
 1376TIP3    H2 4135   2.904   4.764   2.727 -1.2192  0.0799 -1.0384
 1377TIP3   OH2 4136   4.318   1.767   3.883 -0.3025  0.0293 -0.2708
 1377TIP3    H1 4137   4.378   1.780   3.810  1.0352  1.0765  0.9660
 1377TIP3    H2 4138   4.374   1.748   3.958 -1.5484  0.3887  0.8021
 1378TIP3   OH2 4139   6.149   1.234   1.517  0.0801 -0.3089 -0.0423
 1378TIP3    H1 4140   6.194   1.255   1.598  0.1913  0.3168 -0.2559
 1378TIP3    H2 4141   6.060   1.268   1.529  0.1052 -0.1851 -0.1844
 1379TIP3   OH2 4142   3.550   1.461   2.486  0.1769 -0.0558  0.1402
 1379TIP3    H1 4143   3.579   1.516   2.559  0.8638  0.5321 -0.5534
 1379TIP3    H2 4144   3.541   1.522   2.413  1.8384 -0.9895 -0.8938
 1380TIP3   OH2 4145   1.493   5.029   0.881 -0.5544  0.7662 -0.4058
 1380TIP3    H1 4146   1.459   4.975   0.952  1.2905 -0.4782 -0.3734
 1380TIP3    H2 4147   1.560   5.083   0.922 -0.7006  1.3284 -0.8915
 1381TIP3   OH2 4148   0.785   0.606   2.845 -0.0159 -0.3003  0.3462
 1381TIP3    H1 4149   0.709   0.586   2.791  0.7881 -0.4264 -0.7603
 1381TIP3    H2 4150   0.781   0.700   2.859  0.8064  0.0684 -1.5918
 1382TIP3   OH2 4151   3.550   3.962   3.834 -0.3934  0.1985  0.9448
 1382TIP3    H1 4152   3.640   3.958   3.801 -0.7001 -1.0948  0.1853
 1382TIP3    H2 4153   3.518   4.048   3.805  0.8699  1.0785  2.0448
 1383TIP3   OH2 4154   3.054   5.542   4.615 -0.2306 -0.4209 -0.2453
 1383TIP3    H1 4155   2.979   5.542   4.674 -0.7882  0.9158 -0.9272
 1383TIP3    H2 4156   3.017   5.554   4.528  0.6865 -0.9774 -0.7308
 1384TIP3   OH2 4157   3.386   0.820   0.018 -0.1897  0.2842  0.2644
 1384TIP3    H1 4158   3.433   0.753  -0.031 -1.7984  0.4286 -1.6275
 1384TIP3    H2 4159   3.348   0.773   0.093 -0.9266 -0.8641 -0.7855
 1385TIP3   OH2 4160   0.175   2.066   0.830 -0.1678 -0.6756  1.1611
 1385TIP3    H1 4161   0.212   1.978   0.840  2.7098 -0.5832 -4.5104
 1385TIP3    H2 4162   0.250   2.124   0.841 -0.9151  0.5811 -0.0951
 1386TIP3   OH2 4163   2.059   4.817   0.407  0.2662  0.0943 -0.4823
 1386TIP3    H1 4164   1.968   4.797   0.429 -0.0983  0.4612 -1.5939
 1386TIP3    H2 4165   2.110   4.776   0.477 -0.6366 -1.8521 -0.8901
 1387TIP3   OH2 4166   4.627   3.832   4.057  0.0234 -0.2593  0.1473
 1387TIP3    H1 4167   4.546   3.856   4.012  1.0621  0.7197 -1.2998
 1387TIP3    H2 4168   4.678   3.786   3.990  0.2150 -1.9377  1.3843
 1388TIP3   OH2 4169   1.548   3.433   2.209 -0.0196  0.4190  0.6109
 1388TIP3    H1 4170   1.576   3.503   2.150  0.1367 -1.8334 -2.1995
 1388TIP3    H2 4171   1.457   3.455   2.230 -0.8832  0.1599 -2.4587
 1389TIP3   OH2 4172   3.754   4.356   3.468 -0.2504  0.5985  0.2692
 1389TIP3    H1 4173   3.701   4.341   3.546  1.0269 -0.1272  1.0451
 1389TIP3    H2 4174   3.800   4.438   3.485  1.4339 -0.4712  1.1583
 1390TIP3   OH2 4175   5.695   0.215   4.403 -0.6938  0.6015  0.0842
 1390TIP3    H1 4176   5.735   0.138   4.362  3.4796  1.3889  2.0645
 1390TIP3    H2 4177   5.709   0.286   4.341  2.2815  1.0647  1.1170
 1391TIP3   OH2 4178   1.300   2.182   2.077  0.0326  0.4012 -0.2786
 1391TIP3    H1 4179   1.380   2.181   2.129 -0.3032  2.0002  0.3303
 1391TIP3    H2 4180   1.237   2.134   2.131  0.3290 -0.0712 -0.3444
 1392TIP3   OH2 4181   3.463  -0.012   3.022  0.1294 -0.8257 -0.4210
 1392TIP3    H1 4182   3.467   0.034   3.107  0.2137 -1.0326 -0.3126
 1392TIP3    H2 4183   3.551  -0.004   2.986  0.2311 -1.1828 -0.2535
 1393TIP3   OH2 4184   1.048   0.523   4.168  0.3288  0.0937 -0.3805
 1393TIP3    H1 4185   1.057   0.597   4.227  1.8315 -0.1189 -0.3181
 1393TIP3    H2 4186   0.955   0.500   4.172  0.0499  1.3078  0.3916
 1394TIP3   OH2 4187   0.664   1.501   4.859  0.2121 -0.3163  0.4479
 1394TIP3    H1 4188   0.642   1.590   4.887  2.5301  0.4138  0.1983
 1394TIP3    H2 4189   0.588   1.448   4.883 -0.5723  1.4385  2.1091
 1395TIP3   OH2 4190   2.825   1.993   1.082 -0.0826 -0.0742  0.2128
 1395TIP3    H1 4191   2.775   1.912   1.076  0.9493 -0.6842 -0.4615
 1395TIP3    H2 4192   2.797   2.032   1.165 -1.2494 -0.6579  0.1242
 1396TIP3   OH2 4193   0.386   0.418   5.023 -0.7926  0.2922 -0.2444
 1396TIP3    H1 4194   0.332   0.407   4.945 -1.7946  0.7054  0.3596
 1396TIP3    H2 4195   0.350   0.354   5.085 -0.7728  0.7641  0.2588
 1397TIP3   OH2 4196   5.551   4.935   1.380  0.1174  0.5128  0.5695
 1397TIP3    H1 4197   5.598   5.016   1.358 -1.5089  1.4790  0.4786
 1397TIP3    H2 4198   5.512   4.953   1.466 -0.1181 -0.2393  0.6238
 1398TIP3   OH2 4199   4.988   1.343   4.520  0.1736  0.0729  0.0644
 1398TIP3    H1 4200   5.005   1.431   4.486  0.6138  0.8403  2.1241
 1398TIP3    H2 4201   5.059   1.329   4.584 -0.3386 -1.4599  0.3158
 1399TIP3   OH2 4202   6.113   2.547   3.945  0.4076 -0.0481  0.3151
 1399TIP3    H1 4203   6.033   2.562   3.995  1.3414  0.3054  1.7549
 1399TIP3    H2 4204   6.082   2.525   3.857 -1.2253  2.8407  0.0517
 1400TIP3   OH2 4205   1.018   3.090   3.689  0.1249 -0.0864 -0.6619
 1400TIP3    H1 4206   1.099   3.095   3.638 -0.2870 -1.3548 -1.4826
 1400TIP3    H2 4207   0.980   3.178   3.681  1.5483  0.6214 -0.0063
 1401TIP3   OH2 4208   2.725   4.311   3.791  0.5650  0.1375 -0.2273
 1401TIP3    H1 4209   2.705   4.382   3.730  1.2076 -0.1224 -0.7429
 1401TIP3    H2 4210   2.738   4.234   3.736  1.1195 -0.1108  0.2395
 1402TIP3   OH2 4211   2.224   4.452   1.163  0.1340  0.0090  0.2902
 1402TIP3    H1 4212   2.274   4.423   1.087 -0.8672 -0.4811 -0.2014
 1402TIP3    H2 4213   2.181   4.373   1.196 -0.2439  0.4007  0.7586
 1403TIP3   OH2 4214   5.364   3.428   3.353  0.7373  0.2459 -0.0403
 1403TIP3    H1 4215   5.288   3.484   3.337  0.5170  0.1534  0.6447
 1403TIP3    H2 4216   5.433   3.489   3.382  1.2059  0.4438 -1.4749
 1404TIP3   OH2 4217   0.044   3.170   0.930 -0.2737 -0.0508  0.4311
 1404TIP3    H1 4218  -0.020   3.220   0.881 -0.0136  0.5603  0.6970
 1404TIP3    H2 4219   0.014   3.080   0.925 -0.6504  0.1073 -0.2130
 1405TIP3   OH2 4220   0.503   0.945   5.057  0.2716  0.3129 -0.9057
 1405TIP3    H1 4221   0.444   0.932   5.131  1.8954 -0.2707  0.3596
 1405TIP3    H2 4222   0.513   0.859   5.018 -0.0549  0.4926 -1.3896
 1406TIP3   OH2 4223   0.692   5.063   3.492 -0.3050 -0.0893  0.4756
 1406TIP3    H1 4224   0.704   4.986   3.548 -0.3545  0.5924  1.4557
 1406TIP3    H2 4225   0.732   5.039   3.409 -0.6753 -1.3169  0.6296
 1407TIP3   OH2 4226   2.498   3.458   4.546  0.5019  0.4526  0.2632
 1407TIP3    H1 4227   2.559   3.482   4.616 -0.5697  1.3753  0.9090
 1407TIP3    H2 4228   2.498   3.534   4.487  2.6452 -0.9533 -1.6921
 1408TIP3   OH2 4229   2.701   0.512   0.799 -0.7858  1.0371 -0.6918
 1408TIP3    H1 4230   2.674   0.474   0.883 -1.1356  1.4971 -0.5933
 1408TIP3    H2 4231   2.677   0.445   0.735 -1.1783  0.9856 -0.4963
 1409TIP3   OH2 4232   0.416   5.733   3.466  0.4103 -0.4782 -0.3692
 1409TIP3    H1 4233   0.455   5.719   3.380 -1.8149  0.5787 -1.6609
 1409TIP3    H2 4234   0.330   5.690   3.460  0.9671 -2.1474  2.0802
 1410TIP3   OH2 4235   2.286   1.346   4.328 -0.4037 -0.6463  0.3615
 1410TIP3    H1 4236   2.250   1.264   4.292  0.2308 -2.0693  2.7440
 1410TIP3    H2 4237   2.342   1.318   4.400 -0.1899  1.9156  1.2933
 1411TIP3   OH2 4238   6.140   3.495   5.161 -0.4889  0.3260 -0.0440
 1411TIP3    H1 4239   6.106   3.411   5.133  0.9872  0.2175 -1.6771
 1411TIP3    H2 4240   6.064   3.553   5.161 -1.3119 -0.7204 -0.0056
 1412TIP3   OH2 4241   4.586   2.359   1.066 -0.0634  0.2015 -0.3122
 1412TIP3    H1 4242   4.601   2.293   1.133  1.9014 -0.8925 -1.7177
 1412TIP3    H2 4243   4.660   2.419   1.074  1.1247 -0.8519 -2.4259
 1413TIP3   OH2 4244   4.636   4.338   3.562 -0.5380 -0.3754 -0.4713
 1413TIP3    H1 4245   4.617   4.352   3.469  1.4557 -0.9096 -1.0112
 1413TIP3    H2 4246   4.725   4.371   3.573  0.0826 -2.2983  0.7528
 1414TIP3   OH2 4247   5.428   2.976   0.981  0.1253  0.3912 -0.7534
 1414TIP3    H1 4248   5.353   3.007   0.931 -0.2423 -0.0603 -0.4846
 1414TIP3    H2 4249   5.416   2.881   0.986 -0.1365  0.4885  0.6665
 1415TIP3   OH2 4250   4.787   5.708   3.942  0.8894 -0.1241  0.0440
 1415TIP3    H1 4251   4.740   5.673   4.018  1.7504 -1.8720 -0.1874
 1415TIP3    H2 4252   4.745   5.793   3.926 -0.6114 -0.5794  1.2601
 1416TIP3   OH2 4253   2.780   3.166   2.340  0.2134  0.2893  0.0511
 1416TIP3    H1 4254   2.836   3.243   2.340  0.1083  0.3693  0.6043
 1416TIP3    H2 4255   2.738   3.166   2.427 -1.8320  1.0992 -0.8815
 1417TIP3   OH2 4256   4.992   4.009   0.099  0.9839 -0.2568 -0.4750
 1417TIP3    H1 4257   4.898   4.022   0.113  1.1484  0.7356 -0.2085
 1417TIP3    H2 4258   5.032   4.032   0.182  1.5327  0.2732 -0.8746
 1418TIP3   OH2 4259   5.429   2.239   1.374 -0.1454  0.1212  0.0874
 1418TIP3    H1 4260   5.451   2.178   1.304  1.6037 -1.4607  1.8630
 1418TIP3    H2 4261   5.339   2.219   1.397  0.1027 -1.1947 -0.0079
 1419TIP3   OH2 4262   3.653   0.506   3.673 -0.4777  0.2760  0.6370
 1419TIP3    H1 4263   3.734   0.541   3.637  0.0205 -0.7581  0.7246
 1419TIP3    H2 4264   3.679   0.425   3.716 -1.1754  1.0616  2.6883
 1420TIP3   OH2 4265   0.601   2.891   2.943  0.5433  0.8856  0.3569
 1420TIP3    H1 4266   0.619   2.872   3.035  0.9905  1.7686  0.4655
 1420TIP3    H2 4267   0.524   2.948   2.945 -0.7521 -0.7941  0.0439
 1421TIP3   OH2 4268   0.520   0.119   2.375 -0.2494 -0.1714  0.0105
 1421TIP3    H1 4269   0.613   0.097   2.376 -0.2342 -0.1821 -0.9351
 1421TIP3    H2 4270   0.494   0.119   2.467  0.6497 -0.3178  0.2683
 1422TIP3   OH2 4271   3.684   1.181   1.349  0.1146 -0.0861 -0.1462
 1422TIP3    H1 4272   3.714   1.139   1.268 -0.6102  0.7344 -0.8596
 1422TIP3    H2 4273   3.592   1.200   1.333  0.0740  0.4872  0.7076
 1423TIP3   OH2 4274   0.422   3.726   4.231 -0.0987 -0.0654  0.0751
 1423TIP3    H1 4275   0.407   3.729   4.137  0.6011 -0.1182 -0.0400
 1423TIP3    H2 4276   0.379   3.804   4.265 -1.7067 -0.8372 -0.0861
 1424TIP3   OH2 4277   4.783   5.834   2.517  0.1238  0.5363  0.0641
 1424TIP3    H1 4278   4.690   5.841   2.539  0.1891 -0.1160  0.5481
 1424TIP3    H2 4279   4.784   5.805   2.425 -0.1487  0.2261  0.1601
 1425TIP3   OH2 4280   5.002   2.796   3.572 -0.4212 -0.1322 -0.1716
 1425TIP3    H1 4281   4.907   2.810   3.580 -0.5899 -0.8689 -0.8364
 1425TIP3    H2 4282   5.017   2.710   3.611 -0.0077  0.0111 -0.0078
 1426TIP3   OH2 4283   0.044   4.049   0.565  0.2953 -0.3046 -0.4748
 1426TIP3    H1 4284   0.117   4.103   0.535  1.2674 -1.0929  0.3928
 1426TIP3    H2 4285   0.072   3.959   0.548 -0.0461 -0.6612  0.7438
 1427TIP3   OH2 4286   0.457   5.468   1.464 -0.3472 -0.5126 -0.6644
 1427TIP3    H1 4287   0.393   5.535   1.440  0.7396  1.1785  0.8475
 1427TIP3    H2 4288   0.405   5.399   1.504 -1.4087 -0.0486 -1.1983
 1428TIP3   OH2 4289   2.255   3.531   4.978 -0.6064 -0.4173 -0.6048
 1428TIP3    H1 4290   2.256   3.532   4.883 -1.5840  1.2296 -0.6355
 1428TIP3    H2 4291   2.200   3.605   5.003 -0.6954 -1.0350  1.2417
 1429TIP3   OH2 4292   3.725   0.509   4.004 -0.2315  0.2518  0.0818
 1429TIP3    H1 4293   3.724   0.585   3.947  0.1202  0.2240  0.0362
 1429TIP3    H2 4294   3.658   0.451   3.968  1.1149 -0.5084 -1.3335
 1430TIP3   OH2 4295   0.498   0.481   0.887 -0.0424  0.1802 -0.0691
 1430TIP3    H1 4296   0.537   0.568   0.887 -1.3066  0.7694  0.0804
 1430TIP3    H2 4297   0.470   0.467   0.796 -0.2662  0.1336  0.0057
 1431TIP3   OH2 4298   5.479   0.213   3.716 -0.2414 -0.2372 -0.1449
 1431TIP3    H1 4299   5.512   0.213   3.626  1.5903  1.1756  0.4783
 1431TIP3    H2 4300   5.498   0.300   3.749 -0.1306 -0.9714  1.8767
 1432TIP3   OH2 4301   1.470   3.924   3.647 -0.0558 -0.1049  0.1553
 1432TIP3    H1 4302   1.437   4.008   3.680 -0.7366 -0.7641  1.2303
 1432TIP3    H2 4303   1.405   3.860   3.676 -0.3353 -0.8346 -1.9480
 1433TIP3   OH2 4304   6.036   4.253   3.315 -0.3572 -0.2354  0.4152
 1433TIP3    H1 4305   6.036   4.294   3.228  0.1478  2.4214  1.5501
 1433TIP3    H2 4306   5.953   4.206   3.320 -1.2084  1.0506 -0.8939
 1434TIP3   OH2 4307   5.804   0.531   0.208  0.2015  0.3913  0.3911
 1434TIP3    H1 4308   5.795   0.513   0.115 -1.1516  1.5053  0.2650
 1434TIP3    H2 4309   5.715   0.554   0.237  0.9830  2.3690  1.4285
 1435TIP3   OH2 4310   5.067   2.651   1.701  0.0725  0.3486  0.5624
 1435TIP3    H1 4311   5.126   2.601   1.644  1.1860  2.1545  0.0387
 1435TIP3    H2 4312   5.043   2.727   1.648 -2.4014 -0.0866  0.9535
 1436TIP3   OH2 4313   0.633   5.650   4.608 -0.3615 -0.0272 -0.2472
 1436TIP3    H1 4314   0.643   5.733   4.562 -1.7114  0.7498  0.8057
 1436TIP3    H2 4315   0.542   5.624   4.594 -0.2604 -0.7687  0.3579
 1437TIP3   OH2 4316   4.727   2.519   3.666  0.4251 -0.1080 -0.2628
 1437TIP3    H1 4317   4.651   2.507   3.610 -0.2638  0.0917  0.6140
 1437TIP3    H2 4318   4.734   2.613   3.678  1.3740 -0.0535 -1.0792
 1438TIP3   OH2 4319   0.470   1.837   1.981  0.1611 -0.3902  0.3376
 1438TIP3    H1 4320   0.380   1.819   1.951  0.0222  0.2214  0.3747
 1438TIP3    H2 4321   0.475   1.798   2.068 -0.0803 -0.3860  0.3536
 1439TIP3   OH2 4322   4.059   1.170   0.424 -0.6292 -0.1960  0.6846
 1439TIP3    H1 4323   4.009   1.186   0.504  0.5577 -0.5579  1.5233
 1439TIP3    H2 4324   4.131   1.233   0.428 -1.1012  0.4582 -0.6078
 1440TIP3   OH2 4325   1.858   2.591   0.757 -0.0798 -0.3934 -0.4111
 1440TIP3    H1 4326   1.885   2.668   0.807 -0.0267  0.4566 -1.7108
 1440TIP3    H2 4327   1.934   2.534   0.757  0.0538 -0.2237  0.1161
 1441TIP3   OH2 4328   1.666   0.298   4.053 -0.2560  0.3180 -0.2533
 1441TIP3    H1 4329   1.644   0.206   4.070 -3.2203  0.5618 -2.0197
 1441TIP3    H2 4330   1.725   0.296   3.979 -0.2775 -0.1669 -0.2573
 1442TIP3   OH2 4331   1.065   3.891   2.384 -0.2266  0.2999 -0.0308
 1442TIP3    H1 4332   1.047   3.801   2.410  1.3264 -0.0679 -0.1226
 1442TIP3    H2 4333   1.153   3.888   2.348 -0.8876  1.4972 -1.8898
 1443TIP3   OH2 4334   4.904   0.241   1.236  0.6563 -0.2895  0.0580
 1443TIP3    H1 4335   4.887   0.210   1.147  0.2405  0.9510 -0.3193
 1443TIP3    H2 4336   4.827   0.293   1.258  1.1445  0.1305  0.8097
 1444TIP3   OH2 4337   0.638   1.245   1.147 -0.4235 -0.0019  0.1849
 1444TIP3    H1 4338   0.599   1.326   1.114 -1.4396  0.1364  1.6585
 1444TIP3    H2 4339   0.677   1.269   1.231 -0.1017 -0.8948  0.3036
 1445TIP3   OH2 4340   3.888   2.878   3.654  0.0773  0.1151 -0.2576
 1445TIP3    H1 4341   3.968   2.917   3.690  1.5631 -0.4006 -2.7767
 1445TIP3    H2 4342   3.890   2.787   3.683 -0.7956  0.6031  1.4769
 1446TIP3   OH2 4343   6.130   3.398   4.608 -0.7004 -0.4479 -0.6804
 1446TIP3    H1 4344   6.141   3.306   4.632  0.4649  0.0239  0.7331
 1446TIP3    H2 4345   6.210   3.421   4.560 -0.4203  0.1232  0.0322
 1447TIP3   OH2 4346   0.439   1.101   4.712  0.5814  0.9158 -0.2188
 1447TIP3    H1 4347   0.427   1.007   4.724  1.1382  0.8411 -0.2488
 1447TIP3    H2 4348   0.381   1.123   4.638 -0.4286  0.8153  0.5166
 1448TIP3   OH2 4349   2.273   4.403   4.598  0.4960  0.5491 -0.0156
 1448TIP3    H1 4350   2.298   4.477   4.542  0.7575 -0.4797 -1.3107
 1448TIP3    H2 4351   2.188   4.375   4.564  1.3694 -1.0683 -0.9710
 1449TIP3   OH2 4352   1.189   4.803   0.581 -0.0229 -0.2593  0.4886
 1449TIP3    H1 4353   1.122   4.864   0.550  0.8891  0.0095 -1.0207
 1449TIP3    H2 4354   1.158   4.717   0.551  0.2095 -0.1536 -0.0711
 1450TIP3   OH2 4355   1.142   3.573   0.147  0.4815  0.1134 -0.2837
 1450TIP3    H1 4356   1.133   3.644   0.083 -0.7801 -0.4572 -0.7771
 1450TIP3    H2 4357   1.054   3.561   0.182  0.7525 -0.9609  0.0702
 1451TIP3   OH2 4358   5.081   1.555   4.370  0.1576  0.2345 -0.5567
 1451TIP3    H1 4359   5.131   1.527   4.293  0.7129  2.3134 -1.0092
 1451TIP3    H2 4360   5.057   1.646   4.351 -1.3406  0.1831  0.9209
 1452TIP3   OH2 4361   3.404   4.397   2.363  0.0620 -0.2737  0.0676
 1452TIP3    H1 4362   3.412   4.317   2.415 -0.3358 -0.3385  0.0304
 1452TIP3    H2 4363   3.393   4.467   2.427 -2.9733 -0.6187  0.0852
 1453TIP3   OH2 4364   0.720   4.857   4.506  0.2562 -0.0116  0.2724
 1453TIP3    H1 4365   0.741   4.950   4.516 -2.7750  0.7460  0.8227
 1453TIP3    H2 4366   0.692   4.848   4.415  0.2140 -0.2870  0.3123
 1454TIP3   OH2 4367   1.820   3.248   0.619 -0.1507  0.3447  0.0089
 1454TIP3    H1 4368   1.883   3.276   0.553 -0.2065  2.5729  0.8359
 1454TIP3    H2 4369   1.752   3.315   0.618 -2.1762 -1.5625 -0.2918
 1455TIP3   OH2 4370   1.008   3.141   3.159 -0.4285  0.0933 -0.5387
 1455TIP3    H1 4371   0.993   3.171   3.069 -2.0032 -0.3712 -0.4618
 1455TIP3    H2 4372   1.016   3.046   3.152  0.6750  0.1477 -0.3064
 1456TIP3   OH2 4373   6.160   0.384   4.404  0.8928 -0.3422 -0.0491
 1456TIP3    H1 4374   6.193   0.472   4.421  0.6006  0.2765 -2.3612
 1456TIP3    H2 4375   6.079   0.379   4.454 -0.5329  1.7667 -1.9490
 1457TIP3   OH2 4376   4.479   0.957   0.839 -0.0312 -0.3891  0.0187
 1457TIP3    H1 4377   4.444   0.976   0.752 -2.3624 -2.6366  0.3482
 1457TIP3    H2 4378   4.414   0.993   0.900 -1.0314 -3.0193  0.6784
 1458TIP3   OH2 4379   2.343   4.860   4.276  0.0154 -0.1156 -0.0243
 1458TIP3    H1 4380   2.332   4.949   4.240 -0.0746 -0.3297 -0.5377
 1458TIP3    H2 4381   2.299   4.863   4.360 -1.1214 -0.0238 -0.6039
 1459TIP3   OH2 4382   0.271   4.118   3.939  0.1139  0.0963  0.1375
 1459TIP3    H1 4383   0.334   4.136   3.869 -0.9461 -1.9263 -1.4681
 1459TIP3    H2 4384   0.323   4.074   4.007  0.3266 -3.3405 -1.9679
 1460TIP3   OH2 4385   5.770   1.342   1.943  0.0450 -0.0943  0.5233
 1460TIP3    H1 4386   5.721   1.299   1.873 -0.5773 -0.1432  0.9820
 1460TIP3    H2 4387   5.755   1.436   1.929  1.4611  0.0156 -0.5204
 1461TIP3   OH2 4388   0.524   2.439   5.062 -0.2739  0.1809 -0.0035
 1461TIP3    H1 4389   0.465   2.396   5.124 -0.7821 -2.0382 -1.8968
 1461TIP3    H2 4390   0.611   2.428   5.099 -0.4026 -2.3980 -0.2794
 1462TIP3   OH2 4391   5.348   4.921   0.218 -0.1043  0.1867  0.9033
 1462TIP3    H1 4392   5.294   4.863   0.164  1.1107  0.5609 -0.7889
 1462TIP3    H2 4393   5.337   4.888   0.307 -1.9211 -0.6558  0.4252
 1463TIP3   OH2 4394   5.621   5.241   5.176  0.1307  0.0339 -0.2111
 1463TIP3    H1 4395   5.683   5.192   5.122  1.6847  0.5063  1.0679
 1463TIP3    H2 4396   5.648   5.333   5.165  0.1408  0.1780  0.9178
 1464TIP3   OH2 4397   1.497   2.784   1.924  0.2232  0.1046  0.3663
 1464TIP3    H1 4398   1.475   2.851   1.859 -0.3679  1.6321  2.0611
 1464TIP3    H2 4399   1.592   2.788   1.932  0.2337  0.3933  0.1122
 1465TIP3   OH2 4400   1.041   0.468   3.891  0.1166 -0.5835  0.5874
 1465TIP3    H1 4401   0.997   0.384   3.905 -0.6439 -0.5110 -1.1088
 1465TIP3    H2 4402   1.052   0.504   3.978 -0.7187 -1.8562  1.2546
 1466TIP3   OH2 4403   5.555   4.769   1.737 -0.6870  0.2047  0.6429
 1466TIP3    H1 4404   5.547   4.681   1.774  1.8457 -0.3249  0.0817
 1466TIP3    H2 4405   5.549   4.827   1.813 -0.3833 -0.5777  1.2778
 1467TIP3   OH2 4406   5.718   4.579   3.391 -0.8232 -0.4748 -0.0703
 1467TIP3    H1 4407   5.702   4.566   3.298  1.5652 -3.1645 -0.2518
 1467TIP3    H2 4408   5.719   4.491   3.428 -1.0153  0.4748  2.3820
 1468TIP3   OH2 4409   0.657   2.279   1.728 -0.1715  0.0103  0.4899
 1468TIP3    H1 4410   0.591   2.333   1.683 -2.6269 -2.7234  0.5514
 1468TIP3    H2 4411   0.708   2.241   1.657  0.2915  0.8081  0.3751
 1469TIP3   OH2 4412   1.207   2.206   0.607 -0.3656 -0.0814 -0.3641
 1469TIP3    H1 4413   1.212   2.174   0.697  3.6677  2.5655  0.6035
 1469TIP3    H2 4414   1.137   2.271   0.609  2.4898  3.3339  2.3766
 1470TIP3   OH2 4415   5.922   3.462   1.903 -0.2325  0.3732 -1.1646
 1470TIP3    H1 4416   5.910   3.516   1.825  0.6557  0.1364 -1.4723
 1470TIP3    H2 4417   6.013   3.476   1.929  0.1070 -1.1734 -1.4185
 1471TIP3   OH2 4418   4.830   4.450   4.571  0.0032  0.5505  0.4959
 1471TIP3    H1 4419   4.811   4.427   4.661  1.2265 -0.2818  0.5678
 1471TIP3    H2 4420   4.865   4.370   4.532  1.6584  1.4900 -0.0486
 1472TIP3   OH2 4421   5.765   5.347   2.331 -0.2789  0.2003 -0.0598
 1472TIP3    H1 4422   5.696   5.408   2.357  0.5795  0.8255  0.8414
 1472TIP3    H2 4423   5.747   5.328   2.239 -1.8883 -0.0031  0.2615
 1473TIP3   OH2 4424   3.879   0.373   1.012  0.1230  0.1999  0.1779
 1473TIP3    H1 4425   3.957   0.412   0.973  0.1007  0.0501 -0.0217
 1473TIP3    H2 4426   3.826   0.447   1.040  0.4267  0.3024  0.4985
 1474TIP3   OH2 4427   1.368   2.526   2.849 -0.2248 -0.1314 -0.1533
 1474TIP3    H1 4428   1.398   2.441   2.881 -0.8250 -0.4225 -0.3721
 1474TIP3    H2 4429   1.449   2.574   2.831  0.1194 -0.4572  0.4888
 1475TIP3   OH2 4430   1.815   1.551   4.999 -0.7810  0.0582 -0.1873
 1475TIP3    H1 4431   1.751   1.593   5.057 -0.6295 -1.5766  1.2498
 1475TIP3    H2 4432   1.761   1.504   4.935 -0.9518  1.5249 -1.1706
 1476TIP3   OH2 4433   5.241   2.080   1.172 -0.2934 -0.0679  0.0534
 1476TIP3    H1 4434   5.204   2.162   1.139 -0.3832 -0.6910 -1.4435
 1476TIP3    H2 4435   5.173   2.015   1.159 -0.1885 -0.4303  1.1565
 1477TIP3   OH2 4436   0.790   1.973   1.237  0.1015 -0.4353  0.1602
 1477TIP3    H1 4437   0.787   2.060   1.197  0.9209 -0.5969 -0.2806
 1477TIP3    H2 4438   0.776   1.913   1.165  2.8136 -0.7796 -0.1687
 1478TIP3   OH2 4439   4.935   4.947   0.262 -0.3551  0.4169  0.0012
 1478TIP3    H1 4440   5.012   4.891   0.263 -0.7814 -0.2054 -0.8273
 1478TIP3    H2 4441   4.944   5.000   0.183 -0.7395  0.3708 -0.0794
 1479TIP3   OH2 4442   4.276   0.227   3.861 -0.5841  0.2829  0.1684
 1479TIP3    H1 4443   4.263   0.204   3.953 -2.8625 -0.0144 -0.1516
 1479TIP3    H2 4444   4.220   0.304   3.848 -0.9785 -0.2058 -1.1617
 1480TIP3   OH2 4445   0.110   3.128   1.401  0.2439 -0.4370  0.5716
 1480TIP3    H1 4446   0.087   3.128   1.308  3.9308  0.7519 -0.5436
 1480TIP3    H2 4447   0.047   3.187   1.442 -0.5077  0.2720 -1.4888
 1481TIP3   OH2 4448   2.691  -0.032   3.065  0.4478 -0.0593  0.2006
 1481TIP3    H1 4449   2.652   0.044   3.109 -3.5646 -0.6769 -1.7982
 1481TIP3    H2 4450   2.735   0.005   2.988 -0.4000  0.3986 -0.0810
 1482TIP3   OH2 4451   4.182   2.854   1.356  0.2018 -0.2444  0.1261
 1482TIP3    H1 4452   4.175   2.947   1.336 -0.1607 -0.3268 -0.1266
 1482TIP3    H2 4453   4.267   2.846   1.401  0.8950 -0.0113 -1.0910
 1483TIP3   OH2 4454   5.322   3.049   2.728  0.1552 -0.3519 -0.0135
 1483TIP3    H1 4455   5.339   2.997   2.649 -0.1277 -0.9564  0.3163
 1483TIP3    H2 4456   5.312   3.139   2.696 -0.6305 -0.6878 -0.7448
 1484TIP3   OH2 4457   1.903   3.475   3.446 -1.1201  0.3982 -0.6990
 1484TIP3    H1 4458   1.854   3.416   3.388 -1.9724  2.8828 -2.6888
 1484TIP3    H2 4459   1.991   3.477   3.409 -1.6545  1.9550 -1.9854
 1485TIP3   OH2 4460   0.618   4.663   4.701  0.0909  0.5453 -0.3356
 1485TIP3    H1 4461   0.563   4.739   4.722 -0.4777 -0.1049  0.5808
 1485TIP3    H2 4462   0.674   4.694   4.630 -0.7297  1.5533 -0.5717
 1486TIP3   OH2 4463   2.994   4.171   3.224 -0.1359  0.5457 -0.4358
 1486TIP3    H1 4464   2.921   4.227   3.198 -2.1973 -1.4892  0.5274
 1486TIP3    H2 4465   2.961   4.082   3.212  1.8019 -0.4632  1.0851
 1487TIP3   OH2 4466   2.431   5.649   1.739 -0.0562  0.2767 -0.0882
 1487TIP3    H1 4467   2.445   5.601   1.657  0.0072  0.7171 -0.3354
 1487TIP3    H2 4468   2.394   5.584   1.799  0.5368 -0.2192 -0.2533
 1488TIP3   OH2 4469   1.760   1.232   4.808  0.0794 -0.0126 -0.3981
 1488TIP3    H1 4470   1.729   1.236   4.717 -0.0374  0.7751 -0.3276
 1488TIP3    H2 4471   1.687   1.266   4.859 -0.0574 -0.9597  0.0457
 1489TIP3   OH2 4472   1.108   4.518   2.154  0.0278 -0.7575  0.5321
 1489TIP3    H1 4473   1.160   4.541   2.231 -1.9009 -2.2336  2.3829
 1489TIP3    H2 4474   1.054   4.445   2.182 -2.5758  0.2366 -1.4696
 1490TIP3   OH2 4475   2.636   3.067   0.822 -0.3761 -0.8652  0.3675
 1490TIP3    H1 4476   2.620   3.071   0.728 -1.1981 -0.2633  0.5180
 1490TIP3    H2 4477   2.582   2.993   0.852 -0.8589 -0.4701  0.4933
 1491TIP3   OH2 4478   0.361   3.715   3.958 -0.2125 -0.3868 -0.1243
 1491TIP3    H1 4479   0.428   3.769   3.914 -0.8265  0.3580 -0.1620
 1491TIP3    H2 4480   0.282   3.729   3.906 -0.3833 -1.3260 -0.1210
 1492TIP3   OH2 4481   0.923   3.659   3.192 -0.0637 -0.7007  0.3403
 1492TIP3    H1 4482   0.835   3.694   3.206 -0.0026 -0.6816  0.6826
 1492TIP3    H2 4483   0.925   3.636   3.099 -0.7980 -1.7313  0.5576
 1493TIP3   OH2 4484   5.463   1.688   3.714  0.3293 -0.2620 -0.3493
 1493TIP3    H1 4485   5.529   1.718   3.777 -0.3699 -1.2891  0.9168
 1493TIP3    H2 4486   5.469   1.750   3.642  0.2230  1.8141  1.3242
 1494TIP3   OH2 4487   2.460   2.984   5.166  0.3002  0.5865  0.1076
 1494TIP3    H1 4488   2.446   3.071   5.129 -1.3042  0.7979  1.1299
 1494TIP3    H2 4489   2.430   2.923   5.098  0.2817  0.8595 -0.1291
 1495TIP3   OH2 4490   2.739   1.521   3.904 -0.1247  0.0170 -0.5545
 1495TIP3    H1 4491   2.724   1.598   3.848  0.6868 -0.2455 -1.1462
 1495TIP3    H2 4492   2.799   1.466   3.854 -0.9509 -1.1677 -0.2725
 1496TIP3   OH2 4493   5.071   3.261   4.169  0.0361  0.7073  0.2898
 1496TIP3    H1 4494   4.982   3.251   4.135  0.2370 -0.3095  0.0325
 1496TIP3    H2 4495   5.117   3.311   4.101  0.1814 -0.4979 -0.5316
 1497TIP3   OH2 4496   3.072   5.503   0.758  0.2129 -0.0557 -0.2994
 1497TIP3    H1 4497   3.052   5.570   0.693 -0.3223  1.9437  1.8072
 1497TIP3    H2 4498   3.120   5.549   0.826 -0.8175 -1.6343  1.5990
 1498TIP3   OH2 4499   3.087   4.426   1.258 -1.2708  0.0329 -0.0243
 1498TIP3    H1 4500   3.125   4.345   1.225 -1.9217 -0.9591  1.5339
 1498TIP3    H2 4501   2.993   4.413   1.249 -1.4098  0.2512  0.9985
 1499TIP3   OH2 4502   1.278   0.719   0.309 -0.5867 -0.0029 -0.4263
 1499TIP3    H1 4503   1.361   0.766   0.299 -0.8210  0.1438 -1.8007
 1499TIP3    H2 4504   1.211   0.785   0.296 -0.9408 -0.1168  0.7149
 1500TIP3   OH2 4505   3.945   1.513   5.111  0.5415  0.2092 -0.0677
 1500TIP3    H1 4506   4.000   1.583   5.074  1.8095 -0.2493  0.8743
 1500TIP3    H2 4507   3.969   1.436   5.061  0.7475  0.0099  0.3353
 1501TIP3   OH2 4508   4.780   3.252   4.767  0.2056  0.1125 -0.4090
 1501TIP3    H1 4509   4.809   3.341   4.745 -1.0791  0.2919 -1.4791
 1501TIP3    H2 4510   4.783   3.205   4.684 -1.5244 -0.1375 -0.3550
 1502TIP3   OH2 4511   5.952   5.861   2.267  0.7195 -0.3122  0.3960
 1502TIP3    H1 4512   5.917   5.846   2.354 -2.8919 -1.3723 -1.0738
 1502TIP3    H2 4513   6.043   5.831   2.272  0.0210 -2.2951  3.2604
 1503TIP3   OH2 4514   1.662   3.958   4.204  0.6342  0.1844 -0.3930
 1503TIP3    H1 4515   1.728   3.990   4.266 -1.9380  1.2851  1.9967
 1503TIP3    H2 4516   1.689   3.868   4.186  2.7930  0.5973  0.4142
 1504TIP3   OH2 4517   5.220   0.930   2.683  0.1363 -0.0376  0.0329
 1504TIP3    H1 4518   5.198   0.838   2.688 -0.4058  0.0903 -0.0278
 1504TIP3    H2 4519   5.235   0.947   2.590  1.1202 -0.2619  0.1293
 1505TIP3   OH2 4520   3.648   2.892   2.552  0.2137  0.3249 -0.3197
 1505TIP3    H1 4521   3.741   2.899   2.571  0.0370 -0.5136  0.9904
 1505TIP3    H2 4522   3.644   2.866   2.460  1.3247 -1.1165  0.0110
 1506TIP3   OH2 4523   2.968   3.135   4.280  0.0513 -0.5324  0.1829
 1506TIP3    H1 4524   2.905   3.079   4.324 -0.5589 -0.5961 -0.7294
 1506TIP3    H2 4525   3.042   3.078   4.259  0.9752 -0.2097  2.2709
 1507TIP3   OH2 4526   1.396   1.674   3.148 -0.2939 -0.0401 -0.6542
 1507TIP3    H1 4527   1.334   1.743   3.127  0.0311  0.8049  0.9918
 1507TIP3    H2 4528   1.361   1.632   3.226 -0.0501 -1.2262 -1.1448
 1508TIP3   OH2 4529   3.868   0.474   4.250 -0.1197 -0.6648  0.4653
 1508TIP3    H1 4530   3.822   0.395   4.279  1.6290 -2.4440 -1.3037
 1508TIP3    H2 4531   3.839   0.487   4.160  0.4801  0.0314  0.3631
 1509TIP3   OH2 4532   2.116   3.053   4.727  0.1638  0.1282  0.3199
 1509TIP3    H1 4533   2.026   3.062   4.698  0.3285 -0.8630 -0.5728
 1509TIP3    H2 4534   2.113   2.990   4.799  0.2543 -0.6786 -0.3741
 1510TIP3   OH2 4535   0.565   0.518   3.171  0.5747 -0.5469 -0.3212
 1510TIP3    H1 4536   0.593   0.597   3.219 -0.0953 -0.1756 -0.5173
 1510TIP3    H2 4537   0.516   0.553   3.096  1.0701 -1.1385 -0.9320
 1511TIP3   OH2 4538   3.255   4.411   3.609  0.4618  0.6789 -0.0535
 1511TIP3    H1 4539   3.200   4.446   3.678  1.0132 -0.0351  0.7781
 1511TIP3    H2 4540   3.344   4.426   3.639  0.7256  1.1651 -1.0393
 1512TIP3   OH2 4541   4.129   0.201   1.253 -0.0064 -0.5742  0.1303
 1512TIP3    H1 4542   4.140   0.163   1.340  2.0974 -0.9419 -0.2624
 1512TIP3    H2 4543   4.123   0.126   1.194  1.7180 -0.3591 -0.3666
 1513TIP3   OH2 4544   2.911   4.213   0.320  0.2768 -0.4630 -0.1894
 1513TIP3    H1 4545   2.897   4.119   0.318 -0.5023 -0.3812  0.6769
 1513TIP3    H2 4546   2.919   4.239   0.228 -0.8237 -1.1839 -0.5020
 1514TIP3   OH2 4547   5.484   5.860   1.248 -0.5850  0.4321  0.5643
 1514TIP3    H1 4548   5.454   5.945   1.281 -0.8042  0.9550 -0.8767
 1514TIP3    H2 4549   5.455   5.859   1.156 -1.1042 -1.4576  0.7026
 1515TIP3   OH2 4550   5.334   5.632   1.958 -0.2643  0.3046  0.1548
 1515TIP3    H1 4551   5.360   5.578   1.883 -0.4650 -0.0818  0.3620
 1515TIP3    H2 4552   5.410   5.689   1.973 -0.6672  1.2104 -1.0748
 1516TIP3   OH2 4553   0.306   3.521   1.385  0.1817 -0.1311  0.5087
 1516TIP3    H1 4554   0.386   3.549   1.430  1.8990 -0.4028 -2.1621
 1516TIP3    H2 4555   0.295   3.584   1.314 -0.9420 -1.1889 -0.2951
 1517TIP3   OH2 4556   2.979   1.605   5.003 -0.0912 -0.1221  0.2518
 1517TIP3    H1 4557   2.971   1.536   5.068  1.6089  0.9046  1.6229
 1517TIP3    H2 4558   3.022   1.563   4.928 -0.1689 -0.8189  0.5939
 1518TIP3   OH2 4559   5.071   5.472   4.055 -0.2481  0.3727 -0.1580
 1518TIP3    H1 4560   5.061   5.567   4.050 -0.9810  0.3541  0.5891
 1518TIP3    H2 4561   5.163   5.455   4.035 -0.3520  1.1459 -1.3360
 1519TIP3   OH2 4562   3.460   1.073   0.393  0.6250  0.2521  0.0943
 1519TIP3    H1 4563   3.518   0.999   0.379  2.7096  1.7316  0.4167
 1519TIP3    H2 4564   3.403   1.074   0.317  0.3937 -1.7679  0.1934
 1520TIP3   OH2 4565   3.555   3.394   2.069 -0.0374  0.0347 -0.3043
 1520TIP3    H1 4566   3.477   3.441   2.038 -1.9244 -1.7419  1.4765
 1520TIP3    H2 4567   3.530   3.361   2.155  2.6659 -0.7761  0.2523
 1521TIP3   OH2 4568   2.655   0.281   0.623 -0.2212  0.5241 -0.2989
 1521TIP3    H1 4569   2.730   0.245   0.672  0.5201  1.3530 -0.7955
 1521TIP3    H2 4570   2.610   0.204   0.589 -0.1096 -0.0275  0.7444
 1522TIP3   OH2 4571   4.173   5.344   1.128 -0.1597 -0.1379  0.3826
 1522TIP3    H1 4572   4.091   5.361   1.176  0.0464  0.3809  0.5624
 1522TIP3    H2 4573   4.180   5.417   1.067  0.9120  0.6202  1.3860
 1523TIP3   OH2 4574   0.548   3.993   4.549  0.1814  0.3436 -0.0037
 1523TIP3    H1 4575   0.519   3.908   4.516  1.4688 -0.4543  0.8575
 1523TIP3    H2 4576   0.494   4.056   4.501 -0.5941 -0.9274 -0.8787
 1524TIP3   OH2 4577   0.570   3.159   0.334 -0.6562  0.1827 -0.5277
 1524TIP3    H1 4578   0.522   3.231   0.291  0.6870  0.6780 -1.2517
 1524TIP3    H2 4579   0.570   3.183   0.426  0.7547  1.7412 -0.8932
 1525TIP3   OH2 4580   1.723   0.672   0.194 -1.0663 -0.5212  0.4662
 1525TIP3    H1 4581   1.718   0.762   0.162  0.5307  0.5338  2.8861
 1525TIP3    H2 4582   1.740   0.620   0.116 -3.1554  1.0759 -1.1711
 1526TIP3   OH2 4583   3.654   0.916   4.154 -0.5898  0.6449  0.1656
 1526TIP3    H1 4584   3.562   0.918   4.127 -0.9080 -3.2681  0.4024
 1526TIP3    H2 4585   3.703   0.907   4.072 -0.7149 -0.6516  0.2229
 1527TIP3   OH2 4586   1.820   4.546   4.590  1.0275 -0.6604 -0.5410
 1527TIP3    H1 4587   1.807   4.553   4.684  0.4506 -0.5998 -0.6238
 1527TIP3    H2 4588   1.909   4.580   4.576  0.1810  1.8108 -0.3149
 1528TIP3   OH2 4589   5.534   2.182   2.408  0.4237  0.2319 -0.0302
 1528TIP3    H1 4590   5.464   2.143   2.461 -0.0017  0.1209 -0.6568
 1528TIP3    H2 4591   5.611   2.128   2.426 -0.1009 -0.7725 -0.7065
 1529TIP3   OH2 4592   4.816   3.838   4.349  0.6174  0.0493 -0.2178
 1529TIP3    H1 4593   4.911   3.844   4.362  0.3239  0.1008  2.4574
 1529TIP3    H2 4594   4.783   3.808   4.433 -1.7146 -0.6075 -1.3016
 1530TIP3   OH2 4595   1.627   4.784   4.518 -0.0019  0.3619 -0.1038
 1530TIP3    H1 4596   1.701   4.769   4.459 -1.3684 -1.5181 -1.4731
 1530TIP3    H2 4597   1.633   4.714   4.582 -0.1228  0.7269  0.3123
 1531TIP3   OH2 4598   6.130   4.200   0.617 -0.4106 -0.3416 -0.4602
 1531TIP3    H1 4599   6.220   4.193   0.586 -0.1347 -2.8099  0.6819
 1531TIP3    H2 4600   6.091   4.115   0.597 -1.6324 -0.3124  1.5566
 1532TIP3   OH2 4601   0.944   3.578   3.801  0.2894  0.4505  0.2420
 1532TIP3    H1 4602   0.968   3.524   3.726  0.8088  2.0915 -0.8184
 1532TIP3    H2 4603   0.988   3.537   3.875  1.5349  0.0200 -0.7007
 1533TIP3   OH2 4604   5.221   0.638   0.206  0.7071 -0.0132  0.5000
 1533TIP3    H1 4605   5.205   0.568   0.269  1.0139  0.7721  1.4857
 1533TIP3    H2 4606   5.316   0.636   0.193  0.5262 -0.9398 -0.8851
 1534TIP3   OH2 4607   0.017   3.548   3.753 -0.6284 -0.8629 -0.0611
 1534TIP3    H1 4608  -0.044   3.582   3.687 -0.5846  1.0191  0.8139
 1534TIP3    H2 4609   0.076   3.621   3.771  0.4339 -1.9036  0.8251
 1535TIP3   OH2 4610   1.852   4.546   0.825 -0.2590 -0.3265  0.5270
 1535TIP3    H1 4611   1.824   4.637   0.813  0.2555 -0.1070  0.9149
 1535TIP3    H2 4612   1.813   4.498   0.752  1.3754  0.6211 -1.0532
 1536TIP3   OH2 4613   3.182   0.210   3.167 -0.2178  0.2525 -0.3298
 1536TIP3    H1 4614   3.172   0.263   3.246  2.3123  2.1296 -1.1290
 1536TIP3    H2 4615   3.277   0.207   3.152 -0.2246 -4.2316 -0.6340
 1537TIP3   OH2 4616   2.203   0.307   5.134  0.0035 -0.1123  0.1607
 1537TIP3    H1 4617   2.295   0.297   5.110 -0.2287  0.7819 -1.2423
 1537TIP3    H2 4618   2.161   0.226   5.104  0.1960 -0.1822  0.0766
 1538TIP3   OH2 4619   6.239   0.333   3.563 -0.1076 -0.5010  0.6261
 1538TIP3    H1 4620   6.199   0.381   3.635 -2.8950 -2.0562  0.2698
 1538TIP3    H2 4621   6.205   0.376   3.484 -0.1884 -1.1527  0.3008
 1539TIP3   OH2 4622   3.252   3.683   0.475 -0.0825 -0.1208 -0.1677
 1539TIP3    H1 4623   3.236   3.593   0.505  0.2275  0.4527  1.8234
 1539TIP3    H2 4624   3.348   3.692   0.475 -0.1246  0.3587  0.1161
 1540TIP3   OH2 4625   6.103   5.232   1.547  0.6808 -0.4089 -0.3182
 1540TIP3    H1 4626   6.051   5.205   1.623 -0.0626 -1.1585 -1.0641
 1540TIP3    H2 4627   6.041   5.230   1.474  1.6513 -0.9142 -1.1579
 1541TIP3   OH2 4628   4.728   0.524   1.906  0.7498 -0.3446 -0.4974
 1541TIP3    H1 4629   4.722   0.494   1.815  0.6020 -1.1651 -0.2209
 1541TIP3    H2 4630   4.821   0.541   1.919  0.7906 -0.3562 -0.7593
 1542TIP3   OH2 4631   2.241   3.434   1.586  0.3278 -0.1752  0.0117
 1542TIP3    H1 4632   2.188   3.453   1.663  0.0700  0.0563 -0.2219
 1542TIP3    H2 4633   2.242   3.516   1.537  0.9069 -0.1742  0.0200
 1543TIP3   OH2 4634   4.384   5.123   3.101 -0.0269 -0.6618  0.3795
 1543TIP3    H1 4635   4.370   5.078   3.185  0.5191  0.9456  1.3838
 1543TIP3    H2 4636   4.323   5.197   3.103  0.3246 -0.3372 -0.4442
 1544TIP3   OH2 4637   6.059   3.472   1.234 -0.0342  0.3206  0.0906
 1544TIP3    H1 4638   6.095   3.395   1.189 -0.0010 -0.1288  0.8628
 1544TIP3    H2 4639   6.086   3.546   1.181  0.9872 -0.1084 -0.0062
 1545TIP3   OH2 4640   5.191   3.056   4.872 -0.0288 -0.1085  0.4446
 1545TIP3    H1 4641   5.150   3.021   4.951 -0.4575  0.2396  0.3792
 1545TIP3    H2 4642   5.195   3.151   4.887  1.4365 -0.1962  0.7736
 1546TIP3   OH2 4643   4.937   1.818   3.345 -0.1386 -0.5729 -0.0777
 1546TIP3    H1 4644   4.851   1.859   3.345 -0.5644 -1.3472  1.8014
 1546TIP3    H2 4645   4.989   1.872   3.404  0.3428 -0.7542 -0.3318
 1547TIP3   OH2 4646   4.197   0.162   2.749 -0.2193  0.3909  0.1038
 1547TIP3    H1 4647   4.170   0.253   2.743  0.0330  0.4517 -0.1414
 1547TIP3    H2 4648   4.269   0.154   2.685 -1.1584 -0.3192 -0.8991
 1548TIP3   OH2 4649   4.032   3.237   0.161  0.2462  0.1496  0.5318
 1548TIP3    H1 4650   4.051   3.180   0.086  1.1271  0.8974  0.1680
 1548TIP3    H2 4651   4.110   3.230   0.217  0.3410  0.9385  0.5111
 1549TIP3   OH2 4652   3.281   5.551   1.426 -0.4906 -0.2931  0.4111
 1549TIP3    H1 4653   3.191   5.541   1.459 -0.1354  0.9412  1.8746
 1549TIP3    H2 4654   3.281   5.637   1.384 -0.4055 -1.0142 -1.1281
 1550TIP3   OH2 4655   5.023   3.648   0.759  0.0736  0.3784  0.3237
 1550TIP3    H1 4656   5.061   3.594   0.689 -0.4393  0.3158  0.0904
 1550TIP3    H2 4657   5.089   3.647   0.828  1.7017  2.3481 -1.0450
 1551TIP3   OH2 4658   5.779   5.942   3.319 -0.3401 -0.7302  0.4507
 1551TIP3    H1 4659   5.825   5.945   3.235 -0.4413 -2.1375  0.3072
 1551TIP3    H2 4660   5.815   6.014   3.370  0.4325 -0.4659 -0.4518
 1552TIP3   OH2 4661   4.330   1.901   2.458 -0.5436 -0.0971  0.5851
 1552TIP3    H1 4662   4.389   1.916   2.385 -2.9956 -0.8690 -1.7302
 1552TIP3    H2 4663   4.350   1.970   2.521  0.5822  1.5919 -1.5234
 1553TIP3   OH2 4664   4.221   0.919   4.854 -0.1250  0.3437  0.1956
 1553TIP3    H1 4665   4.205   0.843   4.910 -0.2844  0.4387  0.2808
 1553TIP3    H2 4666   4.234   0.882   4.767  0.5638  0.1590  0.3664
 1554TIP3   OH2 4667   1.181   0.883   4.109  0.1382  0.3656 -0.4534
 1554TIP3    H1 4668   1.162   0.831   4.187  0.6742  0.1445 -0.4642
 1554TIP3    H2 4669   1.174   0.974   4.137 -0.6378  0.2924 -0.3911
 1555TIP3   OH2 4670   3.650   4.562   1.651 -0.0254  0.0543 -0.1955
 1555TIP3    H1 4671   3.743   4.582   1.644 -0.2270  0.8667 -0.7540
 1555TIP3    H2 4672   3.628   4.580   1.742  0.4856 -0.7117  0.0827
 1556TIP3   OH2 4673   4.276   0.153   3.510  0.4780  0.5112 -0.2312
 1556TIP3    H1 4674   4.217   0.169   3.583  0.3846  0.0883 -0.2120
 1556TIP3    H2 4675   4.286   0.239   3.468  0.2548  0.6845  0.0656
 1557TIP3   OH2 4676   5.395   4.236   1.671 -0.1371 -0.0099 -0.6420
 1557TIP3    H1 4677   5.302   4.261   1.674 -0.4330 -1.0693 -0.5323
 1557TIP3    H2 4678   5.399   4.168   1.604  0.5261 -0.1094 -0.5029
 1558TIP3   OH2 4679   2.725   4.714   4.012  0.4675  0.1115  0.2993
 1558TIP3    H1 4680   2.652   4.660   3.981 -0.6742  2.0860 -0.6083
 1558TIP3    H2 4681   2.700   4.741   4.101 -0.2948  1.3889 -0.2832
 1559TIP3   OH2 4682   3.164   1.224   3.607 -0.0370  0.1042  0.1353
 1559TIP3    H1 4683   3.236   1.191   3.661 -0.5828  1.3668  1.7028
 1559TIP3    H2 4684   3.179   1.318   3.602  0.7605 -0.0623 -3.1594
 1560TIP3   OH2 4685   1.344   0.542   4.794 -0.1569  0.2348  0.2496
 1560TIP3    H1 4686   1.328   0.464   4.740  1.6416 -2.2464  3.0166
 1560TIP3    H2 4687   1.292   0.529   4.873  0.5336  1.6475  0.9846
 1561TIP3   OH2 4688   0.202   1.093   4.157  0.2792  0.9046  0.2999
 1561TIP3    H1 4689   0.254   1.029   4.107  0.8692  0.8070  1.0183
 1561TIP3    H2 4690   0.204   1.172   4.103 -2.0925 -0.1851 -1.5605
 1562TIP3   OH2 4691   0.414   5.418   0.154  0.0069  0.7989  0.0256
 1562TIP3    H1 4692   0.353   5.352   0.188  0.6604 -0.2464 -0.7854
 1562TIP3    H2 4693   0.380   5.501   0.188 -0.0277 -0.0656  2.2479
 1563TIP3   OH2 4694   3.527   5.849   1.359 -0.1557 -0.4171 -0.0484
 1563TIP3    H1 4695   3.528   5.936   1.400  0.2031  0.0528 -1.0250
 1563TIP3    H2 4696   3.599   5.802   1.403  0.7602  0.3528 -0.6744
 1564TIP3   OH2 4697   2.683   2.722   4.763  0.0230 -0.0452 -0.2526
 1564TIP3    H1 4698   2.645   2.764   4.686  1.0264  0.2427 -0.5976
 1564TIP3    H2 4699   2.708   2.635   4.732 -0.9965 -0.5040  0.1643
 1565TIP3   OH2 4700   1.955   1.686   1.110 -0.3667  0.1707  0.2621
 1565TIP3    H1 4701   1.953   1.729   1.025  0.0964 -0.0328  0.1423
 1565TIP3    H2 4702   2.020   1.736   1.160  0.0291 -0.2634  0.1878
 1566TIP3   OH2 4703   3.510   5.739   0.589  0.4427  0.0484  0.3486
 1566TIP3    H1 4704   3.464   5.786   0.659  0.8249  2.0299 -0.6542
 1566TIP3    H2 4705   3.450   5.741   0.515  1.0229  0.1972 -0.1254
 1567TIP3   OH2 4706   1.562   4.106   5.114 -0.2391 -0.0111 -0.3851
 1567TIP3    H1 4707   1.590   4.131   5.026 -1.7649  1.7941 -0.4101
 1567TIP3    H2 4708   1.580   4.183   5.168 -0.4564 -0.6535  0.6274
 1568TIP3   OH2 4709   2.307   0.607   3.972 -0.3213  0.4242 -0.1951
 1568TIP3    H1 4710   2.324   0.518   3.942 -0.9681  0.2982 -0.2155
 1568TIP3    H2 4711   2.393   0.647   3.982 -0.0217 -0.2459 -0.0571
 1569TIP3   OH2 4712   4.696   4.421   1.740 -0.1161 -0.2164 -0.4445
 1569TIP3    H1 4713   4.736   4.381   1.818  2.3113 -1.0366 -1.9944
 1569TIP3    H2 4714   4.754   4.494   1.718 -0.6082 -0.1538 -1.6287
 1570TIP3   OH2 4715   0.707   5.603   1.232 -0.0625 -0.6230 -0.8376
 1570TIP3    H1 4716   0.743   5.603   1.321 -1.3232 -0.7927 -0.2959
 1570TIP3    H2 4717   0.747   5.678   1.189 -0.1811  0.0537  0.2058
 1571TIP3   OH2 4718   4.511   0.269   4.599 -0.1397 -0.5017 -0.6715
 1571TIP3    H1 4719   4.589   0.280   4.543  0.4145 -0.7046  0.0421
 1571TIP3    H2 4720   4.476   0.184   4.573  0.4399 -0.8541 -0.3388
 1572TIP3   OH2 4721   3.665   1.505   0.633  0.2134  0.1212  0.6604
 1572TIP3    H1 4722   3.643   1.435   0.573 -0.2832 -1.0904  2.1989
 1572TIP3    H2 4723   3.583   1.552   0.647  1.0162  2.8845 -2.4927
 1573TIP3   OH2 4724   2.281   3.500   4.703 -0.0285  0.4571  0.2446
 1573TIP3    H1 4725   2.266   3.591   4.677 -0.0601 -0.4842 -3.4955
 1573TIP3    H2 4726   2.364   3.477   4.662 -1.4762 -2.0339 -1.5011
 1574TIP3   OH2 4727   4.978   3.876   2.457  0.3712  0.3615 -0.3083
 1574TIP3    H1 4728   4.953   3.785   2.469  2.5956 -0.1481  1.0548
 1574TIP3    H2 4729   5.032   3.876   2.378 -1.2941  0.9090 -1.4929
 1575TIP3   OH2 4730   3.551   4.055   4.608 -0.9160 -0.1883  0.2152
 1575TIP3    H1 4731   3.463   4.019   4.607 -1.9417  2.1757 -0.9553
 1575TIP3    H2 4732   3.559   4.096   4.695 -1.6259  0.9637 -0.2319
 1576TIP3   OH2 4733   0.090   2.633   1.913  0.3224 -0.2218  0.1228
 1576TIP3    H1 4734   0.121   2.718   1.880  0.6649 -0.5070 -0.3017
 1576TIP3    H2 4735   0.126   2.627   2.002  0.0837  0.1879  0.2491
 1577TIP3   OH2 4736   2.989   5.091   3.035 -0.1817  0.2242 -0.7065
 1577TIP3    H1 4737   2.903   5.112   3.071  0.4670  0.8751  0.5248
 1577TIP3    H2 4738   3.039   5.057   3.109  0.5630 -0.3658 -1.4567
 1578TIP3   OH2 4739   3.095   5.009   3.292  0.1526 -0.3573  0.0131
 1578TIP3    H1 4740   3.115   4.933   3.348  0.0008 -1.3511 -1.2352
 1578TIP3    H2 4741   3.172   5.064   3.298  0.3731 -0.7292  0.7501
 1579TIP3   OH2 4742   3.701   3.349   3.772  0.3598  0.5591  0.1022
 1579TIP3    H1 4743   3.735   3.268   3.811  0.4287 -0.3826 -1.7695
 1579TIP3    H2 4744   3.608   3.331   3.759  0.4134  0.6808 -0.4931
 1580TIP3   OH2 4745   1.597   1.078   3.067  0.3211  0.5977  0.1579
 1580TIP3    H1 4746   1.548   1.133   3.127 -0.6597  1.0349 -0.9959
 1580TIP3    H2 4747   1.686   1.113   3.069 -0.1929  1.9921 -0.2552
 1581TIP3   OH2 4748   1.741   4.259   0.804 -0.6344  0.1549 -0.4848
 1581TIP3    H1 4749   1.654   4.279   0.838  0.4071  1.9263  1.3306
 1581TIP3    H2 4750   1.766   4.178   0.847 -0.0537  1.4523  1.7654
 1582TIP3   OH2 4751   2.409   4.289   3.060  0.5885 -0.7718 -0.6542
 1582TIP3    H1 4752   2.419   4.330   2.974 -0.2110  0.9783  0.0282
 1582TIP3    H2 4753   2.336   4.228   3.050 -1.0126  1.0406 -0.7452
 1583TIP3   OH2 4754   1.247   2.367   3.425 -0.1482 -0.2728 -0.6856
 1583TIP3    H1 4755   1.332   2.374   3.381  0.0871 -0.4638 -0.2653
 1583TIP3    H2 4756   1.268   2.367   3.518 -0.7790  1.9759 -0.4942
 1584TIP3   OH2 4757   3.274   5.363   4.392  0.0872 -0.5851  0.4373
 1584TIP3    H1 4758   3.250   5.453   4.417  1.5364  0.1914 -0.8036
 1584TIP3    H2 4759   3.206   5.338   4.329  0.5358  0.2632 -0.4085
 1585TIP3   OH2 4760   0.374   2.331   0.343 -0.2315 -0.1587 -0.0483
 1585TIP3    H1 4761   0.346   2.385   0.417 -0.2922 -0.3719  0.0856
 1585TIP3    H2 4762   0.443   2.382   0.301 -0.9799  0.4867 -0.5295
 1586TIP3   OH2 4763   0.337   2.346   1.997  0.0829  0.0215 -0.4719
 1586TIP3    H1 4764   0.416   2.388   2.031 -0.9630  1.1015  0.7182
 1586TIP3    H2 4765   0.365   2.256   1.977  1.5247  0.2819  0.2439
 1587TIP3   OH2 4766   0.026   2.159   0.065 -0.5061 -0.3691 -0.0900
 1587TIP3    H1 4767   0.074   2.196   0.138  1.4849  0.0274 -1.5045
 1587TIP3    H2 4768   0.081   2.085   0.036 -2.5509 -2.1846  0.3843
 1588TIP3   OH2 4769   2.177   0.444   1.180 -0.1500 -0.4272 -0.4074
 1588TIP3    H1 4770   2.187   0.426   1.087  0.6817  1.8216 -0.8298
 1588TIP3    H2 4771   2.099   0.499   1.186  1.7744  2.5819 -0.3945
 1589TIP3   OH2 4772   4.576   2.150   0.271  0.0017  0.3431 -0.3958
 1589TIP3    H1 4773   4.658   2.102   0.283  0.5298  1.3480  0.1420
 1589TIP3    H2 4774   4.603   2.234   0.234 -0.5498  1.5065  1.7278
 1590TIP3   OH2 4775   1.533   0.555   4.986 -0.1459  0.4217 -0.2916
 1590TIP3    H1 4776   1.577   0.634   4.954 -0.2710  0.1349 -1.2174
 1590TIP3    H2 4777   1.456   0.546   4.930 -0.4836  0.0023  0.2301
 1591TIP3   OH2 4778   0.497   5.116   2.376 -0.2403  0.3879  0.4684
 1591TIP3    H1 4779   0.444   5.194   2.393 -2.6221 -0.3889 -2.6180
 1591TIP3    H2 4780   0.567   5.147   2.319 -1.4680  0.3047 -1.1696
 1592TIP3   OH2 4781   6.287   5.039   0.998 -0.6890  0.0776 -0.0699
 1592TIP3    H1 4782   6.362   5.096   1.013  1.0541 -1.8457 -1.0283
 1592TIP3    H2 4783   6.273   4.995   1.082  0.9082 -1.3632 -0.5034
 1593TIP3   OH2 4784   3.560   3.105   3.904  0.3801 -0.7085 -1.1356
 1593TIP3    H1 4785   3.630   3.099   3.968  0.3976 -0.3525 -1.1172
 1593TIP3    H2 4786   3.479   3.104   3.956  0.3458  4.5970 -0.4921
 1594TIP3   OH2 4787   2.980   3.061   1.455 -0.0762 -0.7696  0.1578
 1594TIP3    H1 4788   3.055   3.003   1.457 -0.2217 -1.1046 -1.9475
 1594TIP3    H2 4789   3.017   3.148   1.437 -0.0897 -0.7105  0.4146
 1595TIP3   OH2 4790   2.497   5.586   0.164  0.0479 -0.3341 -0.4743
 1595TIP3    H1 4791   2.430   5.608   0.099  0.0779 -0.2099 -0.4633
 1595TIP3    H2 4792   2.561   5.657   0.157 -0.2900  0.0497  0.1725
 1596TIP3   OH2 4793   3.070   3.660   4.104 -0.0908  0.0068 -1.1114
 1596TIP3    H1 4794   3.096   3.734   4.158 -0.4555 -1.5850  1.4324
 1596TIP3    H2 4795   3.144   3.646   4.045  0.9885  0.9576 -0.0399
 1597TIP3   OH2 4796   4.115   3.015   4.038  0.1755 -0.0283 -0.0948
 1597TIP3    H1 4797   4.093   2.956   4.110  2.3409  0.3545  0.9439
 1597TIP3    H2 4798   4.160   3.088   4.079 -0.1807  1.1208 -1.6486
 1598TIP3   OH2 4799   1.188   1.663   4.549  0.0439 -0.3535  0.5043
 1598TIP3    H1 4800   1.119   1.728   4.559  0.8366  1.2984 -2.9451
 1598TIP3    H2 4801   1.145   1.589   4.505 -0.1277 -0.6056  1.0953
 1599TIP3   OH2 4802   1.051   0.812   1.696  0.6754 -0.4194 -0.1400
 1599TIP3    H1 4803   0.976   0.832   1.752 -0.0189 -0.1532 -1.1451
 1599TIP3    H2 4804   1.113   0.769   1.754 -0.1536 -0.4241  0.7650
 1600TIP3   OH2 4805   4.252   5.723   5.063  0.2967  0.0729 -0.4148
 1600TIP3    H1 4806   4.161   5.697   5.052 -0.0947  0.8543  0.7979
 1600TIP3    H2 4807   4.251   5.818   5.057  0.6427  0.2810  1.8333
 1601TIP3   OH2 4808   4.583   1.238   4.456 -0.3354 -0.8367  0.3681
 1601TIP3    H1 4809   4.675   1.213   4.463 -0.5973 -1.6503  1.1115
 1601TIP3    H2 4810   4.585   1.333   4.447  0.5746 -0.8341  0.4630
 1602TIP3   OH2 4811   4.625   1.936   2.004  0.7069  0.0288  0.4089
 1602TIP3    H1 4812   4.672   2.012   2.040 -0.2686  0.6379  0.4180
 1602TIP3    H2 4813   4.621   1.953   1.910  0.0296  0.2534  0.4747
 1603TIP3   OH2 4814   0.966   3.991   0.840  0.0748 -0.3984  0.5489
 1603TIP3    H1 4815   0.897   3.992   0.775 -0.1267 -1.0623  0.7417
 1603TIP3    H2 4816   0.921   3.997   0.924  0.3114  0.0973  0.6473
 1604TIP3   OH2 4817   0.282   1.071   0.935 -0.3903  0.0050 -0.0462
 1604TIP3    H1 4818   0.194   1.075   0.973 -0.6326 -1.0716 -0.4500
 1604TIP3    H2 4819   0.284   0.987   0.890  0.7553  0.1548 -0.2917
 1605TIP3   OH2 4820   0.053   0.736   1.464 -0.1579  0.4018 -0.3456
 1605TIP3    H1 4821   0.108   0.668   1.423  2.5697  1.3003  1.4986
 1605TIP3    H2 4822  -0.011   0.686   1.515  0.4908 -0.7891 -0.6336
 1606TIP3   OH2 4823   5.269   1.891   0.826  0.1191  0.4587  0.0039
 1606TIP3    H1 4824   5.308   1.978   0.822 -0.6602  0.8133 -0.1509
 1606TIP3    H2 4825   5.334   1.837   0.870  1.1340  0.8268 -1.0038
 1607TIP3   OH2 4826   3.314   2.854   4.894 -0.1280  0.4287 -0.4137
 1607TIP3    H1 4827   3.375   2.895   4.832 -0.9349  1.0490 -0.8200
 1607TIP3    H2 4828   3.318   2.761   4.874 -0.6120  0.6486 -1.6493
 1608TIP3   OH2 4829   0.334   5.552   1.782 -0.0596  0.0164  0.1341
 1608TIP3    H1 4830   0.427   5.535   1.797 -0.2196 -0.7614  0.2830
 1608TIP3    H2 4831   0.312   5.621   1.845 -0.0202 -1.1070  1.4156
 1609TIP3   OH2 4832   4.286   0.622   4.217 -0.5731  0.0744  0.3962
 1609TIP3    H1 4833   4.223   0.568   4.170  0.9926 -1.8067  0.3226
 1609TIP3    H2 4834   4.309   0.692   4.156 -2.5718  0.8353  0.4528
 1610TIP3   OH2 4835   1.657   3.091   0.424  0.0141 -0.0305 -1.0194
 1610TIP3    H1 4836   1.720   3.110   0.493  0.9074 -2.6195 -1.0059
 1610TIP3    H2 4837   1.702   3.115   0.343  0.1059  0.2620 -0.8833
 1611TIP3   OH2 4838   3.827   1.494   1.744 -0.1161 -0.2990  0.0822
 1611TIP3    H1 4839   3.834   1.421   1.682 -0.6323  0.1600 -0.5386
 1611TIP3    H2 4840   3.880   1.563   1.704 -0.8497  0.1648 -0.0900
 1612TIP3   OH2 4841   0.593   3.125   0.843  0.1160  0.5708 -0.3733
 1612TIP3    H1 4842   0.552   3.039   0.845  0.2568  0.5089  0.9423
 1612TIP3    H2 4843   0.543   3.177   0.906 -0.1397  1.5495 -1.3456
 1613TIP3   OH2 4844   4.737   2.894   0.309  0.3521 -0.2372  0.3825
 1613TIP3    H1 4845   4.655   2.891   0.358  1.1099  0.5367  1.7666
 1613TIP3    H2 4846   4.793   2.953   0.360  1.8139 -0.8385 -0.4720
 1614TIP3   OH2 4847   5.577   0.181   0.795 -0.2534 -0.1180 -0.0221
 1614TIP3    H1 4848   5.663   0.216   0.817  0.0519 -1.0473  0.3188
 1614TIP3    H2 4849   5.585   0.155   0.703 -0.5636  0.9238 -0.3535
 1615TIP3   OH2 4850   1.130   2.802   1.599  0.3684 -0.4997 -0.2639
 1615TIP3    H1 4851   1.066   2.813   1.529  0.4890 -1.3088 -0.5229
 1615TIP3    H2 4852   1.132   2.707   1.614 -0.3809 -0.2770  1.5343
 1616TIP3   OH2 4853   5.526   1.764   2.081 -0.1232 -0.1941 -0.1959
 1616TIP3    H1 4854   5.431   1.773   2.095 -0.3724 -1.4037 -0.9318
 1616TIP3    H2 4855   5.561   1.851   2.101 -1.6731  0.9513 -2.0423
 1617TIP3   OH2 4856   2.414   3.883   0.088 -1.0585  0.4593  0.1363
 1617TIP3    H1 4857   2.434   3.959   0.143  0.5995  0.1538 -0.0003
 1617TIP3    H2 4858   2.336   3.844   0.128 -1.7176  2.0049  0.4318
 1618TIP3   OH2 4859   2.404   4.300   5.025 -0.4738  0.2525  0.4692
 1618TIP3    H1 4860   2.498   4.302   5.042 -0.3811 -0.2729  0.0480
 1618TIP3    H2 4861   2.387   4.211   4.992 -1.0487  0.4616  0.1782
 1619TIP3   OH2 4862   0.860   4.738   0.213  0.2089  0.1569  0.2455
 1619TIP3    H1 4863   0.924   4.667   0.217 -0.2905 -0.4066 -1.2375
 1619TIP3    H2 4864   0.826   4.745   0.302 -0.7376 -2.4126  0.1632
 1620TIP3   OH2 4865   4.363   3.672   0.178 -0.0824 -0.1723 -0.1151
 1620TIP3    H1 4866   4.361   3.697   0.271  2.5119  0.4631 -0.1613
 1620TIP3    H2 4867   4.426   3.600   0.174 -0.9467 -0.9080 -1.2815
 1621TIP3   OH2 4868   0.449   0.206   3.052  0.1631 -0.1725 -0.2908
 1621TIP3    H1 4869   0.497   0.243   2.977 -1.1253 -0.5688 -1.3390
 1621TIP3    H2 4870   0.357   0.213   3.028 -0.2519 -1.0343  0.9326
 1622TIP3   OH2 4871   3.827   0.508   1.840  0.3291 -0.1517 -0.5989
 1622TIP3    H1 4872   3.758   0.544   1.896  0.9159  1.2366 -0.7397
 1622TIP3    H2 4873   3.848   0.423   1.880 -0.1718  0.2320  0.5140
 1623TIP3   OH2 4874   3.237   5.441   2.632 -0.2062 -0.0344  0.1806
 1623TIP3    H1 4875   3.149   5.406   2.622 -0.5388  0.6677  0.5512
 1623TIP3    H2 4876   3.227   5.514   2.694  0.8117 -0.6631  1.1315
 1624TIP3   OH2 4877   3.497   0.027   2.483  0.0574 -0.0959  0.1294
 1624TIP3    H1 4878   3.490  -0.006   2.393  3.0495 -3.0372  0.7751
 1624TIP3    H2 4879   3.407   0.050   2.507 -1.4770 -2.7645 -2.3651
 1625TIP3   OH2 4880   0.690   0.173   1.667 -0.4466 -0.2576 -0.2483
 1625TIP3    H1 4881   0.612   0.146   1.618 -0.5111  1.9091 -1.4362
 1625TIP3    H2 4882   0.737   0.091   1.684 -1.9508 -1.3905 -1.2789
 1626TIP3   OH2 4883   0.417   5.760   1.166 -0.7041  0.5404 -0.2561
 1626TIP3    H1 4884   0.383   5.678   1.129 -1.1206  0.4382  0.3382
 1626TIP3    H2 4885   0.445   5.736   1.255 -0.1613  0.8853 -0.3341
 1627TIP3   OH2 4886   4.084   3.527   3.091 -0.4245 -0.5782  0.0210
 1627TIP3    H1 4887   4.083   3.489   3.179 -1.8848 -1.4082 -0.3265
 1627TIP3    H2 4888   4.075   3.621   3.105 -0.9102 -0.7270  0.7461
 1628TIP3   OH2 4889   2.339   3.452   1.167  0.2790 -0.1323  0.0221
 1628TIP3    H1 4890   2.426   3.412   1.161  0.6120  0.4938  0.5231
 1628TIP3    H2 4891   2.329   3.476   1.259 -0.9596 -1.3358  0.2327
 1629TIP3   OH2 4892   5.445   2.781   3.588  0.3026 -0.3971  0.2138
 1629TIP3    H1 4893   5.443   2.720   3.662 -0.8164  0.3322  0.8075
 1629TIP3    H2 4894   5.355   2.785   3.557  0.6452 -0.2091 -0.8041
 1630TIP3   OH2 4895   5.431   3.502   1.053  0.6806 -0.5005  0.0728
 1630TIP3    H1 4896   5.452   3.576   1.110 -0.4694 -0.2969  0.2661
 1630TIP3    H2 4897   5.480   3.428   1.089  0.7492 -0.1400  0.7198
 1631TIP3   OH2 4898   1.417   2.101   3.864  0.8505 -0.2519  0.2913
 1631TIP3    H1 4899   1.384   2.022   3.821  0.1452  0.3456 -0.2992
 1631TIP3    H2 4900   1.510   2.103   3.843  0.8641 -0.8906  0.2675
 1632TIP3   OH2 4901   5.876   5.650   1.912 -0.2202 -0.6593 -0.0666
 1632TIP3    H1 4902   5.864   5.643   2.007  0.0611 -0.8344 -0.0428
 1632TIP3    H2 4903   5.898   5.742   1.898 -0.9542 -0.4769 -0.0428
 1633TIP3   OH2 4904   3.895   3.996   0.791  0.2330 -0.0444 -0.6078
 1633TIP3    H1 4905   3.833   3.958   0.853 -0.4031  0.1605 -1.1050
 1633TIP3    H2 4906   3.852   4.075   0.759  1.4726  1.0555  0.3087
 1634TIP3   OH2 4907   2.240   4.658   5.121 -0.2149 -0.2213 -0.2482
 1634TIP3    H1 4908   2.239   4.582   5.063  1.4316  0.1277 -0.7818
 1634TIP3    H2 4909   2.256   4.622   5.208  1.7070 -0.4564 -0.6498
 1635TIP3   OH2 4910   4.123   1.644   3.744  0.2242  0.1814  0.3844
 1635TIP3    H1 4911   4.187   1.641   3.815 -0.0964  1.5522  0.7476
 1635TIP3    H2 4912   4.171   1.684   3.671  0.3369 -0.5640  0.0364
 1636TIP3   OH2 4913   0.778   2.390   5.121  0.2327  0.7093  0.6104
 1636TIP3    H1 4914   0.833   2.341   5.182 -0.2987 -2.5382 -1.2226
 1636TIP3    H2 4915   0.811   2.366   5.034 -3.0686 -0.3169 -0.5342
 1637TIP3   OH2 4916   4.750   1.631   3.677 -0.3259 -0.2339  0.1694
 1637TIP3    H1 4917   4.740   1.664   3.767 -0.0380  0.2030  0.0438
 1637TIP3    H2 4918   4.818   1.565   3.683  1.0997  1.1698 -0.0581
 1638TIP3   OH2 4919   3.598   4.133   0.739 -0.1979  0.2434 -1.1667
 1638TIP3    H1 4920   3.513   4.174   0.755 -0.4888 -0.9195  0.5630
 1638TIP3    H2 4921   3.662   4.201   0.760 -0.6856  0.6177 -0.8574
 1639TIP3   OH2 4922   6.284   2.553   4.483  0.7464  0.1980 -0.1566
 1639TIP3    H1 4923   6.374   2.544   4.512  0.9782  0.5138 -0.7729
 1639TIP3    H2 4924   6.232   2.515   4.554  1.4691 -2.3985 -0.9371
 1640TIP3   OH2 4925   0.496   4.652   3.032 -0.7625 -0.3716 -0.1715
 1640TIP3    H1 4926   0.455   4.688   3.111 -0.0898 -0.4054  0.1952
 1640TIP3    H2 4927   0.465   4.561   3.029  1.1035 -1.1358  1.4255
 1641TIP3   OH2 4928   1.108   0.774   4.895  0.3003 -0.8425  0.0019
 1641TIP3    H1 4929   1.037   0.723   4.932  0.7669  0.5656  3.2121
 1641TIP3    H2 4930   1.183   0.756   4.953  1.6451  0.1823 -1.3394
 1642TIP3   OH2 4931   2.907   2.849   4.868 -0.0755  0.4616 -0.0214
 1642TIP3    H1 4932   2.826   2.810   4.836 -0.3059  0.1685  0.8882
 1642TIP3    H2 4933   2.964   2.855   4.791  0.2493 -2.3028 -0.0869
 1643TIP3   OH2 4934   5.678   1.505   3.992  0.1814  0.8008  0.1254
 1643TIP3    H1 4935   5.586   1.481   3.991 -0.3933  2.7749  0.1298
 1643TIP3    H2 4936   5.698   1.522   4.085  0.2062  1.4769  0.0051
 1644TIP3   OH2 4937   0.838   4.165   2.702  0.4346 -0.1002 -0.5772
 1644TIP3    H1 4938   0.873   4.199   2.785 -0.2667  0.3331 -0.4531
 1644TIP3    H2 4939   0.907   4.107   2.669  1.4377  1.0430 -0.5351
 1645TIP3   OH2 4940   4.891   2.308   2.525  0.4058  0.0181 -0.1455
 1645TIP3    H1 4941   4.817   2.352   2.484  0.1121 -0.5020 -0.1829
 1645TIP3    H2 4942   4.921   2.245   2.459 -0.6387 -1.4663  0.7465
 1646TIP3   OH2 4943   0.146   0.282   3.776 -0.7468 -0.3974 -0.2311
 1646TIP3    H1 4944   0.097   0.306   3.697 -0.4274 -0.7903 -0.5512
 1646TIP3    H2 4945   0.078   0.258   3.839 -0.9664 -1.0110 -0.6961
 1647TIP3   OH2 4946   1.788   3.980   0.288  0.4662  0.0248  0.0834
 1647TIP3    H1 4947   1.841   3.942   0.358  0.0679 -0.5599  0.0700
 1647TIP3    H2 4948   1.838   3.962   0.208  0.5910  0.0952  0.1459
 1648TIP3   OH2 4949   4.503   1.150   3.780 -0.1664 -0.3016 -0.0504
 1648TIP3    H1 4950   4.593   1.177   3.766  0.3639 -1.3013  1.2248
 1648TIP3    H2 4951   4.501   1.058   3.753 -1.0882 -0.0057 -1.0925
 1649TIP3   OH2 4952   5.731   1.556   0.481  0.0762 -0.1494 -0.4057
 1649TIP3    H1 4953   5.805   1.525   0.429  1.6048  0.9897  0.9607
 1649TIP3    H2 4954   5.737   1.652   0.475 -0.9903 -0.0422  0.1343
 1650TIP3   OH2 4955   0.790   3.931   4.879  0.2680 -0.1689  0.4736
 1650TIP3    H1 4956   0.745   4.007   4.843 -0.5468  0.4375  2.6120
 1650TIP3    H2 4957   0.732   3.857   4.858  0.7273 -0.1392 -1.0086
 1651TIP3   OH2 4958   4.398   0.522   0.464  0.1585  0.0859 -0.4006
 1651TIP3    H1 4959   4.367   0.611   0.445  0.5615  0.1292 -0.8973
 1651TIP3    H2 4960   4.361   0.468   0.394 -0.4006 -0.2106  0.1179
 1652TIP3   OH2 4961   2.492   4.257   0.566 -0.0256  0.3190 -0.1733
 1652TIP3    H1 4962   2.449   4.319   0.625  0.6340  2.0974 -1.4656
 1652TIP3    H2 4963   2.582   4.252   0.598 -0.6720 -2.1189  1.5265
 1653TIP3   OH2 4964   1.782   1.638   2.366  0.0172  0.8185 -0.3801
 1653TIP3    H1 4965   1.693   1.628   2.333  0.3072  0.9158 -1.2190
 1653TIP3    H2 4966   1.824   1.697   2.303  0.4839  1.2960  0.3667
 1654TIP3   OH2 4967   1.538   2.724   4.042  0.1766 -0.4882 -0.1272
 1654TIP3    H1 4968   1.483   2.769   4.106  0.3554 -1.0414  0.4203
 1654TIP3    H2 4969   1.627   2.751   4.064  0.2364 -0.6447 -0.1742
 1655TIP3   OH2 4970   0.934   0.450   4.501  0.6661  0.1493 -0.1484
 1655TIP3    H1 4971   0.903   0.500   4.577 -0.6241 -1.5682  0.5211
 1655TIP3    H2 4972   0.943   0.360   4.534  1.6960 -0.3085 -1.6230
 1656TIP3   OH2 4973   1.520   4.900   3.778  0.4311  0.0434  0.3295
 1656TIP3    H1 4974   1.573   4.825   3.804  0.2919 -0.7151 -1.4117
 1656TIP3    H2 4975   1.490   4.878   3.689 -3.7296 -0.1551  1.5651
 1657TIP3   OH2 4976   5.218   2.977   1.475 -0.3214 -0.3890  0.1420
 1657TIP3    H1 4977   5.136   2.960   1.520 -0.1194  0.2561  0.7687
 1657TIP3    H2 4978   5.204   3.060   1.429  0.2336  0.1493  0.9143
 1658TIP3   OH2 4979   4.694   0.308   3.516  0.4902 -0.0399 -0.2642
 1658TIP3    H1 4980   4.645   0.273   3.590  2.9926 -0.2903  1.4200
 1658TIP3    H2 4981   4.658   0.395   3.502 -1.1666 -0.6335  0.0902
 1659TIP3   OH2 4982   5.640   4.659   4.219  0.3426  0.2158 -0.5487
 1659TIP3    H1 4983   5.629   4.734   4.277  0.2605  1.0416 -1.5917
 1659TIP3    H2 4984   5.690   4.693   4.145  2.3374 -1.3274 -0.0008
 1660TIP3   OH2 4985   1.239   0.448   1.945 -0.2346 -0.5901  0.0277
 1660TIP3    H1 4986   1.224   0.362   1.983  1.5646 -1.1516 -0.4675
 1660TIP3    H2 4987   1.309   0.435   1.881  3.1869  1.9204  2.8826
 1661TIP3   OH2 4988   4.556   2.084   4.895  0.1987  0.0409  0.4126
 1661TIP3    H1 4989   4.625   2.021   4.873  1.5385  1.5887  0.0066
 1661TIP3    H2 4990   4.602   2.158   4.935 -1.1147  1.4334 -0.5056
 1662TIP3   OH2 4991   0.812   5.757   2.494 -0.7043  0.3169 -0.8523
 1662TIP3    H1 4992   0.729   5.743   2.448 -1.4769  0.6562  0.3792
 1662TIP3    H2 4993   0.792   5.740   2.585  1.0524 -1.3873 -0.7200
 1663TIP3   OH2 4994   1.708   2.705   1.184 -0.5834 -0.1687 -0.2373
 1663TIP3    H1 4995   1.794   2.710   1.141 -0.9559 -0.0724 -0.9802
 1663TIP3    H2 4996   1.729   2.704   1.277  0.1682  1.5386 -0.3415
 1664TIP3   OH2 4997   4.261   5.149   1.322 -0.2900 -0.1406 -0.1299
 1664TIP3    H1 4998   4.219   5.218   1.271 -2.4086 -0.3193  1.2454
 1664TIP3    H2 4999   4.196   5.079   1.326  0.7338 -1.0797  0.8374
 1665TIP3   OH2 5000   4.674   2.965   3.127 -0.0761  0.1452  0.0471
 1665TIP3    H1 5001   4.589   2.927   3.103  0.9643 -0.8846 -2.3553
 1665TIP3    H2 5002   4.704   3.008   3.048  2.4725 -1.1643  0.1981
 1666TIP3   OH2 5003   5.202   3.480   0.515 -0.0681  0.0266 -0.2224
 1666TIP3    H1 5004   5.273   3.437   0.468  0.7500  0.3623  0.6952
 1666TIP3    H2 5005   5.198   3.568   0.477 -0.6165 -0.2731 -0.9020
 1667TIP3   OH2 5006   4.642   2.188   1.277  0.1867  0.1051 -0.2280
 1667TIP3    H1 5007   4.563   2.218   1.320  0.0817  1.3182 -1.2046
 1667TIP3    H2 5008   4.617   2.106   1.234 -0.5611  0.5060 -0.5699
 1668TIP3   OH2 5009   1.979   3.334   4.638  0.2449  0.1773 -0.1067
 1668TIP3    H1 5010   1.969   3.300   4.727  0.4720  0.6409  0.0976
 1668TIP3    H2 5011   2.006   3.425   4.650  4.7165 -0.8516 -0.5856
 1669TIP3   OH2 5012   3.913   5.443   0.812  0.0465  0.3018  0.0090
 1669TIP3    H1 5013   3.828   5.485   0.804  0.1415  0.4092 -0.4383
 1669TIP3    H2 5014   3.963   5.502   0.868 -0.9203 -0.9279  2.2985
 1670TIP3   OH2 5015   3.490   3.139   2.512 -0.1892 -0.6570 -0.5335
 1670TIP3    H1 5016   3.537   3.216   2.545  0.7801 -1.2378 -0.5341
 1670TIP3    H2 5017   3.544   3.065   2.539 -1.6862 -1.4345  0.4741
 1671TIP3   OH2 5018   5.534   1.382   0.330 -0.0140 -0.3415  0.0311
 1671TIP3    H1 5019   5.596   1.453   0.347 -0.6689 -0.0852  1.5324
 1671TIP3    H2 5020   5.571   1.306   0.376 -1.3320  0.1073  1.9438
 1672TIP3   OH2 5021   5.872   1.071   1.739  0.2854  0.2899  0.0611
 1672TIP3    H1 5022   5.787   1.091   1.779  1.6891  2.9932  2.0421
 1672TIP3    H2 5023   5.885   0.978   1.756 -1.6048  0.1646  1.1105
 1673TIP3   OH2 5024   0.720   2.604   1.759 -0.1952  0.6172  0.3093
 1673TIP3    H1 5025   0.778   2.571   1.691  0.4711  1.7210  0.3244
 1673TIP3    H2 5026   0.752   2.564   1.840 -0.8752 -0.5522  0.0158
 1674TIP3   OH2 5027   3.473   5.334   2.777 -0.2800  0.0930 -0.2909
 1674TIP3    H1 5028   3.542   5.308   2.716  0.0147  2.0073 -0.8261
 1674TIP3    H2 5029   3.401   5.362   2.720 -1.4398 -1.6129  0.2620
 1675TIP3   OH2 5030   2.817   1.460   2.972 -0.5912  0.0597 -0.0458
 1675TIP3    H1 5031   2.892   1.401   2.982 -0.6697  0.1263  0.9575
 1675TIP3    H2 5032   2.843   1.519   2.901  0.5724  0.5017  0.7255
 1676TIP3   OH2 5033   1.458   4.477   1.465  0.4825 -0.1546 -0.4178
 1676TIP3    H1 5034   1.452   4.514   1.554 -1.7367 -2.6379  0.6009
 1676TIP3    H2 5035   1.384   4.517   1.418  0.8944  0.1878 -0.7868
 1677TIP3   OH2 5036   0.716   3.120   1.427  0.1263  0.3892  0.6277
 1677TIP3    H1 5037   0.720   3.166   1.343 -1.0791  0.5946  0.6737
 1677TIP3    H2 5038   0.652   3.169   1.478 -0.6805 -0.9346  0.9188
 1678TIP3   OH2 5039   2.732   2.014   2.434 -0.2406 -0.1432 -0.3391
 1678TIP3    H1 5040   2.686   1.932   2.455 -0.5570  0.1382  0.0854
 1678TIP3    H2 5041   2.666   2.082   2.446  0.5774  0.3943  1.4984
 1679TIP3   OH2 5042   4.922   1.747   0.150  0.1611  0.5211 -0.1223
 1679TIP3    H1 5043   4.986   1.695   0.101 -1.4332 -1.3961 -0.3067
 1679TIP3    H2 5044   4.842   1.695   0.148 -1.5732  3.0056 -0.2536
 1680TIP3   OH2 5045   5.155   1.465   1.369 -0.3762  0.5050  0.3532
 1680TIP3    H1 5046   5.190   1.377   1.356  0.1091  0.8182 -0.5453
 1680TIP3    H2 5047   5.158   1.505   1.282 -2.4191  0.7691  0.3528
 1681TIP3   OH2 5048   6.048   0.866   1.763 -0.2176 -0.3945  0.2740
 1681TIP3    H1 5049   6.125   0.891   1.814 -1.1255 -0.7014  1.8706
 1681TIP3    H2 5050   6.014   0.788   1.808 -1.3442 -0.3797 -0.5098
 1682TIP3   OH2 5051   0.505   4.852   2.071  0.0369  0.3684 -0.1257
 1682TIP3    H1 5052   0.452   4.797   2.015  2.0614 -1.3342 -0.4891
 1682TIP3    H2 5053   0.578   4.880   2.016  1.7056 -0.7732  1.3785
 1683TIP3   OH2 5054   6.324   4.350   2.357 -0.3541  0.5920 -0.1978
 1683TIP3    H1 5055   6.396   4.412   2.361 -1.9672  2.5716 -0.2628
 1683TIP3    H2 5056   6.245   4.404   2.364 -1.8339 -1.5429  0.5580
 1684TIP3   OH2 5057   4.500   5.516   2.849 -0.0658 -0.9643 -0.5741
 1684TIP3    H1 5058   4.414   5.530   2.888  0.4973  0.2180  0.3320
 1684TIP3    H2 5059   4.561   5.525   2.922  0.8862 -0.8855 -1.3559
 1685TIP3   OH2 5060   2.843   0.856   4.617  0.8072 -0.0459  0.0601
 1685TIP3    H1 5061   2.814   0.829   4.704 -0.1495  0.0321 -0.2194
 1685TIP3    H2 5062   2.768   0.837   4.560  1.4485 -0.1802 -0.7660
 1686TIP3   OH2 5063   2.842   4.940   4.783  0.7053 -0.0987 -0.3479
 1686TIP3    H1 5064   2.787   4.870   4.747  1.3501 -0.4811 -0.6092
 1686TIP3    H2 5065   2.786   4.986   4.844 -0.4184  0.5159 -1.7825
 1687TIP3   OH2 5066   1.203   3.005   1.309 -0.1604 -0.3882 -0.2304
 1687TIP3    H1 5067   1.147   3.075   1.343 -0.3224 -0.8839  0.5526
 1687TIP3    H2 5068   1.161   2.978   1.228 -0.3324  0.1310 -0.3212
 1688TIP3   OH2 5069   0.657   1.223   0.229 -0.1323 -0.3918  0.2437
 1688TIP3    H1 5070   0.603   1.212   0.150  1.5232 -0.2692 -0.9484
 1688TIP3    H2 5071   0.605   1.280   0.286 -1.3807 -0.5146 -0.7305
 1689TIP3   OH2 5072   2.687   4.513   3.406 -0.3233 -0.2965 -0.0769
 1689TIP3    H1 5073   2.619   4.569   3.444 -0.7365 -0.4935 -0.5061
 1689TIP3    H2 5074   2.752   4.574   3.371 -0.4603 -0.0995  0.0089
 1690TIP3   OH2 5075   2.300   4.636   2.583  0.0144  0.0307  0.5102
 1690TIP3    H1 5076   2.332   4.663   2.669  0.2206 -1.4111  0.9134
 1690TIP3    H2 5077   2.257   4.552   2.599  0.7199 -0.6318 -0.9111
 1691TIP3   OH2 5078   4.591   3.178   0.886  0.4388  0.3018  0.0083
 1691TIP3    H1 5079   4.556   3.260   0.921 -0.9500  0.0810 -0.7762
 1691TIP3    H2 5080   4.551   3.110   0.940 -0.9349  0.0091 -1.3066
 1692TIP3   OH2 5081   0.064   2.909   4.470 -0.2838  0.3584 -0.1428
 1692TIP3    H1 5082   0.118   2.861   4.407  1.3131 -2.0841  2.8549
 1692TIP3    H2 5083   0.127   2.959   4.522 -1.2833  0.4491  1.0205
 1693TIP3   OH2 5084   6.010   1.929   1.906 -0.8007  0.0346 -0.7297
 1693TIP3    H1 5085   6.077   1.862   1.915 -0.0875  0.3698 -3.0689
 1693TIP3    H2 5086   5.954   1.898   1.835 -1.1550  1.3657 -1.0607
 1694TIP3   OH2 5087   2.858   3.496   3.915 -0.0098  0.2461  0.0872
 1694TIP3    H1 5088   2.840   3.451   3.833  1.5051 -0.9947  0.3930
 1694TIP3    H2 5089   2.947   3.469   3.938 -0.1897  1.0309  1.8415
 1695TIP3   OH2 5090   1.733   5.838   0.855 -0.2479  0.2532  0.4249
 1695TIP3    H1 5091   1.763   5.925   0.829  2.9890 -0.7914  0.0928
 1695TIP3    H2 5092   1.683   5.806   0.781  1.0963  0.7680 -0.7505
 1696TIP3   OH2 5093   4.843   1.251   0.732  0.1353  0.3935  0.0220
 1696TIP3    H1 5094   4.844   1.260   0.636 -1.4416 -1.1783 -0.1891
 1696TIP3    H2 5095   4.932   1.222   0.754  0.4683  0.6097 -0.9850
 1697TIP3   OH2 5096   2.293   4.430   1.745 -0.3310 -0.0322  0.2394
 1697TIP3    H1 5097   2.228   4.477   1.798  1.4952  1.2606  1.4396
 1697TIP3    H2 5098   2.324   4.359   1.801  0.8267  0.6761  0.5159
 1698TIP3   OH2 5099   4.552   4.736   3.380  0.5075 -0.3885 -0.2872
 1698TIP3    H1 5100   4.528   4.709   3.469 -0.7050  1.0640 -0.1405
 1698TIP3    H2 5101   4.581   4.826   3.389  1.0406 -0.4455 -1.2843
 1699TIP3   OH2 5102   5.289   4.156   0.686  0.2969  0.2715 -0.0279
 1699TIP3    H1 5103   5.380   4.155   0.658  0.0061  0.6436 -0.9965
 1699TIP3    H2 5104   5.252   4.235   0.647 -0.1505  0.7582  1.3172
 1700TIP3   OH2 5105   0.661   0.163   4.264  0.2725 -0.1415 -0.3329
 1700TIP3    H1 5106   0.636   0.241   4.313  0.7269  0.4063 -0.9431
 1700TIP3    H2 5107   0.579   0.129   4.228  0.1775  0.5662 -0.7913
 1701TIP3   OH2 5108   2.155   3.963   0.824  0.3014 -0.6184  0.4964
 1701TIP3    H1 5109   2.108   4.033   0.780  0.9289  0.8731  2.0906
 1701TIP3    H2 5110   2.093   3.929   0.889  0.9108  0.4229  1.6613
 1702TIP3   OH2 5111   0.050   5.069   1.706  0.5773 -0.1351 -0.0023
 1702TIP3    H1 5112   0.083   5.129   1.772  1.1234 -1.7933  1.2989
 1702TIP3    H2 5113   0.128   5.033   1.665  0.2989 -0.8046  0.0404
 1703TIP3   OH2 5114   4.918   5.675   1.667  0.1147  0.9701 -0.4556
 1703TIP3    H1 5115   4.962   5.744   1.716  0.6561  0.7680 -0.6449
 1703TIP3    H2 5116   4.857   5.721   1.610 -0.5350  1.2060  0.4179
 1704TIP3   OH2 5117   4.585   1.937   2.294  0.2733 -0.0289 -0.5710
 1704TIP3    H1 5118   4.611   2.027   2.274 -1.2832  0.3381 -1.0948
 1704TIP3    H2 5119   4.576   1.895   2.209 -1.2680  0.0111 -0.4493
 1705TIP3   OH2 5120   5.873   5.002   2.848  0.7999  0.1551  0.2905
 1705TIP3    H1 5121   5.896   4.986   2.757  2.9127  0.4876  0.7115
 1705TIP3    H2 5122   5.835   5.090   2.849 -1.5686 -0.7987 -0.5835
 1706TIP3   OH2 5123   1.157   3.633   1.766  0.0365 -0.1562 -0.2021
 1706TIP3    H1 5124   1.135   3.724   1.784  0.1494 -0.1574 -0.0593
 1706TIP3    H2 5125   1.253   3.631   1.761  0.0634 -0.3639  0.3232
 1707TIP3   OH2 5126   2.271   4.321   3.991 -0.4652  0.4808  0.5086
 1707TIP3    H1 5127   2.240   4.267   3.919  0.2719  0.9092 -0.1432
 1707TIP3    H2 5128   2.364   4.333   3.975 -0.5738  1.8200  0.7008
 1708TIP3   OH2 5129   5.594   4.618   0.211  0.0609 -0.1885 -0.4263
 1708TIP3    H1 5130   5.673   4.640   0.260 -1.1029  2.2552  0.5470
 1708TIP3    H2 5131   5.609   4.530   0.179  1.1691 -1.8309  3.9086
 1709TIP3   OH2 5132   0.449   2.384   1.558 -0.4285 -0.2844  0.4313
 1709TIP3    H1 5133   0.463   2.467   1.512  2.2782 -0.7160  0.3208
 1709TIP3    H2 5134   0.360   2.392   1.594 -1.1422  1.6948 -1.4672
 1710TIP3   OH2 5135   1.347   3.983   4.977 -0.1565 -0.0726  0.1851
 1710TIP3    H1 5136   1.404   4.017   5.046 -1.1329  1.5999  0.2293
 1710TIP3    H2 5137   1.365   4.038   4.901  0.8698 -1.8585 -0.9547
 1711TIP3   OH2 5138   5.180   3.243   1.102 -0.6607  0.5510 -0.3799
 1711TIP3    H1 5139   5.092   3.257   1.069 -0.9542  1.3451  0.7213
 1711TIP3    H2 5140   5.234   3.308   1.055 -0.6120 -0.0315 -1.1597
 1712TIP3   OH2 5141   4.550   4.218   2.465 -0.2197 -0.1724 -0.4283
 1712TIP3    H1 5142   4.456   4.228   2.480 -0.2276 -1.1197  0.3164
 1712TIP3    H2 5143   4.588   4.221   2.553  0.3394 -0.6231 -0.6483
 1713TIP3   OH2 5144   5.586   2.472   3.051  0.0496 -0.1436 -0.0546
 1713TIP3    H1 5145   5.549   2.533   3.116  1.9278 -1.9253  2.9510
 1713TIP3    H2 5146   5.680   2.493   3.050  0.0015  0.3506 -2.9655
 1714TIP3   OH2 5147   2.349   2.742   4.392 -0.1160 -0.3449  0.4560
 1714TIP3    H1 5148   2.402   2.662   4.392  0.2637 -0.1003 -0.3136
 1714TIP3    H2 5149   2.272   2.719   4.339 -0.1115 -0.2617  0.4146
 1715TIP3   OH2 5150   3.601   1.219   4.057 -0.3947  0.1175 -0.4951
 1715TIP3    H1 5151   3.677   1.162   4.053  1.0904  1.9649 -0.1481
 1715TIP3    H2 5152   3.611   1.278   3.982 -1.1521  0.7609 -0.1088
 1716TIP3   OH2 5153   2.516   4.286   4.376  0.3689 -0.3505  0.0810
 1716TIP3    H1 5154   2.529   4.371   4.334 -0.4454  0.0856  0.6738
 1716TIP3    H2 5155   2.423   4.265   4.361  0.4811 -0.9719  0.2172
 1717TIP3   OH2 5156   1.010   4.016   4.490 -0.4792  0.4896 -0.1938
 1717TIP3    H1 5157   1.012   4.025   4.395 -0.7658  1.7981 -0.0915
 1717TIP3    H2 5158   0.959   3.937   4.506 -0.1414  0.0693 -1.1347
 1718TIP3   OH2 5159   4.121   1.182   0.066 -0.1786  0.3345 -0.2105
 1718TIP3    H1 5160   4.038   1.145   0.097  0.5922  0.0716  1.6435
 1718TIP3    H2 5161   4.157   1.114   0.009 -0.4245 -0.2878  0.3686
 1719TIP3   OH2 5162   4.472   4.658   3.121 -0.4677 -0.1674 -0.4672
 1719TIP3    H1 5163   4.488   4.679   3.213 -2.6448  0.3819 -0.1646
 1719TIP3    H2 5164   4.519   4.727   3.073 -1.2929  0.9836  0.3176
 1720TIP3   OH2 5165   4.580   0.621   1.475 -0.1131 -0.3249  0.1245
 1720TIP3    H1 5166   4.531   0.571   1.540  0.6480 -1.0428  0.1607
 1720TIP3    H2 5167   4.639   0.557   1.435  1.7173  0.7555  0.9925
 1721TIP3   OH2 5168   5.286   3.503   5.056 -0.0714 -0.3119 -0.5154
 1721TIP3    H1 5169   5.365   3.530   5.103 -1.1217  2.2567 -0.0814
 1721TIP3    H2 5170   5.247   3.436   5.112  0.0807  0.8091  1.0081
 1722TIP3   OH2 5171   4.073   0.582   1.668  0.3662 -0.3030 -0.0244
 1722TIP3    H1 5172   4.056   0.522   1.596 -1.2205  2.1205 -1.8427
 1722TIP3    H2 5173   3.991   0.583   1.718  0.4789  0.1194  0.1600
 1723TIP3   OH2 5174   3.554   1.497   4.298 -0.0521  0.5154  0.1347
 1723TIP3    H1 5175   3.623   1.438   4.267 -0.9388 -1.3475  1.4726
 1723TIP3    H2 5176   3.600   1.577   4.323  1.7860 -0.9144  1.6486
 1724TIP3   OH2 5177   1.115   5.831   2.527  0.3131 -0.6834  0.0201
 1724TIP3    H1 5178   1.074   5.903   2.575  1.3368  0.1725 -0.3482
 1724TIP3    H2 5179   1.063   5.822   2.448 -0.6524 -1.2888  0.7041
 1725TIP3   OH2 5180   0.207   0.987   3.822 -0.4261  0.3684 -0.3250
 1725TIP3    H1 5181   0.142   1.052   3.845 -0.0841  0.7450 -0.4015
 1725TIP3    H2 5182   0.287   1.038   3.807 -0.6613  0.2048 -2.5365
 1726TIP3   OH2 5183   5.584   2.367   0.584 -0.0112  0.2023 -0.3717
 1726TIP3    H1 5184   5.652   2.373   0.517 -0.4404  2.3659 -0.6875
 1726TIP3    H2 5185   5.632   2.355   0.666  0.6610  0.2050 -0.7559
 1727TIP3   OH2 5186   6.258   0.072   2.813  0.0004 -0.4128  0.0571
 1727TIP3    H1 5187   6.250   0.135   2.884  0.2857 -0.6861  0.3386
 1727TIP3    H2 5188   6.248  -0.013   2.855 -0.9519 -0.5408 -0.4040
 1728TIP3   OH2 5189   0.519   5.406   1.161 -0.0032  0.4702  0.4261
 1728TIP3    H1 5190   0.520   5.358   1.244  3.3578 -0.9272 -0.2273
 1728TIP3    H2 5191   0.571   5.484   1.178  0.2306  0.4548 -0.1995
 1729TIP3   OH2 5192   3.763   5.168   4.982 -0.3587 -0.7537  0.3826
 1729TIP3    H1 5193   3.667   5.176   4.979 -0.2816 -0.3127 -1.3259
 1729TIP3    H2 5194   3.793   5.251   5.019 -0.6237 -0.9363  1.0311
 1730TIP3   OH2 5195   2.740   5.441   3.103  0.0492 -0.5108 -0.1006
 1730TIP3    H1 5196   2.674   5.509   3.117 -0.7114 -1.4004  0.8616
 1730TIP3    H2 5197   2.822   5.489   3.092 -0.8017  0.6585 -1.9007
 1731TIP3   OH2 5198   6.272   2.592   4.193  0.4453  0.3809 -0.1702
 1731TIP3    H1 5199   6.245   2.535   4.265 -0.1939  0.0219 -0.6836
 1731TIP3    H2 5200   6.245   2.545   4.114  2.1383  0.2354 -0.6992
 1732TIP3   OH2 5201   4.379   4.400   4.056  0.1489 -0.5175  0.4430
 1732TIP3    H1 5202   4.381   4.315   4.099  0.7906 -0.4995  0.4557
 1732TIP3    H2 5203   4.436   4.391   3.980  0.6989  0.0692  0.7737
 1733TIP3   OH2 5204   1.630   1.232   0.173 -0.5293 -0.3739  0.7627
 1733TIP3    H1 5205   1.597   1.177   0.244 -1.2612  0.1844  0.8680
 1733TIP3    H2 5206   1.558   1.237   0.111 -0.2312 -0.0734  0.4340
 1734TIP3   OH2 5207   5.973   5.393   0.727  0.3826  0.3560 -0.0602
 1734TIP3    H1 5208   6.028   5.353   0.794  1.5456  1.4495 -0.3073
 1734TIP3    H2 5209   5.928   5.320   0.685  2.9645 -0.8294 -0.9725
 1735TIP3   OH2 5210   2.542   0.126   0.041 -0.0162 -0.1807  0.2180
 1735TIP3    H1 5211   2.574   0.166  -0.040  0.6825  0.0330  0.5953
 1735TIP3    H2 5212   2.475   0.064   0.012 -0.4775  0.5951 -0.4496
 1736TIP3   OH2 5213   2.458   1.605   2.712 -0.1114  0.0419  0.0993
 1736TIP3    H1 5214   2.487   1.575   2.626  0.9083  1.7209 -0.1845
 1736TIP3    H2 5215   2.469   1.529   2.770  1.0084 -0.5412 -0.8579
 1737TIP3   OH2 5216   0.068   1.442   0.316 -0.0190 -0.6453  0.1453
 1737TIP3    H1 5217  -0.002   1.427   0.253  0.4883 -0.1021 -0.5711
 1737TIP3    H2 5218   0.045   1.524   0.360  0.5297 -0.0541 -0.6327
 1738TIP3   OH2 5219   0.532   5.076   0.154 -0.3425 -0.2149 -0.2933
 1738TIP3    H1 5220   0.461   5.128   0.192  0.6114  1.6418 -0.9417
 1738TIP3    H2 5221   0.580   5.137   0.099  1.5483 -1.5125 -0.1704
 1739TIP3   OH2 5222   5.864   3.153   1.749  0.3937  0.2813  0.1614
 1739TIP3    H1 5223   5.837   3.067   1.781 -0.7550 -0.4737 -2.5766
 1739TIP3    H2 5224   5.782   3.200   1.733  0.8145  0.3646 -2.0954
 1740TIP3   OH2 5225   1.698   5.968   0.069 -0.5335 -0.3252  0.6656
 1740TIP3    H1 5226   1.664   5.902   0.010  0.7468 -1.0220  0.6793
 1740TIP3    H2 5227   1.643   5.961   0.147 -1.1713 -0.5412  0.2003
 1741TIP3   OH2 5228   5.682   2.982   2.357  0.2511 -0.4065  0.4709
 1741TIP3    H1 5229   5.731   3.006   2.436 -1.3076  2.6588  0.6620
 1741TIP3    H2 5230   5.593   2.964   2.389  0.0581 -1.0474 -0.3899
 1742TIP3   OH2 5231   4.406   0.360   0.892 -0.0814  0.5314  0.4627
 1742TIP3    H1 5232   4.472   0.342   0.825 -0.7565  1.6246 -0.5391
 1742TIP3    H2 5233   4.335   0.403   0.845 -2.0568 -1.6205  1.2843
 1743TIP3   OH2 5234   0.550   0.003   1.127 -0.9075 -0.2954  0.2190
 1743TIP3    H1 5235   0.530   0.030   1.217  1.3392  0.0209  0.6722
 1743TIP3    H2 5236   0.526   0.079   1.073 -0.3027  0.3256  0.8082
 1744TIP3   OH2 5237   1.640   0.360   3.701 -0.0237  0.1021 -0.5060
 1744TIP3    H1 5238   1.709   0.424   3.718  0.0137  0.0209 -0.3563
 1744TIP3    H2 5239   1.562   0.397   3.743  0.1328 -0.2343  0.0978
 1745TIP3   OH2 5240   1.285   4.975   4.707 -0.5250 -0.2622  0.0956
 1745TIP3    H1 5241   1.377   4.998   4.702 -0.2381 -1.3712 -0.0695
 1745TIP3    H2 5242   1.252   5.024   4.783 -0.0319  0.8396 -0.3813
 1746TIP3   OH2 5243   1.562   1.389   4.920  0.3166  0.4590  0.8615
 1746TIP3    H1 5244   1.490   1.452   4.925  0.6166  0.7258  2.6579
 1746TIP3    H2 5245   1.562   1.346   5.006  0.3437 -1.7696 -0.1997
 1747TIP3   OH2 5246   5.351   1.785   3.319 -0.5439  0.4023 -0.7655
 1747TIP3    H1 5247   5.383   1.865   3.278 -0.5641  0.0778 -1.4324
 1747TIP3    H2 5248   5.310   1.814   3.401  0.9460  0.8928 -0.1608
 1748TIP3   OH2 5249   4.973   4.372   2.224  0.0356 -0.0097 -0.1372
 1748TIP3    H1 5250   5.064   4.365   2.254  0.1112 -0.0080 -0.3674
 1748TIP3    H2 5251   4.980   4.386   2.130 -0.2148 -0.4744 -0.2299
 1749TIP3   OH2 5252   4.958   1.039   2.438 -0.5908 -0.6994  0.2981
 1749TIP3    H1 5253   4.911   1.015   2.518 -0.6952  0.4017  0.5776
 1749TIP3    H2 5254   5.005   1.119   2.461 -0.4285 -0.5062 -0.6745
 1750TIP3   OH2 5255   4.962   2.358   0.632  0.1096 -0.3048  0.7001
 1750TIP3    H1 5256   4.900   2.319   0.570  0.5009 -1.8289  1.2219
 1750TIP3    H2 5257   5.013   2.283   0.665  0.9902  0.6816  1.6487
 1751TIP3   OH2 5258   2.995   4.478   0.644  0.3794  0.1546 -0.5696
 1751TIP3    H1 5259   3.044   4.477   0.561  0.8125 -1.4436 -0.3424
 1751TIP3    H2 5260   3.030   4.402   0.692  1.2083  1.8866  1.7244
 1752TIP3   OH2 5261   4.593   1.579   2.472  0.0522  0.0800  0.4039
 1752TIP3    H1 5262   4.636   1.631   2.405 -0.4659 -0.6823 -0.5550
 1752TIP3    H2 5263   4.655   1.508   2.490 -0.2463 -0.3065 -0.0551
 1753TIP3   OH2 5264   5.668   4.688   1.141 -0.2849 -0.4480 -0.4165
 1753TIP3    H1 5265   5.701   4.660   1.227 -0.7342 -2.1421 -0.7549
 1753TIP3    H2 5266   5.717   4.768   1.122 -0.6333  0.3399  1.6862
 1754TIP3   OH2 5267   0.415   3.448   4.009 -0.2139  0.9802  0.0955
 1754TIP3    H1 5268   0.375   3.455   4.096 -0.7215  0.8826 -0.1272
 1754TIP3    H2 5269   0.417   3.537   3.976 -0.6584  0.9234 -0.0781
 1755TIP3   OH2 5270   3.215   2.140   1.280  0.2062  0.4340  0.1934
 1755TIP3    H1 5271   3.135   2.177   1.318 -0.8872  1.2639 -2.6289
 1755TIP3    H2 5272   3.237   2.066   1.336 -1.6044  1.1737  1.9916
 1756TIP3   OH2 5273   4.647   1.701   3.210  0.2922 -0.5503 -0.0354
 1756TIP3    H1 5274   4.704   1.657   3.147 -0.3786 -2.0841  0.3953
 1756TIP3    H2 5275   4.591   1.758   3.156  2.1145  0.9245 -0.4742
 1757TIP3   OH2 5276   3.830   5.828   3.582 -0.4933 -0.1210  0.0708
 1757TIP3    H1 5277   3.902   5.888   3.603  0.2861 -0.8544 -0.4354
 1757TIP3    H2 5278   3.869   5.763   3.524 -0.9618 -1.9380  1.7255
 1758TIP3   OH2 5279   2.286   4.490   0.648  0.7645 -0.0692 -0.1828
 1758TIP3    H1 5280   2.223   4.483   0.719 -0.7379 -1.1821 -1.5465
 1758TIP3    H2 5281   2.364   4.529   0.688 -0.4306  0.4237  1.7762
 1759TIP3   OH2 5282   4.134   2.973   3.781  0.0877  0.0944 -0.1079
 1759TIP3    H1 5283   4.160   3.058   3.744 -0.6806  0.9970  1.3142
 1759TIP3    H2 5284   4.122   2.991   3.874 -1.8322 -1.1470 -0.0657
 1760TIP3   OH2 5285   2.737   3.477   2.340 -0.0390 -0.0404  0.4502
 1760TIP3    H1 5286   2.801   3.534   2.383  0.2300 -0.4871  0.6404
 1760TIP3    H2 5287   2.730   3.512   2.251  0.5297 -0.0407  0.4026
 1761TIP3   OH2 5288   2.169   3.124   2.431 -0.2313 -0.8250 -0.0579
 1761TIP3    H1 5289   2.214   3.208   2.427 -0.8407 -0.2951  2.4863
 1761TIP3    H2 5290   2.086   3.140   2.387 -0.3097 -0.0981  0.3290
 1762TIP3   OH2 5291   6.269   5.550   2.048  0.2296  0.2915  0.4681
 1762TIP3    H1 5292   6.312   5.464   2.051 -1.4845 -0.5945  0.8576
 1762TIP3    H2 5293   6.309   5.594   1.973  2.5712 -0.0216  1.4315
 1763TIP3   OH2 5294   3.462   2.526   2.849  0.0062  0.3032  0.4277
 1763TIP3    H1 5295   3.469   2.621   2.837 -0.2124  0.2931  0.2160
 1763TIP3    H2 5296   3.471   2.490   2.761 -2.2318  0.2653  0.1675
 1764TIP3   OH2 5297   5.596   2.394   4.043 -0.6563  0.7004  0.0563
 1764TIP3    H1 5298   5.508   2.394   4.006 -0.7233 -0.3859  0.1790
 1764TIP3    H2 5299   5.610   2.304   4.072  1.6101  0.0749 -2.6169
 1765TIP3   OH2 5300   0.883   3.763   4.503 -0.2141 -0.0191  0.1060
 1765TIP3    H1 5301   0.847   3.679   4.472  0.5445 -0.5835  0.7194
 1765TIP3    H2 5302   0.917   3.744   4.590 -0.6254  1.0992  0.5223
 1766TIP3   OH2 5303   1.510   4.175   4.347  0.6946  0.1400 -0.1942
 1766TIP3    H1 5304   1.473   4.215   4.426 -0.7487  1.1392 -1.3225
 1766TIP3    H2 5305   1.509   4.081   4.366 -0.9557  0.2519  0.4583
 1767TIP3   OH2 5306   1.802   0.147   4.769  0.6114  0.2718 -0.1620
 1767TIP3    H1 5307   1.720   0.180   4.806  2.2548  1.7918  2.4896
 1767TIP3    H2 5308   1.791   0.052   4.765 -1.2742  0.4436  0.0264
 1768TIP3   OH2 5309   5.580   2.100   4.539 -0.4796 -0.8454  0.0460
 1768TIP3    H1 5310   5.543   2.162   4.476  0.8854  0.4335  0.4451
 1768TIP3    H2 5311   5.529   2.019   4.526 -2.8029  0.5326  0.0145
 1769TIP3   OH2 5312   3.600   1.706   2.352 -0.8264 -0.4057 -0.4163
 1769TIP3    H1 5313   3.690   1.738   2.345 -0.4023 -1.7644 -2.0736
 1769TIP3    H2 5314   3.546   1.782   2.334 -0.0647  0.6277  1.4278
 1770TIP3   OH2 5315   2.665   0.633   2.052 -0.6069  0.4112  0.1276
 1770TIP3    H1 5316   2.683   0.694   2.124 -1.3846  1.7765 -0.7850
 1770TIP3    H2 5317   2.570   0.628   2.047 -0.5547 -0.8369  0.1318
 1771TIP3   OH2 5318   0.316   4.919   2.563  0.2137 -0.5150 -0.3578
 1771TIP3    H1 5319   0.279   4.925   2.475 -0.7657 -0.8149  0.0156
 1771TIP3    H2 5320   0.316   4.825   2.582 -3.4185 -0.3306  1.4825
 1772TIP3   OH2 5321   1.999   1.815   0.881  0.6576 -0.4268 -0.3005
 1772TIP3    H1 5322   1.915   1.852   0.855 -0.1734 -0.8609  1.6128
 1772TIP3    H2 5323   2.049   1.890   0.914  0.4239 -0.4039  0.0080
 1773TIP3   OH2 5324   3.000   0.785   3.143  0.3213  0.4607 -0.1990
 1773TIP3    H1 5325   3.071   0.722   3.130  0.1727  0.5201 -1.4217
 1773TIP3    H2 5326   2.977   0.777   3.235  0.7882 -0.7512 -0.1745
 1774TIP3   OH2 5327   0.118   5.750   2.076 -0.4398 -0.4323 -0.3474
 1774TIP3    H1 5328   0.027   5.744   2.103 -0.1310 -0.1847  0.7945
 1774TIP3    H2 5329   0.153   5.824   2.125  0.4117 -0.6167 -0.6548
 1775TIP3   OH2 5330   0.886   5.495   5.051 -0.1962 -0.1814 -0.1592
 1775TIP3    H1 5331   0.936   5.414   5.036  0.4983  0.2041  0.0478
 1775TIP3    H2 5332   0.798   5.474   5.021 -0.0695 -1.0799  0.0664
 1776TIP3   OH2 5333   2.929   0.897   3.405 -0.1765  0.3369  1.0820
 1776TIP3    H1 5334   2.979   0.958   3.459  0.5296 -0.9212  1.9047
 1776TIP3    H2 5335   2.924   0.818   3.458  0.0376 -0.7580 -0.4877
 1777TIP3   OH2 5336   2.794   1.534   0.651  0.0099  0.7402 -0.1289
 1777TIP3    H1 5337   2.781   1.583   0.570  1.4673  0.2509 -0.6845
 1777TIP3    H2 5338   2.869   1.577   0.693  0.6504 -0.3678 -0.1183
 1778TIP3   OH2 5339   3.948   5.175   2.564 -0.6560  0.2145  0.2669
 1778TIP3    H1 5340   3.967   5.137   2.478 -1.5145 -2.2184  1.0840
 1778TIP3    H2 5341   4.034   5.203   2.597  0.4069 -2.9423  0.4504
 1779TIP3   OH2 5342   6.123   1.810   0.971 -0.1317 -0.5295  0.3275
 1779TIP3    H1 5343   6.148   1.717   0.978  1.3758 -0.2079 -0.3981
 1779TIP3    H2 5344   6.204   1.858   0.988 -1.1823  0.7463  2.2014
 1780TIP3   OH2 5345   3.065   5.374   1.583 -0.5072 -0.0015  0.0247
 1780TIP3    H1 5346   3.095   5.283   1.591 -0.0189  0.1136 -0.4263
 1780TIP3    H2 5347   3.128   5.425   1.634 -1.0190  0.0457  0.6202
 1781TIP3   OH2 5348   2.815   1.531   2.484  0.2987  0.6411  0.7933
 1781TIP3    H1 5349   2.727   1.498   2.504  0.5766 -0.2407  0.6328
 1781TIP3    H2 5350   2.803   1.586   2.407 -0.2607  1.3659  1.3797
 1782TIP3   OH2 5351   1.857   4.352   3.736  0.2876 -0.1830 -0.2345
 1782TIP3    H1 5352   1.821   4.385   3.819 -1.2494 -0.7527 -0.6359
 1782TIP3    H2 5353   1.896   4.268   3.759 -0.2638 -0.4081 -0.0987
 1783TIP3   OH2 5354   4.155   5.702   2.265 -0.2385 -0.4326  0.0710
 1783TIP3    H1 5355   4.096   5.743   2.201 -0.1630 -0.4876 -0.0335
 1783TIP3    H2 5356   4.214   5.773   2.291  0.3393 -0.6442 -0.6337
 1784TIP3   OH2 5357   4.974   0.913   4.550  0.0387 -0.8087  0.1825
 1784TIP3    H1 5358   5.053   0.965   4.534 -0.3325 -0.4605 -0.5579
 1784TIP3    H2 5359   4.985   0.880   4.639  0.6958 -0.1903  0.3412
 1785TIP3   OH2 5360   0.046   2.756   3.941  0.1410  0.2113  0.4632
 1785TIP3    H1 5361   0.132   2.715   3.936 -0.0643 -0.1455 -0.4802
 1785TIP3    H2 5362  -0.007   2.695   3.993  0.5755  0.6597  1.4365
 1786TIP3   OH2 5363   2.354   4.638   4.487 -0.5736  0.3419  0.5467
 1786TIP3    H1 5364   2.355   4.647   4.391 -1.1826  0.6919  0.5673
 1786TIP3    H2 5365   2.392   4.720   4.518 -1.0198  0.5244  0.6169
 1787TIP3   OH2 5366   1.654   1.649   0.737 -0.2164  0.3639  0.0386
 1787TIP3    H1 5367   1.634   1.704   0.661  0.6365  1.2335  0.4167
 1787TIP3    H2 5368   1.732   1.599   0.712 -1.7868 -1.8053 -0.8303
 1788TIP3   OH2 5369   4.696   1.029   0.220 -0.4406 -0.6629  0.2892
 1788TIP3    H1 5370   4.617   1.069   0.184 -0.7138 -1.6816 -0.2789
 1788TIP3    H2 5371   4.767   1.067   0.168 -0.6869 -0.8101 -0.1699
 1789TIP3   OH2 5372   3.970   1.440   3.018  0.3002  0.1284  0.7053
 1789TIP3    H1 5373   4.051   1.434   2.967 -0.0018 -0.4904  0.2888
 1789TIP3    H2 5374   3.929   1.354   3.009 -0.1014  0.2349  1.4286
 1790TIP3   OH2 5375   3.261   0.439   3.897 -0.1303 -0.4008  0.1726
 1790TIP3    H1 5376   3.256   0.343   3.897  0.9636 -0.4717 -0.2689
 1790TIP3    H2 5377   3.288   0.461   3.985 -3.1280 -0.2803  1.1843
 1791TIP3   OH2 5378   1.327   3.943   4.159  0.3244 -0.5194  0.4955
 1791TIP3    H1 5379   1.404   3.913   4.110 -0.6718 -2.6215  0.0980
 1791TIP3    H2 5380   1.361   3.966   4.245  1.4663 -0.9237  0.1798
 1792TIP3   OH2 5381   4.843   4.583   5.185  0.0298  0.4221 -0.6242
 1792TIP3    H1 5382   4.867   4.495   5.155 -0.7812  0.5596 -1.7427
 1792TIP3    H2 5383   4.915   4.639   5.157 -0.1830  0.3581 -1.3195
 1793TIP3   OH2 5384   4.284   0.672   2.971  0.4590 -0.4421  0.5400
 1793TIP3    H1 5385   4.279   0.766   2.989  1.4751 -0.5962  1.7327
 1793TIP3    H2 5386   4.373   0.647   2.994  0.1215 -1.7671  0.5259
 1794TIP3   OH2 5387   2.100   4.545   4.048  0.1921  0.2641 -0.2730
 1794TIP3    H1 5388   2.164   4.565   4.116  0.9031  0.6861 -1.0518
 1794TIP3    H2 5389   2.140   4.474   3.998  0.5877  1.2936 -1.4599
 1795TIP3   OH2 5390   3.705   3.200   1.676  0.3598 -0.3552  0.4229
 1795TIP3    H1 5391   3.763   3.257   1.627  0.7967 -1.1862 -0.0274
 1795TIP3    H2 5392   3.708   3.235   1.766 -1.0841  1.6848 -0.2297
 1796TIP3   OH2 5393   5.191   5.240   4.689  0.5188  0.5538  0.2257
 1796TIP3    H1 5394   5.153   5.154   4.705  1.9114 -0.1293  0.0265
 1796TIP3    H2 5395   5.258   5.250   4.757  0.9927  1.0772 -0.3050
 1797TIP3   OH2 5396   0.470   0.826   4.264 -0.0711  0.2969  0.2216
 1797TIP3    H1 5397   0.449   0.864   4.179  0.0539 -1.7354 -0.7664
 1797TIP3    H2 5398   0.399   0.764   4.281  0.7530 -0.5062  0.8103
 1798TIP3   OH2 5399   2.203   2.311   3.863  0.0802  0.1738 -0.1488
 1798TIP3    H1 5400   2.109   2.325   3.857 -0.1532 -1.0253  0.3572
 1798TIP3    H2 5401   2.242   2.391   3.828 -1.1153  1.0176  0.3782
 1799TIP3   OH2 5402   4.067   1.796   0.289 -0.0212  0.4257  0.3864
 1799TIP3    H1 5403   4.061   1.708   0.325  0.7872  0.6524  1.1300
 1799TIP3    H2 5404   4.158   1.805   0.261  0.1628  1.3095  1.1671
 1800TIP3   OH2 5405   0.561   5.734   1.491 -0.2481 -0.0338 -0.0200
 1800TIP3    H1 5406   0.559   5.639   1.487  0.7594 -0.0749  0.1679
 1800TIP3    H2 5407   0.636   5.755   1.547 -2.1957  0.8322  2.4635
 1801TIP3   OH2 5408   0.118   1.598   1.971  0.1484  0.7181 -0.3001
 1801TIP3    H1 5409   0.053   1.547   2.020  0.4245 -0.1191 -0.7777
 1801TIP3    H2 5410   0.196   1.597   2.027 -0.1985  1.5979  0.2068
 1802TIP3   OH2 5411   4.893   0.175   0.938 -0.0354 -0.2161  0.0477
 1802TIP3    H1 5412   4.808   0.218   0.942  0.6131  1.0169  1.8112
 1802TIP3    H2 5413   4.874   0.083   0.958 -1.2457 -0.5755 -2.3237
 1803TIP3   OH2 5414   0.973   1.520   1.471 -0.0737  0.1699  0.7301
 1803TIP3    H1 5415   1.056   1.514   1.518  0.9993  3.0116 -0.5795
 1803TIP3    H2 5416   0.966   1.612   1.445 -2.2557 -0.5386 -1.6709
 1804TIP3   OH2 5417   2.605   3.497   3.339 -0.0011 -0.3230  0.0394
 1804TIP3    H1 5418   2.639   3.462   3.257  0.4949 -3.1205  1.3347
 1804TIP3    H2 5419   2.530   3.441   3.360 -1.1129  1.3551  0.7234
 1805TIP3   OH2 5420   5.845   0.306   0.482 -0.1649  0.2597  0.1469
 1805TIP3    H1 5421   5.829   0.213   0.464 -1.2898  0.6549 -0.9912
 1805TIP3    H2 5422   5.926   0.325   0.435 -1.8464  0.7033 -2.7980
 1806TIP3   OH2 5423   1.192   3.661   4.380 -0.8244  0.2284  0.2686
 1806TIP3    H1 5424   1.195   3.753   4.354  0.2346  0.6461  1.7484
 1806TIP3    H2 5425   1.181   3.663   4.475  0.3551 -1.1660  0.4668
 1807TIP3   OH2 5426   3.259   0.003   0.246  0.9834 -0.2111  0.1478
 1807TIP3    H1 5427   3.246   0.077   0.187  1.9047 -0.5589 -0.5104
 1807TIP3    H2 5428   3.325  -0.051   0.202  0.1232 -1.5696  0.4734
 1808TIP3   OH2 5429   3.879   4.396   2.717  0.2618  0.1306 -0.1609
 1808TIP3    H1 5430   3.854   4.337   2.646  0.1630  0.9597 -0.8342
 1808TIP3    H2 5431   3.889   4.481   2.675 -0.9942  0.9089  1.0296
 1809TIP3   OH2 5432   0.804   0.633   1.843 -0.4100 -0.3446 -0.1880
 1809TIP3    H1 5433   0.709   0.624   1.837 -0.3910 -1.5623  0.9482
 1809TIP3    H2 5434   0.838   0.572   1.778 -0.3711  1.6973 -2.2113
 1810TIP3   OH2 5435   5.895   5.491   1.651 -0.2780 -0.5383  0.2949
 1810TIP3    H1 5436   5.862   5.402   1.651 -0.4036 -0.5336  2.0360
 1810TIP3    H2 5437   5.933   5.503   1.739  0.6437  0.7890 -0.2337
 1811TIP3   OH2 5438   4.145   2.904   4.384  0.0422 -0.3075  0.2620
 1811TIP3    H1 5439   4.052   2.899   4.364  0.0801  1.3653 -0.4797
 1811TIP3    H2 5440   4.179   2.818   4.360 -0.8919 -0.1457 -1.8233
 1812TIP3   OH2 5441   3.818   2.869   4.033  0.0990 -0.4615 -0.8687
 1812TIP3    H1 5442   3.856   2.827   4.109 -1.4842 -1.6029 -0.6676
 1812TIP3    H2 5443   3.755   2.806   3.999 -0.0666  0.4881 -2.4519
 1813TIP3   OH2 5444   0.730   4.093   1.622 -0.5945  0.3313  0.8059
 1813TIP3    H1 5445   0.650   4.092   1.674 -0.2095  0.6139  1.4212
 1813TIP3    H2 5446   0.732   4.008   1.579 -1.8335  0.7740 -0.1852
 1814TIP3   OH2 5447   3.054   0.769   4.976  0.7206  0.5781 -0.5845
 1814TIP3    H1 5448   2.973   0.786   4.929  1.4089  1.0337 -1.6360
 1814TIP3    H2 5449   3.090   0.690   4.935  0.3708 -0.1827  0.4987
 1815TIP3   OH2 5450   4.103   3.281   0.963  0.0498  0.0505 -0.1901
 1815TIP3    H1 5451   4.154   3.277   0.882  0.2515 -1.0226 -0.0230
 1815TIP3    H2 5452   4.025   3.228   0.944 -0.2055  0.3188  0.1069
 1816TIP3   OH2 5453   1.837   5.383   0.888  0.0576 -0.0977  0.1746
 1816TIP3    H1 5454   1.848   5.348   0.800 -1.4027 -0.4299  0.0883
 1816TIP3    H2 5455   1.901   5.453   0.895  1.7264 -1.4969 -0.3413
 1817TIP3   OH2 5456   4.191   3.774   0.893  0.2880 -0.3504  0.0324
 1817TIP3    H1 5457   4.184   3.868   0.876 -0.2594 -0.4778 -0.4925
 1817TIP3    H2 5458   4.125   3.756   0.959  0.5325 -0.3313  0.2824
 1818TIP3   OH2 5459   4.357   0.037   4.592  0.1899  0.0133 -0.0063
 1818TIP3    H1 5460   4.305   0.092   4.650 -0.1757 -0.1290 -0.1953
 1818TIP3    H2 5461   4.407  -0.019   4.650  1.4511  1.3272  0.2287
 1819TIP3   OH2 5462   5.479   4.296   2.335 -0.0837 -0.5690  0.1303
 1819TIP3    H1 5463   5.528   4.256   2.407  1.0836  0.0046 -0.3181
 1819TIP3    H2 5464   5.544   4.308   2.266 -0.5001  1.6111  0.0551
 1820TIP3   OH2 5465   5.785   0.777   4.065 -0.2157 -0.2311  0.2711
 1820TIP3    H1 5466   5.811   0.868   4.080  0.1529 -0.3612  0.4169
 1820TIP3    H2 5467   5.818   0.757   3.977  0.3578 -0.4579  0.5332
 1821TIP3   OH2 5468   2.684   5.846   2.134 -0.1663  0.1475 -0.0118
 1821TIP3    H1 5469   2.674   5.796   2.053 -1.4674 -0.1749  0.3210
 1821TIP3    H2 5470   2.599   5.888   2.147 -0.0623 -0.0042  1.3083
 1822TIP3   OH2 5471   3.837   3.210   2.831  0.4138  0.3855 -0.0723
 1822TIP3    H1 5472   3.889   3.143   2.876  2.2322  1.0230 -1.1238
 1822TIP3    H2 5473   3.777   3.242   2.898 -1.5280 -3.1729  0.1709
 1823TIP3   OH2 5474   2.166   1.114   0.886 -0.0794  0.0556 -0.0192
 1823TIP3    H1 5475   2.223   1.190   0.871 -0.4948  0.2013 -0.8664
 1823TIP3    H2 5476   2.094   1.148   0.939 -0.1168  0.1914 -0.1561
 1824TIP3   OH2 5477   0.586   3.091   4.126 -0.4797  0.1370  0.3919
 1824TIP3    H1 5478   0.636   3.171   4.141  0.5053 -0.5276  0.7730
 1824TIP3    H2 5479   0.646   3.021   4.152 -1.5842 -0.6881  0.7682
 1825TIP3   OH2 5480   4.627   4.240   2.741  0.4101  0.1380 -0.3366
 1825TIP3    H1 5481   4.685   4.211   2.811  0.6769 -0.4032 -0.7780
 1825TIP3    H2 5482   4.540   4.211   2.768  0.1719  1.7463  0.7715
 1826TIP3   OH2 5483   5.661   3.702   3.132 -0.0604  0.0392 -0.2750
 1826TIP3    H1 5484   5.670   3.611   3.104 -1.1387  0.5713 -2.6288
 1826TIP3    H2 5485   5.567   3.715   3.144  0.0613  0.8911 -0.1685
 1827TIP3   OH2 5486   0.556   2.066   3.394 -0.4923  0.4606  0.1300
 1827TIP3    H1 5487   0.625   2.064   3.459 -0.9970  0.7189  0.6855
 1827TIP3    H2 5488   0.527   2.158   3.393 -0.4781  0.4603 -0.4657
 1828TIP3   OH2 5489   1.731   1.800   0.517 -0.8744 -0.5110 -0.0847
 1828TIP3    H1 5490   1.685   1.872   0.473 -0.0587  1.1704  1.6353
 1828TIP3    H2 5491   1.749   1.737   0.448  0.5792  2.0765 -2.2592
 1829TIP3   OH2 5492   4.241   0.811   1.690  0.5594  0.3014 -0.6040
 1829TIP3    H1 5493   4.264   0.785   1.779  1.7005 -0.9476 -1.2342
 1829TIP3    H2 5494   4.164   0.757   1.669  0.7293  0.0662 -0.6271
 1830TIP3   OH2 5495   0.012   1.269   1.746  0.0990  0.4070 -0.1856
 1830TIP3    H1 5496   0.046   1.354   1.717 -0.7668  0.8155 -0.0467
 1830TIP3    H2 5497  -0.055   1.292   1.811  0.8257 -0.4327  0.8821
 1831TIP3   OH2 5498   3.540   3.298   4.278 -0.2943 -0.4895  0.3669
 1831TIP3    H1 5499   3.541   3.393   4.271  1.2398 -0.4998 -0.1379
 1831TIP3    H2 5500   3.623   3.271   4.237  0.5282 -1.8719  2.7308
 1832TIP3   OH2 5501   2.373   3.212   4.428 -0.0836  0.3691 -0.1376
 1832TIP3    H1 5502   2.285   3.183   4.454  0.5889  0.4932  2.5619
 1832TIP3    H2 5503   2.380   3.301   4.462  1.8412 -0.4424  1.8304
 1833TIP3   OH2 5504   1.246   5.267   0.263 -0.2312 -0.8323 -0.1652
 1833TIP3    H1 5505   1.203   5.296   0.344 -1.1530 -0.9417 -0.5956
 1833TIP3    H2 5506   1.246   5.172   0.269 -0.5441 -0.8485 -0.4136
 1834TIP3   OH2 5507   1.973   1.782   5.037 -0.1140 -0.0387  0.0877
 1834TIP3    H1 5508   1.964   1.690   5.011  1.4389 -0.2495  0.1942
 1834TIP3    H2 5509   1.967   1.780   5.133 -2.8121  0.3592  0.0052
 1835TIP3   OH2 5510   1.310   3.151   3.629 -0.1498 -0.3740 -0.4544
 1835TIP3    H1 5511   1.368   3.202   3.573 -1.3005  1.4519 -0.0710
 1835TIP3    H2 5512   1.362   3.074   3.653  2.1994  1.2351  0.0280
 1836TIP3   OH2 5513   1.917   3.579   5.019  0.0067 -0.1892 -0.0874
 1836TIP3    H1 5514   1.919   3.636   4.943  0.6463 -0.9140 -0.6358
 1836TIP3    H2 5515   1.852   3.618   5.077 -0.2372  0.5656 -0.8494
 1837TIP3   OH2 5516   2.973   0.362   2.780  0.3050  0.5467 -0.0099
 1837TIP3    H1 5517   2.938   0.446   2.809  1.0977  1.5548 -1.8334
 1837TIP3    H2 5518   3.040   0.385   2.716  0.5505 -1.4869 -0.5378
 1838TIP3   OH2 5519   3.805   0.221   1.278 -0.1475 -0.7231  0.4875
 1838TIP3    H1 5520   3.709   0.216   1.278 -0.1878  0.0058 -0.0514
 1838TIP3    H2 5521   3.826   0.298   1.225  0.7229 -0.5597  1.0448
 1839TIP3   OH2 5522   3.570   3.777   2.244  0.0607  0.5191  0.2953
 1839TIP3    H1 5523   3.601   3.793   2.154  0.0898  2.6492  0.6229
 1839TIP3    H2 5524   3.475   3.774   2.236  0.0954 -0.0619  0.0913
 1840TIP3   OH2 5525   0.228   0.470   1.557  0.0366  0.1609  0.4407
 1840TIP3    H1 5526   0.160   0.453   1.491  1.8355 -0.0400 -1.4701
 1840TIP3    H2 5527   0.200   0.420   1.633 -1.9726  0.1346 -0.2448
 1841TIP3   OH2 5528   4.675   4.614   4.392  0.2083 -0.3145 -0.4525
 1841TIP3    H1 5529   4.674   4.564   4.473  2.1563  0.2053 -0.0755
 1841TIP3    H2 5530   4.643   4.701   4.417  1.0318 -0.0846 -0.1759
 1842TIP3   OH2 5531   4.755   0.624   2.257  0.2411 -0.0724  0.4063
 1842TIP3    H1 5532   4.825   0.640   2.194  0.3535  0.7132  0.7160
 1842TIP3    H2 5533   4.712   0.709   2.267 -1.0114 -0.6305 -0.0716
 1843TIP3   OH2 5534   2.739   5.099   4.533 -0.3587 -0.3639 -0.1108
 1843TIP3    H1 5535   2.757   5.087   4.626 -1.3982 -0.8851  0.0366
 1843TIP3    H2 5536   2.705   5.188   4.526 -0.5092 -0.4084  0.0459
 1844TIP3   OH2 5537   0.854   5.917   1.376  0.3730  0.1326 -0.0888
 1844TIP3    H1 5538   0.762   5.930   1.397  0.1271 -0.1269 -0.9569
 1844TIP3    H2 5539   0.900   5.983   1.428 -0.1315 -0.8308  1.6564
 1845TIP3   OH2 5540   1.518   4.376   3.899 -0.0626 -0.2116 -0.4240
 1845TIP3    H1 5541   1.569   4.303   3.864  0.3142  0.9056 -2.3734
 1845TIP3    H2 5542   1.501   4.353   3.990  0.4140 -2.5068 -0.8665
 1846TIP3   OH2 5543   3.545   0.319   3.354 -0.4452  0.6376 -0.0903
 1846TIP3    H1 5544   3.620   0.275   3.393 -1.4903 -1.0058  0.1792
 1846TIP3    H2 5545   3.500   0.361   3.428  0.0836  1.4602 -0.2249
 1847TIP3   OH2 5546   0.513   5.032   3.164 -0.2326 -0.3984  1.0706
 1847TIP3    H1 5547   0.483   5.122   3.152  2.4767  0.5016  0.1753
 1847TIP3    H2 5548   0.497   4.990   3.079  0.5008 -0.0774  0.7652
 1848TIP3   OH2 5549   1.299   1.708   2.449 -0.1298 -0.5076 -0.4740
 1848TIP3    H1 5550   1.234   1.722   2.518 -0.8564  0.7865 -1.3745
 1848TIP3    H2 5551   1.293   1.615   2.428 -1.1503 -0.5515 -0.0141
 1849TIP3   OH2 5552   4.674   3.218   2.787 -0.0903  0.5027  0.2816
 1849TIP3    H1 5553   4.719   3.137   2.809 -0.9591  0.2360  1.1406
 1849TIP3    H2 5554   4.648   3.254   2.872 -0.6780  1.1177 -0.1510
 1850TIP3   OH2 5555   5.668   4.881   4.377  0.1034 -0.1554  0.3309
 1850TIP3    H1 5556   5.653   4.871   4.471  0.0167  1.1270  0.4818
 1850TIP3    H2 5557   5.641   4.971   4.359  1.4366  0.0769 -0.6490
 1851TIP3   OH2 5558   3.697   0.371  -0.018  0.1132 -0.0486 -0.0516
 1851TIP3    H1 5559   3.727   0.325   0.060 -0.8818 -0.4036  0.1234
 1851TIP3    H2 5560   3.727   0.462  -0.005  1.6817 -0.5103 -0.1976
 1852TIP3   OH2 5561   5.511   0.207   4.013  0.4695 -0.3823  0.3803
 1852TIP3    H1 5562   5.457   0.277   4.050  1.1736  0.3288  0.0966
 1852TIP3    H2 5563   5.500   0.216   3.918  0.6873 -0.5615  0.3387
 1853TIP3   OH2 5564   5.820   1.517   3.095  0.3124 -0.4094 -0.0057
 1853TIP3    H1 5565   5.748   1.478   3.145 -1.4243  0.5163 -1.6815
 1853TIP3    H2 5566   5.843   1.596   3.145  0.6284 -1.0627  0.8949
 1854TIP3   OH2 5567   1.956   0.587   1.021 -0.6409 -0.1704 -0.2366
 1854TIP3    H1 5568   1.929   0.496   1.037 -1.4664  0.1299  0.1113
 1854TIP3    H2 5569   1.979   0.589   0.928 -2.3812 -0.3168 -0.7060
 1855TIP3   OH2 5570   5.374   5.961   5.075 -0.4730 -0.0970  0.1934
 1855TIP3    H1 5571   5.297   5.925   5.120 -0.8486  0.9648  0.4405
 1855TIP3    H2 5572   5.435   5.983   5.146 -0.6366  0.6072  0.1251
 1856TIP3   OH2 5573   3.288   5.738   3.683 -0.4438  0.1293  0.6450
 1856TIP3    H1 5574   3.269   5.821   3.727 -0.2895  0.4229  0.1649
 1856TIP3    H2 5575   3.293   5.761   3.591 -1.8655 -0.6753  0.3417
 1857TIP3   OH2 5576   6.116   2.960   1.913 -0.3019 -0.2122 -0.9530
 1857TIP3    H1 5577   6.133   3.052   1.895 -0.3665 -0.3227 -1.5709
 1857TIP3    H2 5578   6.107   2.957   2.009 -2.3441  0.7813 -1.0535
 1858TIP3   OH2 5579   0.169   3.131   0.324  0.0992 -0.0540 -0.2753
 1858TIP3    H1 5580   0.109   3.129   0.250  0.3700  2.9797 -0.7129
 1858TIP3    H2 5581   0.253   3.161   0.287  1.3753 -2.2109  0.6660
 1859TIP3   OH2 5582   1.674   3.194   2.206 -0.5894  0.4093 -0.2567
 1859TIP3    H1 5583   1.608   3.151   2.261  0.9016 -1.8679 -0.1251
 1859TIP3    H2 5584   1.646   3.285   2.203 -3.2216 -0.2644  0.5413
 1860TIP3   OH2 5585   5.437   1.578   0.713 -0.5199 -0.0209 -0.3341
 1860TIP3    H1 5586   5.431   1.493   0.669  1.2255 -0.9115  1.0431
 1860TIP3    H2 5587   5.385   1.568   0.792 -1.4703  0.7005 -0.8449
 1861TIP3   OH2 5588   5.667   1.374   0.703  0.6125  0.6469  0.5835
 1861TIP3    H1 5589   5.676   1.462   0.666 -2.6202  1.4433  1.3634
 1861TIP3    H2 5590   5.607   1.329   0.644  1.5516 -0.7666  0.6705
 1862TIP3   OH2 5591   0.680   4.184   4.786  0.1145  0.2469  0.5516
 1862TIP3    H1 5592   0.703   4.206   4.696 -0.5154  1.0016  0.5635
 1862TIP3    H2 5593   0.656   4.268   4.825 -1.3486 -0.3135  0.9053
 1863TIP3   OH2 5594   5.608   4.344   4.485 -0.2532 -0.0025 -0.4758
 1863TIP3    H1 5595   5.675   4.410   4.466 -0.1699 -0.4178 -1.7178
 1863TIP3    H2 5596   5.538   4.362   4.423 -1.1375  0.1687  0.5421
 1864TIP3   OH2 5597   4.897   4.663   3.408  0.3703 -0.1834 -0.0444
 1864TIP3    H1 5598   4.880   4.646   3.315 -3.1108  0.8421  0.2665
 1864TIP3    H2 5599   4.929   4.753   3.411  1.6902 -0.6285 -0.3094
 1865TIP3   OH2 5600   1.292   1.015   0.641 -0.0463  0.5071  0.2921
 1865TIP3    H1 5601   1.321   0.947   0.702 -0.1720 -0.1930 -0.4067
 1865TIP3    H2 5602   1.282   1.093   0.695  0.9613  0.1986  0.9532
 1866TIP3   OH2 5603   0.546   0.682   4.486  0.1157 -0.1284  0.6423
 1866TIP3    H1 5604   0.508   0.741   4.420  0.0785  1.2200  1.8245
 1866TIP3    H2 5605   0.610   0.630   4.437  0.0038  0.7451 -0.4920
 1867TIP3   OH2 5606   1.532   5.064   0.589 -0.3241 -0.0358 -0.1810
 1867TIP3    H1 5607   1.550   5.053   0.682 -1.3760  0.3792  0.0846
 1867TIP3    H2 5608   1.524   4.975   0.555  0.6045 -0.2016 -0.0020
 1868TIP3   OH2 5609   2.044   5.241   0.993  0.3614 -0.0576 -0.6629
 1868TIP3    H1 5610   1.962   5.290   0.992  0.2621 -0.2194 -0.5303
 1868TIP3    H2 5611   2.103   5.294   1.046  1.0024  1.1075 -2.4593
 1869TIP3   OH2 5612   0.778   4.840   3.644  0.4170 -0.2616  0.0303
 1869TIP3    H1 5613   0.832   4.868   3.718  0.7013 -0.9714  0.1001
 1869TIP3    H2 5614   0.695   4.815   3.683 -0.0954  1.1261 -0.1111
 1870TIP3   OH2 5615   0.775   2.138   1.489 -0.0349 -0.0513  0.5116
 1870TIP3    H1 5616   0.825   2.090   1.555  0.1699  0.8920  1.0734
 1870TIP3    H2 5617   0.771   2.080   1.413  0.9870 -0.5740  0.8482
 1871TIP3   OH2 5618   1.070   3.238   4.517  0.5779  0.4569 -0.3328
 1871TIP3    H1 5619   1.136   3.226   4.585 -0.9697  0.4270  1.2230
 1871TIP3    H2 5620   1.064   3.333   4.506 -0.4342  0.5679  0.9237
 1872TIP3   OH2 5621   4.309  -0.025   4.122  0.1214 -0.2392 -0.1213
 1872TIP3    H1 5622   4.398  -0.024   4.087  0.6278 -0.5506  1.0886
 1872TIP3    H2 5623   4.306   0.050   4.182 -1.3042  1.4060 -2.1021
 1873TIP3   OH2 5624   5.589   1.746   3.089  0.5546  0.0122 -0.7073
 1873TIP3    H1 5625   5.586   1.661   3.133  0.8205  0.4517  0.1859
 1873TIP3    H2 5626   5.647   1.799   3.143  1.0800  0.5056 -1.7311
 1874TIP3   OH2 5627   2.927   5.832   2.509  0.3430  0.2929  0.4512
 1874TIP3    H1 5628   2.844   5.786   2.517 -1.6525  3.4083 -0.4882
 1874TIP3    H2 5629   2.927   5.895   2.580  1.8710  0.4793  0.3298
 1875TIP3   OH2 5630   2.378   3.306   0.384 -0.5315 -0.5288  0.3197
 1875TIP3    H1 5631   2.344   3.311   0.473 -0.8234  2.1543  0.1411
 1875TIP3    H2 5632   2.305   3.271   0.333 -0.4195 -1.9223  1.0893
 1876TIP3   OH2 5633   1.410   4.950   4.020 -0.5913  0.1306 -0.3879
 1876TIP3    H1 5634   1.436   4.932   3.930 -1.1758  0.3544 -0.6026
 1876TIP3    H2 5635   1.401   4.863   4.059  0.7384  0.0377 -0.2178
 1877TIP3   OH2 5636   5.698   5.211   2.879 -0.0301 -0.5908 -0.2000
 1877TIP3    H1 5637   5.646   5.133   2.899 -0.2312 -0.4736 -0.2590
 1877TIP3    H2 5638   5.660   5.245   2.798 -0.1759 -0.2344  0.0151
 1878TIP3   OH2 5639   4.901   1.091   4.916 -0.3136 -0.1840  0.1070
 1878TIP3    H1 5640   4.995   1.098   4.934 -0.3988  1.1949  0.0907
 1878TIP3    H2 5641   4.893   1.010   4.866  0.6649 -1.0797  1.3470
 1879TIP3   OH2 5642   1.316   4.967   2.942  0.4180 -0.2241  0.3150
 1879TIP3    H1 5643   1.280   5.047   2.979  1.9232  1.9720 -2.5375
 1879TIP3    H2 5644   1.258   4.946   2.868  1.0955 -0.6739 -0.1026
 1880TIP3   OH2 5645   6.352   5.848   0.334 -0.3571  0.2330 -0.8035
 1880TIP3    H1 5646   6.286   5.904   0.376 -0.7016 -0.5596 -0.2609
 1880TIP3    H2 5647   6.319   5.759   0.347  2.9311 -0.6923  3.5134
 1881TIP3   OH2 5648   2.723   4.316   4.058 -0.1430  0.3412  0.0436
 1881TIP3    H1 5649   2.653   4.254   4.081  0.0386 -0.1498 -0.6966
 1881TIP3    H2 5650   2.738   4.301   3.965  1.3159  0.0719  0.3061
 1882TIP3   OH2 5651   0.086   1.662   4.956  0.2643  0.1551  0.1897
 1882TIP3    H1 5652   0.073   1.668   4.862 -0.3185 -1.2542  0.1648
 1882TIP3    H2 5653  -0.002   1.665   4.994  0.2909 -1.7315  0.5067
 1883TIP3   OH2 5654   5.628   4.078   1.107  0.3282  0.1217 -0.3767
 1883TIP3    H1 5655   5.693   4.079   1.037  2.0097  0.1272  1.1200
 1883TIP3    H2 5656   5.679   4.077   1.187 -1.5310  1.3711  0.9003
 1884TIP3   OH2 5657   4.054   0.333   1.534 -0.1108  0.2235  0.0076
 1884TIP3    H1 5658   4.012   0.251   1.508 -0.1251  0.2182  0.0480
 1884TIP3    H2 5659   4.118   0.308   1.601  0.2564  0.1733 -0.3570
 1885TIP3   OH2 5660   3.060   2.925   2.883 -0.0144 -0.1191  0.0430
 1885TIP3    H1 5661   3.073   2.859   2.951 -0.2432  1.1446  1.3631
 1885TIP3    H2 5662   3.149   2.956   2.863 -0.0130  0.1482  0.4439
 1886TIP3   OH2 5663   3.135   1.536   1.859  0.2665  0.4092 -0.5077
 1886TIP3    H1 5664   3.117   1.452   1.901  1.0969 -0.8196 -2.4363
 1886TIP3    H2 5665   3.081   1.599   1.906  0.4422 -0.9833  1.7291
 1887TIP3   OH2 5666   4.323   1.954   4.945 -0.2766  0.2265 -0.1487
 1887TIP3    H1 5667   4.403   2.003   4.930 -0.2887  0.5024  0.6277
 1887TIP3    H2 5668   4.349   1.883   5.004 -0.5811  0.2676  0.0387
 1888TIP3   OH2 5669   4.625   4.534   2.522 -0.3369  0.1245 -0.7276
 1888TIP3    H1 5670   4.652   4.610   2.471 -0.0338  0.2636 -0.3741
 1888TIP3    H2 5671   4.698   4.472   2.514 -1.1313 -0.6949 -2.0915
 1889TIP3   OH2 5672   4.028   5.813   1.559 -0.6559 -0.4379  0.2459
 1889TIP3    H1 5673   4.086   5.737   1.554 -0.3200 -0.2926  1.5522
 1889TIP3    H2 5674   3.961   5.796   1.493 -0.0475 -1.4106 -0.1379
 1890TIP3   OH2 5675   4.388   0.435   2.265 -0.5176 -0.1611 -0.1658
 1890TIP3    H1 5676   4.469   0.389   2.243 -0.9161 -0.9854  0.0435
 1890TIP3    H2 5677   4.415   0.505   2.325 -0.3599 -2.7972  3.1331
 1891TIP3   OH2 5678   3.773   4.820   0.612 -0.0650 -0.0352  0.0296
 1891TIP3    H1 5679   3.818   4.826   0.697 -0.9136  1.0892  0.4143
 1891TIP3    H2 5680   3.824   4.875   0.554  0.1549 -0.3069 -0.0392
 1892TIP3   OH2 5681   3.954   2.348   4.451 -0.4738 -0.5613  0.1586
 1892TIP3    H1 5682   3.985   2.259   4.464 -0.0277 -0.1431  2.1542
 1892TIP3    H2 5683   3.859   2.342   4.463 -0.7994 -1.1256 -2.0706
 1893TIP3   OH2 5684   2.759   4.092   1.828 -0.2860 -0.8179 -0.4739
 1893TIP3    H1 5685   2.807   4.013   1.805  1.0931  0.2104 -1.2917
 1893TIP3    H2 5686   2.812   4.163   1.792 -1.4236  0.4853  0.3430
 1894TIP3   OH2 5687   1.192   3.326   3.791  0.0298  0.2226 -0.0867
 1894TIP3    H1 5688   1.241   3.258   3.745 -1.0177 -0.5208 -0.1207
 1894TIP3    H2 5689   1.126   3.355   3.729  0.3244  1.1337  0.0062
 1895TIP3   OH2 5690   1.545   3.254   1.287 -0.2935 -0.0449 -0.5011
 1895TIP3    H1 5691   1.495   3.203   1.351 -1.0221  1.4143  0.1289
 1895TIP3    H2 5692   1.636   3.234   1.307 -0.5413 -0.3124  0.4027
 1896TIP3   OH2 5693   3.381   3.929   0.863 -0.7614  0.1544  0.0483
 1896TIP3    H1 5694   3.298   3.881   0.869 -0.7025  0.0946  0.4033
 1896TIP3    H2 5695   3.389   3.950   0.770 -1.3343  0.4447  0.0576
 1897TIP3   OH2 5696   2.252   5.071   4.116 -0.2525 -0.3763 -0.7883
 1897TIP3    H1 5697   2.270   5.152   4.164 -1.4348 -0.0544 -0.8801
 1897TIP3    H2 5698   2.157   5.069   4.106 -0.2912 -1.9923 -0.4025
 1898TIP3   OH2 5699   6.078   0.882   0.745  0.2867 -0.0194 -0.4056
 1898TIP3    H1 5700   6.168   0.897   0.774  0.7892  0.1835 -2.0032
 1898TIP3    H2 5701   6.039   0.829   0.815  0.6942  2.3708  1.8150
 1899TIP3   OH2 5702   6.126   3.025   3.947  0.3724  0.2128 -0.3239
 1899TIP3    H1 5703   6.137   2.973   4.026  2.1166  1.5043  0.3695
 1899TIP3    H2 5704   6.213   3.061   3.931 -0.2332  0.9720 -2.1389
 1900TIP3   OH2 5705   3.973   5.176   0.777  0.2377 -0.2953  0.5264
 1900TIP3    H1 5706   4.068   5.168   0.787  0.2808  0.6411  0.9391
 1900TIP3    H2 5707   3.956   5.270   0.786 -0.5228 -0.2085 -1.3732
 1901TIP3   OH2 5708   1.746   3.010   0.803 -0.0350 -0.1715  0.7223
 1901TIP3    H1 5709   1.761   3.101   0.775 -3.1084 -0.2489 -1.8496
 1901TIP3    H2 5710   1.710   3.019   0.892 -0.4663  1.1795  0.4485
 1902TIP3   OH2 5711   0.856   1.565   3.518 -0.2398 -0.0110  0.2431
 1902TIP3    H1 5712   0.849   1.647   3.470 -1.2814 -1.0564 -1.4939
 1902TIP3    H2 5713   0.935   1.523   3.484 -1.2707 -0.9999 -1.0375
 1903TIP3   OH2 5714   2.419   2.951   2.128  0.2915  0.5482 -0.4275
 1903TIP3    H1 5715   2.462   3.032   2.156 -0.9226  1.0462  0.0902
 1903TIP3    H2 5716   2.487   2.903   2.081  1.4089  1.2843  0.3723
 1904TIP3   OH2 5717   4.656   5.130   3.709  0.0731  0.1410  0.5133
 1904TIP3    H1 5718   4.561   5.136   3.703  0.0614 -0.5439 -0.0499
 1904TIP3    H2 5719   4.688   5.213   3.672 -0.3053  0.4610  0.9025
 1905TIP3   OH2 5720   5.104   5.706   3.527 -0.1296 -0.1842  0.0621
 1905TIP3    H1 5721   5.128   5.765   3.598  2.1271  0.3779 -1.0792
 1905TIP3    H2 5722   5.166   5.726   3.457 -0.3443 -2.7938 -0.9853
 1906TIP3   OH2 5723   3.089   0.981   2.619 -0.1950 -0.6974  1.0183
 1906TIP3    H1 5724   3.126   0.935   2.694 -0.9192 -1.1913  1.0856
 1906TIP3    H2 5725   3.044   1.056   2.657 -1.0690 -1.2749  1.1453
 1907TIP3   OH2 5726   0.993   5.106   1.858 -0.0426 -0.6937  0.2945
 1907TIP3    H1 5727   1.073   5.128   1.906 -0.2594 -0.6709  0.6535
 1907TIP3    H2 5728   0.946   5.046   1.917  0.2808 -1.6830 -0.4238
 1908TIP3   OH2 5729   0.301   2.963   3.823 -0.7107  0.3612 -0.4502
 1908TIP3    H1 5730   0.356   3.041   3.829 -1.9864  1.3402 -1.3114
 1908TIP3    H2 5731   0.238   2.972   3.894 -0.4952 -0.2104 -0.1722
 1909TIP3   OH2 5732   0.705   3.954   2.050  0.1033  0.1115  0.1198
 1909TIP3    H1 5733   0.618   3.980   2.080  0.1722  1.6822 -0.8964
 1909TIP3    H2 5734   0.702   3.858   2.045 -1.1748  0.0805  1.1920
 1910TIP3   OH2 5735   0.107   0.440   4.443  0.0726  0.2773  0.2915
 1910TIP3    H1 5736   0.048   0.373   4.476  0.8646 -0.0513  1.0999
 1910TIP3    H2 5737   0.050   0.512   4.417 -0.6777  0.0341  1.2106
 1911TIP3   OH2 5738   0.038   5.412   4.811  0.8834 -0.0424  0.1121
 1911TIP3    H1 5739  -0.011   5.429   4.730  1.1139 -0.0118 -0.0230
 1911TIP3    H2 5740  -0.020   5.441   4.881  1.3595  1.5347 -0.1113
 1912TIP3   OH2 5741   3.409   2.715   1.253 -0.2958  0.1278  0.3768
 1912TIP3    H1 5742   3.432   2.674   1.337 -2.0372 -1.5143  0.1226
 1912TIP3    H2 5743   3.421   2.645   1.189  0.3634  1.1760 -0.6567
 1913TIP3   OH2 5744   5.170   2.121   2.458 -0.1585 -0.2540  0.6381
 1913TIP3    H1 5745   5.109   2.065   2.507  1.1157 -1.5363  0.8259
 1913TIP3    H2 5746   5.250   2.121   2.510 -0.6997  3.4858  1.7261
 1914TIP3   OH2 5747   2.895   3.508   0.368 -0.6716  0.6221 -0.0335
 1914TIP3    H1 5748   2.818   3.451   0.359  0.1742 -0.8885  1.6240
 1914TIP3    H2 5749   2.921   3.527   0.278  0.3943 -3.6745 -0.8804
 1915TIP3   OH2 5750   0.418   4.004   2.044 -0.6702 -0.1861  0.1772
 1915TIP3    H1 5751   0.384   4.062   2.112 -0.3843 -0.8118  0.8673
 1915TIP3    H2 5752   0.386   4.042   1.962  0.0433  1.3208  0.5530
 1916TIP3   OH2 5753   2.940   4.934   2.812 -0.1442  0.1641  0.3828
 1916TIP3    H1 5754   2.948   4.948   2.907 -0.2149  0.5562  0.3317
 1916TIP3    H2 5755   3.027   4.955   2.778  0.3895 -1.6111  0.5479
 1917TIP3   OH2 5756   4.442   5.875   0.194  0.3906  0.6070 -0.3588
 1917TIP3    H1 5757   4.425   5.786   0.165  1.7971  0.0430  0.4822
 1917TIP3    H2 5758   4.489   5.915   0.120  1.2905  0.1044 -0.0693
 1918TIP3   OH2 5759   5.254   3.121   5.170  0.1775 -0.1003  0.5198
 1918TIP3    H1 5760   5.337   3.163   5.146  0.1249 -0.9858 -1.3142
 1918TIP3    H2 5761   5.194   3.194   5.185  1.2889  0.5683  2.0896
 1919TIP3   OH2 5762   3.892   3.016   3.416  0.1490  0.6064 -0.4222
 1919TIP3    H1 5763   3.913   2.992   3.506  0.3267  0.2196 -0.5663
 1919TIP3    H2 5764   3.972   3.055   3.382  0.4741 -0.3824 -0.8033
 1920TIP3   OH2 5765   3.527   4.857   3.598  0.1423  0.7435  0.3066
 1920TIP3    H1 5766   3.465   4.799   3.642 -0.2362  1.2401  0.4360
 1920TIP3    H2 5767   3.562   4.912   3.669  0.8052  0.4038  0.2522
 1921TIP3   OH2 5768   4.437   2.295   2.258 -0.0586  0.5525 -0.5065
 1921TIP3    H1 5769   4.458   2.365   2.196  0.4794  0.0579 -0.8883
 1921TIP3    H2 5770   4.512   2.290   2.316 -0.4619  0.8548  0.0502
 1922TIP3   OH2 5771   6.082   2.382   4.686 -0.6962  0.6188 -0.1179
 1922TIP3    H1 5772   6.108   2.303   4.732 -0.4095 -0.1699 -1.5954
 1922TIP3    H2 5773   6.036   2.352   4.608 -1.9220  1.9348  0.0396
 1923TIP3   OH2 5774  -0.009   3.865   1.870  1.1019  0.1551 -0.0829
 1923TIP3    H1 5775   0.009   3.947   1.916 -1.0846  1.0982 -0.7840
 1923TIP3    H2 5776   0.042   3.871   1.789  2.7052 -0.2306  0.8616
 1924TIP3   OH2 5777   4.961   4.020   3.879  0.4113  0.0564 -0.1102
 1924TIP3    H1 5778   4.911   4.069   3.944  0.3127  0.0185 -0.1570
 1924TIP3    H2 5779   5.028   4.082   3.849  1.4261 -0.3899  1.1140
 1925TIP3   OH2 5780   5.328   1.526   3.422  0.5419 -0.0183  0.3847
 1925TIP3    H1 5781   5.338   1.595   3.357  1.9204  0.8703  1.4851
 1925TIP3    H2 5782   5.298   1.571   3.501  1.0570 -0.7353  0.9992
 1926TIP3   OH2 5783   1.968   1.715   3.784  0.2914  0.2659 -0.0479
 1926TIP3    H1 5784   1.917   1.680   3.857  0.1596  0.5500 -0.0029
 1926TIP3    H2 5785   1.931   1.802   3.768 -0.4248 -0.2024 -1.1575
 1927TIP3   OH2 5786   3.864   4.676   2.642 -0.1835  0.1249  0.6099
 1927TIP3    H1 5787   3.771   4.689   2.621 -0.1866 -0.2530  0.3691
 1927TIP3    H2 5788   3.868   4.679   2.737 -0.7786 -1.9179  0.7353
 1928TIP3   OH2 5789   0.277   4.005   2.758 -0.3183 -0.1594  0.1425
 1928TIP3    H1 5790   0.371   4.017   2.773 -0.3330  0.4255 -0.1932
 1928TIP3    H2 5791   0.260   4.054   2.678 -0.7451 -0.9943 -0.2824
 1929TIP3   OH2 5792   2.778   4.120   5.064 -0.4636 -0.4240  0.0172
 1929TIP3    H1 5793   2.698   4.108   5.116 -1.5591 -1.5553 -1.8199
 1929TIP3    H2 5794   2.829   4.041   5.080 -0.8219 -0.7941 -0.6069
 1930TIP3   OH2 5795   1.210   4.797   1.895 -0.3471 -0.4742 -0.2377
 1930TIP3    H1 5796   1.146   4.760   1.835 -2.7128  0.8840  1.3043
 1930TIP3    H2 5797   1.250   4.869   1.847 -1.4984 -0.0142 -0.5352
 1931TIP3   OH2 5798   2.386   5.218   0.354 -0.0049 -0.5767  0.4554
 1931TIP3    H1 5799   2.410   5.168   0.433  0.5608  0.3949  0.9080
 1931TIP3    H2 5800   2.375   5.308   0.385 -0.0297 -0.2310 -0.5375
 1932TIP3   OH2 5801   0.417   2.667   1.754 -0.5275 -0.5546  0.3103
 1932TIP3    H1 5802   0.377   2.664   1.841  0.1957 -1.7811  0.6240
 1932TIP3    H2 5803   0.511   2.654   1.770  0.1451  2.5879 -0.3745
 1933TIP3   OH2 5804   6.009   4.958   4.224 -0.1325 -0.0517 -0.2668
 1933TIP3    H1 5805   6.096   4.995   4.205 -1.1822  2.7164 -0.1447
 1933TIP3    H2 5806   5.953   4.992   4.154 -1.1279 -1.8683 -0.3932
 1934TIP3   OH2 5807   1.691   1.816   0.135  0.5374 -0.4200  0.1027
 1934TIP3    H1 5808   1.643   1.854   0.208  1.1726 -1.2567  0.9982
 1934TIP3    H2 5809   1.783   1.833   0.156  0.7004 -0.0380 -0.8829
 1935TIP3   OH2 5810   1.923   0.714   2.151  0.0881 -0.1709  0.2151
 1935TIP3    H1 5811   1.842   0.684   2.110  0.5040 -1.8678  0.5499
 1935TIP3    H2 5812   1.897   0.743   2.238 -0.4500  1.2740 -0.4008
 1936TIP3   OH2 5813   2.013   1.419   5.161  0.5300  0.5429  0.0674
 1936TIP3    H1 5814   2.070   1.384   5.093  0.7640  0.4158  0.3277
 1936TIP3    H2 5815   1.939   1.456   5.113  0.3826 -0.1106 -0.2301
 1937TIP3   OH2 5816   1.035   2.384   4.658  0.3565  0.5616  0.9544
 1937TIP3    H1 5817   1.032   2.426   4.744 -2.5801  0.0689  1.2191
 1937TIP3    H2 5818   1.022   2.456   4.596  0.0508  0.6261  1.0913
 1938TIP3   OH2 5819   2.389   0.911   3.411  0.0010 -0.3503 -0.0970
 1938TIP3    H1 5820   2.295   0.915   3.430  0.0660 -0.4926  0.2685
 1938TIP3    H2 5821   2.402   0.973   3.340 -0.3416 -0.1965 -0.0282
 1939TIP3   OH2 5822   2.011   1.194   3.249  0.1780  0.0348 -0.5489
 1939TIP3    H1 5823   1.953   1.258   3.291  0.8851 -1.2332  2.6920
 1939TIP3    H2 5824   1.952   1.131   3.208 -0.7815 -0.4476  1.4528
 1940TIP3   OH2 5825   5.166   0.131   1.268 -0.2878  0.0438  0.0724
 1940TIP3    H1 5826   5.074   0.149   1.252 -0.5878 -0.8790  0.6657
 1940TIP3    H2 5827   5.205   0.217   1.282 -0.7297  0.5659 -1.7306
 1941TIP3   OH2 5828   5.718   0.865   3.171 -0.1831  0.1749 -0.4573
 1941TIP3    H1 5829   5.647   0.806   3.145  1.0362 -0.8404 -1.6050
 1941TIP3    H2 5830   5.730   0.849   3.265  0.5114 -1.8942 -0.8542
 1942TIP3   OH2 5831   4.676   4.321   4.272  0.0850 -0.2342  0.3663
 1942TIP3    H1 5832   4.617   4.309   4.347  0.0418 -0.1675  0.3434
 1942TIP3    H2 5833   4.733   4.394   4.298 -0.8692  0.7537 -0.2484
 1943TIP3   OH2 5834   5.877   0.640   4.298  0.4290 -0.3598 -0.3806
 1943TIP3    H1 5835   5.880   0.656   4.204 -0.8449 -2.4898 -0.8424
 1943TIP3    H2 5836   5.863   0.546   4.306 -0.4342 -0.0983  1.9286
 1944TIP3   OH2 5837   5.154   3.001   4.214 -0.0632  0.4235  0.0584
 1944TIP3    H1 5838   5.097   3.075   4.193  1.3398  1.3814 -0.4970
 1944TIP3    H2 5839   5.217   3.036   4.276  0.7212 -0.2744 -0.3267
 1945TIP3   OH2 5840   0.672   1.456   2.664  0.1621  0.2311 -0.0525
 1945TIP3    H1 5841   0.627   1.520   2.719 -1.6139  1.0328 -2.3247
 1945TIP3    H2 5842   0.750   1.433   2.714 -0.3336  2.4110  1.8797
 1946TIP3   OH2 5843   1.814   5.743   3.319 -0.4124 -0.2018  0.4138
 1946TIP3    H1 5844   1.836   5.728   3.227 -2.5336 -1.4337  0.0369
 1946TIP3    H2 5845   1.891   5.714   3.367  0.0546 -1.2672 -0.9133
 1947TIP3   OH2 5846   3.399   3.223   1.422 -0.6210  0.1364 -0.0270
 1947TIP3    H1 5847   3.402   3.184   1.509  0.9438 -1.3337 -0.6962
 1947TIP3    H2 5848   3.449   3.304   1.430 -0.5820  0.0647  0.4690
 1948TIP3   OH2 5849   2.913   4.304   1.086  0.2761  0.3367 -0.0192
 1948TIP3    H1 5850   2.969   4.315   1.008  2.2025  1.7956  1.4469
 1948TIP3    H2 5851   2.826   4.331   1.056  0.1411 -2.3707 -2.4977
 1949TIP3   OH2 5852   4.923   3.758   3.245  0.1235 -0.6089 -0.2773
 1949TIP3    H1 5853   4.950   3.790   3.331  0.0679  2.8939 -1.4127
 1949TIP3    H2 5854   4.890   3.836   3.199 -0.0465 -2.3521 -3.4171
 1950TIP3   OH2 5855   3.911   5.894   1.002  0.0518  0.1154 -0.2934
 1950TIP3    H1 5856   3.938   5.956   0.933  1.1199  0.6270  0.5647
 1950TIP3    H2 5857   3.818   5.913   1.015 -0.5541 -0.9159 -2.5178
 1951TIP3   OH2 5858   4.169   1.869   4.690  0.1375 -0.3612 -0.5963
 1951TIP3    H1 5859   4.108   1.805   4.727  0.0301  0.6682  1.0934
 1951TIP3    H2 5860   4.225   1.895   4.763 -1.5219  3.4187 -0.4172
 1952TIP3   OH2 5861   3.950   2.161   1.199 -0.2106  0.4357  0.2154
 1952TIP3    H1 5862   4.019   2.095   1.188 -1.8238 -1.4706  0.8426
 1952TIP3    H2 5863   3.944   2.174   1.293  0.2632  1.7354  0.0877
 1953TIP3   OH2 5864   4.683   4.265   1.512 -0.4946 -0.5116 -0.6957
 1953TIP3    H1 5865   4.678   4.346   1.460 -0.1956 -0.4890 -0.6903
 1953TIP3    H2 5866   4.671   4.293   1.602  0.3165 -0.3820 -0.6246
 1954TIP3   OH2 5867   2.227   0.903   1.259 -0.1946 -0.3045 -0.1468
 1954TIP3    H1 5868   2.312   0.860   1.252  0.9879  1.6715  1.1106
 1954TIP3    H2 5869   2.246   0.987   1.300 -2.6926  0.4689 -0.4145
 1955TIP3   OH2 5870   3.477   4.239   3.792 -0.0274  0.0304  0.9235
 1955TIP3    H1 5871   3.489   4.247   3.887  0.1883 -0.6426  0.9611
 1955TIP3    H2 5872   3.488   4.328   3.759  0.7773  0.1346  1.4375
 1956TIP3   OH2 5873   4.204   4.354   4.419  0.0460  0.1601  0.4123
 1956TIP3    H1 5874   4.216   4.269   4.376  0.0574  0.4535 -0.1756
 1956TIP3    H2 5875   4.109   4.364   4.425  0.0136  0.6479 -0.6407
 1957TIP3   OH2 5876   0.842   5.055   2.203  0.2216 -0.0218 -0.1835
 1957TIP3    H1 5877   0.910   5.107   2.246 -0.2871  0.6560 -0.1914
 1957TIP3    H2 5878   0.891   4.995   2.146  0.8172  0.3893 -0.1165
 1958TIP3   OH2 5879   1.130   0.048   3.359  0.1341  0.1314  0.3546
 1958TIP3    H1 5880   1.076   0.110   3.310  0.3309  0.0232 -0.0042
 1958TIP3    H2 5881   1.096   0.053   3.449 -2.3511 -1.9752 -0.3521
 1959TIP3   OH2 5882   3.028   4.863   0.971  0.5266 -0.5306 -0.2210
 1959TIP3    H1 5883   2.966   4.792   0.984  0.5250 -0.9916 -2.3061
 1959TIP3    H2 5884   3.114   4.825   0.991  0.4381 -0.8800 -0.4907
 1960TIP3   OH2 5885   5.760   3.933   1.908  0.1760  0.0225  0.0805
 1960TIP3    H1 5886   5.762   3.846   1.869 -0.1515  0.5675 -1.2247
 1960TIP3    H2 5887   5.683   3.933   1.964 -0.1104 -0.3679 -0.3073
 1961TIP3   OH2 5888   3.456   2.625   0.098 -0.1691 -0.2936 -0.3885
 1961TIP3    H1 5889   3.449   2.720   0.089 -0.1746 -0.2345  0.1557
 1961TIP3    H2 5890   3.468   2.592   0.009  0.0021  0.2339 -0.5615
 1962TIP3   OH2 5891   1.848   0.636   1.840  0.0600 -0.4289  0.3118
 1962TIP3    H1 5892   1.805   0.570   1.784 -1.8828  0.0134  1.1890
 1962TIP3    H2 5893   1.794   0.639   1.919  0.9364  1.1931  0.8981
 1963TIP3   OH2 5894   0.036   1.402   0.666 -0.4475 -0.5515  0.2463
 1963TIP3    H1 5895   0.031   1.430   0.758  2.3951  1.4877 -0.0954
 1963TIP3    H2 5896  -0.006   1.473   0.617  0.8204 -0.0642 -0.1856
 1964TIP3   OH2 5897   1.601   2.387   4.068  0.2836  0.5309  0.3172
 1964TIP3    H1 5898   1.589   2.478   4.093  0.4282  0.8349 -0.6898
 1964TIP3    H2 5899   1.513   2.350   4.064  0.2415  0.5356  1.0021
 1965TIP3   OH2 5900   4.766   4.089   0.433  0.1239  0.1195  1.3018
 1965TIP3    H1 5901   4.723   4.027   0.491  2.0555 -2.1553  0.4849
 1965TIP3    H2 5902   4.859   4.071   0.443  0.6272  1.1575 -0.8415
 1966TIP3   OH2 5903   2.593   0.255   1.798 -0.1401  0.3978  0.4975
 1966TIP3    H1 5904   2.658   0.325   1.802 -0.7850  1.0465 -0.1267
 1966TIP3    H2 5905   2.522   0.286   1.854 -0.6294  0.4641 -0.1497
 1967TIP3   OH2 5906   1.555   1.110   3.415  0.0126  0.2168 -0.5927
 1967TIP3    H1 5907   1.534   1.187   3.363  0.8589  0.8277 -0.0491
 1967TIP3    H2 5908   1.492   1.110   3.487 -0.9254 -0.4275 -1.3857
 1968TIP3   OH2 5909   2.647   4.027   3.768  0.0452 -0.1391 -0.1748
 1968TIP3    H1 5910   2.588   4.028   3.693 -0.6932  1.3585  0.3952
 1968TIP3    H2 5911   2.589   4.033   3.844  0.7762 -1.6387  0.5554
 1969TIP3   OH2 5912   5.901   0.597   3.291  0.1879 -0.8470  0.6244
 1969TIP3    H1 5913   5.822   0.592   3.237 -1.1725  2.4247  2.0678
 1969TIP3    H2 5914   5.907   0.510   3.331 -0.8511 -2.1765 -1.8545
 1970TIP3   OH2 5915   4.293   3.324   3.435 -0.1063 -0.1695 -0.3412
 1970TIP3    H1 5916   4.245   3.407   3.431 -0.3735 -0.3278 -0.3954
 1970TIP3    H2 5917   4.382   3.350   3.458 -0.1615  0.1444 -0.4711
 1971TIP3   OH2 5918   2.784   2.406   3.761  0.4889 -0.3486 -0.2694
 1971TIP3    H1 5919   2.879   2.392   3.765  0.9342  2.3898  0.4484
 1971TIP3    H2 5920   2.766   2.468   3.832 -2.1259 -1.9639  0.5963
 1972TIP3   OH2 5921   5.754   2.044   3.699  0.8873 -0.4250  0.5593
 1972TIP3    H1 5922   5.838   2.036   3.654  0.5075 -2.0155  0.0987
 1972TIP3    H2 5923   5.773   2.020   3.790  0.7193 -1.9743  0.2037
 1973TIP3   OH2 5924   4.241   1.545   2.177  0.3023 -0.0845 -0.6870
 1973TIP3    H1 5925   4.172   1.479   2.173  0.6793 -0.6371  0.9887
 1973TIP3    H2 5926   4.318   1.496   2.205  0.5811  1.0681  0.6364
 1974TIP3   OH2 5927   4.629   5.476   0.215 -0.3797  0.1943 -0.3210
 1974TIP3    H1 5928   4.654   5.409   0.151 -0.2292 -1.5722  1.4771
 1974TIP3    H2 5929   4.702   5.538   0.215  0.6227 -0.9503 -0.3227
 1975TIP3   OH2 5930   0.762   4.304   0.760 -0.0851 -0.2552  0.3131
 1975TIP3    H1 5931   0.693   4.361   0.726  0.0904  0.7640  1.5897
 1975TIP3    H2 5932   0.752   4.222   0.711 -1.3429  0.3342 -0.4605
 1976TIP3   OH2 5933   3.175   5.124   1.605 -0.0939  0.3065  0.7630
 1976TIP3    H1 5934   3.196   5.104   1.513  0.6715 -0.4526  1.0944
 1976TIP3    H2 5935   3.255   5.104   1.653 -0.9501 -0.7580  1.8023
 1977TIP3   OH2 5936   5.690   3.326   0.740  0.1176  0.1142 -0.1353
 1977TIP3    H1 5937   5.784   3.342   0.731  0.3367 -0.8100  0.4079
 1977TIP3    H2 5938   5.683   3.256   0.805 -0.9630  0.3771  0.0586
 1978TIP3   OH2 5939   0.805   4.700   1.879  0.0192  0.4973 -0.4800
 1978TIP3    H1 5940   0.713   4.671   1.877  0.1431 -0.3108  1.8098
 1978TIP3    H2 5941   0.855   4.619   1.889  0.7857  1.0799  0.6721
 1979TIP3   OH2 5942   2.931   1.283   3.433  0.4055  0.9918 -0.3041
 1979TIP3    H1 5943   2.940   1.229   3.512 -4.1081  1.3888  0.7872
 1979TIP3    H2 5944   2.926   1.219   3.361 -2.0909 -0.0120  0.6455
 1980TIP3   OH2 5945   4.081   0.775   1.121 -0.7448 -0.5586  0.1301
 1980TIP3    H1 5946   4.084   0.777   1.216  0.8268 -1.1209  0.1262
 1980TIP3    H2 5947   4.087   0.867   1.094 -1.4830 -0.3769  0.5594
 1981TIP3   OH2 5948   0.959   3.767   0.502  0.0865 -0.1331 -1.2042
 1981TIP3    H1 5949   0.872   3.802   0.487  0.8551  2.8576  0.5547
 1981TIP3    H2 5950   0.955   3.731   0.591  0.9021  0.9822 -0.7067
 1982TIP3   OH2 5951   2.148   3.137   1.147  0.4194 -0.0116  0.1628
 1982TIP3    H1 5952   2.096   3.187   1.210 -0.3855 -1.4758  0.7327
 1982TIP3    H2 5953   2.183   3.202   1.086 -0.7931  1.1893  0.7036
 1983TIP3   OH2 5954   2.674   5.437   1.951 -0.1087 -0.0209 -0.4128
 1983TIP3    H1 5955   2.624   5.358   1.931 -2.8463  1.8291 -1.2934
 1983TIP3    H2 5956   2.723   5.456   1.871  0.8581 -0.9968 -0.0692
 1984TIP3   OH2 5957   4.616   3.465   0.617  0.0012  0.4380  0.3005
 1984TIP3    H1 5958   4.528   3.483   0.652  1.1005  2.9431  2.0665
 1984TIP3    H2 5959   4.670   3.451   0.695  1.5212  0.7983 -0.6615
 1985TIP3   OH2 5960   1.433   0.343   0.507 -0.0094  0.1294  0.2274
 1985TIP3    H1 5961   1.501   0.283   0.538  2.1774  2.0640 -0.5131
 1985TIP3    H2 5962   1.455   0.359   0.415 -1.0905  1.3048  0.1518
 1986TIP3   OH2 5963   3.130   5.098   1.066 -0.0716  0.5952  0.3428
 1986TIP3    H1 5964   3.090   5.037   1.004 -0.0935  0.3044  0.6399
 1986TIP3    H2 5965   3.150   5.175   1.014 -3.6213  1.9554  0.6844
 1987TIP3   OH2 5966   2.820   0.678   1.442  0.4036  0.0731  0.1163
 1987TIP3    H1 5967   2.831   0.650   1.351 -0.4842 -0.5601  0.1865
 1987TIP3    H2 5968   2.773   0.761   1.436  0.1698 -0.0681  0.0067
 1988TIP3   OH2 5969   2.360   5.874   1.198 -0.8116 -0.4769 -0.1499
 1988TIP3    H1 5970   2.291   5.875   1.132 -0.7167 -2.2295 -0.3038
 1988TIP3    H2 5971   2.392   5.784   1.199 -0.2351 -0.2929  1.7116
 1989TIP3   OH2 5972   1.325   3.897   0.116 -0.1629  0.4167  0.1617
 1989TIP3    H1 5973   1.408   3.900   0.164  0.2230 -0.6020 -0.4077
 1989TIP3    H2 5974   1.273   3.968   0.153  0.7566  0.7138  0.9145
 1990TIP3   OH2 5975   0.940   0.297   4.871 -0.0786  0.0219  0.2907
 1990TIP3    H1 5976   0.938   0.306   4.967  0.6713 -1.9992  0.5604
 1990TIP3    H2 5977   1.028   0.325   4.847 -0.1931  0.3190  0.2161
 1991TIP3   OH2 5978   5.556   2.817   2.564 -0.1599  0.3963 -0.5944
 1991TIP3    H1 5979   5.507   2.752   2.513  2.1686 -0.3722 -2.0342
 1991TIP3    H2 5980   5.556   2.782   2.653 -0.7897 -0.4298 -0.8948
 1992TIP3   OH2 5981   2.709   0.099   4.294  0.1276 -0.3941 -0.5444
 1992TIP3    H1 5982   2.727   0.184   4.254  0.5125  0.2561  0.9429
 1992TIP3    H2 5983   2.781   0.043   4.265  0.2347 -0.0340 -0.9883
 1993TIP3   OH2 5984   4.539   4.853   4.478  0.0963  0.4003 -0.1775
 1993TIP3    H1 5985   4.444   4.857   4.487  0.1397  2.1630 -0.0713
 1993TIP3    H2 5986   4.566   4.945   4.475  2.1561  0.1089  3.5533
 1994TIP3   OH2 5987   0.210   0.719   2.565  0.0404  0.1345 -0.5941
 1994TIP3    H1 5988   0.222   0.716   2.470 -3.8668  1.1466 -1.3032
 1994TIP3    H2 5989   0.236   0.807   2.590 -2.2855  1.1525 -1.4697
 1995TIP3   OH2 5990   6.092   3.128   5.045  0.1238  0.0490  0.6594
 1995TIP3    H1 5991   6.024   3.103   4.982  0.1271 -1.2106  1.1224
 1995TIP3    H2 5992   6.058   3.100   5.130  0.1858  1.6029  1.2213
 1996TIP3   OH2 5993   1.634   3.408   3.877  0.0138 -0.2130 -0.3127
 1996TIP3    H1 5994   1.700   3.374   3.937 -1.0695 -1.0523  0.4407
 1996TIP3    H2 5995   1.673   3.397   3.790  0.9264 -0.5314  0.1248
 1997TIP3   OH2 5996   5.249   3.328   2.645  0.4360  0.2442  0.0262
 1997TIP3    H1 5997   5.157   3.341   2.623  0.1118 -0.4315  0.9246
 1997TIP3    H2 5998   5.262   3.378   2.726  0.7604  0.0500  0.0976
 1998TIP3   OH2 5999   1.826   3.033   4.589  0.1082 -0.4691 -0.3266
 1998TIP3    H1 6000   1.771   3.062   4.662  0.1157  0.5187 -0.6885
 1998TIP3    H2 6001   1.819   2.938   4.590 -0.3880 -0.4381  0.5764
 1999TIP3   OH2 6002   0.602   2.808   2.051 -0.6172  0.0522 -0.3860
 1999TIP3    H1 6003   0.512   2.782   2.070 -0.5084  0.1122  0.2391
 1999TIP3    H2 6004   0.594   2.878   1.985 -1.0206 -0.0225 -0.4161
 2000TIP3   OH2 6005   0.007   3.325   2.579 -0.6473  0.5880 -0.2124
 2000TIP3    H1 6006   0.057   3.406   2.568  0.6906 -0.2132 -0.1909
 2000TIP3    H2 6007   0.028   3.273   2.502 -1.8574  0.4101 -0.4538
 2001TIP3   OH2 6008   4.330   1.807   4.450  0.5240 -0.2414 -0.1701
 2001TIP3    H1 6009   4.262   1.798   4.517 -0.6965  2.4071 -0.8930
 2001TIP3    H2 6010   4.363   1.897   4.462  1.5572 -0.3408 -1.9590
 2002TIP3   OH2 6011   2.319   3.342   2.448 -0.6584 -0.3765 -0.0256
 2002TIP3    H1 6012   2.333   3.386   2.364  0.3329  0.0274  0.3336
 2002TIP3    H2 6013   2.406   3.336   2.487 -1.2671  0.7289  1.6098
 2003TIP3   OH2 6014   5.180   3.850   2.259  0.0099  0.0494  0.5482
 2003TIP3    H1 6015   5.202   3.941   2.240 -2.7334  0.9172  0.9961
 2003TIP3    H2 6016   5.256   3.799   2.229  1.5412  2.4425  0.1381
 2004TIP3   OH2 6017   1.392   2.908   0.336 -0.6845 -0.1556  0.1952
 2004TIP3    H1 6018   1.325   2.854   0.379 -0.1830 -1.5547 -0.7031
 2004TIP3    H2 6019   1.402   2.869   0.249  1.8310 -0.5064  0.5555
 2005TIP3   OH2 6020   2.760   5.116   1.362  0.1898  1.1865 -0.6092
 2005TIP3    H1 6021   2.800   5.030   1.380  0.0206  1.3503  0.6674
 2005TIP3    H2 6022   2.764   5.125   1.267  1.0430  0.1590 -0.6945
 2006TIP3   OH2 6023   6.253   1.250   5.102 -0.4647 -0.1202  0.6350
 2006TIP3    H1 6024   6.334   1.211   5.069 -1.3750 -0.8304 -0.8481
 2006TIP3    H2 6025   6.277   1.287   5.187  1.3748 -0.4283  0.2807
 2007TIP3   OH2 6026   2.094   0.669   1.920 -0.4748 -0.5762 -0.3696
 2007TIP3    H1 6027   1.999   0.672   1.916 -0.4815  0.5390  0.2620
 2007TIP3    H2 6028   2.123   0.756   1.894  0.3555 -0.7982 -0.2425
 2008TIP3   OH2 6029   0.540   2.795   0.371  0.0337  0.0780 -0.4267
 2008TIP3    H1 6030   0.549   2.875   0.422 -2.1887 -0.2965  0.6669
 2008TIP3    H2 6031   0.491   2.821   0.293 -1.1532 -0.2627  0.1790
 2009TIP3   OH2 6032   1.808   4.879   4.941  0.4733  0.3886  0.3319
 2009TIP3    H1 6033   1.856   4.879   5.024  0.6761 -2.2012  0.3201
 2009TIP3    H2 6034   1.719   4.853   4.966  0.3201  0.4188 -0.1697
 2010TIP3   OH2 6035   5.020   3.364   3.468  0.1925  0.2794  0.1274
 2010TIP3    H1 6036   5.082   3.309   3.421  0.0705  0.1428  0.1259
 2010TIP3    H2 6037   4.976   3.415   3.399  0.7674  0.8633  0.1782
 2011TIP3   OH2 6038   2.811   2.176   3.600  0.8335  0.5196  0.5320
 2011TIP3    H1 6039   2.852   2.222   3.527 -0.8309  1.6005  0.2519
 2011TIP3    H2 6040   2.880   2.171   3.667  1.6827  1.4960 -0.2514
 2012TIP3   OH2 6041   3.724   5.885   4.886  0.1949  0.1381  0.3834
 2012TIP3    H1 6042   3.710   5.805   4.836  1.0280  0.0230  0.3304
 2012TIP3    H2 6043   3.659   5.946   4.851 -1.4114 -0.9138  1.3744
 2013TIP3   OH2 6044   3.372   2.420   1.168 -0.0355 -0.0671 -0.2364
 2013TIP3    H1 6045   3.295   2.443   1.116  1.0188  1.2177 -1.3279
 2013TIP3    H2 6046   3.356   2.331   1.198 -0.0934 -1.5406 -4.1031
 2014TIP3   OH2 6047   4.135   1.829   0.915 -0.2773 -0.6158 -0.4304
 2014TIP3    H1 6048   4.180   1.880   0.982 -0.9598 -0.6837  0.0893
 2014TIP3    H2 6049   4.176   1.743   0.919 -0.4557 -0.6825  0.0518
 2015TIP3   OH2 6050   2.679   4.957   2.463  0.2037 -0.9585 -0.1623
 2015TIP3    H1 6051   2.597   4.999   2.437  1.1934  0.7982 -0.5924
 2015TIP3    H2 6052   2.737   5.030   2.485  0.8457 -2.2300  2.7090
 2016TIP3   OH2 6053   2.440   1.008   4.091  0.1893  0.7051 -0.8007
 2016TIP3    H1 6054   2.494   1.079   4.126 -0.2562  0.2647  0.8682
 2016TIP3    H2 6055   2.364   1.004   4.148  0.6978 -1.7852 -0.1581
 2017TIP3   OH2 6056   0.856   0.307   2.549  0.4800 -0.7212  0.2889
 2017TIP3    H1 6057   0.841   0.401   2.550  0.4851 -0.7218  0.4977
 2017TIP3    H2 6058   0.838   0.279   2.639 -0.7196 -1.1086 -0.0496
 2018TIP3   OH2 6059   0.138   4.555   4.614  0.6496 -0.7979 -0.4907
 2018TIP3    H1 6060   0.182   4.599   4.540  0.6126 -1.3626 -0.8563
 2018TIP3    H2 6061   0.079   4.492   4.572 -0.8774  0.2740 -0.0164
 2019TIP3   OH2 6062   0.156   4.164   1.019  0.5193 -0.1435 -0.2279
 2019TIP3    H1 6063   0.111   4.244   1.048  1.2709  0.0181  0.5724
 2019TIP3    H2 6064   0.193   4.127   1.100  1.7906 -0.2653 -0.8328
 2020TIP3   OH2 6065   1.271   3.591   2.568  0.1687  0.5581  0.5511
 2020TIP3    H1 6066   1.286   3.543   2.487 -0.7893  0.5280  0.3744
 2020TIP3    H2 6067   1.345   3.652   2.575  0.5997  0.1047  0.0008
 2021TIP3   OH2 6068   3.110   4.748   0.496  0.5128 -0.3000  0.3348
 2021TIP3    H1 6069   3.164   4.729   0.573  0.5548  0.6293  0.5494
 2021TIP3    H2 6070   3.116   4.843   0.486 -0.1307 -0.3250 -0.3482
 2022TIP3   OH2 6071   1.317   0.331   1.080 -0.1343 -0.5347  0.1328
 2022TIP3    H1 6072   1.343   0.391   1.010  0.8290 -0.7400  0.3057
 2022TIP3    H2 6073   1.227   0.307   1.058  0.1803 -0.6715 -1.0982
 2023TIP3   OH2 6074   3.163   0.635   0.713 -0.3079 -0.2326 -0.0146
 2023TIP3    H1 6075   3.109   0.563   0.745  3.1141 -2.0640  2.3518
 2023TIP3    H2 6076   3.152   0.704   0.779 -0.2606 -0.3701  0.1394
 2024TIP3   OH2 6077   4.473   1.993   4.147 -0.6517 -0.0435  0.5827
 2024TIP3    H1 6078   4.429   1.908   4.148 -2.1810  0.7239  1.1841
 2024TIP3    H2 6079   4.407   2.055   4.117  0.8023  0.7829 -1.1074
 2025TIP3   OH2 6080   2.018   5.692   3.102 -0.1791 -0.1037 -0.0188
 2025TIP3    H1 6081   2.055   5.748   3.034 -0.4596  1.2369  0.9043
 2025TIP3    H2 6082   1.925   5.688   3.082 -0.3289  0.6273  0.5050
 2026TIP3   OH2 6083   5.183   2.158   4.794 -0.0890  0.8707 -0.0363
 2026TIP3    H1 6084   5.253   2.222   4.806  1.3653  0.0490 -3.1818
 2026TIP3    H2 6085   5.109   2.210   4.762  0.3480  1.2604 -0.4266
 2027TIP3   OH2 6086   0.130   0.610   5.115  0.4284  0.6747  0.0765
 2027TIP3    H1 6087   0.056   0.672   5.109 -0.9797 -0.9454 -0.0819
 2027TIP3    H2 6088   0.139   0.575   5.026  0.8268  0.2508  0.2823
 2028TIP3   OH2 6089   5.597   3.036   0.636  0.6745  0.2775 -0.0559
 2028TIP3    H1 6090   5.625   3.041   0.727 -0.7021 -0.3827  0.4312
 2028TIP3    H2 6091   5.524   2.974   0.637 -0.0230  1.0365 -1.4476
 2029TIP3   OH2 6092   5.531   4.075   5.102 -1.1123 -0.1380  0.3634
 2029TIP3    H1 6093   5.592   4.047   5.033 -1.8773 -0.4769 -0.1968
 2029TIP3    H2 6094   5.516   3.996   5.154 -1.0701 -0.0560  0.4994
 2030TIP3   OH2 6095   4.819   3.479   3.284  0.1111 -0.3266 -0.2514
 2030TIP3    H1 6096   4.742   3.486   3.340  1.2656 -1.7727  1.6035
 2030TIP3    H2 6097   4.863   3.564   3.292  0.0879 -0.4025  0.8210
 2031TIP3   OH2 6098   0.408   1.198   3.752  0.3467 -0.1681 -0.4148
 2031TIP3    H1 6099   0.478   1.170   3.811  0.9227  0.5536 -0.7540
 2031TIP3    H2 6100   0.392   1.290   3.774 -1.6540 -0.7329  0.8106
 2032TIP3   OH2 6101   3.952   3.010   1.183  0.1286  0.2089 -0.7691
 2032TIP3    H1 6102   3.906   2.936   1.222  0.1488 -0.2679 -1.6374
 2032TIP3    H2 6103   3.913   3.087   1.225  0.6606 -0.3018  0.7372
 2033TIP3   OH2 6104   5.012   0.802   2.952  0.1244 -0.2535 -0.1024
 2033TIP3    H1 6105   5.047   0.746   3.021  0.7117 -1.6292 -1.4529
 2033TIP3    H2 6106   5.057   0.772   2.872 -0.5600  1.2448 -1.0899
 2034TIP3   OH2 6107   6.244   2.930   4.819  0.1587 -0.4773  0.4124
 2034TIP3    H1 6108   6.224   2.997   4.754  1.6314  1.2514  1.6377
 2034TIP3    H2 6109   6.227   2.847   4.774 -0.0075  0.6633 -1.7734
 2035TIP3   OH2 6110   4.613   5.339   4.808  0.3616  0.2749  0.1555
 2035TIP3    H1 6111   4.527   5.378   4.790  0.3903  0.9531  1.4113
 2035TIP3    H2 6112   4.599   5.282   4.883  0.2371 -2.5606 -1.8471
 2036TIP3   OH2 6113   5.965   4.635   0.638 -0.1556 -0.1358  0.8912
 2036TIP3    H1 6114   5.942   4.703   0.701  0.4182 -0.8250  1.8740
 2036TIP3    H2 6115   5.943   4.553   0.682 -0.6097 -0.6081 -0.1781
 2037TIP3   OH2 6116   2.861   2.101   2.896 -0.0366  0.8287  0.3237
 2037TIP3    H1 6117   2.855   2.192   2.925  2.0368  0.1533  3.3871
 2037TIP3    H2 6118   2.773   2.065   2.912 -0.5537  1.9714  0.1706
 2038TIP3   OH2 6119   5.981   3.837   4.952  1.0197 -0.0126 -0.4107
 2038TIP3    H1 6120   6.032   3.757   4.939 -0.2614 -1.2072  1.4717
 2038TIP3    H2 6121   5.901   3.823   4.902  0.1673 -0.5874  1.0485
 2039TIP3   OH2 6122   3.480   0.920   1.112  0.2376 -0.1677 -0.3968
 2039TIP3    H1 6123   3.449   0.909   1.202 -1.2521  0.3212 -0.8162
 2039TIP3    H2 6124   3.494   1.014   1.102 -1.7635  0.0920 -1.2904
 2040TIP3   OH2 6125   4.734   5.018   4.259 -0.5940  0.3377  0.0961
 2040TIP3    H1 6126   4.694   4.986   4.179 -0.6125  1.0874 -0.2022
 2040TIP3    H2 6127   4.688   5.099   4.279 -0.2890  0.3903  0.6193
 2041TIP3   OH2 6128   3.403   3.366   0.455  0.1022  0.6784 -0.3169
 2041TIP3    H1 6129   3.443   3.416   0.527 -0.4828  0.9381 -0.1642
 2041TIP3    H2 6130   3.309   3.383   0.464 -0.1178 -0.5291 -0.2089
 2042TIP3   OH2 6131   0.297   2.740   2.561 -0.2258 -0.1268  0.3218
 2042TIP3    H1 6132   0.207   2.739   2.595 -0.1850  1.2619  0.5592
 2042TIP3    H2 6133   0.346   2.788   2.628  0.1462  1.4239 -1.0105
 2043TIP3   OH2 6134   3.186   1.905   2.360  0.2017 -0.0321 -0.1806
 2043TIP3    H1 6135   3.119   1.957   2.404 -0.5176 -0.3776 -0.8555
 2043TIP3    H2 6136   3.190   1.939   2.271  0.3988 -0.5004 -0.3565
 2044TIP3   OH2 6137   5.559   1.141   1.179 -0.1525 -0.5356  0.2966
 2044TIP3    H1 6138   5.516   1.201   1.241 -0.2811 -0.8910  0.5520
 2044TIP3    H2 6139   5.576   1.195   1.102  2.2724  0.6099  1.5188
 2045TIP3   OH2 6140   0.993   0.815   0.954  0.9092 -0.1023 -0.1131
 2045TIP3    H1 6141   0.980   0.897   0.906 -1.2355 -0.2238  0.1620
 2045TIP3    H2 6142   1.017   0.751   0.887 -0.8073  0.0162 -0.8761
 2046TIP3   OH2 6143   0.551   0.893   1.233  0.2662  0.4457 -0.7004
 2046TIP3    H1 6144   0.598   0.912   1.314  0.4834 -1.1893 -0.4211
 2046TIP3    H2 6145   0.619   0.876   1.168  0.1466 -2.0181 -0.2724
 2047TIP3   OH2 6146   4.289   1.445   0.774  0.1754  0.2091 -0.1036
 2047TIP3    H1 6147   4.195   1.441   0.757  0.1168 -0.6338  0.3581
 2047TIP3    H2 6148   4.329   1.464   0.689 -0.2761 -1.4103 -0.7170
 2048TIP3   OH2 6149   6.317   3.303   1.565  0.1778 -0.5115 -0.4915
 2048TIP3    H1 6150   6.301   3.234   1.629  1.6142 -0.4792 -0.0614
 2048TIP3    H2 6151   6.236   3.309   1.516 -0.5726 -1.3145  0.5928
 2049TIP3   OH2 6152   1.210   5.136   2.011  0.2842  0.3295 -1.0187
 2049TIP3    H1 6153   1.222   5.132   2.105  2.5191  1.3104 -1.1828
 2049TIP3    H2 6154   1.291   5.100   1.974  0.0126  1.1401 -2.5248
 2050TIP3   OH2 6155   0.971   4.465   3.320 -0.1873 -0.2035 -0.2609
 2050TIP3    H1 6156   0.890   4.450   3.272 -0.6078 -0.8187  0.6108
 2050TIP3    H2 6157   0.957   4.422   3.405  0.1224  1.7095  0.8280
 2051TIP3   OH2 6158   3.145   1.514   0.830  0.5050  0.0058 -0.1339
 2051TIP3    H1 6159   3.233   1.549   0.838  0.7780 -0.1083 -2.2213
 2051TIP3    H2 6160   3.123   1.523   0.737 -1.3509 -0.7494  0.1770
 2052TIP3   OH2 6161   5.690   2.288   2.860 -0.1972  0.2887 -0.1709
 2052TIP3    H1 6162   5.726   2.199   2.856 -4.3579 -1.5894 -1.6353
 2052TIP3    H2 6163   5.695   2.320   2.770 -2.3428 -0.2458 -0.5480
 2053TIP3   OH2 6164   0.667   0.922   1.500 -0.2581  0.2516 -0.9138
 2053TIP3    H1 6165   0.589   0.905   1.553  1.8938 -0.6641  2.2332
 2053TIP3    H2 6166   0.703   1.003   1.535  2.4376 -1.5338  0.8105
 2054TIP3   OH2 6167   1.768   1.907   0.750  0.4191 -0.2557 -0.4092
 2054TIP3    H1 6168   1.678   1.932   0.772  0.6094 -0.0897  0.1984
 2054TIP3    H2 6169   1.764   1.884   0.657 -0.3817 -0.8330 -0.2478
 2055TIP3   OH2 6170   2.217   0.927   4.441 -0.4478  0.5615 -0.1054
 2055TIP3    H1 6171   2.196   0.847   4.392  2.1886 -0.5419  0.4175
 2055TIP3    H2 6172   2.155   0.927   4.514 -0.6948 -0.8664 -0.2714
 2056TIP3   OH2 6173   2.787   3.024   1.918 -0.0913  0.1585 -0.3337
 2056TIP3    H1 6174   2.788   3.046   1.824 -0.2721  1.2572 -0.0969
 2056TIP3    H2 6175   2.700   2.987   1.932 -1.0318  2.2582 -0.1550
 2057TIP3   OH2 6176   1.913   4.849   3.030  0.0881 -0.1730  0.3042
 2057TIP3    H1 6177   1.946   4.939   3.042 -1.1385  0.5439 -1.3783
 2057TIP3    H2 6178   1.981   4.805   2.979  0.3952 -0.0123  0.5697
 2058TIP3   OH2 6179   3.765   2.443   5.054  0.2866  0.5370  0.7593
 2058TIP3    H1 6180   3.685   2.394   5.075  1.2616 -0.8882  1.3271
 2058TIP3    H2 6181   3.740   2.500   4.981 -0.8601 -0.9892 -0.1017
 2059TIP3   OH2 6182   5.025   1.672   4.804 -0.6614 -0.2074  0.1787
 2059TIP3    H1 6183   4.935   1.649   4.780 -0.9087 -0.1607  1.0482
 2059TIP3    H2 6184   5.021   1.764   4.828 -0.2394 -0.0169 -0.4512
 2060TIP3   OH2 6185   0.222   4.835   3.593  0.4845 -0.2231  0.5995
 2060TIP3    H1 6186   0.244   4.861   3.683 -1.9090  0.1661  1.1377
 2060TIP3    H2 6187   0.126   4.833   3.592  0.4409  0.4616 -2.1600
 2061TIP3   OH2 6188   5.865   0.269   2.795 -0.1097  0.1822  0.0623
 2061TIP3    H1 6189   5.872   0.350   2.846 -1.3018 -0.4005  1.2208
 2061TIP3    H2 6190   5.944   0.268   2.741  0.3298  1.7087  0.6087
 2062TIP3   OH2 6191   0.577   2.434   2.098  0.2464  0.2146  0.3448
 2062TIP3    H1 6192   0.573   2.482   2.180  1.6476  1.2184 -0.1485
 2062TIP3    H2 6193   0.650   2.473   2.050 -1.0096  0.1790 -1.7182
 2063TIP3   OH2 6194   0.133   0.529   0.652 -0.2448 -0.0919 -0.2542
 2063TIP3    H1 6195   0.194   0.487   0.712  0.9629  1.9236  0.0081
 2063TIP3    H2 6196   0.189   0.567   0.584 -1.4351 -0.5102 -1.5133
 2064TIP3   OH2 6197   2.970   0.832   2.408 -0.4049 -0.2608 -0.2817
 2064TIP3    H1 6198   3.023   0.769   2.456 -0.0999 -0.3631 -0.7546
 2064TIP3    H2 6199   3.008   0.917   2.430 -1.2737 -0.1607  0.9490
 2065TIP3   OH2 6200   3.313   2.360   4.188  0.1171 -0.0041 -0.1878
 2065TIP3    H1 6201   3.407   2.379   4.199  0.7261 -1.6366 -2.1067
 2065TIP3    H2 6202   3.293   2.390   4.100 -1.3447  0.8160  0.3914
 2066TIP3   OH2 6203   3.545   4.069   3.022 -0.7820 -0.4064  0.5394
 2066TIP3    H1 6204   3.470   4.087   3.079 -0.5537  0.3556  0.6095
 2066TIP3    H2 6205   3.608   4.138   3.043 -0.8155  0.0727 -0.8413
 2067TIP3   OH2 6206   0.732   2.099   5.032 -0.2050 -0.3333  0.0661
 2067TIP3    H1 6207   0.669   2.103   5.104 -0.2341 -1.4702  0.1191
 2067TIP3    H2 6208   0.688   2.144   4.960 -0.1298  0.9279  0.7590
 2068TIP3   OH2 6209   2.781   5.430   3.528 -0.1775  0.2930 -0.1078
 2068TIP3    H1 6210   2.762   5.404   3.618  1.0421 -1.5778 -0.3245
 2068TIP3    H2 6211   2.705   5.401   3.478  0.3454 -1.2811 -0.0531
 2069TIP3   OH2 6212   0.368   3.366   2.004 -0.9573  0.8331  0.0379
 2069TIP3    H1 6213   0.347   3.424   1.931 -3.4724 -0.0798 -0.0763
 2069TIP3    H2 6214   0.321   3.284   1.984 -0.2247 -0.0798  1.7872
 2070TIP3   OH2 6215   1.961   1.898   1.466  0.0101 -0.0835 -0.2865
 2070TIP3    H1 6216   1.942   1.814   1.425  0.3839 -0.0901 -0.4604
 2070TIP3    H2 6217   1.936   1.888   1.557 -1.5268  0.1665 -0.6566
 2071TIP3   OH2 6218   4.443   0.127   0.571 -0.8824 -0.2626  0.1096
 2071TIP3    H1 6219   4.486   0.055   0.525 -0.6733  0.1632 -0.3830
 2071TIP3    H2 6220   4.354   0.128   0.536 -1.6911 -1.8783  1.9738
 2072TIP3   OH2 6221   0.436   3.329   0.956  0.1092 -0.4924  0.0442
 2072TIP3    H1 6222   0.408   3.415   0.925 -1.5617 -0.9083  0.3456
 2072TIP3    H2 6223   0.474   3.346   1.042  1.5116  0.1741 -0.6742
 2073TIP3   OH2 6224   2.904   3.099   3.134  0.0449  0.5859  0.1561
 2073TIP3    H1 6225   2.957   3.171   3.099 -2.3621  2.6614  0.4456
 2073TIP3    H2 6226   2.884   3.045   3.058  1.7787  0.2382 -0.0965
 2074TIP3   OH2 6227   5.858   2.300   3.492 -0.0334  0.5071  0.2976
 2074TIP3    H1 6228   5.946   2.325   3.521 -0.6477 -0.0191  2.9114
 2074TIP3    H2 6229   5.800   2.334   3.560 -1.5731 -1.5897  0.1271
 2075TIP3   OH2 6230   4.656   1.232   0.927 -0.6600  0.2177 -0.3685
 2075TIP3    H1 6231   4.701   1.167   0.980 -1.2743  1.1734  1.4062
 2075TIP3    H2 6232   4.710   1.240   0.848  1.8655  0.7164  1.2895
 2076TIP3   OH2 6233   5.026   5.211   0.397 -0.0604 -0.2564 -0.1723
 2076TIP3    H1 6234   5.049   5.118   0.399 -0.6953 -0.4301  1.5045
 2076TIP3    H2 6235   5.031   5.235   0.305 -2.2353 -2.5701 -1.0195
 2077TIP3   OH2 6236   4.782   1.939   4.854  0.1466 -0.2736  0.2895
 2077TIP3    H1 6237   4.869   1.917   4.886 -0.2024 -0.6915  0.9737
 2077TIP3    H2 6238   4.726   1.868   4.886 -0.3030 -0.4567 -0.8470
 2078TIP3   OH2 6239   3.179   5.481   1.801 -0.2578  0.1824 -0.2425
 2078TIP3    H1 6240   3.184   5.575   1.783 -0.3583 -0.0312 -1.5000
 2078TIP3    H2 6241   3.259   5.462   1.851  0.1266  0.8167 -0.5975
 2079TIP3   OH2 6242   5.896   1.358   0.850  0.0793 -0.2330  0.4161
 2079TIP3    H1 6243   5.929   1.282   0.801  0.2853 -0.4854  0.9324
 2079TIP3    H2 6244   5.824   1.392   0.796  2.6947  1.8799 -2.0485
 2080TIP3   OH2 6245   2.237   4.959   3.269 -0.1430 -0.2414 -0.2895
 2080TIP3    H1 6246   2.235   5.034   3.327  1.2153 -0.0624 -0.4354
 2080TIP3    H2 6247   2.249   4.884   3.327  1.3191 -0.0534 -0.2912
 2081TIP3   OH2 6248   5.148   1.483   3.160 -0.6459 -0.5557  0.3371
 2081TIP3    H1 6249   5.118   1.428   3.088  1.0625 -2.1775  0.7808
 2081TIP3    H2 6250   5.225   1.437   3.195 -0.7256  0.7720  2.4389
 2082TIP3   OH2 6251   0.494   1.582   1.583  0.2187  0.1744 -0.0060
 2082TIP3    H1 6252   0.519   1.662   1.630  0.8481 -0.6553  1.1172
 2082TIP3    H2 6253   0.573   1.558   1.534  0.5519 -0.6010  0.8906
 2083TIP3   OH2 6254   0.242   2.252   4.459  0.0039  0.2835  0.3295
 2083TIP3    H1 6255   0.304   2.314   4.499  1.2596 -1.4782  1.2634
 2083TIP3    H2 6256   0.296   2.176   4.437 -1.5732 -0.6985 -0.2979
 2084TIP3   OH2 6257   4.220   2.319   0.882  0.7852  0.3373  0.0327
 2084TIP3    H1 6258   4.183   2.357   0.961 -0.6904 -1.8314  0.4746
 2084TIP3    H2 6259   4.179   2.368   0.810  1.4635  1.7275  0.5607
 2085TIP3   OH2 6260   6.030   0.175   4.827  0.0774  0.5098 -0.7570
 2085TIP3    H1 6261   6.109   0.227   4.842 -0.1374  1.3643 -2.3521
 2085TIP3    H2 6262   5.975   0.193   4.903  0.8856  0.9194 -0.2503
 2086TIP3   OH2 6263   2.447   2.396   1.316 -0.1474 -0.5266 -0.2005
 2086TIP3    H1 6264   2.461   2.484   1.283 -2.8690 -0.3217 -1.0906
 2086TIP3    H2 6265   2.424   2.344   1.239  2.2775 -2.3196  0.1559
 2087TIP3   OH2 6266   3.445   1.032   3.007 -0.4677  0.1072 -0.3987
 2087TIP3    H1 6267   3.375   1.007   3.067 -0.9374 -0.1159 -1.0247
 2087TIP3    H2 6268   3.526   1.010   3.053 -0.8242 -0.2664  0.0572
 2088TIP3   OH2 6269   3.631   2.969   3.671 -0.8389 -0.0540 -0.4020
 2088TIP3    H1 6270   3.715   2.923   3.680 -1.4078 -1.4223 -1.6502
 2088TIP3    H2 6271   3.612   3.001   3.759 -0.2209 -1.9376  0.4790
 2089TIP3   OH2 6272   0.929   1.541   3.817 -0.4855 -0.3567 -0.1342
 2089TIP3    H1 6273   1.014   1.559   3.856  0.0072 -1.3150 -0.7227
 2089TIP3    H2 6274   0.929   1.591   3.735 -1.9103  2.4546  1.4414
 2090TIP3   OH2 6275   0.742   1.806   5.028 -0.4909 -0.8931  0.2183
 2090TIP3    H1 6276   0.730   1.901   5.030  0.2074 -0.7376 -1.4114
 2090TIP3    H2 6277   0.653   1.770   5.032 -1.0838 -0.0387 -2.8881
 2091TIP3   OH2 6278   5.148   2.188   1.439 -0.2628  0.3800  0.6806
 2091TIP3    H1 6279   5.079   2.130   1.471 -0.3160 -0.3454 -0.6659
 2091TIP3    H2 6280   5.106   2.240   1.371  0.3837  0.2641  0.1770
 2092TIP3   OH2 6281   5.097   1.517   0.779  0.0044 -0.0930 -0.8671
 2092TIP3    H1 6282   5.059   1.597   0.814  1.1469  0.0363  0.1534
 2092TIP3    H2 6283   5.084   1.523   0.685 -1.1022  0.6563 -0.6758
 2093TIP3   OH2 6284   4.691   1.658   1.677 -0.0573 -0.0344 -0.5143
 2093TIP3    H1 6285   4.734   1.601   1.613 -0.6252 -2.2054  0.8967
 2093TIP3    H2 6286   4.604   1.618   1.688 -0.1244  0.5449  1.2568
 2094TIP3   OH2 6287   4.226   3.222   1.398 -0.2453 -0.0230 -0.1261
 2094TIP3    H1 6288   4.286   3.283   1.355 -0.5488  1.2888  1.2438
 2094TIP3    H2 6289   4.142   3.239   1.356  0.2162 -1.7674 -1.9503
 2095TIP3   OH2 6290   1.858   4.307   5.052  0.2528  0.0813 -0.1041
 2095TIP3    H1 6291   1.794   4.268   4.993  0.0242 -0.2649  0.3610
 2095TIP3    H2 6292   1.814   4.383   5.089  0.5420  0.5384 -0.6786
 2096TIP3   OH2 6293   1.047   1.327   4.090 -0.4096  0.3158 -0.0933
 2096TIP3    H1 6294   0.955   1.333   4.064 -0.0330 -0.0048 -1.5815
 2096TIP3    H2 6295   1.090   1.397   4.041  0.3532 -0.4281 -0.5201
 2097TIP3   OH2 6296   1.713   2.496   2.176  0.5196  0.1119 -0.4730
 2097TIP3    H1 6297   1.627   2.479   2.215 -0.1752  0.4341 -1.8038
 2097TIP3    H2 6298   1.726   2.423   2.115  1.3404 -0.1002 -0.0528
 2098TIP3   OH2 6299   0.935   2.271   2.672 -0.1149  0.9040  0.4190
 2098TIP3    H1 6300   1.020   2.271   2.629 -0.5187  0.2301 -0.4217
 2098TIP3    H2 6301   0.953   2.297   2.762  1.0693  0.1769  0.4124
 2099TIP3   OH2 6302   4.757   4.693   1.464 -0.2633 -0.1857 -0.2100
 2099TIP3    H1 6303   4.820   4.754   1.425 -1.3078  0.4175 -1.0326
 2099TIP3    H2 6304   4.753   4.620   1.403  0.0397 -0.4762  0.1180
 2100TIP3   OH2 6305   1.418   4.673   1.682  0.4055  0.0253  0.1206
 2100TIP3    H1 6306   1.502   4.718   1.691 -0.2669  1.0775  1.5572
 2100TIP3    H2 6307   1.363   4.732   1.631  0.4189 -0.5166 -0.5414
 2101TIP3   OH2 6308   1.691   3.078   0.130  0.8059 -0.6244 -0.4723
 2101TIP3    H1 6309   1.614   3.081   0.073 -0.6029 -2.0651  1.2587
 2101TIP3    H2 6310   1.735   2.996   0.106 -0.4026 -1.8128  1.1748
 2102TIP3   OH2 6311   3.689   0.090   0.455 -0.0664 -0.9706 -0.1383
 2102TIP3    H1 6312   3.636   0.115   0.532 -2.3486 -0.0999 -1.8588
 2102TIP3    H2 6313   3.680  -0.005   0.449  0.7777 -1.1494  1.0679
 2103TIP3   OH2 6314   3.139   1.354   1.443 -0.0186  0.5245  0.1180
 2103TIP3    H1 6315   3.046   1.371   1.459 -0.5151 -0.9222 -0.9976
 2103TIP3    H2 6316   3.170   1.431   1.396 -0.7883  0.8006  0.0498
 2104TIP3   OH2 6317   0.282   1.652   3.706 -0.5123  0.0814  0.4768
 2104TIP3    H1 6318   0.299   1.745   3.717  0.2239 -0.1586  1.4065
 2104TIP3    H2 6319   0.187   1.644   3.715 -0.4847  0.6185  1.3486
 2105TIP3   OH2 6320   2.199   2.822   3.155  0.4797  0.3685  0.4003
 2105TIP3    H1 6321   2.132   2.824   3.087  0.1451 -2.5992  0.4682
 2105TIP3    H2 6322   2.279   2.851   3.112  0.2361 -1.2478 -1.2654
 2106TIP3   OH2 6323   2.414   1.311   4.552 -0.4346 -0.0106  0.1850
 2106TIP3    H1 6324   2.493   1.347   4.592 -0.0791  0.0290 -0.5197
 2106TIP3    H2 6325   2.398   1.230   4.599  0.4171 -0.3532 -0.1014
 2107TIP3   OH2 6326   1.770   1.356   3.116 -0.2810  0.0669 -0.3421
 2107TIP3    H1 6327   1.825   1.360   3.194  1.9298  0.8462 -1.8229
 2107TIP3    H2 6328   1.778   1.443   3.077  0.8531 -1.0256 -2.7584
 2108TIP3   OH2 6329   5.546   0.038   2.008 -0.5983 -0.2602  0.0913
 2108TIP3    H1 6330   5.488  -0.006   2.071 -0.3822 -1.0975 -0.2849
 2108TIP3    H2 6331   5.487   0.069   1.939 -1.1186  2.3731  1.5715
 2109TIP3   OH2 6332   6.160   3.654   0.681  0.3907 -0.0432  0.1658
 2109TIP3    H1 6333   6.191   3.601   0.608 -1.4386 -1.3141  0.2452
 2109TIP3    H2 6334   6.078   3.691   0.650 -0.8272 -1.2262  1.7831
 2110TIP3   OH2 6335   0.442   2.446   4.513  0.4631 -0.5278  0.4073
 2110TIP3    H1 6336   0.534   2.429   4.533  0.9829  1.6743  0.1594
 2110TIP3    H2 6337   0.444   2.515   4.447 -1.3781  0.3045  1.1353
 2111TIP3   OH2 6338   3.667   4.657   4.179  0.1452  0.2717 -0.6413
 2111TIP3    H1 6339   3.679   4.588   4.244  0.9740  1.8494  0.9610
 2111TIP3    H2 6340   3.573   4.652   4.157 -0.3539  0.2267  1.3124
 2112TIP3   OH2 6341   2.318   0.255   1.941 -0.0499  0.1686  0.2081
 2112TIP3    H1 6342   2.285   0.165   1.947  1.2674 -0.3881 -0.3144
 2112TIP3    H2 6343   2.250   0.303   1.895 -0.2136 -0.8812 -0.6907
 2113TIP3   OH2 6344   0.792   5.723   1.928  0.0646 -0.0372  0.3309
 2113TIP3    H1 6345   0.841   5.697   2.006 -1.1582 -0.7588  0.9032
 2113TIP3    H2 6346   0.738   5.796   1.957  0.4235  0.4303 -0.1566
 2114TIP3   OH2 6347   4.066   4.712   0.132  0.2879 -0.4515  0.0549
 2114TIP3    H1 6348   4.026   4.631   0.166  2.3356 -1.5234  0.0432
 2114TIP3    H2 6349   4.073   4.769   0.208  0.1801 -0.8461  0.3645
 2115TIP3   OH2 6350   3.374   0.686   1.567 -0.3725  0.5749 -0.3500
 2115TIP3    H1 6351   3.279   0.683   1.559 -0.2142 -0.0442 -2.5327
 2115TIP3    H2 6352   3.394   0.626   1.640 -1.5479 -1.1293 -1.3472
 2116TIP3   OH2 6353   3.947   4.436   2.992 -0.3360 -0.1920  0.5808
 2116TIP3    H1 6354   3.931   4.395   2.907 -0.2183 -3.3121  1.9090
 2116TIP3    H2 6355   4.032   4.401   3.020  0.2935  1.8481  1.4362
 2117TIP3   OH2 6356   2.279   1.984   0.006  0.0480  0.6488  0.1788
 2117TIP3    H1 6357   2.328   1.982   0.088  0.3874  0.3237 -0.0296
 2117TIP3    H2 6358   2.189   2.004   0.032  0.2968  1.3201  0.5609
 2118TIP3   OH2 6359   5.875   4.309   2.505 -0.1348 -0.2516 -0.4366
 2118TIP3    H1 6360   5.823   4.229   2.516  0.3620 -0.5126  0.0791
 2118TIP3    H2 6361   5.875   4.349   2.592  0.5019 -0.2455 -0.4351
 2119TIP3   OH2 6362   0.099   0.895   1.258  0.1634  0.4944 -0.2853
 2119TIP3    H1 6363   0.070   0.984   1.279 -0.8234  0.0764  0.1927
 2119TIP3    H2 6364   0.087   0.846   1.339  2.1575  0.2581 -0.0949
 2120TIP3   OH2 6365   5.225   3.707   0.393  0.2213  0.0259  0.9360
 2120TIP3    H1 6366   5.222   3.752   0.308  1.1531  1.2560  1.5221
 2120TIP3    H2 6367   5.213   3.777   0.457 -0.9066 -0.9619  1.8167
 2121TIP3   OH2 6368   0.658   1.348   2.408  0.2648 -0.9194 -0.4590
 2121TIP3    H1 6369   0.738   1.369   2.361  1.5948 -3.7838  0.2973
 2121TIP3    H2 6370   0.661   1.400   2.487  1.3385 -0.9227 -0.4896
 2122TIP3   OH2 6371   3.684   5.635   0.990  0.6263 -0.1289 -0.6833
 2122TIP3    H1 6372   3.673   5.721   1.032 -0.4187 -0.8933  0.6829
 2122TIP3    H2 6373   3.747   5.589   1.045 -0.3394 -0.9447 -0.2308
 2123TIP3   OH2 6374   6.024   2.825   2.224 -0.0813 -0.2700 -0.3301
 2123TIP3    H1 6375   6.072   2.752   2.184  0.0224  0.1783 -1.0532
 2123TIP3    H2 6376   6.089   2.870   2.277 -0.2288 -0.8962  0.4013
 2124TIP3   OH2 6377   3.788   2.864   0.638 -0.1712 -0.0912  0.0872
 2124TIP3    H1 6378   3.791   2.928   0.567  0.2909  1.8539  1.7680
 2124TIP3    H2 6379   3.710   2.887   0.689 -0.1574 -1.0480  0.5640
 2125TIP3   OH2 6380   0.034   2.743   2.628  0.2573  0.9905 -0.2211
 2125TIP3    H1 6381   0.006   2.656   2.597 -2.2223  1.9457 -0.9485
 2125TIP3    H2 6382  -0.038   2.771   2.685  2.6413  1.1811  2.9518
 2126TIP3   OH2 6383   5.674   5.532   0.229 -0.2574  0.3775 -0.1342
 2126TIP3    H1 6384   5.648   5.536   0.137  0.1314 -3.0801 -0.5423
 2126TIP3    H2 6385   5.756   5.581   0.233 -0.3937  0.7639 -1.5795
 2127TIP3   OH2 6386   4.953   5.031   0.753 -0.2664 -0.8971  0.6183
 2127TIP3    H1 6387   5.004   5.106   0.721  1.7411 -1.8607  1.3306
 2127TIP3    H2 6388   4.908   5.064   0.831 -2.3587  0.5003 -1.0858
 2128TIP3   OH2 6389   5.723   5.643   3.419 -0.1155  0.2633 -0.0629
 2128TIP3    H1 6390   5.759   5.721   3.376 -0.5303 -0.5588 -2.0042
 2128TIP3    H2 6391   5.628   5.652   3.407 -0.1901 -0.3050  0.0983
 2129TIP3   OH2 6392   4.463   2.990   5.026 -0.6475  0.3359 -0.1061
 2129TIP3    H1 6393   4.374   2.958   5.039 -0.5173  0.2845  0.6901
 2129TIP3    H2 6394   4.477   2.985   4.931 -0.7935 -1.5249 -0.0531
 2130TIP3   OH2 6395   4.023   2.538   3.585  0.0437 -0.1008  0.0905
 2130TIP3    H1 6396   4.098   2.486   3.613 -0.1286 -0.3493  0.1019
 2130TIP3    H2 6397   3.979   2.564   3.666  0.0082 -0.1210  0.0781
 2131TIP3   OH2 6398   1.440   1.261   1.833 -0.1343  0.0299 -0.4453
 2131TIP3    H1 6399   1.392   1.344   1.832  0.6936  0.5747  1.1074
 2131TIP3    H2 6400   1.385   1.203   1.886 -0.7413 -0.4599 -1.5781
 2132TIP3   OH2 6401   3.700   0.836   2.418  0.5811 -0.2541  0.1880
 2132TIP3    H1 6402   3.690   0.868   2.507  0.5530  2.1144 -0.5892
 2132TIP3    H2 6403   3.614   0.848   2.379  0.7695 -0.6128 -0.3465
 2133TIP3   OH2 6404   2.345   5.827   4.760 -0.2866  0.4517  0.6253
 2133TIP3    H1 6405   2.318   5.844   4.850  0.5394 -0.0770  0.9913
 2133TIP3    H2 6406   2.305   5.742   4.739  0.7039 -0.1296  1.0211
 2134TIP3   OH2 6407   5.157   1.703   3.562 -0.1068 -0.3210 -0.1391
 2134TIP3    H1 6408   5.096   1.739   3.497  0.4965  0.0991 -0.4888
 2134TIP3    H2 6409   5.216   1.776   3.581  2.1626 -1.5320 -2.0619
 2135TIP3   OH2 6410   5.968   3.562   4.302  0.2025  0.1217 -0.0525
 2135TIP3    H1 6411   5.960   3.585   4.209 -0.0812  2.0439  0.3964
 2135TIP3    H2 6412   6.020   3.482   4.303  0.2802  0.1089 -1.8630
 2136TIP3   OH2 6413   2.918   4.680   0.257 -0.0390 -0.3113  0.2744
 2136TIP3    H1 6414   2.827   4.654   0.271  0.0398 -0.8325 -0.1286
 2136TIP3    H2 6415   2.918   4.775   0.269 -0.4127 -0.4386  1.3919
 2137TIP3   OH2 6416   1.433   0.039   3.625 -0.0072  0.4809 -0.4421
 2137TIP3    H1 6417   1.377   0.044   3.548 -1.1905 -0.4032  0.3262
 2137TIP3    H2 6418   1.374   0.013   3.696  1.3931 -0.6529  0.3650
 2138TIP3   OH2 6419   3.185   2.163   4.018  0.7821  0.5275  0.6330
 2138TIP3    H1 6420   3.134   2.203   4.089  0.3000  1.5288 -0.2408
 2138TIP3    H2 6421   3.251   2.229   3.995  2.3449 -0.6526  1.5731
 2139TIP3   OH2 6422   5.403   0.084   2.584 -0.0201 -0.6820  1.4430
 2139TIP3    H1 6423   5.458   0.115   2.657  1.7336  1.1449 -0.4897
 2139TIP3    H2 6424   5.439  -0.002   2.562  0.0021 -0.8668  2.1652
 2140TIP3   OH2 6425   1.816   5.826   2.438  0.5630  0.0159  0.3007
 2140TIP3    H1 6426   1.736   5.859   2.479  1.6634 -0.1107  2.7244
 2140TIP3    H2 6427   1.867   5.904   2.418  1.0414  0.0142  1.4445
 2141TIP3   OH2 6428   2.856   1.239   3.756  0.0191  0.0417 -0.4341
 2141TIP3    H1 6429   2.854   1.236   3.852  0.4324 -0.4045 -0.4354
 2141TIP3    H2 6430   2.900   1.158   3.730  1.0129  0.7283 -0.9585
 2142TIP3   OH2 6431   5.876   0.143   3.456  0.9271 -0.2298 -0.1863
 2142TIP3    H1 6432   5.818   0.084   3.504  0.2545  0.1560 -0.5053
 2142TIP3    H2 6433   5.963   0.127   3.493  0.3371  0.5515  1.6476
 2143TIP3   OH2 6434   0.054   1.577   4.375  0.4550  0.3404  0.1482
 2143TIP3    H1 6435  -0.036   1.604   4.392  0.4027  1.1807 -1.2774
 2143TIP3    H2 6436   0.093   1.567   4.462 -0.9171  0.2730  0.7824
 2144TIP3   OH2 6437   2.679   4.539   2.690 -0.0605 -0.2602 -0.1729
 2144TIP3    H1 6438   2.662   4.632   2.671  1.8221  0.3640  0.8919
 2144TIP3    H2 6439   2.734   4.510   2.618 -0.0742 -0.3512 -0.1466
 2145TIP3   OH2 6440   2.089   2.272   2.168 -0.5576 -0.3861  0.1481
 2145TIP3    H1 6441   2.183   2.274   2.188 -0.9259 -3.7128  3.1453
 2145TIP3    H2 6442   2.085   2.276   2.073  2.5495  0.6516 -0.0669
 2146TIP3   OH2 6443   2.045   0.584   0.746 -0.5850  0.1684  0.2351
 2146TIP3    H1 6444   1.961   0.577   0.700 -0.2670  0.9914 -0.5003
 2146TIP3    H2 6445   2.091   0.655   0.701  0.7289 -0.6293  0.2846
 2147TIP3   OH2 6446   6.010   4.569   0.200  0.1690  0.5909  0.8211
 2147TIP3    H1 6447   6.059   4.498   0.243 -1.1752 -0.2735  1.0074
 2147TIP3    H2 6448   6.008   4.545   0.108 -1.3267 -0.3031  1.0546
 2148TIP3   OH2 6449   4.711   2.919   2.658  0.2856  0.3310  0.6212
 2148TIP3    H1 6450   4.721   2.910   2.564  0.2836  0.5117  0.6025
 2148TIP3    H2 6451   4.622   2.887   2.676  0.5774 -0.4632  0.6728
 2149TIP3   OH2 6452   2.356   2.216   0.760  0.3768 -0.4382  0.1677
 2149TIP3    H1 6453   2.399   2.266   0.830 -0.5515 -1.9144  1.8973
 2149TIP3    H2 6454   2.277   2.267   0.740  2.4025  1.9665 -2.6036
 2150TIP3   OH2 6455   1.930   2.140   0.746  0.1915  0.1709  0.1829
 2150TIP3    H1 6456   1.876   2.062   0.737  0.5589  0.0361 -1.1610
 2150TIP3    H2 6457   1.924   2.163   0.838  0.0453 -1.4111  0.5993
 2151TIP3   OH2 6458   0.757   2.412   4.133 -0.2727 -0.1525 -0.2834
 2151TIP3    H1 6459   0.691   2.466   4.088 -0.8973  0.2581  1.0697
 2151TIP3    H2 6460   0.708   2.336   4.165 -0.1289  0.1778  0.7696
 2152TIP3   OH2 6461   0.619   2.557   3.089  0.2701  0.3888  0.1509
 2152TIP3    H1 6462   0.690   2.505   3.052 -0.1204 -0.2907  0.3310
 2152TIP3    H2 6463   0.540   2.521   3.049  0.0740  1.5615 -0.5335
 2153TIP3   OH2 6464   3.577   4.532   0.650 -0.1696  0.1939  0.1751
 2153TIP3    H1 6465   3.632   4.603   0.682 -0.7557  1.1854 -0.9451
 2153TIP3    H2 6466   3.639   4.470   0.611  0.2727  0.5239  0.3392
 2154TIP3   OH2 6467   2.146   0.454   2.195  0.0077  0.3221  0.4843
 2154TIP3    H1 6468   2.214   0.449   2.262  1.1800  2.2352 -0.4684
 2154TIP3    H2 6469   2.140   0.547   2.174 -0.0621 -0.2033 -2.2459
 2155TIP3   OH2 6470   1.020   1.833   4.063  0.7063  0.2142  0.3785
 2155TIP3    H1 6471   1.055   1.747   4.041 -0.0386  0.0100 -0.0402
 2155TIP3    H2 6472   0.988   1.824   4.153  0.9919  0.1784  0.4789
 2156TIP3   OH2 6473   2.428   4.816   1.051  0.0058  0.5870 -0.2300
 2156TIP3    H1 6474   2.449   4.803   0.959 -1.3998 -0.8173 -0.3887
 2156TIP3    H2 6475   2.407   4.909   1.058  0.4077  0.7683 -1.2544
 2157TIP3   OH2 6476   1.177   0.731   2.895 -0.5134 -0.0265 -0.5882
 2157TIP3    H1 6477   1.175   0.801   2.831 -2.9697  0.3565 -0.1722
 2157TIP3    H2 6478   1.098   0.680   2.879 -1.3095  0.1657  2.1739
 2158TIP3   OH2 6479   4.868   2.828   1.129  0.0952  0.5500 -0.2507
 2158TIP3    H1 6480   4.910   2.869   1.054  3.7935 -0.6557  0.9713
 2158TIP3    H2 6481   4.794   2.780   1.092  0.0247  2.3549 -2.6532
 2159TIP3   OH2 6482   2.672   3.502   0.659 -0.2761  0.6556  0.1363
 2159TIP3    H1 6483   2.588   3.479   0.698  0.2452  0.0768  0.9508
 2159TIP3    H2 6484   2.722   3.540   0.732  0.7689 -0.5635  0.0878
 2160TIP3   OH2 6485   3.135   3.143   4.514 -0.2297 -0.4333 -0.3572
 2160TIP3    H1 6486   3.097   3.087   4.582 -1.6005  0.3129 -0.4836
 2160TIP3    H2 6487   3.087   3.226   4.522  1.6022  0.6887 -0.2978
 2161TIP3   OH2 6488   1.083   2.466   0.110 -0.0744  0.3310 -0.6565
 2161TIP3    H1 6489   1.031   2.485   0.188 -0.2509  1.8213 -1.0966
 2161TIP3    H2 6490   1.124   2.382   0.128  1.3495  1.4432  1.8410
 2162TIP3   OH2 6491   5.915   1.267   1.117 -0.0985 -0.2761 -0.1648
 2162TIP3    H1 6492   5.970   1.343   1.138 -0.5344  0.1428 -0.5140
 2162TIP3    H2 6493   5.892   1.279   1.025  1.0514 -1.6250 -0.6631
 2163TIP3   OH2 6494   5.085   0.238   2.269  0.1534  0.0376  0.5333
 2163TIP3    H1 6495   5.154   0.195   2.319  1.3112 -0.9007 -1.7625
 2163TIP3    H2 6496   5.127   0.314   2.229 -0.5750  0.3861  0.3960
 2164TIP3   OH2 6497   1.903   0.429   4.946 -0.0477  0.0918  0.5504
 2164TIP3    H1 6498   1.953   0.432   5.028  0.2802 -0.5127  0.3733
 2164TIP3    H2 6499   1.970   0.420   4.878 -0.4014 -0.8173  0.3187
 2165TIP3   OH2 6500   5.600   1.496   3.242  0.7331  0.3407  0.0842
 2165TIP3    H1 6501   5.517   1.447   3.245  0.9110  0.0670  1.9882
 2165TIP3    H2 6502   5.607   1.536   3.328  1.8106  1.7290 -0.6089
 2166TIP3   OH2 6503   2.890   4.691   5.009  0.3562 -0.1473  0.3518
 2166TIP3    H1 6504   2.898   4.654   4.921  0.5070 -0.9158  0.6745
 2166TIP3    H2 6505   2.948   4.767   5.009  1.3411 -0.8849  0.1676
 2167TIP3   OH2 6506   4.164   1.691   2.393  0.1516  0.2413  0.6423
 2167TIP3    H1 6507   4.229   1.759   2.409 -0.3857  0.8032  0.4970
 2167TIP3    H2 6508   4.189   1.652   2.309  1.5705 -1.0606  1.6124
 2168TIP3   OH2 6509   1.753   1.284   4.310 -0.0954  0.3838  0.2994
 2168TIP3    H1 6510   1.726   1.376   4.311 -0.2115  0.3571 -0.0196
 2168TIP3    H2 6511   1.702   1.246   4.238  2.2094  0.7882 -1.6640
 2169TIP3   OH2 6512   6.294   2.918   3.487  0.3199 -0.0088 -0.7510
 2169TIP3    H1 6513   6.251   2.869   3.557 -1.0485  0.4902 -1.2057
 2169TIP3    H2 6514   6.302   2.856   3.415  0.1314 -0.0435 -0.7432
 2170TIP3   OH2 6515   0.449   4.884   4.707  0.0017  0.3353  0.2273
 2170TIP3    H1 6516   0.364   4.904   4.666  0.3166  0.8875 -0.1629
 2170TIP3    H2 6517   0.506   4.956   4.681  2.0296 -2.3087 -3.5656
 2171TIP3   OH2 6518   1.378   0.099   2.905 -0.2773 -0.3610  0.3560
 2171TIP3    H1 6519   1.330   0.097   2.823  0.4929 -0.3228 -0.1131
 2171TIP3    H2 6520   1.452   0.039   2.891 -0.1033 -0.3057  0.9931
 2172TIP3   OH2 6521   0.918   3.454   1.386 -0.0227  0.2817  0.1515
 2172TIP3    H1 6522   0.964   3.524   1.339  1.5936 -0.2109  0.9180
 2172TIP3    H2 6523   0.913   3.485   1.476 -0.5708  0.0081  0.2191
 2173TIP3   OH2 6524   5.779   2.638   1.589  0.2969 -0.1630 -0.2735
 2173TIP3    H1 6525   5.834   2.645   1.512  1.8828 -0.5380  0.7788
 2173TIP3    H2 6526   5.763   2.729   1.615  0.4478 -0.0520 -0.5644
 2174TIP3   OH2 6527   0.378   3.332   0.211  0.1173 -0.0919  0.2066
 2174TIP3    H1 6528   0.448   3.391   0.240  0.2250 -0.2390  0.2467
 2174TIP3    H2 6529   0.402   3.308   0.121 -0.2911  0.4777 -0.0614
 2175TIP3   OH2 6530   2.610   1.398   1.395 -0.1587  0.3495  0.5378
 2175TIP3    H1 6531   2.627   1.440   1.479 -1.3966  1.6832  0.1596
 2175TIP3    H2 6532   2.631   1.465   1.330 -0.6967 -0.1436 -0.1556
 2176TIP3   OH2 6533   4.225   3.523   2.284  0.7980  0.1303  0.6024
 2176TIP3    H1 6534   4.178   3.606   2.278 -0.0037 -0.3696 -0.4378
 2176TIP3    H2 6535   4.255   3.518   2.374  1.3950  1.8220  0.5251
 2177TIP3   OH2 6536   4.507   5.504   1.565 -0.0298  0.2072 -0.1524
 2177TIP3    H1 6537   4.555   5.451   1.629  1.1391 -0.7295 -1.7570
 2177TIP3    H2 6538   4.507   5.452   1.485 -1.8518  1.1621 -0.8305
 2178TIP3   OH2 6539   6.026   0.036   0.740 -0.1243  0.4399  0.2853
 2178TIP3    H1 6540   6.073   0.010   0.661  0.1081  1.2210  0.1602
 2178TIP3    H2 6541   5.953  -0.027   0.747 -1.2548  1.4683 -1.5684
 2179TIP3   OH2 6542   3.226   0.672   0.227 -0.0314 -0.1775  0.7068
 2179TIP3    H1 6543   3.211   0.578   0.240 -0.9608 -0.1311  0.1157
 2179TIP3    H2 6544   3.244   0.706   0.315 -0.3267 -0.8100  1.0206
 2180TIP3   OH2 6545   4.372   1.723   1.226 -0.1986 -0.3860  0.2677
 2180TIP3    H1 6546   4.360   1.693   1.136 -3.6095 -2.5712  1.2361
 2180TIP3    H2 6547   4.300   1.784   1.240  0.1388 -0.2549  1.5481
 2181TIP3   OH2 6548   1.407   5.922   2.216  0.6078  0.2379 -0.2126
 2181TIP3    H1 6549   1.370   5.914   2.128 -0.8091 -0.0028  0.3770
 2181TIP3    H2 6550   1.402   5.834   2.252  2.2474  0.0911 -0.2699
 2182TIP3   OH2 6551   2.590   2.584   0.058 -0.4177 -0.2881  0.0573
 2182TIP3    H1 6552   2.528   2.611  -0.010  1.7098  1.4658 -1.3296
 2182TIP3    H2 6553   2.573   2.491   0.071 -2.5321 -0.1202 -1.0675
 2183TIP3   OH2 6554   3.532   5.465   0.836 -0.1430  0.0670 -0.1689
 2183TIP3    H1 6555   3.569   5.533   0.893 -1.4995  1.1413 -0.5168
 2183TIP3    H2 6556   3.450   5.440   0.880 -1.5293  1.3526 -1.8757
 2184TIP3   OH2 6557   3.496   2.928   0.083 -0.1004 -0.1122  0.0995
 2184TIP3    H1 6558   3.576   2.970   0.051  0.1579  0.4819  1.4653
 2184TIP3    H2 6559   3.475   2.975   0.163  0.3939 -2.8076  1.9248
 2185TIP3   OH2 6560   5.022   4.691   2.312  0.1866  0.7861  0.5323
 2185TIP3    H1 6561   5.065   4.624   2.260 -1.0770 -0.6612  1.2640
 2185TIP3    H2 6562   4.936   4.702   2.270 -0.4366  0.3686  1.6418
 2186TIP3   OH2 6563   6.278   3.847   4.061 -0.3949 -0.0838  0.1535
 2186TIP3    H1 6564   6.211   3.913   4.043  0.5585  0.9750  0.3129
 2186TIP3    H2 6565   6.333   3.847   3.982 -1.0970 -1.6241 -0.3686
 2187TIP3   OH2 6566   1.762   1.759   1.281 -0.3278 -0.2672 -0.2993
 2187TIP3    H1 6567   1.836   1.710   1.245  0.7230  1.1940 -0.1675
 2187TIP3    H2 6568   1.729   1.811   1.208  0.8449  1.5422  0.4079
 2188TIP3   OH2 6569   0.751   5.354   0.242 -0.4198 -0.5223  0.4568
 2188TIP3    H1 6570   0.814   5.335   0.172 -1.3784  0.6447 -0.7759
 2188TIP3    H2 6571   0.679   5.398   0.198 -2.1193 -1.8173  1.8294
 2189TIP3   OH2 6572   1.870   5.757   3.763 -0.2842  0.6124  0.8691
 2189TIP3    H1 6573   1.835   5.754   3.852 -0.6785  1.5993  0.7653
 2189TIP3    H2 6574   1.937   5.689   3.761 -0.1598  0.6795  1.9655
 2190TIP3   OH2 6575   2.939   1.856   2.818  0.3579  0.1264  0.3816
 2190TIP3    H1 6576   2.942   1.952   2.820  0.9762  0.1792 -1.3333
 2190TIP3    H2 6577   2.846   1.835   2.812  0.2182  0.6174  0.7768
 2191TIP3   OH2 6578   2.190   0.359   0.357  0.8202 -0.1190  0.3972
 2191TIP3    H1 6579   2.213   0.451   0.343 -0.7871  0.4125  0.9842
 2191TIP3    H2 6580   2.183   0.322   0.269 -1.6070  1.1724 -0.0377
 2192TIP3   OH2 6581   1.721   5.596   4.230 -0.0461 -0.3533 -0.2736
 2192TIP3    H1 6582   1.747   5.550   4.310  0.8874 -0.0971 -0.4123
 2192TIP3    H2 6583   1.641   5.643   4.253  0.3123 -0.1423  0.5646
 2193TIP3   OH2 6584   4.271   3.221   0.300  0.3178  0.4320 -0.2135
 2193TIP3    H1 6585   4.285   3.315   0.313 -0.1526  0.3129  1.3096
 2193TIP3    H2 6586   4.329   3.179   0.362  0.3223 -0.2881 -0.6942
 2194TIP3   OH2 6587   3.794   0.972   2.184 -0.1677  0.2830  0.2895
 2194TIP3    H1 6588   3.827   1.053   2.221  1.5274 -0.6092  0.8374
 2194TIP3    H2 6589   3.778   0.916   2.260 -0.5643 -0.1618 -0.1161
 2195TIP3   OH2 6590   1.382   3.512   3.875  0.2850 -0.0861  0.2454
 2195TIP3    H1 6591   1.464   3.463   3.874  0.3406  0.0015  0.4953
 2195TIP3    H2 6592   1.314   3.445   3.886  0.1466 -0.3976 -2.0032
 2196TIP3   OH2 6593   3.567   1.715   3.935  0.4003  0.3790 -0.5815
 2196TIP3    H1 6594   3.613   1.738   4.016  0.2545  1.7132 -0.8543
 2196TIP3    H2 6595   3.624   1.748   3.865 -0.6026  1.4443 -0.9411
 2197TIP3   OH2 6596   3.781   5.515   2.309  0.0427 -0.1869  0.3701
 2197TIP3    H1 6597   3.842   5.492   2.379 -0.8697 -1.2747  0.8443
 2197TIP3    H2 6598   3.832   5.507   2.229  0.4374 -1.4786  0.7248
 2198TIP3   OH2 6599   0.062   2.806   1.465 -0.3227  0.4392 -0.0409
 2198TIP3    H1 6600  -0.027   2.788   1.496 -0.3265  0.6039  0.0449
 2198TIP3    H2 6601   0.063   2.900   1.449 -0.5145  0.2651 -1.1378
 2199TIP3   OH2 6602   6.185   3.103   2.892 -0.1484  0.0455 -0.0121
 2199TIP3    H1 6603   6.199   3.182   2.945  0.0528 -0.7912  1.2405
 2199TIP3    H2 6604   6.272   3.076   2.865 -0.1846  0.0515 -0.1363
 2200TIP3   OH2 6605   2.972   4.952   4.401  1.0024 -0.4143  0.2470
 2200TIP3    H1 6606   2.885   4.988   4.416  0.7150 -1.4647  1.2550
 2200TIP3    H2 6607   2.965   4.861   4.430  2.3008 -0.6492 -0.1362
 2201TIP3   OH2 6608   2.910   4.856   3.650  0.0449  0.5080  0.3106
 2201TIP3    H1 6609   2.824   4.844   3.690 -0.5106  1.8999 -0.3992
 2201TIP3    H2 6610   2.908   4.802   3.571 -0.5033  1.1541 -0.1355
 2202TIP3   OH2 6611   4.619   3.964   3.018 -0.1607 -0.2891 -0.3289
 2202TIP3    H1 6612   4.712   3.983   3.007 -0.0808 -1.7091 -2.6121
 2202TIP3    H2 6613   4.593   4.018   3.093  1.9695  1.8500 -0.9880
 2203TIP3   OH2 6614   5.964   2.770   3.403  0.2001  0.0754  0.1260
 2203TIP3    H1 6615   5.931   2.859   3.396  0.1393  0.1169  0.8698
 2203TIP3    H2 6616   6.052   2.773   3.365 -0.2874  0.1584 -1.0524
 2204TIP3   OH2 6617   5.050   0.262   4.416 -1.2128  0.4115 -0.4636
 2204TIP3    H1 6618   5.061   0.170   4.439  2.0206  0.8634  0.2778
 2204TIP3    H2 6619   5.041   0.262   4.321 -1.5977 -0.6700 -0.4442
 2205TIP3   OH2 6620   3.627   1.166   4.340 -0.1386  0.1128 -0.6970
 2205TIP3    H1 6621   3.627   1.073   4.362  0.3405  0.3042  0.1480
 2205TIP3    H2 6622   3.611   1.168   4.245 -0.1722 -0.8202 -0.7233
 2206TIP3   OH2 6623   2.936   5.491   2.434  0.3177 -0.1172 -0.0273
 2206TIP3    H1 6624   2.993   5.465   2.361  0.1424  1.9371 -0.9421
 2206TIP3    H2 6625   2.984   5.562   2.477 -0.8809  0.6365  0.0904
 2207TIP3   OH2 6626   1.167   2.014   0.387  0.4443  0.8083 -0.9982
 2207TIP3    H1 6627   1.078   1.980   0.384  0.4754  0.6255 -0.2216
 2207TIP3    H2 6628   1.169   2.068   0.466  1.0302  0.7681 -0.9821
 2208TIP3   OH2 6629   1.571   5.654   1.424 -0.5608  0.0866  0.0772
 2208TIP3    H1 6630   1.581   5.596   1.499  0.2850 -0.1918 -0.2392
 2208TIP3    H2 6631   1.514   5.606   1.364 -1.6596  0.5228  0.7340
 2209TIP3   OH2 6632   1.559   5.410   0.808 -0.2481  0.5903 -0.1470
 2209TIP3    H1 6633   1.510   5.402   0.889  1.0889 -1.7248  0.5371
 2209TIP3    H2 6634   1.643   5.448   0.834  0.7736 -1.5511 -0.0909
 2210TIP3   OH2 6635   1.017   2.594   0.801  0.0008 -0.1827  0.2253
 2210TIP3    H1 6636   1.028   2.688   0.790  0.3685 -0.2771 -0.3000
 2210TIP3    H2 6637   0.922   2.581   0.808 -0.2515  0.0366 -1.9122
 2211TIP3   OH2 6638   0.931   1.641   2.286  0.0716 -0.2549  0.4004
 2211TIP3    H1 6639   0.999   1.672   2.346  0.2801  1.1976 -0.5393
 2211TIP3    H2 6640   0.849   1.674   2.322  0.1094 -0.0719  0.3188
 2212TIP3   OH2 6641   4.095   2.563   2.345 -0.8310  0.2178 -0.4160
 2212TIP3    H1 6642   4.070   2.645   2.302 -0.8580  0.7552  0.5847
 2212TIP3    H2 6643   4.088   2.582   2.438  1.7503 -0.0705 -0.0817
 2213TIP3   OH2 6644   4.539   4.643   3.834  0.4485  0.0515 -0.1636
 2213TIP3    H1 6645   4.514   4.555   3.863 -0.5417  0.1645 -0.6244
 2213TIP3    H2 6646   4.591   4.628   3.755 -0.1200 -0.1174 -0.5144
 2214TIP3   OH2 6647   4.112   3.309   5.048 -0.4193  0.0572 -0.5270
 2214TIP3    H1 6648   4.094   3.235   4.990  0.2701 -1.9994  1.7305
 2214TIP3    H2 6649   4.050   3.298   5.121  0.3975  1.1150  0.3610
 2215TIP3   OH2 6650   4.271   2.185   3.997 -0.0295  0.0989  0.1999
 2215TIP3    H1 6651   4.213   2.131   3.944  0.6957 -0.2744 -0.2271
 2215TIP3    H2 6652   4.341   2.211   3.938  1.6477 -1.6136  1.2985
 2216TIP3   OH2 6653   4.349   4.194   1.521  0.0273  0.0325 -0.3774
 2216TIP3    H1 6654   4.369   4.254   1.593 -1.8033  1.1717 -0.7467
 2216TIP3    H2 6655   4.393   4.113   1.544  1.1091  0.9787  1.0407
 2217TIP3   OH2 6656   5.415   3.681   3.808 -0.0314 -0.1401  0.0068
 2217TIP3    H1 6657   5.452   3.610   3.860 -0.2728 -0.2359  0.0509
 2217TIP3    H2 6658   5.367   3.637   3.737 -1.0982 -0.0569  0.6531
 2218TIP3   OH2 6659   5.217   2.810   2.434  0.2966 -0.0664 -0.7303
 2218TIP3    H1 6660   5.295   2.756   2.421 -1.0513 -2.4463  0.3951
 2218TIP3    H2 6661   5.154   2.752   2.476 -2.4797  1.4556 -2.4618
 2219TIP3   OH2 6662   4.945   1.433   2.440  0.5115  0.5583 -0.3515
 2219TIP3    H1 6663   4.999   1.404   2.367  0.5282 -0.6668  0.1257
 2219TIP3    H2 6664   5.000   1.423   2.517 -0.0304  0.3162  0.0153
 2220TIP3   OH2 6665   3.750   5.744   1.463 -0.0842  0.1012  0.7702
 2220TIP3    H1 6666   3.813   5.745   1.391 -0.3859  0.4044  0.5121
 2220TIP3    H2 6667   3.784   5.809   1.525  1.2103 -1.4795  1.7992
 2221TIP3   OH2 6668   5.985   2.024   3.520  0.4860 -0.4539 -0.3174
 2221TIP3    H1 6669   5.922   1.970   3.473  0.5536 -1.1072  0.3206
 2221TIP3    H2 6670   5.961   2.114   3.498  1.1078 -0.7500 -2.3408
 2222TIP3   OH2 6671   3.972   5.633   4.705 -0.1610 -0.4793  0.3310
 2222TIP3    H1 6672   4.007   5.555   4.663 -1.5698 -0.8734 -0.1802
 2222TIP3    H2 6673   4.018   5.706   4.664  1.1356 -1.0141  0.7802
 2223TIP3   OH2 6674   3.443   0.817   0.688  0.7458 -0.2132  0.0687
 2223TIP3    H1 6675   3.527   0.784   0.656  0.0061 -0.4130 -1.7905
 2223TIP3    H2 6676   3.387   0.818   0.611 -0.7718  0.5657  1.1358
 2224TIP3   OH2 6677   5.436   2.605   0.582 -0.1198  0.1400  0.0179
 2224TIP3    H1 6678   5.359   2.559   0.615  1.0592 -1.0356  1.2726
 2224TIP3    H2 6679   5.506   2.582   0.644  0.7232  3.0644  0.2997
 2225TIP3   OH2 6680   4.794   2.996   2.894 -0.3164  0.0935  0.9638
 2225TIP3    H1 6681   4.768   2.955   2.811  1.8937 -3.8725  1.9335
 2225TIP3    H2 6682   4.890   2.989   2.895 -0.1265  1.9188  3.0321
 2226TIP3   OH2 6683   3.128   4.197   4.622 -0.2049 -0.1356  0.2800
 2226TIP3    H1 6684   3.063   4.153   4.677 -0.0839  0.9453  1.3260
 2226TIP3    H2 6685   3.077   4.254   4.565 -0.1719  1.8848  2.1506
 2227TIP3   OH2 6686   3.995   4.562   1.361  0.0603 -0.2473 -0.9589
 2227TIP3    H1 6687   4.000   4.579   1.455  1.5240  0.2504 -1.1011
 2227TIP3    H2 6688   3.920   4.613   1.331  0.0125  0.1610 -0.1707
 2228TIP3   OH2 6689   5.522   0.486   3.782 -0.7985  0.3832  0.1887
 2228TIP3    H1 6690   5.558   0.549   3.720 -1.5668 -1.6487 -2.5585
 2228TIP3    H2 6691   5.437   0.522   3.807 -1.2481  0.4537 -1.3667
 2229TIP3   OH2 6692   0.320   4.042   1.788  0.1627 -0.4508  0.2304
 2229TIP3    H1 6693   0.342   4.097   1.714 -0.8387 -1.1926 -0.6696
 2229TIP3    H2 6694   0.232   4.009   1.767  0.6209 -2.1662  0.8297
 2230TIP3   OH2 6695   2.744   4.741   2.947 -0.2635 -0.0632 -0.2753
 2230TIP3    H1 6696   2.707   4.722   2.861 -2.3652  0.2822  0.4997
 2230TIP3    H2 6697   2.774   4.832   2.940 -0.7482  0.0798 -0.5440
 2231TIP3   OH2 6698   5.059   2.363   1.187  0.0417  0.6609  0.2505
 2231TIP3    H1 6699   5.016   2.443   1.217  1.1941  2.3640 -2.2377
 2231TIP3    H2 6700   5.007   2.335   1.111  0.6006  0.0039  0.0996
 2232TIP3   OH2 6701   1.983   2.553   2.249  0.4627 -0.0432  0.3795
 2232TIP3    H1 6702   1.894   2.554   2.215  0.4362 -0.5921  0.4295
 2232TIP3    H2 6703   2.026   2.479   2.205  0.3490 -0.9332  1.7055
 2233TIP3   OH2 6704   4.894   2.698   4.965  0.3495 -0.0243  0.4875
 2233TIP3    H1 6705   4.816   2.709   4.911  0.4336  0.9273  0.5490
 2233TIP3    H2 6706   4.915   2.786   4.996  1.5284 -0.2455  0.3623
 2234TIP3   OH2 6707   1.231   3.875   4.569 -0.5204  0.1027  0.4444
 2234TIP3    H1 6708   1.312   3.888   4.519 -1.3087 -0.5384 -1.0785
 2234TIP3    H2 6709   1.172   3.942   4.534 -1.2103 -0.6081  0.2269
 2235TIP3   OH2 6710   4.795   3.740   1.843  0.3748  0.3886  1.1170
 2235TIP3    H1 6711   4.744   3.755   1.922 -0.9772  2.5711 -0.0830
 2235TIP3    H2 6712   4.861   3.809   1.842  0.9056 -0.1073  0.7294
 2236TIP3   OH2 6713   1.257   3.013   2.095  0.5856  0.5169  0.1040
 2236TIP3    H1 6714   1.311   3.040   2.021  0.9282  1.5904  0.7176
 2236TIP3    H2 6715   1.291   2.927   2.120  0.5513  0.2059 -0.8896
 2237TIP3   OH2 6716   5.039   5.620   0.519  0.6862 -0.1995  0.2035
 2237TIP3    H1 6717   5.049   5.566   0.440 -0.2380 -2.1798  1.3709
 2237TIP3    H2 6718   4.948   5.651   0.515  0.8994  0.4294  0.0796
 2238TIP3   OH2 6719   5.906   2.339   0.320 -0.0908 -0.3852  0.6717
 2238TIP3    H1 6720   5.950   2.393   0.385 -0.8622 -0.8123  1.5721
 2238TIP3    H2 6721   5.937   2.250   0.337  1.3913 -0.2392 -0.9793
 2239TIP3   OH2 6722   2.944   0.570   4.687 -0.1901  0.4182 -0.1088
 2239TIP3    H1 6723   2.885   0.634   4.728  0.2135  1.2698 -0.8059
 2239TIP3    H2 6724   3.031   0.594   4.720 -0.1381 -0.4088  0.3904
 2240TIP3   OH2 6725   3.863   0.066   4.653  0.0605 -0.7251  0.1983
 2240TIP3    H1 6726   3.881   0.157   4.633  0.2922 -0.6391  0.7724
 2240TIP3    H2 6727   3.905   0.051   4.738 -0.6849 -1.1342  0.5069
 2241TIP3   OH2 6728   1.616   4.255   3.588  0.1295 -0.2283 -0.0956
 2241TIP3    H1 6729   1.615   4.348   3.563 -2.2817  0.3772  1.8284
 2241TIP3    H2 6730   1.657   4.255   3.674  0.8449 -1.0943 -0.4261
 2242TIP3   OH2 6731   0.953   2.556   4.864 -0.3394  0.0616 -0.0526
 2242TIP3    H1 6732   0.861   2.533   4.854  0.0916 -1.8099 -0.0135
 2242TIP3    H2 6733   0.954   2.652   4.857 -2.5528  0.3606  2.1440
 2243TIP3   OH2 6734   1.377   1.129   4.314  0.1518 -0.0531 -0.4279
 2243TIP3    H1 6735   1.394   1.058   4.375  0.1242 -0.1084 -0.4842
 2243TIP3    H2 6736   1.430   1.108   4.237  0.6365  0.3214 -0.1954
 2244TIP3   OH2 6737   2.858   0.382   4.222  0.8888  0.0011 -0.1968
 2244TIP3    H1 6738   2.918   0.427   4.281  0.2403 -0.7512  1.0717
 2244TIP3    H2 6739   2.771   0.397   4.260  0.4695 -0.6153 -0.8905
 2245TIP3   OH2 6740   2.533   4.457   0.778  0.3112  0.6712  0.0731
 2245TIP3    H1 6741   2.604   4.516   0.753 -0.8937  1.8225 -0.7536
 2245TIP3    H2 6742   2.564   4.414   0.857  2.3191  0.4169 -0.8053
 2246TIP3   OH2 6743   5.298   5.204   3.745 -0.0723  0.1308 -0.1065
 2246TIP3    H1 6744   5.270   5.199   3.836  0.6069  2.5802  0.3125
 2246TIP3    H2 6745   5.230   5.255   3.701 -0.5753 -1.3320 -1.0863
 2247TIP3   OH2 6746   5.166   2.387   4.565 -0.0066 -0.2168  0.3763
 2247TIP3    H1 6747   5.166   2.385   4.469  1.6507 -0.4809  0.3498
 2247TIP3    H2 6748   5.122   2.469   4.587 -0.1349 -0.0074 -0.6214
 2248TIP3   OH2 6749   6.242   1.522   1.458  0.2514  0.0267  0.0316
 2248TIP3    H1 6750   6.214   1.614   1.451 -1.5425 -0.1915  2.6829
 2248TIP3    H2 6751   6.272   1.514   1.549  3.7339 -1.2456 -1.0849
 2249TIP3   OH2 6752   4.867   5.909   0.017  0.5018  0.2691 -0.0957
 2249TIP3    H1 6753   4.884   5.943   0.105  1.0971 -2.5293  0.9553
 2249TIP3    H2 6754   4.778   5.939  -0.003  1.1237  2.7601  0.4702
 2250TIP3   OH2 6755   3.580   3.751   1.302  0.1215 -0.3444  0.7079
 2250TIP3    H1 6756   3.588   3.785   1.391  2.5035  0.1854  0.3340
 2250TIP3    H2 6757   3.491   3.715   1.299 -0.8074  1.5481  2.6076
 2251TIP3   OH2 6758   5.350   4.907   4.969 -0.1323 -0.0648  0.4532
 2251TIP3    H1 6759   5.312   4.988   5.003 -2.7253 -1.3410  0.9082
 2251TIP3    H2 6760   5.300   4.890   4.889 -0.2874 -1.6482  0.8562
 2252TIP3   OH2 6761   1.513   3.917   0.327  0.0124 -1.1378  0.1949
 2252TIP3    H1 6762   1.602   3.913   0.291 -0.7333  0.2697 -2.0235
 2252TIP3    H2 6763   1.480   3.828   0.317 -0.3705 -0.7583 -3.5520
 2253TIP3   OH2 6764   0.664   2.814   4.350 -0.0254  0.2655 -0.1412
 2253TIP3    H1 6765   0.695   2.827   4.260 -1.3198  0.0421 -0.6474
 2253TIP3    H2 6766   0.620   2.729   4.347 -1.1416  0.8151  0.4004
 2254TIP3   OH2 6767   3.911   3.088   3.141  0.3333  0.4933  0.1648
 2254TIP3    H1 6768   3.908   3.007   3.192 -0.1222  0.3589 -0.0606
 2254TIP3    H2 6769   3.994   3.083   3.094  0.0211 -0.1742 -0.3515
 2255TIP3   OH2 6770   5.819   2.308   1.439 -0.2390  0.1262  0.6740
 2255TIP3    H1 6771   5.809   2.268   1.353  0.3740 -1.4861  1.2969
 2255TIP3    H2 6772   5.911   2.334   1.443 -0.2884  0.2828  0.8102
 2256TIP3   OH2 6773   5.551   1.310   0.958 -0.6633  0.2983 -0.8418
 2256TIP3    H1 6774   5.609   1.345   0.891 -1.0430 -0.0220 -1.3365
 2256TIP3    H2 6775   5.477   1.370   0.960  0.4430  1.7269  1.0063
 2257TIP3   OH2 6776   0.248   1.562   1.013 -0.0392  0.2731  0.6589
 2257TIP3    H1 6777   0.302   1.483   1.010  0.3100  0.5279 -0.4408
 2257TIP3    H2 6778   0.158   1.530   1.005  0.2067  0.0543 -3.0693
 2258TIP3   OH2 6779   3.689   1.608   3.203 -0.6113  0.3086 -0.2684
 2258TIP3    H1 6780   3.611   1.603   3.259 -0.9641  3.4304 -0.3060
 2258TIP3    H2 6781   3.673   1.684   3.147  2.3247  0.8122 -0.5475
 2259TIP3   OH2 6782   0.338   3.951   3.330  0.0946  0.0429 -0.3318
 2259TIP3    H1 6783   0.287   3.876   3.298  0.4519  0.1913 -1.2660
 2259TIP3    H2 6784   0.278   3.997   3.388 -0.6716 -0.0680 -1.0239
 2260TIP3   OH2 6785   1.460   0.742   1.627  0.1778 -0.1630 -0.1325
 2260TIP3    H1 6786   1.400   0.774   1.559  1.9629 -0.2079 -1.8059
 2260TIP3    H2 6787   1.501   0.821   1.662  0.4542 -0.2409 -0.2768
 2261TIP3   OH2 6788   3.657   3.676   1.046  0.2200  0.3474  0.3992
 2261TIP3    H1 6789   3.590   3.610   1.065 -1.2785  1.6201 -0.2588
 2261TIP3    H2 6790   3.653   3.736   1.121  0.5887  0.4679  0.3237
 2262TIP3   OH2 6791   1.951   0.562   3.843 -0.6318 -0.3973 -0.5528
 2262TIP3    H1 6792   1.944   0.530   3.933 -1.7070 -1.5385 -1.0248
 2262TIP3    H2 6793   1.988   0.489   3.794 -1.2483 -0.2397 -1.2770
 2263TIP3   OH2 6794   4.170   1.927   1.209  0.1209  0.2079 -0.6449
 2263TIP3    H1 6795   4.081   1.894   1.223  0.0747  0.5347 -0.1415
 2263TIP3    H2 6796   4.186   1.984   1.284  0.4072  0.8739 -1.2072
 2264TIP3   OH2 6797   0.164   5.211   4.643  0.0180  0.1681 -0.1114
 2264TIP3    H1 6798   0.118   5.264   4.578 -3.4211 -0.7336  1.3647
 2264TIP3    H2 6799   0.109   5.217   4.721  1.7428 -2.1778  1.3868
 2265TIP3   OH2 6800   1.005   5.534   3.991 -0.4954  0.4665 -0.4718
 2265TIP3    H1 6801   0.967   5.447   4.002 -0.1419  0.0767 -2.0437
 2265TIP3    H2 6802   0.957   5.572   3.917 -0.7963  1.7089  0.3390
 2266TIP3   OH2 6803   5.448   2.261   4.367 -0.0283  0.4132 -0.2289
 2266TIP3    H1 6804   5.496   2.244   4.286 -0.9097 -0.3617 -0.5990
 2266TIP3    H2 6805   5.424   2.353   4.361  1.2205  0.7686 -0.1272
 2267TIP3   OH2 6806   2.919   0.900   1.872 -0.2923  0.4550 -0.1945
 2267TIP3    H1 6807   3.008   0.929   1.850 -0.9668  3.3049  0.4996
 2267TIP3    H2 6808   2.920   0.889   1.967 -0.7808  0.9038 -0.1348
 2268TIP3   OH2 6809   2.952   2.510   1.333  0.1028  0.3778  0.6797
 2268TIP3    H1 6810   3.020   2.576   1.350 -0.0068  0.7615 -0.2666
 2268TIP3    H2 6811   2.870   2.555   1.353  0.0308  0.5284  0.0719
 2269TIP3   OH2 6812   3.900   5.444   1.169 -0.5746  0.9532 -0.3277
 2269TIP3    H1 6813   3.926   5.475   1.256 -0.9369  1.4084 -0.3789
 2269TIP3    H2 6814   3.833   5.377   1.186 -0.0408  0.4434 -0.2289
 2270TIP3   OH2 6815   5.019   3.610   1.517  0.3337  0.1868  0.4092
 2270TIP3    H1 6816   5.072   3.672   1.567 -0.0428  1.4465 -0.6972
 2270TIP3    H2 6817   5.081   3.544   1.487  1.0577  0.9276  0.2253
 2271TIP3   OH2 6818   0.480   4.345   2.856  0.1507  0.2439  0.1805
 2271TIP3    H1 6819   0.398   4.370   2.814 -0.4187 -2.0695 -0.1904
 2271TIP3    H2 6820   0.546   4.350   2.787 -0.0318  0.2675  0.0092
 2272TIP3   OH2 6821   3.521   4.157   4.337  0.0458 -0.4807 -0.8294
 2272TIP3    H1 6822   3.510   4.086   4.274  0.9523 -2.7226  1.3493
 2272TIP3    H2 6823   3.534   4.112   4.421  1.7483  2.2460  0.5015
 2273TIP3   OH2 6824   4.869   4.654   3.120  0.2680  0.7805  0.2297
 2273TIP3    H1 6825   4.850   4.712   3.047 -0.5115  1.3907  0.9079
 2273TIP3    H2 6826   4.856   4.566   3.085  0.0199  1.0642 -0.3966
 2274TIP3   OH2 6827   4.450   1.244   1.468 -0.1988  0.0516  0.5231
 2274TIP3    H1 6828   4.437   1.153   1.497 -2.3279  0.4275  0.8755
 2274TIP3    H2 6829   4.473   1.236   1.375 -2.6927 -0.8070 -0.0959
 2275TIP3   OH2 6830   0.637   5.052   1.153  0.3462 -0.7313 -0.1255
 2275TIP3    H1 6831   0.655   5.068   1.060 -1.3523  0.2523 -0.3257
 2275TIP3    H2 6832   0.542   5.063   1.161  0.0987 -3.1961  1.2859
 2276TIP3   OH2 6833   0.473   2.855   4.568 -0.0220  0.4177  0.1911
 2276TIP3    H1 6834   0.540   2.919   4.545  0.9028  0.1867  2.0932
 2276TIP3    H2 6835   0.391   2.893   4.536  0.9356  0.7756 -2.0401
 2277TIP3   OH2 6836   2.451   4.600   4.858 -0.1800  0.0058  0.5440
 2277TIP3    H1 6837   2.498   4.565   4.933 -0.1314  1.2058  1.0995
 2277TIP3    H2 6838   2.372   4.546   4.851  1.3811 -2.2873 -0.6489
 2278TIP3   OH2 6839   3.397   5.396   2.348 -0.3124  0.2946 -0.4499
 2278TIP3    H1 6840   3.372   5.337   2.278  1.9349 -1.6721  0.2647
 2278TIP3    H2 6841   3.329   5.385   2.415 -0.7136 -0.3487 -0.9496
 2279TIP3   OH2 6842   1.125   0.016   1.659 -0.4081  0.4121  0.1244
 2279TIP3    H1 6843   1.190  -0.046   1.693  2.2224  2.8323 -0.1339
 2279TIP3    H2 6844   1.102   0.070   1.735  1.1257  2.1628 -0.5631
 2280TIP3   OH2 6845   2.346   0.604   0.689  0.6068 -0.1808  0.0218
 2280TIP3    H1 6846   2.409   0.541   0.725 -2.3715 -2.5781  1.4625
 2280TIP3    H2 6847   2.337   0.579   0.597  0.0539 -1.4145  0.3867
 2281TIP3   OH2 6848   1.368   0.203   2.638 -0.4171  0.1311 -0.4242
 2281TIP3    H1 6849   1.411   0.271   2.689  0.3002 -0.3683 -0.3508
 2281TIP3    H2 6850   1.432   0.179   2.571 -1.1910  0.5009 -1.3311
 2282TIP3   OH2 6851   3.362   4.968   1.021 -0.1199  0.9136  0.2594
 2282TIP3    H1 6852   3.284   5.012   1.054 -1.1226 -0.0880 -0.6736
 2282TIP3    H2 6853   3.375   5.003   0.933  1.0696  1.7565  0.7338
 2283TIP3   OH2 6854   5.670   5.480   1.815 -0.0028 -0.7443 -0.2950
 2283TIP3    H1 6855   5.675   5.476   1.910  1.7147  1.8069 -0.1842
 2283TIP3    H2 6856   5.749   5.527   1.789 -1.8046  1.2144 -2.7474
 2284TIP3   OH2 6857   2.045   5.720   2.225 -0.1919  0.0239  0.2876
 2284TIP3    H1 6858   2.096   5.733   2.145  0.3079 -0.5888  0.4980
 2284TIP3    H2 6859   1.981   5.791   2.224  1.9820  2.1641  1.0709
 2285TIP3   OH2 6860   4.794   1.559   1.442  0.8571 -0.0503  0.0350
 2285TIP3    H1 6861   4.822   1.644   1.408  0.0325  1.0070  1.8551
 2285TIP3    H2 6862   4.812   1.498   1.371  1.4125  1.6472 -1.3590
 2286TIP3   OH2 6863   1.034   5.854   0.936  0.4640 -0.6792 -0.3235
 2286TIP3    H1 6864   1.036   5.932   0.880  1.2089 -0.6976 -0.3346
 2286TIP3    H2 6865   1.029   5.780   0.875 -1.5759 -0.6157 -0.2851
 2287TIP3   OH2 6866   0.959   5.521   2.396  0.7280 -0.0743  0.1920
 2287TIP3    H1 6867   0.874   5.480   2.407  0.6659 -0.0229 -0.0716
 2287TIP3    H2 6868   0.956   5.600   2.450  0.8385 -0.4039  0.6799
 2288TIP3   OH2 6869   4.493   2.621   1.271 -0.2286 -0.0819 -0.1105
 2288TIP3    H1 6870   4.405   2.607   1.235 -0.2610  0.2125 -0.1494
 2288TIP3    H2 6871   4.551   2.620   1.195 -0.1061 -1.0009 -0.0135
 2289TIP3   OH2 6872   2.526   5.899   2.442  0.3782 -0.2514  0.1348
 2289TIP3    H1 6873   2.451   5.913   2.384  0.9319 -3.6901 -1.6904
 2289TIP3    H2 6874   2.571   5.983   2.444 -0.1747  0.3274 -3.8159
 2290TIP3   OH2 6875   6.304   4.104   0.824  0.2601 -0.4337 -0.3402
 2290TIP3    H1 6876   6.313   4.088   0.730 -0.1471 -0.3178 -0.4009
 2290TIP3    H2 6877   6.392   4.130   0.853 -0.2764  3.1109 -1.3846
 2291TIP3   OH2 6878   6.088   1.536   0.881  0.0899  0.6553  0.3079
 2291TIP3    H1 6879   6.023   1.468   0.903  0.2898  0.8053  1.4462
 2291TIP3    H2 6880   6.045   1.590   0.816 -0.4445  0.0008  0.1020
 2292TIP3   OH2 6881   0.675   4.576   1.007 -0.0429  0.3779 -0.3350
 2292TIP3    H1 6882   0.719   4.497   0.975 -1.5389 -0.9497  0.7218
 2292TIP3    H2 6883   0.616   4.601   0.935 -0.6088 -0.3420 -0.1358
 2293TIP3   OH2 6884   4.163   5.295   1.930  0.1365 -0.4075  0.1096
 2293TIP3    H1 6885   4.202   5.382   1.938 -0.0172 -0.3588  0.3595
 2293TIP3    H2 6886   4.237   5.236   1.916  0.1791 -0.1331 -0.9651
 2294TIP3   OH2 6887   2.819   4.346   2.415  0.0996 -0.1545  0.5628
 2294TIP3    H1 6888   2.739   4.328   2.365 -0.0915  0.9918  0.4253
 2294TIP3    H2 6889   2.878   4.386   2.351  0.9140 -1.2653  0.5910
 2295TIP3   OH2 6890   5.907   1.627   5.102 -0.0656  0.1382 -0.2093
 2295TIP3    H1 6891   5.885   1.709   5.058 -1.7515 -0.5105 -0.6492
 2295TIP3    H2 6892   5.929   1.567   5.030  1.4462  0.2476  0.1230
 2296TIP3   OH2 6893   0.195   5.541   3.328 -0.5462 -0.3072  0.5137
 2296TIP3    H1 6894   0.184   5.511   3.238 -0.3071  0.5300  0.1932
 2296TIP3    H2 6895   0.106   5.548   3.362 -0.6414 -0.5899  0.3312
 2297TIP3   OH2 6896   6.321   4.324   1.788 -0.1101  0.0247  0.1725
 2297TIP3    H1 6897   6.319   4.299   1.696 -0.6064  0.7129 -0.0186
 2297TIP3    H2 6898   6.299   4.417   1.787 -1.2993 -0.2268  1.0734
 2298TIP3   OH2 6899   3.870   3.362   3.549  0.1105 -0.0647 -0.0075
 2298TIP3    H1 6900   3.861   3.333   3.458 -0.1382  1.4388 -0.5005
 2298TIP3    H2 6901   3.781   3.369   3.581  0.1368  0.4674 -0.0290
 2299TIP3   OH2 6902   4.722   4.101   4.871 -0.1763  0.5752 -0.0207
 2299TIP3    H1 6903   4.723   4.086   4.777 -3.2947  0.8107 -0.2078
 2299TIP3    H2 6904   4.757   4.189   4.882  0.6171  0.3865 -0.8768
 2300TIP3   OH2 6905   4.227   4.669   0.602  0.4181  0.8648 -0.2768
 2300TIP3    H1 6906   4.297   4.619   0.561 -1.8240 -0.4089 -2.9728
 2300TIP3    H2 6907   4.186   4.608   0.664  0.5869  0.9679 -0.0661
 2301TIP3   OH2 6908   2.891   3.688   1.424 -1.1835  0.3300  0.6781
 2301TIP3    H1 6909   2.835   3.759   1.453 -1.5050  0.2378  0.2874
 2301TIP3    H2 6910   2.837   3.609   1.433 -1.6196  0.4044 -1.0481
 2302TIP3   OH2 6911   5.357   1.805   1.252 -0.2289 -0.4830 -0.3967
 2302TIP3    H1 6912   5.262   1.808   1.241 -0.6607  0.1799  2.7697
 2302TIP3    H2 6913   5.374   1.850   1.334  2.7399 -1.5707 -0.2824
 2303TIP3   OH2 6914   5.056   0.898   0.175  0.0069 -0.0874  0.1745
 2303TIP3    H1 6915   5.123   0.833   0.152  1.3574  0.6486  1.8210
 2303TIP3    H2 6916   5.013   0.918   0.092  3.3077  1.0371 -1.4268
 2304TIP3   OH2 6917   1.938   4.993   4.481  0.3071  0.7584  0.3096
 2304TIP3    H1 6918   1.919   4.905   4.515  1.5115 -0.0213 -0.9497
 2304TIP3    H2 6919   1.901   5.052   4.547 -1.2765 -0.6739  0.7719
 2305TIP3   OH2 6920   2.727   2.692   0.270  0.4049  0.6121 -0.0228
 2305TIP3    H1 6921   2.657   2.644   0.313 -0.1052  1.0756 -0.3256
 2305TIP3    H2 6922   2.694   2.709   0.182  1.8767 -1.3453 -1.0385
 2306TIP3   OH2 6923   2.487   2.307   2.908 -0.1818 -0.1625  0.2212
 2306TIP3    H1 6924   2.394   2.321   2.891  0.0497  0.7205 -0.4424
 2306TIP3    H2 6925   2.530   2.330   2.825  0.8362  2.1007  1.2992
 2307TIP3   OH2 6926   6.132   1.360   4.751  0.1843  0.0216 -0.3659
 2307TIP3    H1 6927   6.144   1.321   4.664  0.5895 -0.7725  0.0321
 2307TIP3    H2 6928   6.221   1.381   4.780  0.2934 -1.7707  0.7599
 2308TIP3   OH2 6929   5.065   3.589   4.508 -0.0046  0.0349  0.1335
 2308TIP3    H1 6930   5.027   3.536   4.438  1.3459  0.9781 -1.3731
 2308TIP3    H2 6931   5.061   3.679   4.476  0.7011  0.4885  1.2421
 2309TIP3   OH2 6932   1.657   2.223   4.313  0.6127  0.1112 -0.0363
 2309TIP3    H1 6933   1.703   2.293   4.267 -1.5433  2.2214  0.8577
 2309TIP3    H2 6934   1.699   2.219   4.399 -0.5176  1.7311  0.6236
 2310TIP3   OH2 6935   4.733   1.310   1.576 -0.1768  0.2226  0.1579
 2310TIP3    H1 6936   4.766   1.329   1.488 -0.3527  1.2866  0.3076
 2310TIP3    H2 6937   4.806   1.334   1.634  0.5985 -2.1184  0.2358
 2311TIP3   OH2 6938   5.149   0.324   3.736 -0.3724  0.3856  0.0276
 2311TIP3    H1 6939   5.170   0.245   3.686  0.4179  0.8571 -0.4169
 2311TIP3    H2 6940   5.163   0.299   3.827 -0.8404 -0.1964 -0.0555
 2312TIP3   OH2 6941   1.987   2.573   0.453 -0.8453  0.2962  0.1592
 2312TIP3    H1 6942   2.048   2.501   0.472 -2.7883 -1.3357  0.5318
 2312TIP3    H2 6943   1.941   2.545   0.374 -0.5034  1.9514 -0.6762
 2313TIP3   OH2 6944   5.274   5.760   4.751  0.5339  0.3144  0.2746
 2313TIP3    H1 6945   5.229   5.804   4.823  0.8065 -0.4229  0.9084
 2313TIP3    H2 6946   5.350   5.720   4.792  1.4306  1.0038 -0.6662
 2314TIP3   OH2 6947   1.166   2.074   0.851 -0.4169  0.0861 -0.3601
 2314TIP3    H1 6948   1.094   2.132   0.879  0.6752  0.9806  0.7518
 2314TIP3    H2 6949   1.178   2.014   0.925 -0.3462 -0.3847 -0.7508
 2315TIP3   OH2 6950   4.230   4.147   0.608 -0.4655 -0.1952 -0.2515
 2315TIP3    H1 6951   4.179   4.137   0.689 -1.0588 -0.0438 -0.6039
 2315TIP3    H2 6952   4.182   4.097   0.543  0.3748 -0.8842 -0.3700
 2316TIP3   OH2 6953   2.222   3.334   0.940  0.1732  0.3592 -0.0495
 2316TIP3    H1 6954   2.139   3.377   0.960  0.1972  0.6889 -0.6502
 2316TIP3    H2 6955   2.279   3.356   1.013 -0.7735 -1.3130  1.2870
 2317TIP3   OH2 6956   4.770   3.321   0.004 -0.4365  0.0495  0.0069
 2317TIP3    H1 6957   4.769   3.235   0.046 -0.7245  0.1827  0.2774
 2317TIP3    H2 6958   4.851   3.321  -0.048 -0.3188 -0.2972  0.1822
 2318TIP3   OH2 6959   5.637   5.958   0.446 -0.1117  0.3320 -0.0686
 2318TIP3    H1 6960   5.684   5.927   0.522 -0.4625 -0.8920 -0.3332
 2318TIP3    H2 6961   5.686   6.035   0.416 -1.2766  2.3594  2.7681
 2319TIP3   OH2 6962   4.383   2.307   3.336  0.5988  0.5387 -0.1669
 2319TIP3    H1 6963   4.409   2.226   3.293  0.7584 -0.1447  1.1614
 2319TIP3    H2 6964   4.336   2.356   3.269  0.9894 -0.4029 -1.1514
 2320TIP3   OH2 6965   1.429   2.874   1.105  0.5243 -0.3565  0.1558
 2320TIP3    H1 6966   1.464   2.795   1.064  1.7518  0.5400 -0.6113
 2320TIP3    H2 6967   1.334   2.866   1.096  0.7009 -0.8941 -1.5684
 2321TIP3   OH2 6968   4.692   0.334   5.138 -0.0973 -0.0604  0.5015
 2321TIP3    H1 6969   4.770   0.282   5.119  0.0184 -0.2177  1.3638
 2321TIP3    H2 6970   4.696   0.406   5.075  0.2627 -0.5553 -0.0578
 2322TIP3   OH2 6971   0.968   3.816   0.208  0.3739 -0.1601 -0.1394
 2322TIP3    H1 6972   0.904   3.744   0.206  2.0835 -1.7526  0.2805
 2322TIP3    H2 6973   1.016   3.804   0.289 -0.2156  2.3807  0.6897
 2323TIP3   OH2 6974   5.401   5.273   4.902  0.2967 -0.5461  0.1830
 2323TIP3    H1 6975   5.442   5.357   4.924 -0.9154  0.0695  0.1264
 2323TIP3    H2 6976   5.381   5.233   4.987 -2.8317  1.0742  0.3389
 2324TIP3   OH2 6977   6.220   3.093   4.319 -0.0983 -0.8202 -0.0389
 2324TIP3    H1 6978   6.233   3.070   4.227  0.3990 -0.1409 -0.1460
 2324TIP3    H2 6979   6.292   3.051   4.365 -0.5334 -1.4364  0.0940
 2325TIP3   OH2 6980   0.608   4.967   2.631  0.3192  0.3065  0.4482
 2325TIP3    H1 6981   0.568   4.950   2.546  1.6121 -0.6098 -0.0046
 2325TIP3    H2 6982   0.651   4.885   2.655  3.8078  1.7811 -0.1618
 2326TIP3   OH2 6983   0.249   2.608   0.783 -0.2312  0.5468 -0.2508
 2326TIP3    H1 6984   0.198   2.685   0.757 -0.8108 -0.2141 -1.4740
 2326TIP3    H2 6985   0.205   2.575   0.861  0.7123  2.0997  0.9744
 2327TIP3   OH2 6986   4.325   4.100   3.707  0.9304 -0.1757  0.0804
 2327TIP3    H1 6987   4.362   4.012   3.714  0.4021 -0.3458  0.7328
 2327TIP3    H2 6988   4.308   4.126   3.797  1.0822  0.5997 -0.1092
 2328TIP3   OH2 6989   0.147   3.932   2.266 -0.2469 -0.1878 -0.0411
 2328TIP3    H1 6990   0.058   3.932   2.232  0.6561  0.7856 -2.6599
 2328TIP3    H2 6991   0.169   4.025   2.274  0.4162 -0.4197  0.9937
 2329TIP3   OH2 6992   6.179   2.846   2.794 -0.2782  0.3601 -0.2413
 2329TIP3    H1 6993   6.161   2.938   2.811  1.0584  0.1746  2.6614
 2329TIP3    H2 6994   6.094   2.803   2.805 -0.7480  1.1225 -0.8019
 2330TIP3   OH2 6995   4.121   5.507   0.122  0.2829  0.2996 -0.3417
 2330TIP3    H1 6996   4.199   5.474   0.077  0.3712 -0.5656  0.4107
 2330TIP3    H2 6997   4.146   5.513   0.214 -0.6140 -0.2781 -0.0386
 2331TIP3   OH2 6998   3.781   0.050   4.013 -0.7070 -0.3650  0.0111
 2331TIP3    H1 6999   3.744  -0.035   3.989  1.5908 -2.0538  1.9723
 2331TIP3    H2 7000   3.868   0.030   4.049  0.1201  2.8677  0.1896
 2332TIP3   OH2 7001   5.857   2.966   0.004  0.2307 -0.1540 -0.3751
 2332TIP3    H1 7002   5.825   2.946   0.092 -1.5304 -0.3881 -1.0222
 2332TIP3    H2 7003   5.939   3.013   0.018 -1.1217  1.8167  1.4637
 2333TIP3   OH2 7004   2.180   4.096   2.302  0.1675  0.3065 -0.5951
 2333TIP3    H1 7005   2.217   4.015   2.267  0.1938  0.3832 -0.7441
 2333TIP3    H2 7006   2.185   4.158   2.229 -0.5588  0.2199 -0.7262
 2334TIP3   OH2 7007   3.950   1.072   2.558  0.2733  0.1291 -0.2744
 2334TIP3    H1 7008   4.028   1.120   2.583  1.9554 -0.9876 -2.9301
 2334TIP3    H2 7009   3.920   1.114   2.477  0.3582 -1.6774 -1.3071
 2335TIP3   OH2 7010   5.406   5.621   3.430 -0.0367 -0.2425 -0.2208
 2335TIP3    H1 7011   5.343   5.548   3.435 -2.7602  1.9874  0.9065
 2335TIP3    H2 7012   5.408   5.644   3.337 -1.1789 -0.1899 -0.2539
 2336TIP3   OH2 7013   5.238   4.846   3.802  0.3125 -0.1302  0.4562
 2336TIP3    H1 7014   5.191   4.929   3.812  0.1638 -0.2112  0.4466
 2336TIP3    H2 7015   5.232   4.805   3.888 -0.4479 -0.5608  0.2161
 2337TIP3   OH2 7016   5.747   1.021   3.724 -0.1798 -0.4544  0.0765
 2337TIP3    H1 7017   5.820   1.035   3.664 -0.2730 -3.0142 -0.7294
 2337TIP3    H2 7018   5.673   0.997   3.667 -1.1652  0.2608  1.0120
 2338TIP3   OH2 7019   1.865   5.352   3.216 -0.0739 -1.0436  0.1793
 2338TIP3    H1 7020   1.894   5.395   3.297  0.4574 -1.1426  0.0491
 2338TIP3    H2 7021   1.902   5.264   3.221 -0.7770 -1.3403  0.2344
 2339TIP3   OH2 7022   5.921   2.190   2.487  0.1561  0.4023 -0.0531
 2339TIP3    H1 7023   5.893   2.186   2.396  0.4336  0.6425 -0.1477
 2339TIP3    H2 7024   5.902   2.103   2.522  0.4937  0.1623 -0.4681
 2340TIP3   OH2 7025   3.514   3.719   0.441  0.1050 -0.8326 -0.1910
 2340TIP3    H1 7026   3.534   3.780   0.370  0.2790  1.8569  2.0208
 2340TIP3    H2 7027   3.597   3.705   0.486 -0.7322  1.3388  2.2436
 2341TIP3   OH2 7028   3.580   2.765   2.817  0.0963  0.0413 -0.3113
 2341TIP3    H1 7029   3.584   2.823   2.740 -0.9049  0.4987 -0.0469
 2341TIP3    H2 7030   3.658   2.711   2.811 -0.5668 -0.7773 -2.3436
 2342TIP3   OH2 7031   3.426   4.004   1.138  0.6536  0.2970 -0.4677
 2342TIP3    H1 7032   3.400   3.930   1.192  3.2193 -0.3065  0.0840
 2342TIP3    H2 7033   3.419   3.973   1.048  1.2041 -0.4375 -0.2591
 2343TIP3   OH2 7034   5.533   1.091   3.920  0.5141 -0.2430  0.0113
 2343TIP3    H1 7035   5.605   1.034   3.893  0.6958 -0.1081  0.2010
 2343TIP3    H2 7036   5.524   1.075   4.014  0.3618 -0.1847  0.0069
 2344TIP3   OH2 7037   2.567   0.094   2.646  0.4158  0.0730 -0.0220
 2344TIP3    H1 7038   2.591   0.005   2.622  0.7185  0.5833 -1.7993
 2344TIP3    H2 7039   2.638   0.148   2.612 -0.2572  1.0740  0.1247
 2345TIP3   OH2 7040   4.102   2.648   0.411  0.4541  0.1230 -0.4556
 2345TIP3    H1 7041   4.086   2.725   0.357  0.1599  0.4091  0.0411
 2345TIP3    H2 7042   4.024   2.639   0.465  1.2486  0.5575  0.8046
 2346TIP3   OH2 7043   5.654   3.053   4.218  0.0956  0.1790 -0.6262
 2346TIP3    H1 7044   5.585   3.115   4.244  1.9820  2.2546 -0.3080
 2346TIP3    H2 7045   5.626   2.969   4.256 -1.8300  1.1132  0.1784
 2347TIP3   OH2 7046   2.177   1.085   2.042  0.4158  0.4677  0.2450
 2347TIP3    H1 7047   2.192   1.060   1.951 -0.9230 -1.5312  0.5039
 2347TIP3    H2 7048   2.254   1.053   2.089 -0.2778 -1.3561  0.2266
 2348TIP3   OH2 7049   2.251   3.809   2.138 -0.3303 -0.5144  0.6425
 2348TIP3    H1 7050   2.284   3.793   2.226 -1.7122  0.1133  1.3046
 2348TIP3    H2 7051   2.320   3.860   2.095 -0.3701  0.6822  1.9316
 2349TIP3   OH2 7052   0.537   5.803   2.211 -0.2463 -0.9161  0.4550
 2349TIP3    H1 7053   0.505   5.732   2.155 -0.0915 -0.5196 -0.1401
 2349TIP3    H2 7054   0.510   5.883   2.166 -0.8962 -0.5858  1.3957
 2350TIP3   OH2 7055   5.492   3.711   1.215 -0.1378 -0.0275 -0.1881
 2350TIP3    H1 7056   5.484   3.769   1.140 -0.9517  0.0542 -0.0501
 2350TIP3    H2 7057   5.578   3.730   1.252  0.4822 -0.4153 -1.3790
 2351TIP3   OH2 7058   6.193   2.766   3.688 -0.2518  0.7488 -0.2764
 2351TIP3    H1 7059   6.231   2.772   3.775  0.5436  1.6109 -0.6676
 2351TIP3    H2 7060   6.099   2.779   3.702 -0.4602 -1.4271  0.6962
 2352TIP3   OH2 7061   1.838   0.738   2.408 -0.3348  0.2698  0.4635
 2352TIP3    H1 7062   1.829   0.720   2.502  1.4055  0.6325  0.7375
 2352TIP3    H2 7063   1.827   0.833   2.401 -0.9594  0.1841  0.2174
 2353TIP3   OH2 7064   2.932   4.581   4.314 -0.4272 -0.0384  0.2893
 2353TIP3    H1 7065   2.998   4.630   4.266 -0.3036 -1.1059 -0.6564
 2353TIP3    H2 7066   2.919   4.631   4.395 -0.5726  1.7365 -0.7873
 2354TIP3   OH2 7067   1.223   4.297   0.603  0.3672  0.5000 -0.3556
 2354TIP3    H1 7068   1.257   4.312   0.691  0.7994  1.0886 -0.6151
 2354TIP3    H2 7069   1.156   4.230   0.614  2.5281 -1.7757 -0.0145
 2355TIP3   OH2 7070   3.319   1.906   1.521 -0.2191 -0.0434 -0.1758
 2355TIP3    H1 7071   3.337   1.849   1.446 -3.6623 -0.6926 -0.7036
 2355TIP3    H2 7072   3.302   1.846   1.593 -0.7844  0.4168  0.0863
 2356TIP3   OH2 7073   4.442   4.564   1.249  0.3927  0.1062 -0.0130
 2356TIP3    H1 7074   4.402   4.633   1.301 -0.9921 -1.7749  1.5671
 2356TIP3    H2 7075   4.456   4.604   1.163 -3.9786  1.2964 -0.4211
 2357TIP3   OH2 7076   2.212   4.826   1.896 -0.0298  0.5600  0.3437
 2357TIP3    H1 7077   2.215   4.850   1.988  1.2601 -0.6074  0.6258
 2357TIP3    H2 7078   2.304   4.826   1.868 -0.4236  1.2285 -1.0412
 2358TIP3   OH2 7079   1.432   3.090   0.913 -0.1692  0.2456  0.3856
 2358TIP3    H1 7080   1.398   3.162   0.966 -0.4520 -0.5327  1.2743
 2358TIP3    H2 7081   1.465   3.026   0.976  0.0820 -0.4112 -0.3899
 2359TIP3   OH2 7082   4.403   1.003   2.359 -0.1315  0.3464  0.2381
 2359TIP3    H1 7083   4.395   0.935   2.426 -0.8278  1.1001  0.9414
 2359TIP3    H2 7084   4.480   1.053   2.384 -0.0322  0.2534  0.1207
 2360TIP3   OH2 7085   4.981   5.231   0.974  0.0858  0.2500 -0.5861
 2360TIP3    H1 7086   4.907   5.284   1.003 -1.9280 -2.9704  0.7060
 2360TIP3    H2 7087   5.027   5.206   1.054 -0.3966 -1.7328 -0.8758
 2361TIP3   OH2 7088   3.304   5.730   2.097  0.1227 -0.4265  0.5397
 2361TIP3    H1 7089   3.266   5.732   2.184  1.4515  1.2709  1.1429
 2361TIP3    H2 7090   3.394   5.700   2.111 -0.0171 -1.3661 -0.4355
 2362TIP3   OH2 7091   0.570   1.092   0.683 -0.1009 -0.0278  0.1558
 2362TIP3    H1 7092   0.573   1.096   0.779  0.2673 -0.0387  0.1430
 2362TIP3    H2 7093   0.508   1.160   0.658  0.3120  0.4228  0.3614
 2363TIP3   OH2 7094   4.327   2.202   1.677 -0.2979 -0.0640  0.5058
 2363TIP3    H1 7095   4.320   2.266   1.748  0.1595  0.2792  0.2479
 2363TIP3    H2 7096   4.263   2.135   1.699  1.1328 -0.9400  2.2351
 2364TIP3   OH2 7097   4.399   4.632   4.210 -0.3954  0.0223 -0.3975
 2364TIP3    H1 7098   4.465   4.598   4.270 -0.3709  0.0713 -0.3963
 2364TIP3    H2 7099   4.391   4.566   4.142 -1.6044 -0.8176  0.5172
 2365TIP3   OH2 7100   5.368   4.679   4.685 -0.0606  0.3937  0.4511
 2365TIP3    H1 7101   5.456   4.648   4.664 -0.2954  0.6857 -1.1057
 2365TIP3    H2 7102   5.359   4.761   4.637 -1.5134 -0.1276 -0.2342
 2366TIP3   OH2 7103   3.284   3.926   2.435  0.0185 -0.0924  0.3276
 2366TIP3    H1 7104   3.247   3.977   2.507  0.8309 -0.8705  1.3190
 2366TIP3    H2 7105   3.294   3.838   2.470  0.8857 -0.3712 -0.5829
 2367TIP3   OH2 7106   3.145   0.157   1.445 -0.2114 -0.1964 -0.1487
 2367TIP3    H1 7107   3.154   0.175   1.352  0.2498  0.0061 -0.0688
 2367TIP3    H2 7108   3.202   0.222   1.488 -1.4879  0.6345  0.3514
 2368TIP3   OH2 7109   3.425   4.150   0.479 -0.2281 -0.0331  0.0148
 2368TIP3    H1 7110   3.346   4.169   0.429  1.0641  1.6427 -1.5311
 2368TIP3    H2 7111   3.404   4.071   0.528 -3.1787  0.9207  0.4604
 2369TIP3   OH2 7112   1.048   4.644   4.140  0.0411  0.2891 -0.0909
 2369TIP3    H1 7113   1.092   4.614   4.061  1.6620  0.4153  0.7184
 2369TIP3    H2 7114   1.118   4.685   4.192 -1.1336  0.9065  1.0523
 2370TIP3   OH2 7115   1.818   0.799   3.541 -0.1028  0.3572  0.3607
 2370TIP3    H1 7116   1.741   0.796   3.485 -0.3183  1.4744  0.5841
 2370TIP3    H2 7117   1.789   0.841   3.621  1.1564  2.6015 -0.2786
 2371TIP3   OH2 7118   4.718   2.652   3.247 -0.0081  0.0254 -0.1682
 2371TIP3    H1 7119   4.786   2.719   3.240 -0.9956  1.1531  0.5486
 2371TIP3    H2 7120   4.642   2.699   3.281 -1.1474 -1.2045 -0.9190
 2372TIP3   OH2 7121   5.094   5.250   0.139  0.0183 -0.2099  0.3497
 2372TIP3    H1 7122   5.049   5.331   0.118 -0.1716  0.2284  2.3011
 2372TIP3    H2 7123   5.058   5.186   0.077 -0.2273  1.0384 -0.8485
 2373TIP3   OH2 7124   2.313   5.518   1.979 -0.0857 -0.1500  0.4013
 2373TIP3    H1 7125   2.265   5.467   2.046 -0.6647  0.7994  0.7254
 2373TIP3    H2 7126   2.393   5.545   2.024 -0.0406 -0.2906  0.4087
 2374TIP3   OH2 7127   0.183   1.536   2.625 -0.4597  0.0550 -0.1085
 2374TIP3    H1 7128   0.088   1.532   2.627 -0.4723 -1.4229 -1.3261
 2374TIP3    H2 7129   0.210   1.444   2.613  1.1619  0.2988  1.3041
 2375TIP3   OH2 7130   4.729   0.503   4.906  0.2831 -0.4490  0.3569
 2375TIP3    H1 7131   4.796   0.571   4.921 -0.0947 -0.2293  1.1114
 2375TIP3    H2 7132   4.722   0.497   4.811  1.9843 -1.0810  0.2292
 2376TIP3   OH2 7133   0.059   3.129   0.583  0.3272 -0.3583 -0.1461
 2376TIP3    H1 7134   0.039   3.038   0.608  2.6249 -0.9212 -0.1627
 2376TIP3    H2 7135   0.078   3.125   0.490  0.7799  0.0746 -0.0778
 2377TIP3   OH2 7136   4.291   5.754   4.760 -0.2392 -0.1226 -0.3975
 2377TIP3    H1 7137   4.372   5.705   4.773 -0.9099 -0.8830  1.3137
 2377TIP3    H2 7138   4.288   5.815   4.834 -0.6879  0.7054 -1.0722
 2378TIP3   OH2 7139   3.769   3.680   0.524  0.2090 -0.1633  0.0942
 2378TIP3    H1 7140   3.774   3.640   0.611 -1.5038 -0.2250  0.1923
 2378TIP3    H2 7141   3.764   3.774   0.541 -0.1872 -0.1787  0.0778
 2379TIP3   OH2 7142   0.678   3.363   1.677 -0.0511  0.1886  0.1444
 2379TIP3    H1 7143   0.772   3.349   1.687 -0.2782 -2.6339 -0.8446
 2379TIP3    H2 7144   0.670   3.453   1.645  2.2225  0.7695  1.0476
 2380TIP3   OH2 7145   4.651   2.759   2.093  0.7636  0.0671  0.6016
 2380TIP3    H1 7146   4.583   2.826   2.103  1.1819  0.5680  0.1126
 2380TIP3    H2 7147   4.680   2.767   2.003  0.8794 -0.7258  0.5594
 2381TIP3   OH2 7148   3.074   1.293   2.929 -0.4320  0.5646  0.2819
 2381TIP3    H1 7149   3.082   1.215   2.984  0.6315  0.6620  0.2807
 2381TIP3    H2 7150   3.161   1.334   2.932 -1.0559  1.9166  0.5187
 2382TIP3   OH2 7151   4.018   5.215   4.608  0.4248 -0.1124  0.0267
 2382TIP3    H1 7152   4.000   5.138   4.554  1.2003  0.0238 -0.4390
 2382TIP3    H2 7153   3.941   5.270   4.597  1.0988  0.5110 -2.0301
 2383TIP3   OH2 7154   0.422   4.528   2.371 -0.1924 -0.3511 -0.2374
 2383TIP3    H1 7155   0.441   4.611   2.415 -1.6071  0.2028 -0.6023
 2383TIP3    H2 7156   0.406   4.552   2.280 -0.6679 -1.0094 -0.3372
 2384TIP3   OH2 7157   2.449   1.177   0.324 -0.0473 -0.4153  0.2537
 2384TIP3    H1 7158   2.448   1.090   0.283  0.0078 -0.1889 -0.2385
 2384TIP3    H2 7159   2.493   1.233   0.260  0.2735 -0.1071  0.7421
 2385TIP3   OH2 7160   3.140   1.624   2.275 -0.5615 -0.1961 -0.4855
 2385TIP3    H1 7161   3.178   1.565   2.340  2.5627  0.5346 -1.4827
 2385TIP3    H2 7162   3.144   1.711   2.316 -0.4051  0.0030 -0.9131
 2386TIP3   OH2 7163   5.927   1.539   4.459  0.4284  0.1287 -0.0362
 2386TIP3    H1 7164   5.915   1.586   4.542  0.1916 -0.5053  0.2973
 2386TIP3    H2 7165   5.918   1.447   4.483 -0.0369 -0.0382 -0.8401
 2387TIP3   OH2 7166   5.927   4.788   0.850  0.6359 -0.5207 -0.2042
 2387TIP3    H1 7167   5.929   4.763   0.943  3.0552  0.0708 -0.0374
 2387TIP3    H2 7168   5.931   4.883   0.851  0.2250 -0.4971 -0.9178
 2388TIP3   OH2 7169   1.719   4.654   2.978  0.7254  0.6928  0.0120
 2388TIP3    H1 7170   1.677   4.630   3.061  1.9072 -1.6449  0.0337
 2388TIP3    H2 7171   1.772   4.731   3.000  2.4623 -0.9082  2.0351
 2389TIP3   OH2 7172   5.010   5.641   1.234 -0.0070  0.6770  0.0209
 2389TIP3    H1 7173   5.049   5.668   1.317 -0.3944  1.2613  0.0262
 2389TIP3    H2 7174   4.990   5.724   1.189 -0.9743  0.3999 -0.0932
 2390TIP3   OH2 7175   0.087   3.546   0.385 -0.2311 -0.2531  0.3530
 2390TIP3    H1 7176   0.107   3.553   0.291  0.7650  1.7407  0.6492
 2390TIP3    H2 7177   0.001   3.506   0.388  0.0817 -1.1843 -1.3779
 2391TIP3   OH2 7178   3.757   4.591   2.158  0.4687  0.5122 -0.2563
 2391TIP3    H1 7179   3.851   4.581   2.140  0.7014 -0.4826  1.3586
 2391TIP3    H2 7180   3.753   4.664   2.219  0.2813  0.0512  0.2900
 2392TIP3   OH2 7181   5.627   5.286   1.119 -0.1419 -0.1443  0.8173
 2392TIP3    H1 7182   5.629   5.203   1.071  0.4771  0.4094 -0.1278
 2392TIP3    H2 7183   5.699   5.337   1.084 -1.3100  1.3286  0.4319
 2393TIP3   OH2 7184   3.038   3.186   3.352  0.0998  0.0148 -0.3101
 2393TIP3    H1 7185   3.104   3.244   3.315 -1.4072  1.6791 -0.5373
 2393TIP3    H2 7186   2.973   3.176   3.282  0.0506 -1.5355 -0.0842
 2394TIP3   OH2 7187   3.253   0.141   2.323 -0.1737  0.0860 -0.2450
 2394TIP3    H1 7188   3.247   0.045   2.320 -0.4195  0.0769  0.4574
 2394TIP3    H2 7189   3.169   0.171   2.286  0.6523  0.0700 -2.3000
 2395TIP3   OH2 7190   2.187   1.803   1.238  0.2183  0.0648  0.5262
 2395TIP3    H1 7191   2.256   1.736   1.240 -0.7500 -0.9860 -0.0290
 2395TIP3    H2 7192   2.201   1.854   1.318 -0.3943 -2.2830  2.2810
 2396TIP3   OH2 7193   3.967   3.410   0.618  0.8006 -0.4157 -0.3291
 2396TIP3    H1 7194   3.954   3.455   0.534  0.1950  0.0648  0.0139
 2396TIP3    H2 7195   4.005   3.326   0.594 -1.1112 -1.0651 -1.2452
 2397TIP3   OH2 7196   2.504   2.858   0.987  0.4643  0.0124  0.5500
 2397TIP3    H1 7197   2.436   2.842   0.922  0.9489  2.2277 -0.5912
 2397TIP3    H2 7198   2.458   2.896   1.062  0.0553 -1.5654  1.1460
 2398TIP3   OH2 7199   1.897   0.382   2.080 -0.2681  0.0396 -0.5994
 2398TIP3    H1 7200   1.819   0.386   2.135 -0.8285 -0.7655 -1.3251
 2398TIP3    H2 7201   1.962   0.436   2.127 -0.9606 -0.0278  0.4638
 2399TIP3   OH2 7202   0.856   2.298   2.165  0.3645  0.4361  0.1470
 2399TIP3    H1 7203   0.945   2.294   2.202  0.6595 -0.9864 -0.6361
 2399TIP3    H2 7204   0.799   2.280   2.240  0.7730  0.6897  0.5262
 2400TIP3   OH2 7205   1.052   4.652   1.725 -0.5014 -0.3315  0.0886
 2400TIP3    H1 7206   1.011   4.581   1.776  1.6017 -0.3299  1.9202
 2400TIP3    H2 7207   0.985   4.720   1.722 -1.6345 -1.3803  0.5869
 2401TIP3   OH2 7208   5.536   3.820   4.449  0.2699  0.0283  0.2114
 2401TIP3    H1 7209   5.608   3.866   4.405  0.6389 -0.7668 -0.0443
 2401TIP3    H2 7210   5.482   3.889   4.486  0.9416  0.6537  0.0438
 2402TIP3   OH2 7211   3.517   5.384   4.256  0.2015 -0.0612 -0.0113
 2402TIP3    H1 7212   3.534   5.292   4.277  1.7436 -0.0241 -0.9472
 2402TIP3    H2 7213   3.432   5.402   4.296 -0.6293 -2.1766 -0.6858
 2403TIP3   OH2 7214   2.065   5.293   1.668  0.2779 -0.6482 -0.3694
 2403TIP3    H1 7215   2.119   5.226   1.710 -1.4736 -0.2661  2.8129
 2403TIP3    H2 7216   1.983   5.248   1.646  0.1180 -0.1832 -0.7414
 2404TIP3   OH2 7217   1.065   0.712   4.372 -0.1654  0.6384 -0.1164
 2404TIP3    H1 7218   1.124   0.700   4.447 -0.2424 -2.4647 -0.4498
 2404TIP3    H2 7219   0.981   0.733   4.412 -0.1551 -0.7588  0.6869
 2405TIP3   OH2 7220   3.107   2.290   3.051 -0.2835 -0.2431  0.5441
 2405TIP3    H1 7221   3.013   2.309   3.047 -0.1481  0.4987  0.7966
 2405TIP3    H2 7222   3.133   2.279   2.960 -0.2645  1.3494  0.3289
 2406TIP3   OH2 7223   2.910   2.220   4.170  0.1228  0.4752  0.0638
 2406TIP3    H1 7224   2.941   2.161   4.239  1.2203 -0.6820 -1.3424
 2406TIP3    H2 7225   2.816   2.228   4.186 -0.0827 -1.6834  0.3241
 2407TIP3   OH2 7226   3.603   1.496  -0.022  0.5978 -0.2784 -0.1789
 2407TIP3    H1 7227   3.543   1.439   0.026  0.0458  1.6325  1.5224
 2407TIP3    H2 7228   3.648   1.546   0.045  1.9026  0.4893 -1.5693
 2408TIP3   OH2 7229   4.066   2.097   2.282  0.0018 -0.0592 -0.2649
 2408TIP3    H1 7230   4.145   2.080   2.230 -0.3168  0.0717 -0.8006
 2408TIP3    H2 7231   4.003   2.030   2.252 -0.5939  0.7831 -0.9416
 2409TIP3   OH2 7232   6.071   4.638   4.618 -0.6540 -0.3325  0.3183
 2409TIP3    H1 7233   6.028   4.714   4.579  0.6939  0.3264  0.0624
 2409TIP3    H2 7234   6.101   4.587   4.543 -0.7708 -0.6682  0.4965
 2410TIP3   OH2 7235   6.179   3.160   3.572 -0.1907 -0.2702  0.7764
 2410TIP3    H1 7236   6.241   3.211   3.624 -2.0154  3.2330 -0.1812
 2410TIP3    H2 7237   6.233   3.094   3.528  3.0115  2.8023 -0.3348
 2411TIP3   OH2 7238   6.025   1.557   1.197  0.3878  0.1620  0.3866
 2411TIP3    H1 7239   6.102   1.506   1.223  2.9214  2.4485 -1.9811
 2411TIP3    H2 7240   6.043   1.646   1.228  0.0396  1.3143 -2.4313
 2412TIP3   OH2 7241   6.046   0.272   5.143 -0.6486 -0.0571  0.0382
 2412TIP3    H1 7242   6.022   0.352   5.189  2.2539  0.3776  1.0379
 2412TIP3    H2 7243   5.994   0.203   5.185  0.9956  0.5062  3.3311
 2413TIP3   OH2 7244   0.782   2.511   2.513 -0.5402  0.0494  0.5603
 2413TIP3    H1 7245   0.765   2.596   2.473  0.4075 -0.0275 -0.0251
 2413TIP3    H2 7246   0.821   2.531   2.597  1.0962  0.2151 -0.2023
 2414TIP3   OH2 7247   4.449   4.019   4.661 -0.1002  0.0297  0.2422
 2414TIP3    H1 7248   4.542   4.042   4.661 -0.0595 -0.1349  0.5401
 2414TIP3    H2 7249   4.436   3.975   4.577  0.1740 -0.2750  0.3561
 2415TIP3   OH2 7250   4.406   3.697   1.117 -1.2011 -0.9655 -0.1232
 2415TIP3    H1 7251   4.344   3.762   1.083  0.6554  0.6492 -0.6357
 2415TIP3    H2 7252   4.386   3.617   1.069 -2.1572 -0.1954 -1.0699
 2416TIP3   OH2 7253   1.853   3.755   3.486  0.0795 -0.7521 -0.2416
 2416TIP3    H1 7254   1.905   3.676   3.470 -0.3130 -0.7322 -1.8303
 2416TIP3    H2 7255   1.919   3.823   3.500  0.4191 -1.4181  1.6856
 2417TIP3   OH2 7256   3.129   4.093   2.969 -0.4182  0.1173 -0.0909
 2417TIP3    H1 7257   3.117   3.999   2.984 -1.0420  0.3403  0.9055
 2417TIP3    H2 7258   3.040   4.127   2.961 -0.3342  1.0134  2.1831
 2418TIP3   OH2 7259   3.112   5.606   0.104  0.1152 -0.8323  0.6829
 2418TIP3    H1 7260   3.042   5.541   0.110 -0.3155 -0.4721 -0.2580
 2418TIP3    H2 7261   3.190   5.554   0.079 -0.7534 -0.7585 -2.6504
 2419TIP3   OH2 7262   4.033   1.471   2.507 -0.8859 -0.5161 -0.1750
 2419TIP3    H1 7263   4.111   1.418   2.493 -1.3484 -2.1500  2.5553
 2419TIP3    H2 7264   4.026   1.526   2.429  2.2702 -1.1617 -1.0476
 2420TIP3   OH2 7265   1.122   2.884   3.082 -0.4733 -0.5432  0.3012
 2420TIP3    H1 7266   1.127   2.849   2.994  0.9673 -2.1445  0.9708
 2420TIP3    H2 7267   1.203   2.934   3.093 -0.3406 -0.8818  0.9175
 2421TIP3   OH2 7268   0.366   4.856   1.606 -0.2820  0.3469  0.2638
 2421TIP3    H1 7269   0.319   4.864   1.689 -2.0367 -0.0044 -0.6559
 2421TIP3    H2 7270   0.349   4.938   1.561 -2.2055 -0.7413 -1.1310
 2422TIP3   OH2 7271   3.601   3.518   5.031 -0.4407  0.3538  0.2895
 2422TIP3    H1 7272   3.617   3.605   4.996 -1.1512 -0.1002 -1.2678
 2422TIP3    H2 7273   3.531   3.529   5.094 -2.9634  0.5074 -2.3471
 2423TIP3   OH2 7274   4.039   5.012   4.424 -0.5438  0.1840 -0.3874
 2423TIP3    H1 7275   3.989   4.941   4.384 -0.7605 -0.6936  1.3391
 2423TIP3    H2 7276   4.128   4.977   4.434 -1.3461 -1.2254  3.4285
 2424TIP3   OH2 7277   2.975   3.074   3.920 -0.2810 -0.0998 -0.0059
 2424TIP3    H1 7278   2.971   3.154   3.971  3.2326  0.2515 -0.0030
 2424TIP3    H2 7279   3.005   3.102   3.834 -0.5244 -1.2573 -0.4816
 2425TIP3   OH2 7280   3.870   5.384   5.146  0.0117  0.0338 -0.2442
 2425TIP3    H1 7281   3.856   5.449   5.077  0.8601 -0.0174 -0.4640
 2425TIP3    H2 7282   3.962   5.360   5.139 -0.5906 -2.2691 -1.0738
 2426TIP3   OH2 7283   2.496   3.253   1.918 -0.2548 -0.0225 -0.1829
 2426TIP3    H1 7284   2.405   3.284   1.917  0.2475  1.5570 -0.9151
 2426TIP3    H2 7285   2.513   3.228   2.008 -0.6466  2.1852  0.5580
 2427TIP3   OH2 7286   3.515   5.507   1.550 -0.1583  0.1680 -0.3499
 2427TIP3    H1 7287   3.423   5.510   1.524 -0.5358  0.9126  0.9431
 2427TIP3    H2 7288   3.563   5.537   1.473 -1.0065 -0.0383 -0.9759
 2428TIP3   OH2 7289   6.198   1.048   1.972  0.6295 -0.0796 -0.3115
 2428TIP3    H1 7290   6.144   1.118   1.935  0.9333 -0.9368 -2.5068
 2428TIP3    H2 7291   6.211   1.074   2.063 -1.9220  1.0859 -0.1919
 2429TIP3   OH2 7292   0.936   3.689   1.160  0.6218  0.2678  0.0835
 2429TIP3    H1 7293   0.901   3.754   1.221  0.7873  0.8526 -0.4343
 2429TIP3    H2 7294   0.985   3.740   1.095 -1.1345 -0.1519 -1.6642
 2430TIP3   OH2 7295   1.226   0.947   1.465 -0.2555 -0.1424 -0.3297
 2430TIP3    H1 7296   1.308   0.955   1.416 -1.2574  0.5342 -1.9619
 2430TIP3    H2 7297   1.225   1.025   1.522  1.4688 -1.5297  1.7632
 2431TIP3   OH2 7298   3.746   3.887   4.209 -0.0421  0.1779  0.0017
 2431TIP3    H1 7299   3.653   3.899   4.191 -0.1355 -1.0507 -0.4144
 2431TIP3    H2 7300   3.779   3.976   4.221 -1.3207  0.6164  0.4732
 2432TIP3   OH2 7301   5.610   4.487   2.768  0.1274  0.4724 -0.0063
 2432TIP3    H1 7302   5.705   4.475   2.768 -0.0170 -0.9117 -0.3857
 2432TIP3    H2 7303   5.587   4.493   2.675 -0.1623  0.7667  0.0830
 2433TIP3   OH2 7304   5.779   0.196   3.833  0.4235  0.1617  0.3479
 2433TIP3    H1 7305   5.780   0.291   3.821  1.3474  0.0990 -0.1765
 2433TIP3    H2 7306   5.736   0.162   3.754 -0.1759  0.1611  0.6749
 2434TIP3   OH2 7307   4.778   3.672   1.485 -0.0185  0.1600 -0.2777
 2434TIP3    H1 7308   4.786   3.756   1.439 -0.7548 -0.1653 -1.0224
 2434TIP3    H2 7309   4.868   3.646   1.504  0.4054 -0.2698 -2.5923
 2435TIP3   OH2 7310   0.813   1.237   0.888 -0.3235  0.2692  0.0055
 2435TIP3    H1 7311   0.809   1.197   0.974 -2.1728 -1.7905 -0.9378
 2435TIP3    H2 7312   0.770   1.322   0.899 -0.3378  0.1290  1.1462
 2436TIP3   OH2 7313   3.108   1.890   3.052 -0.2039 -0.0733  0.1064
 2436TIP3    H1 7314   3.027   1.921   3.094 -0.9474 -1.0502 -0.5528
 2436TIP3    H2 7315   3.081   1.868   2.963  0.9906  0.3876 -0.3906
 2437TIP3   OH2 7316   3.353   1.698   0.158  0.0667 -0.2069 -0.3249
 2437TIP3    H1 7317   3.330   1.729   0.245  0.8148 -0.2339 -0.1102
 2437TIP3    H2 7318   3.422   1.758   0.129  0.7131 -0.9695 -0.3751
 2438TIP3   OH2 7319   5.000   0.115   4.712  0.2641 -0.5148  0.3284
 2438TIP3    H1 7320   4.916   0.072   4.703  0.3679 -0.4778 -1.1926
 2438TIP3    H2 7321   5.061   0.060   4.663  0.4387  1.1333 -1.4811
 2439TIP3   OH2 7322   0.210   5.899   2.800 -0.1324  0.1773  0.3226
 2439TIP3    H1 7323   0.128   5.855   2.823  0.8774 -1.5652  0.8032
 2439TIP3    H2 7324   0.276   5.857   2.856  1.6026 -0.7159 -2.2011
 2440TIP3   OH2 7325   0.979   4.261   2.183  0.2495 -0.3509  0.1013
 2440TIP3    H1 7326   0.939   4.248   2.097  1.1375 -0.2972 -0.3307
 2440TIP3    H2 7327   1.048   4.195   2.188 -0.1535 -0.7087  1.0027
 2441TIP3   OH2 7328   3.265   0.063   2.836 -0.4283 -0.0304 -0.0314
 2441TIP3    H1 7329   3.329   0.074   2.906  0.2452  0.0749 -0.6522
 2441TIP3    H2 7330   3.227  -0.023   2.851 -0.9665  0.3681  1.0025
 2442TIP3   OH2 7331   3.327   1.353   3.031 -0.2903 -0.9719  0.2952
 2442TIP3    H1 7332   3.406   1.312   3.066  0.9809  0.8595 -0.2622
 2442TIP3    H2 7333   3.278   1.380   3.109  0.6733 -0.2773  0.6807
 2443TIP3   OH2 7334   2.040   4.113   2.559 -0.2968 -0.1477 -0.4058
 2443TIP3    H1 7335   1.987   4.183   2.522 -1.7527 -0.4140  1.0883
 2443TIP3    H2 7336   2.090   4.079   2.485 -1.6688  0.6001 -1.7084
 2444TIP3   OH2 7337   1.090   5.664   4.371  1.0241 -0.4629 -0.6866
 2444TIP3    H1 7338   1.052   5.597   4.428  2.6262 -0.8135  0.0363
 2444TIP3    H2 7339   1.125   5.614   4.297 -0.6760 -0.0526 -1.8185
 2445TIP3   OH2 7340   0.167   1.787   0.267  0.2908  0.2571 -0.3797
 2445TIP3    H1 7341   0.230   1.734   0.218  0.5504 -0.2223  0.4570
 2445TIP3    H2 7342   0.200   1.877   0.260  1.1364 -0.0042  0.1390
 2446TIP3   OH2 7343   3.792   3.549   1.745  0.1046 -0.8678  0.1974
 2446TIP3    H1 7344   3.706   3.570   1.782  0.2830 -0.8509  0.6038
 2446TIP3    H2 7345   3.840   3.510   1.817  0.1440 -1.6980 -0.2657
 2447TIP3   OH2 7346   2.778   1.622   0.309  0.3062 -0.0616  0.5386
 2447TIP3    H1 7347   2.873   1.626   0.300  0.3692 -0.0444  1.1744
 2447TIP3    H2 7348   2.746   1.606   0.220  0.9871 -1.5883  0.5290
 2448TIP3   OH2 7349   6.230   3.401   3.956  0.3233 -1.0851  0.2908
 2448TIP3    H1 7350   6.260   3.451   3.880 -0.5259 -0.3136  0.4426
 2448TIP3    H2 7351   6.310   3.380   4.005  0.7188 -0.0171  0.1225
 2449TIP3   OH2 7352   4.779   1.568   2.975 -0.3870 -0.1488  0.3018
 2449TIP3    H1 7353   4.774   1.656   2.939  0.2921  0.9055  2.6327
 2449TIP3    H2 7354   4.719   1.517   2.921 -1.2445  1.8598 -0.7462
 2450TIP3   OH2 7355   1.245   0.678   2.170 -0.4203 -0.4705 -0.6703
 2450TIP3    H1 7356   1.247   0.668   2.265 -1.6516  1.1162 -0.4429
 2450TIP3    H2 7357   1.214   0.594   2.138  0.6977 -1.2785  0.2514
 2451TIP3   OH2 7358   1.931   2.729   2.719 -0.2893 -0.6243 -0.1867
 2451TIP3    H1 7359   1.866   2.664   2.695  2.0462 -3.4829  0.5409
 2451TIP3    H2 7360   1.997   2.724   2.650 -0.8271  2.4035 -1.0778
 2452TIP3   OH2 7361   2.945   3.858   1.806 -0.3434  0.2754  0.5289
 2452TIP3    H1 7362   2.887   3.784   1.825 -0.0121 -0.1391 -0.0463
 2452TIP3    H2 7363   2.963   3.897   1.892 -1.3842  0.3527  0.7269
 2453TIP3   OH2 7364   2.139   0.048   5.047  0.3638 -0.1192  0.2472
 2453TIP3    H1 7365   2.212   0.043   4.986 -0.5044  1.0262 -0.9572
 2453TIP3    H2 7366   2.111  -0.043   5.060  1.9122 -0.5597  0.6705
 2454TIP3   OH2 7367   5.132   4.833   2.507  0.2147  0.8928 -0.0418
 2454TIP3    H1 7368   5.077   4.775   2.455  0.6325  1.1928 -0.8395
 2454TIP3    H2 7369   5.070   4.887   2.556 -0.2239  1.4268 -1.1505
 2455TIP3   OH2 7370   6.323   4.733   2.099 -0.0315  0.4950 -0.1219
 2455TIP3    H1 7371   6.241   4.695   2.069  0.2400  0.6562 -1.0995
 2455TIP3    H2 7372   6.309   4.828   2.094 -0.1547  0.5303  0.7623
 2456TIP3   OH2 7373   0.342   1.029   1.334 -0.7318  0.0681 -0.2173
 2456TIP3    H1 7374   0.414   0.986   1.289  2.3834  1.2285  3.1245
 2456TIP3    H2 7375   0.278   0.960   1.349 -0.1592 -1.1594 -2.8616
 2457TIP3   OH2 7376   0.068   5.468   1.098  0.3866  0.1541 -0.2838
 2457TIP3    H1 7377  -0.011   5.427   1.134  0.8943 -1.1252 -0.5672
 2457TIP3    H2 7378   0.071   5.554   1.139 -0.1065 -0.5115  1.2441
 2458TIP3   OH2 7379   2.748   2.707   3.080 -0.1580  0.4439 -0.1424
 2458TIP3    H1 7380   2.801   2.696   3.001 -0.9009 -0.5262 -0.5206
 2458TIP3    H2 7381   2.662   2.672   3.057  0.1594 -1.7933  1.7086
 2459TIP3   OH2 7382   5.851   2.528   3.045  0.0147  0.1330  0.1452
 2459TIP3    H1 7383   5.926   2.488   3.000  2.5545  0.6649  3.4684
 2459TIP3    H2 7384   5.870   2.622   3.044 -0.8188  0.3194  0.6783
 2460TIP3   OH2 7385   0.549   2.053   0.330  0.0378  0.0321 -0.3024
 2460TIP3    H1 7386   0.504   2.098   0.402 -2.6824 -0.6862 -1.4553
 2460TIP3    H2 7387   0.558   2.119   0.262  1.3661  0.3259  0.1122
 2461TIP3   OH2 7388   6.338   0.268   0.785  0.0144 -0.1181  0.0202
 2461TIP3    H1 7389   6.326   0.187   0.735 -2.1242  0.0896  0.0847
 2461TIP3    H2 7390   6.325   0.338   0.720  0.5760  0.1809  0.2217
 2462TIP3   OH2 7391   4.438   1.005   2.763 -0.0754 -0.1247 -0.2433
 2462TIP3    H1 7392   4.383   1.036   2.835  1.5938 -1.1134  1.5463
 2462TIP3    H2 7393   4.525   1.039   2.782  0.0109  1.5208 -3.0886
 2463TIP3   OH2 7394   5.362   5.479   3.756 -0.0397 -0.2769 -0.1855
 2463TIP3    H1 7395   5.326   5.490   3.668 -1.1582  0.4979  0.3373
 2463TIP3    H2 7396   5.382   5.386   3.762 -0.8026 -0.5083 -0.9571
 2464TIP3   OH2 7397   4.285   0.915   3.153  0.6113  0.8480 -0.2790
 2464TIP3    H1 7398   4.200   0.937   3.192  0.4376  0.7214 -0.5777
 2464TIP3    H2 7399   4.320   0.846   3.209  0.1766  0.3785 -0.5727
 2465TIP3   OH2 7400   5.956   4.252   4.993 -0.3572 -0.6409 -0.1666
 2465TIP3    H1 7401   5.990   4.332   4.952 -0.6514 -1.1547 -1.4504
 2465TIP3    H2 7402   6.018   4.184   4.968  0.9778 -0.5541  2.4912
 2466TIP3   OH2 7403   0.707   1.731   2.446 -0.5583  0.4432 -0.6517
 2466TIP3    H1 7404   0.724   1.824   2.465 -0.9847  0.3745  0.1016
 2466TIP3    H2 7405   0.729   1.686   2.527 -0.9857 -0.0455 -0.8083
 2467TIP3   OH2 7406   5.589   0.178   2.791  0.8665 -0.1681 -0.4836
 2467TIP3    H1 7407   5.680   0.201   2.809  0.6204 -1.1110  2.5414
 2467TIP3    H2 7408   5.548   0.175   2.877 -2.5590  2.0481 -1.8558
 2468TIP3   OH2 7409   5.516   5.662   4.809 -0.3994 -0.4575  0.0881
 2468TIP3    H1 7410   5.554   5.632   4.727 -1.5679 -1.4072 -0.1349
 2468TIP3    H2 7411   5.580   5.725   4.844  0.3346 -0.4037 -1.2933
 2469TIP3   OH2 7412   3.854   1.950   0.431 -0.5924 -0.3040  0.4621
 2469TIP3    H1 7413   3.766   1.915   0.418 -0.2685 -0.8943 -0.2263
 2469TIP3    H2 7414   3.912   1.882   0.397  0.1555 -0.1196  1.3212
 2470TIP3   OH2 7415   4.116   3.816   2.965 -0.0150  0.0045  0.0359
 2470TIP3    H1 7416   4.069   3.792   2.886  1.2036  2.1948 -1.4826
 2470TIP3    H2 7417   4.205   3.783   2.951  0.1514  0.2076  0.5948
 2471TIP3   OH2 7418   2.962   0.307   3.671  0.4731  0.0588 -0.3424
 2471TIP3    H1 7419   2.988   0.306   3.763 -0.2420 -0.6418 -0.1360
 2471TIP3    H2 7420   2.907   0.386   3.662 -0.5352 -0.5609  0.1608
 2472TIP3   OH2 7421   1.976   4.097   4.143 -0.0684  0.4814 -0.5659
 2472TIP3    H1 7422   1.909   4.165   4.136  0.5276  1.1778  0.2842
 2472TIP3    H2 7423   1.949   4.045   4.219  0.7540  1.2461  0.2753
 2473TIP3   OH2 7424   4.251   2.808   0.692  0.2831  0.0419 -0.1827
 2473TIP3    H1 7425   4.256   2.808   0.596  0.5118  2.0214 -0.2306
 2473TIP3    H2 7426   4.160   2.783   0.711  0.4161 -1.0063 -0.8836
 2474TIP3   OH2 7427   1.170   1.031   0.963  0.7622 -0.4043  0.1883
 2474TIP3    H1 7428   1.194   0.938   0.955  1.6015 -0.2060  0.3988
 2474TIP3    H2 7429   1.240   1.070   1.014  1.2289  0.6792 -1.2108
 2475TIP3   OH2 7430   5.928   1.499   0.013  0.1163 -0.0513 -1.1622
 2475TIP3    H1 7431   5.924   1.428   0.077 -1.4299  1.2052  0.2403
 2475TIP3    H2 7432   5.837   1.511  -0.015  0.4352  1.0092 -1.8063
 2476TIP3   OH2 7433   0.627   5.091   5.079  0.3262 -0.2649  0.1077
 2476TIP3    H1 7434   0.639   5.180   5.112  1.6881 -0.4314  0.1345
 2476TIP3    H2 7435   0.607   5.103   4.986  2.9909  0.0676 -0.5149
 2477TIP3   OH2 7436   5.162   1.105   0.361 -0.4933 -0.6568  0.9662
 2477TIP3    H1 7437   5.121   1.060   0.287 -1.3653  0.8549  0.4878
 2477TIP3    H2 7438   5.193   1.034   0.418 -0.0099 -1.8603 -0.7185
 2478TIP3   OH2 7439   2.615   5.357   3.731 -0.7035  0.8128  0.0139
 2478TIP3    H1 7440   2.600   5.299   3.656  0.4477  1.9490 -1.1421
 2478TIP3    H2 7441   2.594   5.302   3.807 -0.1792 -0.9510 -1.0376
 2479TIP3   OH2 7442   5.114   2.198   0.269 -0.8268  0.0593 -0.1761
 2479TIP3    H1 7443   5.111   2.124   0.330 -1.1945  0.1498 -0.0835
 2479TIP3    H2 7444   5.173   2.261   0.310  0.2358 -0.5649 -0.6900
 2480TIP3   OH2 7445   2.428   2.173   4.982 -0.2935 -0.0277 -0.1208
 2480TIP3    H1 7446   2.475   2.194   5.063  0.4529  0.0713 -0.5648
 2480TIP3    H2 7447   2.427   2.256   4.934 -0.5563 -0.1342 -0.2974
 2481TIP3   OH2 7448   0.454   0.002   3.995 -0.1632  0.1344 -0.0942
 2481TIP3    H1 7449   0.439   0.092   3.966  1.8671  1.0753  1.4560
 2481TIP3    H2 7450   0.396  -0.009   4.070 -2.1090 -0.7191 -1.6567
 2482TIP3   OH2 7451   1.503   2.214   2.626  0.0846 -0.5655  0.4934
 2482TIP3    H1 7452   1.499   2.138   2.685  1.4981 -0.7462  0.4035
 2482TIP3    H2 7453   1.569   2.271   2.666  0.1192 -0.0916 -0.2319
 2483TIP3   OH2 7454   0.640   2.220   4.792 -0.2357 -0.2914 -0.1734
 2483TIP3    H1 7455   0.698   2.200   4.719  1.8639 -0.9706  1.5937
 2483TIP3    H2 7456   0.617   2.312   4.781  0.3221 -0.2964 -1.4669
 2484TIP3   OH2 7457   5.486   1.239   3.542 -0.1179  0.5270  0.0801
 2484TIP3    H1 7458   5.486   1.144   3.554 -1.6233  0.5231  0.2735
 2484TIP3    H2 7459   5.415   1.256   3.480 -0.3634  1.5834  0.6130
 2485TIP3   OH2 7460   5.193   1.632   0.413 -0.2673 -0.2224 -0.6364
 2485TIP3    H1 7461   5.231   1.678   0.339  1.2963  1.9456  1.3634
 2485TIP3    H2 7462   5.222   1.541   0.402 -2.1006 -0.5480 -3.8507
 2486TIP3   OH2 7463   2.865   0.222   3.255 -0.1330  0.4893 -0.0720
 2486TIP3    H1 7464   2.862   0.314   3.278 -0.5030  0.1547  1.2830
 2486TIP3    H2 7465   2.773   0.194   3.253  0.0393 -0.4269  2.1068
 2487TIP3   OH2 7466   1.573   2.165   2.208 -0.3621 -0.7832 -0.3719
 2487TIP3    H1 7467   1.603   2.074   2.217 -0.5636 -0.7235  1.4903
 2487TIP3    H2 7468   1.516   2.179   2.284 -0.1549  0.9696 -0.4857
 2488TIP3   OH2 7469   3.570   4.753   2.817  0.2549  0.6334 -0.1572
 2488TIP3    H1 7470   3.574   4.839   2.774  0.2536  0.9235  0.4126
 2488TIP3    H2 7471   3.661   4.724   2.821  0.1648  0.1493 -1.2430
 2489TIP3   OH2 7472   2.384   1.364   1.220  0.6829 -0.0374  0.7850
 2489TIP3    H1 7473   2.457   1.331   1.272 -0.8226 -1.9699  1.7879
 2489TIP3    H2 7474   2.306   1.334   1.266 -0.7470 -0.8321 -1.9658
 2490TIP3   OH2 7475   6.143   2.017   0.258 -0.0878 -0.3783 -0.4715
 2490TIP3    H1 7476   6.196   2.097   0.253 -0.5708 -0.0788 -0.9767
 2490TIP3    H2 7477   6.073   2.039   0.319  0.5563 -0.8966  0.4841
 2491TIP3   OH2 7478   4.892   2.929   4.768  0.1750 -0.3750  0.2946
 2491TIP3    H1 7479   4.928   2.948   4.681  0.9324 -2.0647  0.2122
 2491TIP3    H2 7480   4.929   2.997   4.824 -1.1999  1.4425 -0.8446
 2492TIP3   OH2 7481   3.577   1.871   0.101 -0.5773  0.0229 -0.2779
 2492TIP3    H1 7482   3.553   1.929   0.028 -0.8532  1.0735  0.6291
 2492TIP3    H2 7483   3.658   1.829   0.072 -1.0322 -0.0995 -1.4659
 2493TIP3   OH2 7484   1.581   0.450   0.794  0.1388 -0.5144 -0.9079
 2493TIP3    H1 7485   1.601   0.366   0.836  1.8768  0.2057 -0.1741
 2493TIP3    H2 7486   1.569   0.429   0.702 -0.9593 -1.7589 -0.4967
 2494TIP3   OH2 7487   0.455   0.736   3.837  0.1582 -0.4088  0.1389
 2494TIP3    H1 7488   0.546   0.763   3.822 -0.1592  0.5340 -0.1673
 2494TIP3    H2 7489   0.436   0.675   3.766 -0.3991  1.7538 -1.6842
 2495TIP3   OH2 7490   4.599   3.967   3.360  0.7515  0.0317  0.1037
 2495TIP3    H1 7491   4.627   3.980   3.450 -0.8573  1.0554  0.5151
 2495TIP3    H2 7492   4.590   4.056   3.325 -2.3262 -0.1210  0.2131
 2496TIP3   OH2 7493   2.131   2.989   4.047  0.2418  0.5168 -0.2858
 2496TIP3    H1 7494   2.149   2.954   3.960 -1.3856 -0.7084 -0.1852
 2496TIP3    H2 7495   2.211   2.971   4.097  0.2118 -1.3045 -0.8023
 2497TIP3   OH2 7496   3.320   3.951   0.604 -0.4699  0.0639 -0.0968
 2497TIP3    H1 7497   3.235   3.991   0.624 -0.6159 -0.3412  0.1069
 2497TIP3    H2 7498   3.298   3.864   0.572 -0.1201 -0.1130  0.1413
 2498TIP3   OH2 7499   4.607   2.362   2.809 -0.0900 -0.0773  0.1702
 2498TIP3    H1 7500   4.652   2.293   2.759  0.5730 -0.4940  1.3182
 2498TIP3    H2 7501   4.654   2.366   2.892 -1.1681  0.6178  0.7613
 2499TIP3   OH2 7502   0.084   1.883   1.340  0.0970 -0.2907 -0.3568
 2499TIP3    H1 7503   0.095   1.909   1.431  0.4814  0.2198 -0.5454
 2499TIP3    H2 7504   0.157   1.823   1.323 -0.1228 -0.5871 -0.2545
 2500TIP3   OH2 7505   2.220   4.240   2.075 -0.2627  0.2791 -0.0940
 2500TIP3    H1 7506   2.279   4.313   2.094 -0.0407 -0.0024  0.3019
 2500TIP3    H2 7507   2.243   4.214   1.985  1.3597 -0.8849  0.6191
 2501TIP3   OH2 7508   2.619   3.042   2.627  0.2992 -0.6049  0.0237
 2501TIP3    H1 7509   2.581   3.130   2.632  1.4310 -0.1156  0.5465
 2501TIP3    H2 7510   2.552   2.985   2.663 -0.3550  0.0837 -0.0733
 2502TIP3   OH2 7511   2.642   1.549   1.630  0.1457  0.3516  0.3335
 2502TIP3    H1 7512   2.604   1.491   1.696 -0.4330 -0.9165 -1.0511
 2502TIP3    H2 7513   2.671   1.626   1.679  0.4175 -0.8480  2.1690
 2503TIP3   OH2 7514   5.489   3.474   4.800  0.3156  0.4227 -0.2331
 2503TIP3    H1 7515   5.416   3.488   4.740  0.2242  1.7022  0.1515
 2503TIP3    H2 7516   5.544   3.552   4.788  0.6664  0.3390  0.8019
 2504TIP3   OH2 7517   1.109   2.426   2.804 -0.2676 -0.5919 -0.3254
 2504TIP3    H1 7518   1.205   2.430   2.798 -0.2558 -1.0128 -0.5145
 2504TIP3    H2 7519   1.091   2.425   2.898 -0.1348  0.3364 -0.2824
 2505TIP3   OH2 7520   5.302   5.713   3.909 -0.0400  0.0192  0.9643
 2505TIP3    H1 7521   5.210   5.708   3.936 -1.4130 -0.1494 -3.1052
 2505TIP3    H2 7522   5.318   5.631   3.862  1.3904  1.0910 -0.5350
 2506TIP3   OH2 7523   1.032   4.791   4.455  0.5139  0.2423 -0.2358
 2506TIP3    H1 7524   1.086   4.863   4.490  1.9633  0.7197 -3.1237
 2506TIP3    H2 7525   0.981   4.832   4.385 -1.2497 -0.9172  0.3042
 2507TIP3   OH2 7526   1.053   1.444   3.329 -0.0581  0.4749  0.4134
 2507TIP3    H1 7527   1.040   1.351   3.310 -3.1417  0.7023  0.8915
 2507TIP3    H2 7528   1.055   1.486   3.242  1.0445  0.0115  0.2055
 2508TIP3   OH2 7529   4.355   4.269   0.996 -0.0485  0.5193  0.6924
 2508TIP3    H1 7530   4.339   4.309   1.082  0.1327  0.1171  0.9153
 2508TIP3    H2 7531   4.268   4.255   0.959 -0.1379  0.4567  0.9235
 2509TIP3   OH2 7532   4.736   4.944   4.901  0.1656  0.2058 -0.0167
 2509TIP3    H1 7533   4.768   4.862   4.863 -1.1895 -0.0535 -0.6703
 2509TIP3    H2 7534   4.798   4.965   4.970  1.1617 -0.7746 -0.5859
 2510TIP3   OH2 7535   5.126   2.847   2.007  0.3076 -0.4594 -0.4788
 2510TIP3    H1 7536   5.125   2.758   2.043 -1.2049 -0.2121  0.1838
 2510TIP3    H2 7537   5.035   2.864   1.982  0.3697  1.2493  0.2929
 2511TIP3   OH2 7538   4.357   0.233   4.255  0.5584  0.2194  0.6784
 2511TIP3    H1 7539   4.400   0.311   4.220 -0.0188 -0.1331 -0.8784
 2511TIP3    H2 7540   4.306   0.265   4.329  1.5458  1.0406  1.0280
 2512TIP3   OH2 7541   4.440   4.485   2.699 -0.2814  0.2065  0.2605
 2512TIP3    H1 7542   4.457   4.433   2.777  1.7325  0.6129  0.1269
 2512TIP3    H2 7543   4.523   4.489   2.653 -1.4927 -0.3906 -2.1684
 2513TIP3   OH2 7544   5.442   0.240   4.487  0.5863  0.2269 -0.0854
 2513TIP3    H1 7545   5.448   0.332   4.514  1.1548  0.3217 -0.5123
 2513TIP3    H2 7546   5.530   0.219   4.454  0.0843 -0.0580 -1.2830
 2514TIP3   OH2 7547   5.137   0.063   3.580 -0.1754  0.0220 -0.0019
 2514TIP3    H1 7548   5.086   0.106   3.512 -0.3496 -1.9536 -1.1997
 2514TIP3    H2 7549   5.073   0.043   3.648 -0.1572  1.2407  0.4071
 2515TIP3   OH2 7550   2.209   0.047   2.442  0.0683 -0.3978 -0.3398
 2515TIP3    H1 7551   2.144  -0.015   2.475  0.5395 -0.4290  0.5679
 2515TIP3    H2 7552   2.199   0.124   2.497  0.7534 -0.3787 -0.2271
 2516TIP3   OH2 7553   1.564   5.612   4.651  0.1030  0.0230  0.0546
 2516TIP3    H1 7554   1.596   5.668   4.722  0.4086  0.8596 -0.7105
 2516TIP3    H2 7555   1.485   5.656   4.620 -0.8082 -1.0727  0.7590
 2517TIP3   OH2 7556   4.390   4.430   1.748  0.2352  0.1453  0.2525
 2517TIP3    H1 7557   4.363   4.485   1.674 -0.3445 -0.5902 -0.0980
 2517TIP3    H2 7558   4.485   4.422   1.738 -0.0132 -1.3730 -1.4638
 2518TIP3   OH2 7559   0.066   2.131   1.501  0.0113  0.0494 -0.2184
 2518TIP3    H1 7560   0.052   2.222   1.527 -0.5753 -0.4320  1.2731
 2518TIP3    H2 7561  -0.022   2.093   1.497  0.1230 -0.0952 -2.3508
 2519TIP3   OH2 7562   0.431   4.185   3.735 -0.5693 -0.6194  0.0569
 2519TIP3    H1 7563   0.440   4.262   3.679  0.4814 -0.2979  0.6377
 2519TIP3    H2 7564   0.446   4.111   3.676 -0.3704 -0.3278 -0.2629
 2520TIP3   OH2 7565   0.783   0.610   2.530 -0.0930  0.3021 -0.1667
 2520TIP3    H1 7566   0.871   0.621   2.566  0.3500 -0.2322 -1.0707
 2520TIP3    H2 7567   0.743   0.697   2.539  0.5697  0.5802  0.1422
 2521TIP3   OH2 7568   5.804   5.400   3.546 -0.0358 -0.3211  0.2172
 2521TIP3    H1 7569   5.803   5.487   3.506  0.5426 -1.1433 -1.6937
 2521TIP3    H2 7570   5.712   5.374   3.551 -0.1747  0.1929  0.3334
 2522TIP3   OH2 7571   5.358   4.314   1.148 -0.3351  0.1637 -0.1468
 2522TIP3    H1 7572   5.301   4.378   1.189 -0.9867  0.2089 -1.0875
 2522TIP3    H2 7573   5.299   4.253   1.105  0.1494 -2.6314  2.8181
 2523TIP3   OH2 7574   0.690   4.958   4.090 -0.0290 -0.3666 -0.0509
 2523TIP3    H1 7575   0.687   4.994   4.002  0.3890 -2.0543 -0.8045
 2523TIP3    H2 7576   0.773   4.988   4.126 -0.7174  1.3041  0.2638
 2524TIP3   OH2 7577   3.773   0.190   3.443 -0.5898  0.1338 -0.8410
 2524TIP3    H1 7578   3.820   0.139   3.509  0.7729  2.9558  0.5278
 2524TIP3    H2 7579   3.804   0.154   3.359  0.5446 -1.0696  0.0433
 2525TIP3   OH2 7580   0.467   3.746   4.551  0.3521 -0.6563  0.1151
 2525TIP3    H1 7581   0.398   3.692   4.515  0.0220  0.3122 -0.7367
 2525TIP3    H2 7582   0.529   3.683   4.589  0.0839 -1.6348 -1.0177
 2526TIP3   OH2 7583   6.226   2.549   0.817 -1.0494 -0.5393  0.5284
 2526TIP3    H1 7584   6.184   2.577   0.898  0.4108 -0.8629  1.4253
 2526TIP3    H2 7585   6.277   2.472   0.842 -1.2459 -1.1472 -0.8830
 2527TIP3   OH2 7586   2.656   2.023   0.431  0.1664 -0.1612  0.0074
 2527TIP3    H1 7587   2.594   2.051   0.498  1.0328  0.3794  0.6069
 2527TIP3    H2 7588   2.741   2.050   0.465  0.7708 -1.2379 -0.6181
 2528TIP3   OH2 7589   1.838   1.883   1.694 -0.5038  0.8293  0.0432
 2528TIP3    H1 7590   1.811   1.954   1.753 -0.8480  0.4665  0.3342
 2528TIP3    H2 7591   1.869   1.815   1.753 -1.4551  0.2086 -0.1529
 2529TIP3   OH2 7592   3.677   5.740   4.539 -0.2953  0.2143  0.4891
 2529TIP3    H1 7593   3.735   5.666   4.524  0.7653  1.1682 -0.3516
 2529TIP3    H2 7594   3.590   5.708   4.515  0.2057 -0.6282 -0.2617
 2530TIP3   OH2 7595   3.207   4.603   2.762  0.1262  0.3845 -0.2782
 2530TIP3    H1 7596   3.156   4.523   2.745  0.0928  0.7820 -2.3331
 2530TIP3    H2 7597   3.234   4.595   2.853 -1.3992 -1.1069  0.1049
 2531TIP3   OH2 7598   2.267   0.855   0.486 -0.9935 -0.2544  0.0758
 2531TIP3    H1 7599   2.202   0.817   0.427 -0.9136 -0.9582  0.4372
 2531TIP3    H2 7600   2.285   0.786   0.550  1.3139 -0.7130 -0.9590
 2532TIP3   OH2 7601   4.301   1.766   1.999  0.3160 -0.5652  0.1733
 2532TIP3    H1 7602   4.238   1.704   2.035 -2.1593  0.7412 -1.5991
 2532TIP3    H2 7603   4.333   1.815   2.074 -1.1650 -0.9731  1.1142
 2533TIP3   OH2 7604   0.358   0.002   2.746  0.4639 -0.0800  0.0737
 2533TIP3    H1 7605   0.418   0.062   2.701 -1.2781  0.6155 -1.4591
 2533TIP3    H2 7606   0.306   0.058   2.803 -1.5634  0.1001 -1.7854
 2534TIP3   OH2 7607   5.981   0.875   3.045 -0.1552 -0.3351 -0.0930
 2534TIP3    H1 7608   6.042   0.823   3.098 -0.0540  0.3526  0.4868
 2534TIP3    H2 7609   5.895   0.858   3.084 -0.1159 -0.0360  0.1264
 2535TIP3   OH2 7610   2.293   1.772   0.285 -0.2836  0.1590 -0.1483
 2535TIP3    H1 7611   2.295   1.798   0.376 -1.1829 -0.7876  0.1716
 2535TIP3    H2 7612   2.204   1.794   0.255 -0.6687 -1.3104 -0.2038
 2536TIP3   OH2 7613   5.465   5.164   2.104 -0.0011  0.0001  0.9297
 2536TIP3    H1 7614   5.422   5.119   2.177  0.3577 -0.7244  0.7012
 2536TIP3    H2 7615   5.499   5.094   2.049 -1.2103  0.4948 -0.5267
 2537TIP3   OH2 7616   5.031   5.871   1.070 -0.2314  0.6870 -0.6357
 2537TIP3    H1 7617   4.947   5.916   1.074 -0.6007  0.2143 -2.2380
 2537TIP3    H2 7618   5.028   5.822   0.988 -0.0388 -2.6804  1.1925
 2538TIP3   OH2 7619   3.742   1.548   1.042 -0.3122  0.1731 -0.2897
 2538TIP3    H1 7620   3.810   1.480   1.042  0.6635  1.1160 -0.8443
 2538TIP3    H2 7621   3.780   1.619   0.989 -2.5813 -0.1107 -2.4740
 2539TIP3   OH2 7622   5.445   4.558   4.913  0.3687 -0.0646 -0.0966
 2539TIP3    H1 7623   5.387   4.583   4.840  0.2932 -0.3729 -0.1451
 2539TIP3    H2 7624   5.467   4.467   4.895  0.7259 -0.0007  0.0206
 2540TIP3   OH2 7625   1.377   2.298   0.984  0.1382  0.5957 -0.1435
 2540TIP3    H1 7626   1.358   2.205   0.990 -0.5171  0.7450  0.1137
 2540TIP3    H2 7627   1.360   2.320   0.892 -1.1618  0.7668  0.1171
 2541TIP3   OH2 7628   4.048   3.851   2.033  0.3460  0.4203  0.1814
 2541TIP3    H1 7629   4.041   3.827   2.125  0.6816  0.0256  0.1085
 2541TIP3    H2 7630   4.142   3.858   2.018  0.2703  1.5074  0.1237
 2542TIP3   OH2 7631   3.276   1.993   2.633 -0.3552 -0.4225 -0.2519
 2542TIP3    H1 7632   3.226   1.945   2.567 -0.2209  0.6738 -1.1941
 2542TIP3    H2 7633   3.333   1.927   2.672 -2.4928 -1.7199  0.8851
 2543TIP3   OH2 7634   5.476   4.238   2.856  0.5736  0.4903  0.9589
 2543TIP3    H1 7635   5.550   4.184   2.828  0.3721 -0.1834  1.6803
 2543TIP3    H2 7636   5.516   4.315   2.896  0.8667  1.0562 -0.3521
 2544TIP3   OH2 7637   6.094   2.392   1.372 -0.1016 -0.0107 -0.2156
 2544TIP3    H1 7638   6.050   2.475   1.355  1.1958  0.3113 -2.4088
 2544TIP3    H2 7639   6.159   2.413   1.439 -0.6046  0.4242  0.1502
 2545TIP3   OH2 7640   4.525   2.113   3.201  0.1753 -0.3029  0.4102
 2545TIP3    H1 7641   4.582   2.133   3.127  2.4307 -0.0110  2.0976
 2545TIP3    H2 7642   4.453   2.062   3.164  1.2399 -0.2113 -1.9364
 2546TIP3   OH2 7643   0.840   0.734   4.566  0.5962  0.3287 -0.5047
 2546TIP3    H1 7644   0.841   0.689   4.651 -0.2482  0.3233 -0.4923
 2546TIP3    H2 7645   0.808   0.822   4.587  0.1390  0.2479 -0.8500
 2547TIP3   OH2 7646   5.996   1.522   3.823  0.3961  0.4902 -0.5929
 2547TIP3    H1 7647   5.909   1.551   3.795  0.2424 -1.1193 -1.9060
 2547TIP3    H2 7648   6.032   1.475   3.747  0.5736 -2.8026  1.3523
 2548TIP3   OH2 7649   2.777   1.108   0.537 -0.7299 -0.2488  0.4939
 2548TIP3    H1 7650   2.775   1.203   0.521 -0.0718 -0.0609  1.4432
 2548TIP3    H2 7651   2.742   1.070   0.457  0.3665  0.7375 -0.5052
 2549TIP3   OH2 7652   1.793   5.786   1.891  0.2468 -0.1573 -0.3093
 2549TIP3    H1 7653   1.819   5.872   1.923 -3.0437  1.0025 -0.4544
 2549TIP3    H2 7654   1.773   5.736   1.970 -0.8301  0.2649 -0.3080
 2550TIP3   OH2 7655   0.798   5.955   0.526  0.1022 -0.2811  0.0303
 2550TIP3    H1 7656   0.855   5.896   0.477  1.0575  0.5310  0.1314
 2550TIP3    H2 7657   0.721   5.902   0.546  1.0812 -1.6177  0.4297
 2551TIP3   OH2 7658   4.710   2.177   2.165  0.0632 -0.0505 -0.2616
 2551TIP3    H1 7659   4.802   2.185   2.188 -0.2600  1.7504  0.6077
 2551TIP3    H2 7660   4.697   2.241   2.095 -0.0969 -1.8523 -1.9621
 2552TIP3   OH2 7661   5.347   2.276   4.002 -0.0670  0.0438 -0.4696
 2552TIP3    H1 7662   5.315   2.201   4.051  0.8282 -1.1726 -1.6834
 2552TIP3    H2 7663   5.399   2.239   3.930 -0.2135  1.7900 -1.5544
 2553TIP3   OH2 7664   5.823   5.056   3.777 -0.2390  0.0357  0.0022
 2553TIP3    H1 7665   5.823   4.987   3.710  0.0365  0.7147 -0.7185
 2553TIP3    H2 7666   5.730   5.073   3.794 -0.4416  1.5622 -2.0689
 2554TIP3   OH2 7667   1.271   2.653   0.338 -0.5195  0.4723 -0.0518
 2554TIP3    H1 7668   1.322   2.596   0.281 -0.4177  0.4223  0.0895
 2554TIP3    H2 7669   1.185   2.611   0.343 -0.0990 -0.2988  0.9905
 2555TIP3   OH2 7670   0.631   4.997   1.592  0.2575  0.1115  0.3876
 2555TIP3    H1 7671   0.678   4.934   1.537  0.7098 -0.7288  1.7039
 2555TIP3    H2 7672   0.540   4.967   1.591  0.6071 -1.1295  1.6924
 2556TIP3   OH2 7673   4.293   0.478   1.862 -0.2244  0.0496 -0.5372
 2556TIP3    H1 7674   4.257   0.427   1.934  1.1734  0.4489  0.5019
 2556TIP3    H2 7675   4.221   0.535   1.835 -0.5572  0.4737  1.1125
 2557TIP3   OH2 7676   5.638   3.279   1.724  0.7537  0.3434  0.2909
 2557TIP3    H1 7677   5.603   3.321   1.803  0.8276 -1.8654  1.5986
 2557TIP3    H2 7678   5.570   3.217   1.698  0.7722  0.9678 -1.3821
 2558TIP3   OH2 7679   2.298   2.334   1.576  0.2630 -0.1814 -0.1212
 2558TIP3    H1 7680   2.209   2.366   1.593 -0.0380 -1.0270  0.0004
 2558TIP3    H2 7681   2.329   2.386   1.502 -0.9458 -0.9126 -1.1941
 2559TIP3   OH2 7682   4.399   0.336   1.173  0.2460 -0.1458 -0.3157
 2559TIP3    H1 7683   4.312   0.363   1.203  0.7389 -0.2202  1.2810
 2559TIP3    H2 7684   4.396   0.344   1.078 -1.8130 -1.0510 -0.3735
 2560TIP3   OH2 7685   3.549   0.886   4.419  0.4182 -0.0901  0.2199
 2560TIP3    H1 7686   3.509   0.961   4.463 -0.9566 -0.7181  0.0992
 2560TIP3    H2 7687   3.475   0.830   4.396  1.1593 -0.2194 -2.1159
 2561TIP3   OH2 7688   0.492   1.683   5.013 -0.0844  0.4192 -0.2294
 2561TIP3    H1 7689   0.444   1.671   5.095 -0.2170 -1.0724 -0.4810
 2561TIP3    H2 7690   0.427   1.718   4.952 -0.9439 -1.6458 -0.5849
 2562TIP3   OH2 7691   2.532   1.777   0.119 -0.0990  0.0676  0.1768
 2562TIP3    H1 7692   2.443   1.769   0.151 -1.6646  1.5150 -3.3070
 2562TIP3    H2 7693   2.547   1.699   0.066  0.6052 -0.0378  0.5136
 2563TIP3   OH2 7694   3.322   3.070   0.404 -0.6502  0.0330  0.2960
 2563TIP3    H1 7695   3.361   3.127   0.470 -0.7893  0.1746  0.2573
 2563TIP3    H2 7696   3.386   3.000   0.392 -0.3997  0.2746  0.2150
 2564TIP3   OH2 7697   5.720   4.489   3.113  0.1309  0.0317  0.3573
 2564TIP3    H1 7698   5.811   4.460   3.101  0.4031 -0.3579  2.7647
 2564TIP3    H2 7699   5.706   4.554   3.045  2.0856 -0.2163 -0.3443
 2565TIP3   OH2 7700   3.548   2.203   3.432 -0.3758  0.1432 -0.5832
 2565TIP3    H1 7701   3.489   2.235   3.363 -1.7531  0.3789  0.6533
 2565TIP3    H2 7702   3.603   2.279   3.453 -1.6229  0.8516  0.2573
 2566TIP3   OH2 7703   2.444   4.624   3.994  0.3972 -0.1620  0.1878
 2566TIP3    H1 7704   2.471   4.589   3.909 -1.7773  0.1031 -0.7016
 2566TIP3    H2 7705   2.432   4.718   3.978 -0.7341 -0.2244  0.5369
 2567TIP3   OH2 7706   1.479   4.042   0.826 -0.2134 -0.3102 -0.2500
 2567TIP3    H1 7707   1.396   3.998   0.842  0.1118 -1.9144 -2.4119
 2567TIP3    H2 7708   1.507   4.009   0.740  1.6706  1.7237 -0.5161
 2568TIP3   OH2 7709   2.424   5.848   0.899 -0.1369 -0.0181  0.3019
 2568TIP3    H1 7710   2.395   5.765   0.937 -2.3589  0.2764 -0.5858
 2568TIP3    H2 7711   2.501   5.825   0.848 -0.6514 -1.5426  0.1433
 2569TIP3   OH2 7712   0.235   5.257   2.880  0.0120  0.0025  0.0060
 2569TIP3    H1 7713   0.299   5.319   2.844  1.7903 -0.6919  1.7474
 2569TIP3    H2 7714   0.223   5.192   2.812  0.1337  0.8619 -0.8539
 2570TIP3   OH2 7715   1.632   3.116   3.990  0.7152 -0.0313  0.0366
 2570TIP3    H1 7716   1.587   3.039   4.023  0.5437 -0.5326 -1.2948
 2570TIP3    H2 7717   1.597   3.189   4.042  0.7816 -0.8131  1.2162
 2571TIP3   OH2 7718   1.235   3.232   4.730  0.1160  0.4901 -0.5745
 2571TIP3    H1 7719   1.211   3.201   4.817  0.7828  1.3319 -0.0830
 2571TIP3    H2 7720   1.296   3.166   4.697 -2.0418 -1.1731 -1.4585
 2572TIP3   OH2 7721   5.539   3.904   3.435 -0.0276  0.2498 -0.4318
 2572TIP3    H1 7722   5.617   3.913   3.489 -1.1390  1.4571  1.0589
 2572TIP3    H2 7723   5.510   3.994   3.419 -2.1672 -0.1554  0.7356
 2573TIP3   OH2 7724   0.199   5.205   2.614 -0.3115 -0.5817 -0.0179
 2573TIP3    H1 7725   0.233   5.115   2.608  1.6501  0.1511 -0.8765
 2573TIP3    H2 7726   0.126   5.207   2.553  0.1493 -1.4044 -0.6269
 2574TIP3   OH2 7727   1.549   4.872   2.810  0.3384  0.1162  0.0959
 2574TIP3    H1 7728   1.515   4.934   2.876  0.8896 -0.4380  0.9179
 2574TIP3    H2 7729   1.474   4.815   2.791 -0.1232  0.9004 -0.5362
 2575TIP3   OH2 7730   5.043   2.097   2.040 -0.2579 -0.1686  0.0225
 2575TIP3    H1 7731   5.048   2.005   2.068 -0.2377 -0.1320  0.1401
 2575TIP3    H2 7732   5.022   2.145   2.120  1.2408  0.1042  0.2906
 2576TIP3   OH2 7733   5.369   5.952   0.608 -0.0149 -0.5677  0.9876
 2576TIP3    H1 7734   5.438   5.976   0.547 -0.2076 -0.5600  0.7731
 2576TIP3    H2 7735   5.404   5.876   0.655  0.6090  0.1445  1.6993
 2577TIP3   OH2 7736   4.489   0.527   3.933 -0.4664  0.0920  0.3152
 2577TIP3    H1 7737   4.542   0.606   3.946 -3.3814  2.0307  1.2613
 2577TIP3    H2 7738   4.436   0.547   3.856 -0.4217 -1.4665 -0.1391
 2578TIP3   OH2 7739   5.050   2.726   0.038 -0.2912 -0.0551 -0.6251
 2578TIP3    H1 7740   4.957   2.703   0.047  0.2753 -2.0563  0.8221
 2578TIP3    H2 7741   5.086   2.657  -0.018  0.2848  0.8664 -1.4105
 2579TIP3   OH2 7742   1.442   4.076   2.415 -0.8876  0.0501 -0.7593
 2579TIP3    H1 7743   1.536   4.093   2.417 -0.7721 -0.4543 -1.3758
 2579TIP3    H2 7744   1.405   4.150   2.366 -0.3230 -1.5783 -3.9214
 2580TIP3   OH2 7745   3.556   4.660   3.277 -0.4455 -0.0095  0.3177
 2580TIP3    H1 7746   3.513   4.588   3.231  1.4758 -0.0126 -1.6378
 2580TIP3    H2 7747   3.510   4.738   3.248 -0.1395 -0.1439 -0.5660
 2581TIP3   OH2 7748   4.606   0.493   0.635 -0.1191  0.0784 -0.1612
 2581TIP3    H1 7749   4.550   0.513   0.560  0.5388  0.1371 -0.6508
 2581TIP3    H2 7750   4.582   0.558   0.701 -0.0394  0.6434 -0.6783
 2582TIP3   OH2 7751   1.602   5.775   4.932  0.1600 -0.3697  0.4016
 2582TIP3    H1 7752   1.676   5.785   4.874  1.0590 -0.9424  1.4174
 2582TIP3    H2 7753   1.626   5.824   5.011 -1.1814  0.7085  0.1854
 2583TIP3   OH2 7754   4.393   2.306   1.296 -0.6020 -0.4054  0.0315
 2583TIP3    H1 7755   4.339   2.379   1.326 -0.2130  0.2336 -0.7798
 2583TIP3    H2 7756   4.439   2.341   1.220 -0.3460 -1.4795 -0.3136
 2584TIP3   OH2 7757   3.915   3.547   2.575 -0.5049 -0.3103 -0.2587
 2584TIP3    H1 7758   3.936   3.532   2.668  1.5318  0.7004 -0.4899
 2584TIP3    H2 7759   3.999   3.571   2.536 -0.8410 -2.8003 -2.8542
 2585TIP3   OH2 7760   3.488   5.238   4.929 -0.4652 -0.2267 -0.1363
 2585TIP3    H1 7761   3.480   5.297   5.003  0.7241  0.3076 -0.4091
 2585TIP3    H2 7762   3.443   5.282   4.857 -1.2259 -0.5411  0.1322
 2586TIP3   OH2 7763   2.037   5.718   1.759 -0.2146 -0.7354 -0.0167
 2586TIP3    H1 7764   2.099   5.745   1.828  0.0444 -0.0907 -0.4897
 2586TIP3    H2 7765   1.976   5.791   1.751 -0.9568 -1.3024  0.3332
 2587TIP3   OH2 7766   5.261   4.816   1.324 -0.4048  0.7803  0.2272
 2587TIP3    H1 7767   5.340   4.848   1.280 -0.8281  1.2688 -0.1899
 2587TIP3    H2 7768   5.271   4.845   1.415  0.0607  0.5327  0.2585
 2588TIP3   OH2 7769   6.294   0.439   2.300 -0.5459  0.2557  0.6090
 2588TIP3    H1 7770   6.268   0.350   2.278 -0.6158  0.9166 -2.4530
 2588TIP3    H2 7771   6.390   0.435   2.303 -0.5907 -0.2687  2.4802
 2589TIP3   OH2 7772   3.381   3.772   2.790  0.1916  0.5091  0.6347
 2589TIP3    H1 7773   3.393   3.764   2.695 -0.7624 -0.1040  0.5624
 2589TIP3    H2 7774   3.458   3.822   2.818  1.1750 -0.4145 -0.2737
 2590TIP3   OH2 7775   4.490   0.867   3.777 -0.4735 -0.0785 -0.0294
 2590TIP3    H1 7776   4.439   0.860   3.697 -1.7523 -1.5183  0.8443
 2590TIP3    H2 7777   4.577   0.835   3.754  0.0140  2.0983 -1.4631
 2591TIP3   OH2 7778   0.996   2.510   0.375  0.1688  0.1950 -0.3926
 2591TIP3    H1 7779   0.951   2.460   0.442 -0.8937  0.3589 -0.9575
 2591TIP3    H2 7780   0.938   2.585   0.358  0.7782  0.5509 -0.9539
 2592TIP3   OH2 7781   1.677   5.859   1.260  0.2224 -0.2796  0.4402
 2592TIP3    H1 7782   1.650   5.806   1.335 -1.4976 -1.1872 -0.7492
 2592TIP3    H2 7783   1.651   5.948   1.283  0.1092 -0.4714  1.0945
 2593TIP3   OH2 7784   1.422   3.557   4.225  0.6255 -0.2204  1.0955
 2593TIP3    H1 7785   1.443   3.582   4.315 -1.0414  0.2237  1.3962
 2593TIP3    H2 7786   1.330   3.582   4.214 -0.0657 -2.8781  0.1931
 2594TIP3   OH2 7787   5.453   3.912   1.687  0.3849  0.2293 -0.4113
 2594TIP3    H1 7788   5.410   3.963   1.619 -0.7497  0.3984  0.3974
 2594TIP3    H2 7789   5.422   3.950   1.769 -0.3294 -1.5830  0.2229
 2595TIP3   OH2 7790   5.753   0.690   0.867 -0.1947 -0.1722  0.2815
 2595TIP3    H1 7791   5.744   0.624   0.797  1.1151  2.6377 -2.7809
 2595TIP3    H2 7792   5.670   0.737   0.866  0.7721  1.6256 -1.4449
 2596TIP3   OH2 7793   2.400   2.043   0.571 -0.0478  0.0316 -0.0781
 2596TIP3    H1 7794   2.400   2.100   0.648  2.9627 -0.5181  0.4553
 2596TIP3    H2 7795   2.355   1.963   0.600 -0.1904  0.3762  0.6681
 2597TIP3   OH2 7796   3.360   0.158   1.905  0.1559  0.5343  0.7429
 2597TIP3    H1 7797   3.377   0.081   1.960 -0.9153 -0.0058  0.3343
 2597TIP3    H2 7798   3.374   0.127   1.816 -0.0022  0.8944  0.5929
 2598TIP3   OH2 7799   4.659   4.190   3.867 -0.2133 -0.0558  0.2291
 2598TIP3    H1 7800   4.725   4.212   3.931 -0.0059 -0.0219  0.0050
 2598TIP3    H2 7801   4.584   4.161   3.918 -0.7905  1.9139  0.5846
 2599TIP3   OH2 7802   1.710   4.798   4.140  0.0206  0.0646 -0.5856
 2599TIP3    H1 7803   1.651   4.728   4.114  0.5703 -0.4589 -0.4490
 2599TIP3    H2 7804   1.761   4.761   4.213 -0.5099  1.0146  0.2880
 2600TIP3   OH2 7805   2.269   3.742   4.566  0.3503 -0.0967 -0.0883
 2600TIP3    H1 7806   2.321   3.698   4.498  1.0295  1.4530 -0.6068
 2600TIP3    H2 7807   2.315   3.823   4.583 -0.8193  0.3823  0.9271
 2601TIP3   OH2 7808   5.406   0.391   4.188  0.4072  0.3566  0.3118
 2601TIP3    H1 7809   5.453   0.469   4.157 -0.1949  0.6141  0.0237
 2601TIP3    H2 7810   5.406   0.399   4.283  2.3364 -0.4725  0.4273
 2602TIP3   OH2 7811   5.708   1.962   2.459  0.0508  0.1692  0.0093
 2602TIP3    H1 7812   5.662   1.893   2.411 -0.7405  0.7560 -0.1010
 2602TIP3    H2 7813   5.780   1.917   2.503 -0.2249 -0.6593 -0.3690
 2603TIP3   OH2 7814   1.035   2.904   3.458 -0.4155 -0.4968 -0.0278
 2603TIP3    H1 7815   1.042   2.833   3.522 -1.1254 -1.0919 -0.5952
 2603TIP3    H2 7816   0.968   2.962   3.495  1.6802  1.1141  1.5477
 2604TIP3   OH2 7817   4.371   3.398   1.033  0.7015 -0.3969  0.3881
 2604TIP3    H1 7818   4.420   3.382   1.114 -0.4140  0.3164  1.2208
 2604TIP3    H2 7819   4.283   3.366   1.051  0.7080 -1.2716 -0.9532
 2605TIP3   OH2 7820   5.726   4.645   4.929  0.1919  0.0412  0.0230
 2605TIP3    H1 7821   5.641   4.653   4.886 -0.1099  0.9911  0.7708
 2605TIP3    H2 7822   5.710   4.585   5.002  0.3380 -0.3208 -0.2355
 2606TIP3   OH2 7823   3.170   0.383   0.293  0.3010  0.3580 -0.2346
 2606TIP3    H1 7824   3.117   0.378   0.214  1.0796 -2.0628 -0.6915
 2606TIP3    H2 7825   3.117   0.340   0.360  1.2567 -1.2990 -0.4878
 2607TIP3   OH2 7826   5.720   4.622   2.311  0.4006  0.0248 -0.0041
 2607TIP3    H1 7827   5.772   4.558   2.264 -0.0422 -0.3977  0.0735
 2607TIP3    H2 7828   5.733   4.601   2.404  0.9204  0.5775  0.0542
 2608TIP3   OH2 7829   4.237   5.067   0.306  0.1264  0.2122 -0.1444
 2608TIP3    H1 7830   4.146   5.086   0.328  0.1800  0.3878 -0.0793
 2608TIP3    H2 7831   4.233   5.040   0.214  0.1882  1.5823 -0.5663
 2609TIP3   OH2 7832   1.063   1.821   1.081 -0.5114 -0.4414  0.3236
 2609TIP3    H1 7833   0.980   1.865   1.098 -1.2508 -0.5057 -2.5928
 2609TIP3    H2 7834   1.048   1.730   1.107 -0.8611 -0.1439  1.1668
 2610TIP3   OH2 7835   1.188   5.016   1.348 -0.0693  0.0400 -0.2817
 2610TIP3    H1 7836   1.158   5.106   1.337  0.5653  0.5521  1.7130
 2610TIP3    H2 7837   1.111   4.963   1.330 -1.4150  1.1698  1.6669
 2611TIP3   OH2 7838   3.766   1.623   2.911 -0.1467 -0.0052 -0.1226
 2611TIP3    H1 7839   3.758   1.601   2.818 -2.0188 -0.9858  0.2241
 2611TIP3    H2 7840   3.832   1.563   2.945  0.1623  0.0015 -0.6977
 2612TIP3   OH2 7841   5.190   0.262   2.624 -0.2810  0.7395 -0.7181
 2612TIP3    H1 7842   5.102   0.224   2.620 -0.2648  0.4310  0.9100
 2612TIP3    H2 7843   5.248   0.191   2.597 -0.5309  1.0759 -2.2222
 2613TIP3   OH2 7844   1.262   3.288   0.170 -0.6919  0.1682  0.4939
 2613TIP3    H1 7845   1.189   3.232   0.145 -0.3104 -0.1194  0.0106
 2613TIP3    H2 7846   1.245   3.371   0.126  0.1949 -0.4632 -1.1465
 2614TIP3   OH2 7847   2.112   1.448   4.596 -0.1703  0.0492  0.5034
 2614TIP3    H1 7848   2.163   1.367   4.601  1.2863  0.8426 -0.5562
 2614TIP3    H2 7849   2.076   1.459   4.684 -0.2594 -1.6492  0.7068
 2615TIP3   OH2 7850   4.077   0.108   2.429  0.4915  0.2663 -0.4660
 2615TIP3    H1 7851   4.066   0.202   2.416  1.5628  0.4805  0.0506
 2615TIP3    H2 7852   4.171   0.097   2.444  0.3166 -0.8362 -0.1159
 2616TIP3   OH2 7853   4.684   0.892   2.192 -0.2432 -0.3448  0.3836
 2616TIP3    H1 7854   4.747   0.888   2.120  0.2307 -3.0234  0.8433
 2616TIP3    H2 7855   4.598   0.890   2.148 -0.1084  2.4477 -0.2015
 2617TIP3   OH2 7856   4.033   1.519   0.333 -0.5673  0.1855  0.3744
 2617TIP3    H1 7857   4.119   1.489   0.304 -0.2802  1.4313 -0.1216
 2617TIP3    H2 7858   3.973   1.487   0.265 -0.2548  0.7730 -0.1915
 2618TIP3   OH2 7859   1.479   2.505   1.638 -0.1114  0.2388 -0.0022
 2618TIP3    H1 7860   1.540   2.453   1.689 -0.5604 -0.5602 -0.2595
 2618TIP3    H2 7861   1.418   2.541   1.702  0.4485  0.8091  0.2227
 2619TIP3   OH2 7862   0.197   2.877   1.869 -0.0627  0.7174  0.6167
 2619TIP3    H1 7863   0.164   2.945   1.809  0.0080  0.0273 -0.2160
 2619TIP3    H2 7864   0.291   2.894   1.875 -0.4105  2.4269  2.6612
 2620TIP3   OH2 7865   3.862   3.870   1.671  0.3824  0.4046 -0.9826
 2620TIP3    H1 7866   3.808   3.795   1.698  0.3092  0.4376 -1.0393
 2620TIP3    H2 7867   3.810   3.914   1.604 -0.0617  1.1285 -0.1922
 2621TIP3   OH2 7868   1.635   1.220   2.296  0.1638 -0.0368  0.0843
 2621TIP3    H1 7869   1.579   1.217   2.374  0.7142 -0.2750  0.4809
 2621TIP3    H2 7870   1.619   1.307   2.259 -1.3301 -0.5240 -0.4717
 2622TIP3   OH2 7871   2.922   1.735   0.807  0.3072  0.5047  0.4430
 2622TIP3    H1 7872   2.985   1.758   0.875  1.2492  1.2924 -0.6664
 2622TIP3    H2 7873   2.910   1.815   0.756  0.0067 -0.1934 -0.6277
 2623TIP3   OH2 7874   1.010   5.582   0.199 -0.0867 -0.0674 -0.4923
 2623TIP3    H1 7875   0.984   5.513   0.138  1.8769 -1.6807  0.3490
 2623TIP3    H2 7876   1.051   5.649   0.145 -0.2422 -0.4948 -1.1454
 2624TIP3   OH2 7877   6.091   0.853   0.472  0.5427  0.0242 -0.2258
 2624TIP3    H1 7878   6.013   0.813   0.511 -0.5252  1.8314 -0.3905
 2624TIP3    H2 7879   6.128   0.905   0.543  0.7004  0.4119 -0.5927
 2625TIP3   OH2 7880   1.821   1.618   2.974 -0.1635 -0.4520  0.1403
 2625TIP3    H1 7881   1.881   1.646   3.043  1.7340 -0.6534 -1.3544
 2625TIP3    H2 7882   1.749   1.681   2.979  0.4601  0.2040  1.5532
 2626TIP3   OH2 7883   2.500   3.679   0.945  0.0480  0.1522  0.1856
 2626TIP3    H1 7884   2.444   3.697   0.869 -0.9029 -2.5944  0.1055
 2626TIP3    H2 7885   2.520   3.586   0.937  2.8508  0.5707  1.4552
 2627TIP3   OH2 7886   1.040   4.336   1.610 -0.3315  0.1303 -0.1464
 2627TIP3    H1 7887   1.090   4.325   1.529 -0.1249 -0.7011  0.0837
 2627TIP3    H2 7888   0.955   4.370   1.582  0.6473  2.5138 -0.4670
 2628TIP3   OH2 7889   3.711   5.816   2.375  0.3541  0.6064 -0.0209
 2628TIP3    H1 7890   3.683   5.741   2.323  1.1573  0.9570 -0.9945
 2628TIP3    H2 7891   3.792   5.788   2.417  1.3838  1.3210 -1.4332
 2629TIP3   OH2 7892   3.728   5.564   4.850 -0.5294 -0.4540  0.1298
 2629TIP3    H1 7893   3.811   5.601   4.819 -0.4785 -0.8325 -0.2040
 2629TIP3    H2 7894   3.713   5.488   4.793 -2.0142  0.6378 -1.0058
 2630TIP3   OH2 7895   2.352   0.823   0.851  0.3750  0.4625  0.0425
 2630TIP3    H1 7896   2.349   0.740   0.802  0.0653  0.5383 -0.0691
 2630TIP3    H2 7897   2.442   0.829   0.882 -0.4636 -1.8036  3.3402
 2631TIP3   OH2 7898   2.076   4.223   1.223  0.2910 -0.2869  0.4938
 2631TIP3    H1 7899   2.041   4.157   1.282 -0.6328  1.6471  2.2361
 2631TIP3    H2 7900   2.006   4.240   1.160  0.5829 -1.0382 -0.0432
 2632TIP3   OH2 7901   3.222   5.419   3.147  0.0469 -0.2397 -0.1444
 2632TIP3    H1 7902   3.226   5.400   3.241  1.7322  0.2611 -0.0783
 2632TIP3    H2 7903   3.299   5.374   3.111 -1.7558 -2.2917 -1.6848
 2633TIP3   OH2 7904   4.528   4.683   0.674  0.0406 -0.6513  0.7947
 2633TIP3    H1 7905   4.513   4.655   0.583  1.1978 -1.0451  0.7166
 2633TIP3    H2 7906   4.451   4.651   0.721  0.3311 -2.1282  0.3034
 2634TIP3   OH2 7907   4.216   5.791   1.213 -0.0676 -0.0372 -0.2897
 2634TIP3    H1 7908   4.207   5.739   1.134 -0.1638  0.4942 -0.6366
 2634TIP3    H2 7909   4.127   5.818   1.235  0.0891  0.8913 -0.7450
 2635TIP3   OH2 7910   6.035   1.944   4.847  0.5046 -0.3492 -0.1363
 2635TIP3    H1 7911   5.983   2.005   4.796  0.3855 -1.1348 -0.9890
 2635TIP3    H2 7912   5.974   1.908   4.912 -0.3172 -1.9304 -1.6987
 2636TIP3   OH2 7913   2.518   5.928   3.479  0.6443 -0.5015 -0.0549
 2636TIP3    H1 7914   2.428   5.897   3.489 -0.0180  0.4944 -2.2078
 2636TIP3    H2 7915   2.555   5.922   3.566 -1.1425 -2.0467  0.6748
 2637TIP3   OH2 7916   1.932   5.303   4.359  0.1905 -0.1474 -0.2324
 2637TIP3    H1 7917   1.911   5.210   4.368  1.3556 -0.4725 -0.6816
 2637TIP3    H2 7918   1.882   5.346   4.429 -2.5348 -0.7235 -1.7127
 2638TIP3   OH2 7919   0.881   4.985   0.002 -0.1779 -0.3130 -0.0873
 2638TIP3    H1 7920   0.819   4.968   0.074  0.4249 -0.6324  0.3611
 2638TIP3    H2 7921   0.967   4.985   0.044  0.4653 -3.0631 -1.1883
 2639TIP3   OH2 7922   0.099   3.276   4.130  0.3316  0.3152  0.2821
 2639TIP3    H1 7923   0.112   3.186   4.162  0.9701  0.2086 -0.2703
 2639TIP3    H2 7924   0.171   3.326   4.169  1.0432  0.2121 -0.8464
 2640TIP3   OH2 7925   0.024   2.547   0.463 -0.3921  0.0900  0.1464
 2640TIP3    H1 7926   0.110   2.584   0.443 -0.6970 -0.3456 -2.2879
 2640TIP3    H2 7927  -0.029   2.621   0.490  0.3189  0.6352  0.0646
 2641TIP3   OH2 7928   0.526   4.910   0.389 -0.1379  0.2381 -1.0379
 2641TIP3    H1 7929   0.462   4.960   0.441 -0.7564 -0.3409 -1.2212
 2641TIP3    H2 7930   0.536   4.961   0.309 -0.6880  0.1291 -1.1812
 2642TIP3   OH2 7931   4.523   5.807   2.423 -0.1242  0.0416 -0.1627
 2642TIP3    H1 7932   4.473   5.766   2.493  0.3160 -0.1594  0.0377
 2642TIP3    H2 7933   4.462   5.868   2.382 -0.8578 -0.9502 -0.5897
 2643TIP3   OH2 7934   5.002   1.426   1.622  0.3578  0.3364  0.3340
 2643TIP3    H1 7935   5.093   1.409   1.649  0.6771  2.1577  0.5324
 2643TIP3    H2 7936   5.009   1.455   1.531 -0.5047 -3.5206 -1.1713
 2644TIP3   OH2 7937   4.399   3.910   1.331 -0.3232  0.3625 -0.1674
 2644TIP3    H1 7938   4.420   3.976   1.265 -2.4631  0.7409 -0.5533
 2644TIP3    H2 7939   4.429   3.827   1.294  1.0294  0.9047 -0.3424
 2645TIP3   OH2 7940   2.127   0.594   5.129  0.3644 -0.2429 -0.0782
 2645TIP3    H1 7941   2.152   0.502   5.136 -1.2549 -0.6002  2.5059
 2645TIP3    H2 7942   2.175   0.637   5.200 -1.6298  0.1525  1.1165
 2646TIP3   OH2 7943   5.563   2.019   2.172  0.8406 -0.2104 -0.4530
 2646TIP3    H1 7944   5.595   2.078   2.105  0.2930 -0.3032 -0.8022
 2646TIP3    H2 7945   5.543   2.076   2.247  0.2552  0.0612 -0.8090
 2647TIP3   OH2 7946   5.018   4.842   0.966 -0.3388 -0.0256 -0.8368
 2647TIP3    H1 7947   5.046   4.924   0.927  0.9882 -0.2011 -0.3072
 2647TIP3    H2 7948   4.985   4.790   0.892 -1.3923  1.0477 -1.1366
 2648TIP3   OH2 7949   1.076   0.422   1.600  0.3790 -0.2546 -0.1846
 2648TIP3    H1 7950   0.984   0.402   1.615  0.3870  1.0262  2.0309
 2648TIP3    H2 7951   1.123   0.344   1.629  0.0584 -0.3374  0.1174
 2649TIP3   OH2 7952   4.825   1.860   3.903  0.8599 -0.4166 -0.3991
 2649TIP3    H1 7953   4.799   1.883   3.814  1.1280  0.0840 -0.3488
 2649TIP3    H2 7954   4.920   1.871   3.903  0.5902  3.1287  0.9399
 2650TIP3   OH2 7955   2.881   1.317   1.274  0.2528  0.1423  0.4966
 2650TIP3    H1 7956   2.924   1.358   1.199 -0.2175 -0.1594  0.0520
 2650TIP3    H2 7957   2.814   1.380   1.302 -0.6272 -0.3913 -0.3324
 2651TIP3   OH2 7958   3.134   1.247   4.170  1.2457 -0.4131  0.0197
 2651TIP3    H1 7959   3.154   1.187   4.242  2.5703  0.3335  0.3145
 2651TIP3    H2 7960   3.217   1.291   4.153  0.1515  1.9028  0.3421
 2652TIP3   OH2 7961   1.011   4.430   3.702  0.7662 -0.1629  0.1674
 2652TIP3    H1 7962   1.080   4.382   3.748  1.9831 -0.0690 -1.4686
 2652TIP3    H2 7963   0.982   4.370   3.633 -0.6522 -0.1034  0.6706
 2653TIP3   OH2 7964   5.736   1.589   4.273  0.0201 -0.1669 -0.2442
 2653TIP3    H1 7965   5.693   1.675   4.270 -0.7274 -0.4995  0.4438
 2653TIP3    H2 7966   5.806   1.600   4.337 -1.1612 -0.5120  1.1750
 2654TIP3   OH2 7967   0.797   1.371   4.346  0.0762 -0.3538  0.0142
 2654TIP3    H1 7968   0.781   1.281   4.374 -0.9514 -0.2591 -0.2460
 2654TIP3    H2 7969   0.776   1.372   4.253 -2.0283  0.6320  0.4489
 2655TIP3   OH2 7970   6.016   0.099   1.996  0.4489  0.5044  0.0585
 2655TIP3    H1 7971   5.955   0.041   1.951  0.8228  1.1302 -1.3186
 2655TIP3    H2 7972   5.983   0.104   2.086 -1.5652  0.8727 -0.6546
 2656TIP3   OH2 7973   5.887   3.770   0.627  0.1444  0.3990 -0.5599
 2656TIP3    H1 7974   5.812   3.779   0.568  0.2560  0.8716 -0.6285
 2656TIP3    H2 7975   5.850   3.775   0.715 -0.2474 -1.8412 -0.5212
 2657TIP3   OH2 7976   3.401   0.099   4.352 -0.4632  0.0068 -0.1432
 2657TIP3    H1 7977   3.424   0.048   4.275 -0.0055 -0.4965  0.3157
 2657TIP3    H2 7978   3.368   0.182   4.318 -0.0290 -0.1172 -0.8654
 2658TIP3   OH2 7979   5.294   5.080   2.455  0.1858  0.1380  0.3434
 2658TIP3    H1 7980   5.245   5.112   2.531 -0.8801  0.4541 -0.4465
 2658TIP3    H2 7981   5.264   4.990   2.444 -1.0614  0.6477 -0.7602
 2659TIP3   OH2 7982   6.322   0.132   5.182  0.6235  0.2463 -0.3721
 2659TIP3    H1 7983   6.246   0.188   5.164 -0.5647 -1.0047  0.5562
 2659TIP3    H2 7984   6.378   0.142   5.104 -1.5955 -0.5938 -2.1878
 2660TIP3   OH2 7985   3.849   5.462   1.721  0.4003  0.0152 -0.0522
 2660TIP3    H1 7986   3.759   5.429   1.732  0.9791 -0.8993  2.7827
 2660TIP3    H2 7987   3.899   5.386   1.690  0.8874 -0.6898  2.2560
 2661TIP3   OH2 7988   5.411   2.559   1.741 -0.3840 -0.1405 -0.0802
 2661TIP3    H1 7989   5.338   2.520   1.692 -0.2024 -0.8455  0.1991
 2661TIP3    H2 7990   5.489   2.526   1.696 -0.1890 -1.5129  1.1751
 2662TIP3   OH2 7991   5.268   2.782   3.225  0.2862  0.0274 -0.0301
 2662TIP3    H1 7992   5.343   2.801   3.169  0.2556 -2.1814 -0.9300
 2662TIP3    H2 7993   5.261   2.686   3.225 -2.4200  0.1222  0.1363
 2663TIP3   OH2 7994   3.760   4.975   3.768  0.0742  0.0118 -0.1071
 2663TIP3    H1 7995   3.742   4.909   3.835 -1.3764  1.0754  0.6008
 2663TIP3    H2 7996   3.854   4.966   3.751  1.0740  1.1294  3.7014
 2664TIP3   OH2 7997   0.234   4.406   2.720 -0.1260 -0.5609 -0.4372
 2664TIP3    H1 7998   0.213   4.407   2.813  0.3007  0.0168 -0.3392
 2664TIP3    H2 7999   0.182   4.477   2.683 -0.5930 -1.0358 -0.7178
 2665TIP3   OH2 8000   2.251   0.126   1.281 -0.0781  0.0070 -0.2144
 2665TIP3    H1 8001   2.204   0.068   1.221  1.8978 -0.6107 -1.2628
 2665TIP3    H2 8002   2.184   0.156   1.342 -1.7418 -1.0888 -1.3890
 2666TIP3   OH2 8003   4.626   5.745   1.487 -0.7767 -0.6510 -0.2150
 2666TIP3    H1 8004   4.592   5.661   1.517  2.4444 -1.8669  0.4741
 2666TIP3    H2 8005   4.571   5.769   1.413 -0.6175 -4.4468 -1.7905
 2667TIP3   OH2 8006   3.615   5.127   0.626  0.4840  0.1481 -0.0968
 2667TIP3    H1 8007   3.579   5.089   0.546 -1.9364  1.2304  0.3813
 2667TIP3    H2 8008   3.654   5.209   0.598  1.1804 -0.2814 -0.4012
 2668TIP3   OH2 8009   6.129   3.237   1.825 -0.2171  0.3382 -0.4800
 2668TIP3    H1 8010   6.044   3.230   1.782  0.4890  3.2708 -2.6627
 2668TIP3    H2 8011   6.149   3.330   1.824  2.2244 -0.0485  1.6703
 2669TIP3   OH2 8012   3.851   1.336   1.507  0.0986 -0.4270 -0.2738
 2669TIP3    H1 8013   3.871   1.265   1.569  0.0081 -0.5790 -0.4173
 2669TIP3    H2 8014   3.792   1.295   1.443 -1.6836  0.3154  0.8085
 2670TIP3   OH2 8015   2.809   2.593   0.793 -0.3315  0.1170  0.3296
 2670TIP3    H1 8016   2.779   2.631   0.710 -0.0388 -1.1968 -0.4019
 2670TIP3    H2 8017   2.771   2.649   0.860 -1.6622  0.4347 -0.6544
 2671TIP3   OH2 8018   4.058   1.668   0.586  0.2751  0.1326  0.2163
 2671TIP3    H1 8019   4.040   1.616   0.508 -0.5560 -0.1109  0.5614
 2671TIP3    H2 8020   3.977   1.717   0.602 -0.1273 -0.9840  1.8075
 2672TIP3   OH2 8021   2.857   0.154   1.091 -0.1500  0.0349  0.4528
 2672TIP3    H1 8022   2.949   0.175   1.107  0.3937 -2.2413  0.6525
 2672TIP3    H2 8023   2.845   0.067   1.129 -2.2984  0.1119  0.0785
 2673TIP3   OH2 8024   0.104   4.474   4.258  0.3271 -0.1402  0.0204
 2673TIP3    H1 8025   0.051   4.529   4.200  1.7631  0.5320 -0.7090
 2673TIP3    H2 8026   0.144   4.535   4.319  0.2396 -0.6478  0.5955
 2674TIP3   OH2 8027   1.452   5.362   1.983  0.1995 -0.3457  0.3694
 2674TIP3    H1 8028   1.451   5.411   1.901 -0.7825  1.1581  1.2117
 2674TIP3    H2 8029   1.536   5.316   1.983  0.6398  0.3958 -1.0207
 2675TIP3   OH2 8030   1.638   3.638   3.332  0.3485  0.0207  0.0690
 2675TIP3    H1 8031   1.544   3.657   3.343  0.2577 -0.6381  0.4337
 2675TIP3    H2 8032   1.680   3.680   3.407  0.4406  0.9722 -0.4976
 2676TIP3   OH2 8033   2.441   1.313   2.095 -0.5210 -0.4159  0.0328
 2676TIP3    H1 8034   2.526   1.311   2.139 -1.3687  1.5856  1.9856
 2676TIP3    H2 8035   2.446   1.245   2.027  2.6932 -0.1804 -0.0911
 2677TIP3   OH2 8036   5.378   1.855   4.814  0.1216  0.0784  0.0798
 2677TIP3    H1 8037   5.365   1.942   4.851 -0.2574  0.8744 -1.8127
 2677TIP3    H2 8038   5.290   1.828   4.786  0.6550  0.5846 -2.3813
 2678TIP3   OH2 8039   2.434   2.381   4.810 -0.2104 -0.0290 -0.4646
 2678TIP3    H1 8040   2.355   2.392   4.758 -0.0684  1.1254 -0.4690
 2678TIP3    H2 8041   2.479   2.465   4.803  1.1319 -0.7356 -0.6373
 2679TIP3   OH2 8042   5.422   5.035   4.086 -0.3107  0.0628  0.2737
 2679TIP3    H1 8043   5.411   4.948   4.046  0.4441 -0.0906  0.3955
 2679TIP3    H2 8044   5.372   5.093   4.029 -1.8419 -0.6144  0.8576
 2680TIP3   OH2 8045   3.921   1.850   3.758 -0.0127 -0.3957  1.0723
 2680TIP3    H1 8046   3.838   1.818   3.722 -0.2261  1.2782 -0.0347
 2680TIP3    H2 8047   3.971   1.771   3.778 -1.8586 -1.4559  1.7811
 2681TIP3   OH2 8048   0.025   0.377   1.065  0.2971  0.0519 -0.4219
 2681TIP3    H1 8049   0.099   0.438   1.062  0.6249 -0.2853  0.3646
 2681TIP3    H2 8050   0.033   0.325   0.985 -0.9148  2.0560 -1.9565
 2682TIP3   OH2 8051   1.707   4.831   1.423  0.2696  0.2359  0.2675
 2682TIP3    H1 8052   1.684   4.771   1.353  0.9141 -0.9475  1.0437
 2682TIP3    H2 8053   1.802   4.824   1.432  0.1298 -0.1398  1.6871
 2683TIP3   OH2 8054   0.893   4.454   2.832  0.6531 -0.3212  0.1220
 2683TIP3    H1 8055   0.818   4.484   2.884  1.1149  0.4833  0.3490
 2683TIP3    H2 8056   0.965   4.449   2.895  0.5204 -2.3546  0.1829
 2684TIP3   OH2 8057   1.630   2.716   3.645  0.1654 -0.5168 -0.2847
 2684TIP3    H1 8058   1.567   2.784   3.672  1.4024  0.4471  0.2924
 2684TIP3    H2 8059   1.643   2.664   3.724  2.2542  1.0777  0.5290
 2685TIP3   OH2 8060   0.509   2.159   0.589  0.7226 -0.1004  1.0484
 2685TIP3    H1 8061   0.580   2.109   0.628  1.9712  0.5980 -0.2606
 2685TIP3    H2 8062   0.526   2.250   0.613  0.5473  0.1317  0.3350
 2686TIP3   OH2 8063   4.629   4.865   3.634 -0.1459 -0.1591 -0.3507
 2686TIP3    H1 8064   4.628   4.928   3.706 -1.2144  0.3497 -0.7884
 2686TIP3    H2 8065   4.618   4.918   3.556 -2.3895 -0.9596 -0.6464
 2687TIP3   OH2 8066   4.850   1.945   0.968  0.0590  0.0899 -0.0943
 2687TIP3    H1 8067   4.791   2.009   0.928 -1.1599 -1.2334 -0.5011
 2687TIP3    H2 8068   4.795   1.868   0.983  1.1838 -0.4530  1.5136
 2688TIP3   OH2 8069   3.747   5.805   0.751 -0.0250  0.6235  0.2586
 2688TIP3    H1 8070   3.695   5.783   0.674  1.0005  0.0807 -0.3033
 2688TIP3    H2 8071   3.719   5.742   0.817 -0.6584  0.8647  0.2239
 2689TIP3   OH2 8072   1.084   4.569   0.509 -0.2275 -0.2802 -0.2647
 2689TIP3    H1 8073   1.125   4.509   0.573 -0.8173 -1.5815 -1.0599
 2689TIP3    H2 8074   0.990   4.553   0.519 -0.3343 -0.3288 -1.2976
 2690TIP3   OH2 8075   1.363   2.036   4.138  0.4586 -0.2552 -0.1965
 2690TIP3    H1 8076   1.309   2.113   4.119 -1.6915 -1.6003  0.0997
 2690TIP3    H2 8077   1.435   2.041   4.076 -0.0516  1.5775 -0.6989
 2691TIP3   OH2 8078   2.825   4.458   2.923 -0.2984  0.3285  0.0660
 2691TIP3    H1 8079   2.835   4.542   2.876  1.3607 -0.1028 -0.4319
 2691TIP3    H2 8080   2.731   4.443   2.926 -0.5398  0.1384 -3.6760
 2692TIP3   OH2 8081   2.449   3.632   2.606 -0.0098 -0.5829  0.2251
 2692TIP3    H1 8082   2.491   3.546   2.602 -0.5109 -0.7990 -0.6948
 2692TIP3    H2 8083   2.521   3.695   2.598  0.1734 -0.9422 -1.3182
 2693TIP3   OH2 8084   1.548   3.590   0.881  0.5351  0.0695 -0.3174
 2693TIP3    H1 8085   1.501   3.512   0.911  1.0959 -0.6555 -1.2687
 2693TIP3    H2 8086   1.523   3.598   0.789  0.6009  0.9316 -0.2631
 2694TIP3   OH2 8087   5.413   5.322   1.491  0.1642 -0.0794 -0.0190
 2694TIP3    H1 8088   5.427   5.415   1.469  1.0878 -0.0719  0.5473
 2694TIP3    H2 8089   5.318   5.312   1.494  0.0517  0.9515  0.3051
 2695TIP3   OH2 8090   1.059   4.031   1.374 -0.1561  0.1556  0.0720
 2695TIP3    H1 8091   0.975   4.061   1.341  0.2207 -0.6647 -1.7585
 2695TIP3    H2 8092   1.114   4.109   1.376 -0.6896  0.5263  0.4147
 2696TIP3   OH2 8093   5.390   5.220   0.455 -0.5927 -0.0839  0.2716
 2696TIP3    H1 8094   5.379   5.276   0.532 -0.3997 -0.6768  0.7406
 2696TIP3    H2 8095   5.350   5.137   0.480  0.7549 -0.7532  0.2807
 2697TIP3   OH2 8096   5.420   2.050   0.226  0.0342 -0.0397 -0.1369
 2697TIP3    H1 8097   5.423   2.129   0.172  0.0693 -0.3359 -0.5721
 2697TIP3    H2 8098   5.365   2.074   0.300 -0.4528  0.2029 -0.5743
 2698TIP3   OH2 8099   6.028   2.426   3.243  0.3087 -0.6014 -0.0607
 2698TIP3    H1 8100   5.956   2.430   3.180 -1.2733 -2.3438  1.4957
 2698TIP3    H2 8101   6.009   2.496   3.305  1.0205  0.1281 -0.6442
 2699TIP3   OH2 8102   2.444   5.352   5.060  0.0816 -0.5171 -0.4531
 2699TIP3    H1 8103   2.397   5.273   5.033  1.2287 -1.5973  0.5739
 2699TIP3    H2 8104   2.376   5.410   5.094 -0.8917 -0.6819 -1.9948
 2700TIP3   OH2 8105   4.022   5.460   1.420  0.4161 -0.0279 -0.5104
 2700TIP3    H1 8106   4.015   5.404   1.498 -0.7590  0.3759 -0.3063
 2700TIP3    H2 8107   4.101   5.511   1.435 -0.0578  0.4013  0.6684
 2701TIP3   OH2 8108   0.023   3.433   4.463 -0.7659 -0.3459 -0.6493
 2701TIP3    H1 8109  -0.024   3.462   4.385 -0.8326  1.5922  0.0610
 2701TIP3    H2 8110   0.079   3.361   4.432 -0.7720  0.3850 -2.4708
 2702TIP3   OH2 8111   0.731   0.300   3.202 -0.2936  1.0284 -0.3062
 2702TIP3    H1 8112   0.653   0.354   3.214 -0.6662  0.1365  1.7307
 2702TIP3    H2 8113   0.704   0.212   3.228  1.0820  0.4612 -0.6956
 2703TIP3   OH2 8114   1.294   2.555   2.336 -0.0337  0.0135  0.0889
 2703TIP3    H1 8115   1.224   2.601   2.383 -0.4848  1.0116 -1.5052
 2703TIP3    H2 8116   1.308   2.607   2.257  3.2529  0.4513  0.8117
 2704TIP3   OH2 8117   6.113   1.124   4.197 -0.4500  0.1532 -0.4644
 2704TIP3    H1 8118   6.201   1.161   4.196 -0.7237  0.9829  1.6766
 2704TIP3    H2 8119   6.126   1.030   4.202  0.4302  0.3539  2.8277
 2705TIP3   OH2 8120   6.223   4.060   3.053 -0.2037  0.0110  0.2466
 2705TIP3    H1 8121   6.211   4.131   2.990  0.1020  0.8857  1.1479
 2705TIP3    H2 8122   6.252   3.986   3.001 -1.0596  0.3773 -0.7936
 2706TIP3   OH2 8123   1.376   1.464   1.045  0.4437 -0.5073  0.1706
 2706TIP3    H1 8124   1.371   1.547   0.997 -1.5326 -0.4727  0.3684
 2706TIP3    H2 8125   1.383   1.397   0.977 -0.2514 -0.3176 -0.0944
 2707TIP3   OH2 8126   3.756   3.011   0.018 -0.5436  0.4404  0.0792
 2707TIP3    H1 8127   3.803   3.040  -0.060 -1.1529  0.8742 -0.1420
 2707TIP3    H2 8128   3.814   2.949   0.060 -0.1581  0.2843 -0.6658
 2708TIP3   OH2 8129   1.876   2.084   1.907 -0.1462 -0.6623 -0.2782
 2708TIP3    H1 8130   1.906   1.994   1.921  0.2541 -0.3300  1.1787
 2708TIP3    H2 8131   1.957   2.135   1.905 -0.4531 -0.0313  1.5100
 2709TIP3   OH2 8132   0.064   4.773   4.201  0.3112  0.3613  0.2510
 2709TIP3    H1 8133   0.016   4.826   4.264  0.6528  0.7618  0.1793
 2709TIP3    H2 8134   0.016   4.782   4.119  0.3648  0.5501  0.2413
 2710TIP3   OH2 8135   5.103   3.271   0.249 -0.4147 -0.3744 -0.2579
 2710TIP3    H1 8136   5.035   3.325   0.289 -0.4634 -0.2758 -0.4724
 2710TIP3    H2 8137   5.092   3.185   0.291  0.1265 -0.0358  0.6070
 2711TIP3   OH2 8138   5.316   2.283   5.049  0.5493  0.0236  0.3669
 2711TIP3    H1 8139   5.237   2.320   5.011  0.2766 -1.5329 -0.6726
 2711TIP3    H2 8140   5.386   2.342   5.022 -0.2193  1.3822  1.2531
 2712TIP3   OH2 8141   3.984   2.056   3.009 -0.3438 -0.1894 -0.1648
 2712TIP3    H1 8142   3.956   1.971   2.974 -0.8485 -0.5508  1.0678
 2712TIP3    H2 8143   4.078   2.060   2.990 -0.5346 -0.4927 -1.2684
 2713TIP3   OH2 8144   2.841   2.007   2.188 -0.1827  0.6859  0.0391
 2713TIP3    H1 8145   2.833   1.919   2.152  1.0235 -0.5253  2.4860
 2713TIP3    H2 8146   2.815   1.998   2.279  0.8504  2.6702  0.5928
 2714TIP3   OH2 8147   0.793   0.131   2.760  0.1823 -0.2942  0.4029
 2714TIP3    H1 8148   0.778   0.093   2.847  0.8350  1.0104  1.1277
 2714TIP3    H2 8149   0.827   0.059   2.708  0.7140 -0.8782  1.5181
 2715TIP3   OH2 8150   4.329   2.608   0.987 -0.3830 -0.0304  0.0865
 2715TIP3    H1 8151   4.280   2.677   0.942 -0.2440  1.0246  1.4588
 2715TIP3    H2 8152   4.301   2.615   1.078  0.6408 -0.9030  0.4876
 2716TIP3   OH2 8153   0.093   3.607   1.031  0.2112  0.9714  0.0270
 2716TIP3    H1 8154   0.064   3.538   1.090 -1.9337  1.5071 -0.3135
 2716TIP3    H2 8155   0.133   3.672   1.088 -0.4982  0.8159  0.7173
 2717TIP3   OH2 8156   4.047   1.250   1.281 -0.2899 -0.3484 -0.4089
 2717TIP3    H1 8157   4.062   1.181   1.346 -0.9912  0.3591  0.5301
 2717TIP3    H2 8158   3.981   1.213   1.222 -1.7763  0.0199  0.9483
 2718TIP3   OH2 8159   4.405   3.938   2.370  0.0103 -0.5978  0.1583
 2718TIP3    H1 8160   4.459   4.016   2.358 -2.8949  1.3327 -1.6868
 2718TIP3    H2 8161   4.455   3.868   2.328  0.9978  1.1119 -1.6880
 2719TIP3   OH2 8162   5.934   5.713   3.163  0.0883  0.0393 -1.1794
 2719TIP3    H1 8163   5.989   5.644   3.126  1.3004 -0.6560  1.6631
 2719TIP3    H2 8164   5.995   5.780   3.193 -0.2990 -1.0990  2.7877
 2720TIP3   OH2 8165   2.035   0.268   2.621 -0.1376  0.0469  0.1806
 2720TIP3    H1 8166   2.097   0.338   2.641 -0.6010  0.0349  1.8371
 2720TIP3    H2 8167   1.992   0.296   2.541 -0.6609  1.9349  1.0702
 2721TIP3   OH2 8168   2.462   0.398   3.340 -0.3514 -0.4390  0.7434
 2721TIP3    H1 8169   2.388   0.449   3.306  0.0662 -1.2030 -1.5020
 2721TIP3    H2 8170   2.527   0.463   3.365  0.9377  0.3525 -3.7958
 2722TIP3   OH2 8171   3.554   2.082   1.473 -0.1690  0.3714 -0.4416
 2722TIP3    H1 8172   3.585   2.003   1.517  0.4674  0.7928 -0.1082
 2722TIP3    H2 8173   3.472   2.104   1.516  0.8823  1.2920  1.2088
 2723TIP3   OH2 8174   3.135   2.180   4.915  0.0362  0.0960 -0.0241
 2723TIP3    H1 8175   3.168   2.246   4.976 -0.7013  0.1763  0.2953
 2723TIP3    H2 8176   3.213   2.144   4.874  0.6350 -0.6873  1.7044
 2724TIP3   OH2 8177   6.057   2.139   2.953 -0.0251  0.8804 -0.7403
 2724TIP3    H1 8178   6.110   2.074   2.999  1.4357  1.7473 -1.1417
 2724TIP3    H2 8179   5.980   2.151   3.009 -0.0638 -0.7695 -0.3920
 2725TIP3   OH2 8180   4.020   3.881   3.220 -0.3132  0.2041 -0.0196
 2725TIP3    H1 8181   4.089   3.817   3.240 -0.6876  0.3484  1.9194
 2725TIP3    H2 8182   4.043   3.914   3.133  2.0959  0.3068  0.5849
 2726TIP3   OH2 8183   5.628   0.549   2.746  0.2562  0.2849 -0.2298
 2726TIP3    H1 8184   5.708   0.558   2.694  0.0311  0.1832 -0.5982
 2726TIP3    H2 8185   5.622   0.455   2.765  0.5914  0.3830  0.3918
 2727TIP3   OH2 8186   3.940   2.643   5.148 -0.0266 -0.5052 -0.0309
 2727TIP3    H1 8187   3.872   2.577   5.134 -0.6385 -0.6232  2.8424
 2727TIP3    H2 8188   4.022   2.594   5.144 -0.2177 -0.7718 -1.2499
 2728TIP3   OH2 8189   3.718   2.111   3.825  0.1494 -0.0631 -0.2001
 2728TIP3    H1 8190   3.626   2.099   3.802 -1.0194  2.4616  2.4488
 2728TIP3    H2 8191   3.741   2.197   3.789  1.8144 -0.9946 -1.5199
 2729TIP3   OH2 8192   5.813   1.941   1.126  0.6860  0.3722  0.1427
 2729TIP3    H1 8193   5.720   1.958   1.140  0.3565 -0.3690 -1.0708
 2729TIP3    H2 8194   5.820   1.846   1.121  1.1890  0.4682 -1.7398
 2730TIP3   OH2 8195   2.629   2.191   1.797 -0.5943 -0.2355  0.0886
 2730TIP3    H1 8196   2.697   2.195   1.863 -0.9403  1.8158  0.3805
 2730TIP3    H2 8197   2.584   2.108   1.814  0.9558 -0.9902  0.7174
 2731TIP3   OH2 8198   1.407   2.115   5.067 -0.2725  0.2953 -0.2789
 2731TIP3    H1 8199   1.452   2.131   5.150 -2.2744  0.8613  0.7725
 2731TIP3    H2 8200   1.321   2.080   5.093 -0.5958 -0.4355 -2.1649
 2732TIP3   OH2 8201   3.438   2.537   3.136 -0.5479  0.1301  0.9143
 2732TIP3    H1 8202   3.458   2.549   3.043  0.4948  2.1606  1.3360
 2732TIP3    H2 8203   3.523   2.524   3.177 -0.8991  0.2918  1.7031
 2733TIP3   OH2 8204   4.011   3.372   3.808  0.0443  0.5404 -1.1376
 2733TIP3    H1 8205   3.959   3.389   3.886  0.9854  0.6672 -0.5188
 2733TIP3    H2 8206   3.949   3.379   3.736 -0.7894  0.6801 -0.4247
 2734TIP3   OH2 8207   0.591   2.098   0.951  0.0286  0.8836  0.2133
 2734TIP3    H1 8208   0.617   2.118   1.041 -0.3758  1.6516  0.1670
 2734TIP3    H2 8209   0.527   2.165   0.929 -0.0197  0.5860 -0.5834
 2735TIP3   OH2 8210   3.560   2.725   3.538  0.2363 -0.5716  0.6961
 2735TIP3    H1 8211   3.590   2.808   3.575  0.5636 -0.1875 -0.3887
 2735TIP3    H2 8212   3.604   2.719   3.453 -2.9778  0.1933 -1.1898
 2736TIP3   OH2 8213   2.053   2.928   3.374 -0.3110  0.0834 -0.1736
 2736TIP3    H1 8214   2.107   2.896   3.301 -0.5001  0.1481 -0.3415
 2736TIP3    H2 8215   2.056   3.023   3.367 -0.3202  0.0900 -0.0905
 2737TIP3   OH2 8216   5.422   1.341   3.972  0.2992 -0.7803  0.2056
 2737TIP3    H1 8217   5.459   1.256   3.949  0.7191 -0.2815 -1.0485
 2737TIP3    H2 8218   5.375   1.369   3.894  0.0942  0.1025  0.6291
 2738TIP3   OH2 8219   2.240   4.757   4.746 -0.9073 -0.1685  0.6485
 2738TIP3    H1 8220   2.302   4.695   4.786 -0.3279 -0.8640 -1.2534
 2738TIP3    H2 8221   2.288   4.840   4.741 -0.2732 -0.5888 -0.3959
 2739TIP3   OH2 8222   0.812   2.982   1.688 -0.2159 -0.1143 -0.3935
 2739TIP3    H1 8223   0.752   3.034   1.742 -0.8117  1.0158 -2.0468
 2739TIP3    H2 8224   0.899   3.014   1.711 -0.3361 -0.6865  0.9231
 2740TIP3   OH2 8225   5.104   1.625   1.110  0.3088 -0.3157  0.1476
 2740TIP3    H1 8226   5.076   1.716   1.099 -1.3695 -0.8418 -0.2116
 2740TIP3    H2 8227   5.041   1.575   1.059  0.9088 -1.7251  0.7588
 2741TIP3   OH2 8228   1.265   5.329   0.572  0.2828 -0.1993 -0.1473
 2741TIP3    H1 8229   1.308   5.401   0.525 -0.1005 -0.5190 -1.0156
 2741TIP3    H2 8230   1.209   5.372   0.636  1.0224  0.2461  0.2157
 2742TIP3   OH2 8231   4.918   1.866   1.715  0.4079 -0.1962  0.1850
 2742TIP3    H1 8232   5.008   1.850   1.687  1.4469  1.0196  2.5283
 2742TIP3    H2 8233   4.881   1.778   1.728  1.5635 -0.7125  0.1245
 2743TIP3   OH2 8234   4.847   3.040   3.772  0.1991  0.2209 -0.1225
 2743TIP3    H1 8235   4.807   3.098   3.836  1.3700  0.4601  0.4280
 2743TIP3    H2 8236   4.927   3.008   3.815  1.5154  1.1260 -1.7804
 2744TIP3   OH2 8237   2.888   5.750   3.510  0.0822 -0.4589  0.5346
 2744TIP3    H1 8238   2.836   5.674   3.483 -0.5547  0.8556 -2.4017
 2744TIP3    H2 8239   2.976   5.731   3.477  0.6016 -1.0559  2.2004
 2745TIP3   OH2 8240   6.000   4.655   4.107 -0.4014  0.4651 -0.4841
 2745TIP3    H1 8241   6.049   4.733   4.135 -0.7173  0.3610  0.3836
 2745TIP3    H2 8242   5.921   4.690   4.066 -0.5599  0.6041 -0.0656
 2746TIP3   OH2 8243   4.357   3.869   2.627  0.1925  0.6789  0.4113
 2746TIP3    H1 8244   4.436   3.871   2.682  0.1898  0.5148  0.4210
 2746TIP3    H2 8245   4.387   3.894   2.540  0.5134 -0.7228  0.0931
 2747TIP3   OH2 8246   3.040   2.422   1.093  0.0432  0.0534 -0.3916
 2747TIP3    H1 8247   3.012   2.454   1.179  1.1234 -0.8170  0.3158
 2747TIP3    H2 8248   3.039   2.499   1.037 -0.8721  0.5997  0.3410
 2748TIP3   OH2 8249   1.111   2.132   3.619  0.0271 -0.7796 -0.1464
 2748TIP3    H1 8250   1.160   2.187   3.680 -0.2422 -0.6028 -0.0842
 2748TIP3    H2 8251   1.061   2.194   3.565 -4.4844 -0.8555  3.3153
 2749TIP3   OH2 8252   0.915   1.059   1.071  0.3460 -0.0403 -0.4831
 2749TIP3    H1 8253   0.993   1.081   1.021  1.9115 -2.2232  0.8261
 2749TIP3    H2 8254   0.934   1.090   1.160 -1.5928  2.0758 -0.7177
 2750TIP3   OH2 8255   0.474   5.705   3.918  0.4800  0.2029 -0.0873
 2750TIP3    H1 8256   0.557   5.680   3.959  0.3869  0.7550  0.4329
 2750TIP3    H2 8257   0.407   5.663   3.972  0.4139 -0.2882 -0.5395
 2751TIP3   OH2 8258   2.858   2.264   4.875 -0.0831  0.0001 -0.3726
 2751TIP3    H1 8259   2.920   2.221   4.933 -0.0629  2.4669  1.6153
 2751TIP3    H2 8260   2.794   2.196   4.853 -0.9177 -0.8293  3.7469
 2752TIP3   OH2 8261   2.707   2.581   3.500 -0.1386  0.0620 -0.4934
 2752TIP3    H1 8262   2.795   2.581   3.538 -0.4112 -0.4493  0.1589
 2752TIP3    H2 8263   2.668   2.663   3.531  0.5697  0.9655 -1.9194
 2753TIP3   OH2 8264   5.349   4.056   1.479  0.0798  0.7639 -0.7385
 2753TIP3    H1 8265   5.305   4.022   1.401 -2.2008  1.5366  0.1483
 2753TIP3    H2 8266   5.417   4.114   1.444  1.7313 -1.8249 -2.1730
 2754TIP3   OH2 8267   2.578   1.421   1.871 -0.2280 -0.1359  0.4262
 2754TIP3    H1 8268   2.552   1.329   1.875 -1.7561  0.1351 -1.5102
 2754TIP3    H2 8269   2.558   1.456   1.958  0.3302 -1.6034  1.1672
 2755TIP3   OH2 8270   2.459   0.564   1.721  0.1321  0.4892 -0.4231
 2755TIP3    H1 8271   2.508   0.641   1.692 -0.5411  1.3029  0.5442
 2755TIP3    H2 8272   2.425   0.588   1.807 -4.0590  0.9839 -1.9632
 2756TIP3   OH2 8273   1.334   1.573   2.127 -0.2929  0.0761  0.1648
 2756TIP3    H1 8274   1.258   1.519   2.149  0.0036 -0.7032 -0.6804
 2756TIP3    H2 8275   1.316   1.603   2.038  0.8174 -0.8881 -0.4047
 2757TIP3   OH2 8276   1.572   0.500   0.329 -0.2580 -0.7671 -0.3135
 2757TIP3    H1 8277   1.622   0.559   0.272 -0.0389 -0.3398  0.3028
 2757TIP3    H2 8278   1.482   0.507   0.298 -0.2367 -0.0803 -0.2315
 2758TIP3   OH2 8279   2.746   2.834   1.143  0.1167 -0.1524 -0.3595
 2758TIP3    H1 8280   2.660   2.837   1.100  0.3722  1.5419 -0.8153
 2758TIP3    H2 8281   2.728   2.796   1.229 -1.1519  0.4826 -0.3181
 2759TIP3   OH2 8282   0.835   0.829   3.318 -0.4355  0.2195 -0.2797
 2759TIP3    H1 8283   0.904   0.824   3.385 -0.3701  0.6132 -0.3160
 2759TIP3    H2 8284   0.842   0.746   3.270  0.0824  0.2986 -0.3469
 2760TIP3   OH2 8285   3.923   1.229   4.256 -0.4150 -0.2094  0.7263
 2760TIP3    H1 8286   3.981   1.285   4.307  1.4442 -1.9716  0.6902
 2760TIP3    H2 8287   3.860   1.196   4.320  0.5564 -0.6865  1.4709
 2761TIP3   OH2 8288   5.632   0.836   2.775  0.0723  0.0101 -0.1425
 2761TIP3    H1 8289   5.602   0.767   2.715  0.7892 -0.3582 -0.0845
 2761TIP3    H2 8290   5.634   0.793   2.861  0.8744  0.0027 -0.1647
 2762TIP3   OH2 8291   4.749   2.041   3.346 -0.0450  0.2069  0.1779
 2762TIP3    H1 8292   4.734   2.106   3.415  0.3141  0.2844  0.1827
 2762TIP3    H2 8293   4.662   2.026   3.308 -0.1639  0.5233  0.3236
 2763TIP3   OH2 8294   4.138   2.826   3.182 -0.2418  0.3206 -0.0436
 2763TIP3    H1 8295   4.083   2.782   3.118  2.5506 -1.3000 -1.5090
 2763TIP3    H2 8296   4.147   2.762   3.254 -1.0635  0.9948  0.6786
 2764TIP3   OH2 8297   2.885   3.889   5.136 -0.6410 -0.8043  0.1513
 2764TIP3    H1 8298   2.912   3.868   5.225 -1.6910  0.3188  0.7626
 2764TIP3    H2 8299   2.857   3.806   5.099 -1.0832 -1.1356  1.1876
 2765TIP3   OH2 8300   5.517   5.507   5.029  1.1584  0.1307  0.2786
 2765TIP3    H1 8301   5.437   5.552   5.055 -0.0765 -1.8029  0.0280
 2765TIP3    H2 8302   5.539   5.543   4.943  1.2256  1.4708  0.8378
 2766TIP3   OH2 8303   4.297   3.470   0.393 -0.0892  0.4566 -0.4419
 2766TIP3    H1 8304   4.383   3.468   0.433 -0.3823 -0.6187  0.1648
 2766TIP3    H2 8305   4.249   3.537   0.443 -0.3058 -0.5477  0.7341
 2767TIP3   OH2 8306   5.344   0.546   1.147  0.3300 -0.3571  0.2839
 2767TIP3    H1 8307   5.354   0.632   1.188 -1.7681  0.5016 -0.8128
 2767TIP3    H2 8308   5.426   0.532   1.100  0.7009  1.0851  0.4374
 2768TIP3   OH2 8309   1.618   4.971   1.654 -0.2224  0.4646 -0.2624
 2768TIP3    H1 8310   1.635   4.922   1.573 -2.0343 -1.6599  0.5466
 2768TIP3    H2 8311   1.651   4.915   1.724 -0.2114  1.5082  0.6003
 2769TIP3   OH2 8312   5.271   4.577   1.762  0.4975  0.4679  0.3226
 2769TIP3    H1 8313   5.344   4.527   1.797 -0.6130 -0.4657  1.3820
 2769TIP3    H2 8314   5.292   4.668   1.783  1.5342  0.2501  0.2522
 2770TIP3   OH2 8315   6.193   3.911   3.692  0.2835  0.5145 -0.1137
 2770TIP3    H1 8316   6.108   3.880   3.725 -0.0308  0.8319 -0.6075
 2770TIP3    H2 8317   6.232   3.957   3.766  0.9853 -1.4572  0.7993
 2771TIP3   OH2 8318   4.181   1.041   2.220 -0.0476 -0.1876 -0.4966
 2771TIP3    H1 8319   4.163   0.950   2.242  0.2330  0.0294  0.6584
 2771TIP3    H2 8320   4.264   1.061   2.263 -1.1375  1.2310  1.0864
 2772TIP3   OH2 8321   3.393   2.786   3.934 -0.0650  0.5012 -0.3401
 2772TIP3    H1 8322   3.371   2.873   3.966 -0.6342 -0.2624  1.4550
 2772TIP3    H2 8323   3.320   2.731   3.963  0.6386 -0.7139 -0.8170
 2773TIP3   OH2 8324   4.519   3.535   3.703 -0.3922 -0.2957  0.0053
 2773TIP3    H1 8325   4.504   3.470   3.771  1.7634  3.1249  4.2314
 2773TIP3    H2 8326   4.613   3.528   3.684 -0.2860  1.0422 -0.0115
 2774TIP3   OH2 8327   0.763   4.353   1.558 -0.3093  0.5679 -0.4240
 2774TIP3    H1 8328   0.689   4.395   1.602 -0.2804  0.9039 -0.6966
 2774TIP3    H2 8329   0.752   4.259   1.577 -0.6421  0.6465 -0.2217
 2775TIP3   OH2 8330   3.799   3.642   0.783 -0.1525  0.1520  0.3258
 2775TIP3    H1 8331   3.816   3.678   0.870  2.6791 -0.0622 -0.0171
 2775TIP3    H2 8332   3.778   3.550   0.799 -1.0039  0.4303  0.8493
 2776TIP3   OH2 8333   3.220   1.303   3.288 -0.5598 -0.4144 -0.5131
 2776TIP3    H1 8334   3.237   1.217   3.326 -1.0440 -0.2640  0.0724
 2776TIP3    H2 8335   3.169   1.349   3.355 -1.0996  0.0002 -1.1895
 2777TIP3   OH2 8336   2.016   3.571   1.149 -0.5439  0.3384  0.0289
 2777TIP3    H1 8337   1.957   3.600   1.079  0.8683  1.9498 -0.5817
 2777TIP3    H2 8338   2.055   3.652   1.182 -0.0555 -0.5297  1.6610
 2778TIP3   OH2 8339   4.621   1.442   3.299 -0.1008  0.0702  0.1799
 2778TIP3    H1 8340   4.540   1.435   3.350  2.0486 -0.2005  3.9114
 2778TIP3    H2 8341   4.643   1.535   3.302  0.2703 -0.0127  0.0342
 2779TIP3   OH2 8342   5.464   3.021   1.631  0.2728  0.9054  0.2689
 2779TIP3    H1 8343   5.374   3.050   1.615 -0.2424  0.1499  1.5980
 2779TIP3    H2 8344   5.459   2.972   1.713  2.1429  1.9920  1.1034
 2780TIP3   OH2 8345   2.370   3.259   3.203 -0.1631  0.2818  0.1211
 2780TIP3    H1 8346   2.370   3.289   3.294 -2.1418 -3.6608  1.6725
 2780TIP3    H2 8347   2.456   3.217   3.191 -0.2330  0.0390  0.4730
 2781TIP3   OH2 8348   3.993   1.933   2.646 -0.2303 -0.4366 -0.9022
 2781TIP3    H1 8349   3.994   1.905   2.554  1.6228  0.7137 -1.2798
 2781TIP3    H2 8350   4.042   1.865   2.692  1.1384  0.2944 -1.2295
 2782TIP3   OH2 8351   1.223   1.847   3.813  0.7862 -0.2772  0.5560
 2782TIP3    H1 8352   1.148   1.848   3.753  2.1546 -0.1433 -1.2404
 2782TIP3    H2 8353   1.184   1.845   3.900 -1.3265 -2.6259 -0.3187
 2783TIP3   OH2 8354   3.643   1.824   4.205 -0.3300  0.1427  0.2452
 2783TIP3    H1 8355   3.556   1.864   4.208  0.3750  1.8144 -0.1558
 2783TIP3    H2 8356   3.697   1.879   4.261  0.7931  0.0004 -0.6618
 2784TIP3   OH2 8357   2.379   4.729   2.832  0.2062 -0.8934 -0.2745
 2784TIP3    H1 8358   2.383   4.740   2.927 -1.5375  3.8260 -0.4427
 2784TIP3    H2 8359   2.451   4.782   2.799  0.7417 -2.4008 -1.6500
 2785TIP3   OH2 8360   3.209   5.307   0.014 -0.0599 -0.0810 -0.3928
 2785TIP3    H1 8361   3.161   5.248  -0.044 -1.1074 -1.4017  1.6952
 2785TIP3    H2 8362   3.177   5.286   0.102 -0.3966  3.5134  0.5086
 2786TIP3   OH2 8363   4.385   4.832   2.198  0.4118  0.4316  0.4025
 2786TIP3    H1 8364   4.406   4.768   2.131  1.8017  1.0640  0.2116
 2786TIP3    H2 8365   4.378   4.781   2.279 -0.7707 -0.2548 -0.1001
 2787TIP3   OH2 8366   0.518   5.636   2.440  0.1059 -0.3957 -0.2088
 2787TIP3    H1 8367   0.478   5.700   2.500 -1.5115 -1.8873  0.3738
 2787TIP3    H2 8368   0.526   5.683   2.357  1.5848  1.4349  0.8782
 2788TIP3   OH2 8369   3.994   0.906   0.061 -0.1617  0.0512 -0.0938
 2788TIP3    H1 8370   3.964   0.817   0.041 -0.6047 -0.3052  1.9365
 2788TIP3    H2 8371   4.085   0.896   0.088 -0.7187 -0.1036  1.8933
 2789TIP3   OH2 8372   0.190   0.101   4.535  0.4130 -0.1275 -0.0062
 2789TIP3    H1 8373   0.186   0.006   4.523  0.5517  0.0057 -1.2576
 2789TIP3    H2 8374   0.104   0.132   4.509  0.2360  0.0561  0.7909
 2790TIP3   OH2 8375   4.063   2.105   0.514 -0.1610 -0.7392 -0.5735
 2790TIP3    H1 8376   4.045   2.086   0.607  0.8872 -1.2376 -0.4502
 2790TIP3    H2 8377   4.006   2.045   0.466 -0.1487 -1.0232 -0.2392
 2791TIP3   OH2 8378   6.215   3.646   3.542 -0.0363  0.2748 -0.6910
 2791TIP3    H1 8379   6.122   3.644   3.521 -0.7819  1.4959  2.0620
 2791TIP3    H2 8380   6.238   3.739   3.546  0.8215  0.0346  0.4843
 2792TIP3   OH2 8381   3.401   5.011   0.754  0.2639 -0.3297  0.5488
 2792TIP3    H1 8382   3.459   5.081   0.724 -1.9830  1.0000 -1.0155
 2792TIP3    H2 8383   3.424   4.936   0.699 -0.3000  0.5496 -0.9370
 2793TIP3   OH2 8384   4.146   1.987   3.884  0.3314  0.4035  0.3449
 2793TIP3    H1 8385   4.079   1.963   3.820  1.4659 -0.0616 -0.7031
 2793TIP3    H2 8386   4.219   1.928   3.866  2.0507  2.5857 -0.2909
 2794TIP3   OH2 8387   3.149   2.319   1.840  0.9314  0.0995 -0.3738
 2794TIP3    H1 8388   3.109   2.343   1.756  1.1418 -0.0821 -0.5245
 2794TIP3    H2 8389   3.190   2.234   1.824  1.6366  0.4240 -0.3009
 2795TIP3   OH2 8390   1.782   0.902   1.762 -0.2010  0.1588 -0.0938
 2795TIP3    H1 8391   1.818   0.903   1.673 -1.4135 -2.8821 -0.7365
 2795TIP3    H2 8392   1.811   0.819   1.799  1.0791  1.7722  2.7990
 2796TIP3   OH2 8393   2.840   0.389   0.451 -0.3695  0.0478  0.2799
 2796TIP3    H1 8394   2.809   0.451   0.385 -0.5136 -0.0418  0.2637
 2796TIP3    H2 8395   2.761   0.363   0.498 -0.2956 -0.0548  0.3465
 2797TIP3   OH2 8396   3.548   2.919   0.802 -0.3509 -0.4136 -0.1296
 2797TIP3    H1 8397   3.597   2.983   0.852  0.3706 -0.0270 -1.3001
 2797TIP3    H2 8398   3.473   2.897   0.858  0.6660 -0.3591  1.3033
 2798TIP3   OH2 8399   0.758   0.592   4.309 -0.5409  0.0172 -1.1285
 2798TIP3    H1 8400   0.801   0.561   4.388  0.0099  2.0845 -0.5682
 2798TIP3    H2 8401   0.765   0.518   4.248 -1.3781 -1.8015  0.8357
 2799TIP3   OH2 8402   5.353   3.337   0.816  0.7853 -0.1340  0.1359
 2799TIP3    H1 8403   5.396   3.423   0.817  1.1070 -0.2570  2.3289
 2799TIP3    H2 8404   5.422   3.277   0.788  1.1913  0.0842  0.6228
 2800TIP3   OH2 8405   0.517   4.818   0.957 -0.1497  0.0307  0.2834
 2800TIP3    H1 8406   0.506   4.806   0.863  2.0653 -0.5120  0.0303
 2800TIP3    H2 8407   0.428   4.821   0.992 -1.0559 -3.2316 -1.3884
 2801TIP3   OH2 8408   2.350   5.537   1.478  0.0204  0.2639  0.1711
 2801TIP3    H1 8409   2.271   5.587   1.498 -0.6087  0.2744 -2.0606
 2801TIP3    H2 8410   2.402   5.595   1.421  1.5477  0.1579  1.3821
 2802TIP3   OH2 8411   4.725   5.971   1.544  0.1743 -0.1881  0.3514
 2802TIP3    H1 8412   4.711   5.878   1.526 -2.5141  0.0105  1.0755
 2802TIP3    H2 8413   4.717   6.014   1.458  0.4683 -0.4969  0.1645
 2803TIP3   OH2 8414   1.220  -0.007   0.936 -0.3311  0.0018 -0.1468
 2803TIP3    H1 8415   1.179  -0.018   0.850 -0.8345 -0.8542  0.1920
 2803TIP3    H2 8416   1.197   0.082   0.962 -0.4611  0.1495 -0.7422
 2804TIP3   OH2 8417   6.102   3.573   4.839 -0.0127  0.5483 -0.1221
 2804TIP3    H1 8418   6.038   3.505   4.856 -2.2240  2.0236 -1.8638
 2804TIP3    H2 8419   6.150   3.542   4.762  0.7659 -0.1361  0.6200
 2805TIP3   OH2 8420   0.596   0.744   4.754  0.2531  0.1363  0.1100
 2805TIP3    H1 8421   0.599   0.706   4.667 -2.4850 -0.2659  0.1049
 2805TIP3    H2 8422   0.644   0.827   4.747 -1.2086  0.8643 -2.2143
 2806TIP3   OH2 8423   0.401   1.579   0.508 -0.2402 -0.7364 -0.3461
 2806TIP3    H1 8424   0.367   1.645   0.568  1.4420 -1.0818  1.0594
 2806TIP3    H2 8425   0.410   1.625   0.424 -3.6299 -0.5337 -0.7385
 2807TIP3   OH2 8426   2.559   3.205   2.178 -0.0162 -0.5932  0.6606
 2807TIP3    H1 8427   2.641   3.219   2.224  0.8433  0.4112 -1.0548
 2807TIP3    H2 8428   2.498   3.268   2.216  0.0447 -1.1802  1.7735
 2808TIP3   OH2 8429   1.217   4.266   1.413 -0.2249 -0.3293  0.5937
 2808TIP3    H1 8430   1.249   4.270   1.323  0.0071 -0.2001  0.6797
 2808TIP3    H2 8431   1.289   4.302   1.466  0.4101 -2.1232  1.0320
 2809TIP3   OH2 8432   2.291   3.943   2.697  0.0582  0.2740  0.8021
 2809TIP3    H1 8433   2.274   3.981   2.612 -0.4604 -1.1885  0.2160
 2809TIP3    H2 8434   2.207   3.948   2.743 -0.7141 -2.1934 -0.1574
 2810TIP3   OH2 8435   1.408   3.647   0.592  0.7122 -0.1206 -0.3687
 2810TIP3    H1 8436   1.366   3.600   0.520  0.6652 -1.2596  0.3736
 2810TIP3    H2 8437   1.339   3.658   0.657  1.4588 -1.8199  0.7736
 2811TIP3   OH2 8438   5.348   4.909   4.544  0.1176  0.1837 -0.0924
 2811TIP3    H1 8439   5.348   4.999   4.576 -0.5876 -0.3143  1.4082
 2811TIP3    H2 8440   5.304   4.913   4.459  3.5608  1.8189 -2.0123
 2812TIP3   OH2 8441   0.331   3.434   0.560  0.0217  0.3566 -0.0876
 2812TIP3    H1 8442   0.258   3.434   0.622 -0.9976 -0.0998 -1.2497
 2812TIP3    H2 8443   0.290   3.436   0.474  1.4146  1.4465 -0.7670
 2813TIP3   OH2 8444   6.340   3.974   4.286  0.4751 -0.9768  0.1324
 2813TIP3    H1 8445   6.310   3.927   4.364  1.4777 -0.6276  0.7450
 2813TIP3    H2 8446   6.323   3.913   4.214 -4.5566  0.2653 -0.1023
 2814TIP3   OH2 8447   6.107   0.595   0.783 -0.1630  0.1195  0.5357
 2814TIP3    H1 8448   6.074   0.508   0.760  0.2357  0.2611 -0.6237
 2814TIP3    H2 8449   6.198   0.595   0.753  0.2270  0.5247  1.6418
 2815TIP3   OH2 8450   2.534   5.269   0.791 -0.2728 -0.2808  0.6793
 2815TIP3    H1 8451   2.556   5.349   0.742  0.3615 -0.2941  0.9301
 2815TIP3    H2 8452   2.439   5.261   0.782 -0.2460  0.0680 -0.0162
 2816TIP3   OH2 8453   6.099   3.112   0.060 -0.2523  0.2704  0.2724
 2816TIP3    H1 8454   6.097   3.115   0.155  0.2960 -0.8006  0.3337
 2816TIP3    H2 8455   6.108   3.203   0.033  2.0853  0.4252  1.3324
 2817TIP3   OH2 8456   3.070   5.309   1.987  0.0599  0.1343  0.4485
 2817TIP3    H1 8457   3.106   5.346   1.906  0.5158 -1.1260  0.0526
 2817TIP3    H2 8458   3.024   5.230   1.959  2.1585 -1.6076  1.6566
 2818TIP3   OH2 8459   0.831   0.206   2.119  0.0430 -0.1181 -0.3458
 2818TIP3    H1 8460   0.750   0.182   2.074 -1.7642  1.1576  1.9800
 2818TIP3    H2 8461   0.823   0.300   2.133  0.7397 -0.3581  2.0738
 2819TIP3   OH2 8462   4.837   2.064   0.193  0.8088  1.0197 -0.7714
 2819TIP3    H1 8463   4.860   1.971   0.191  0.1559  0.8346 -0.0965
 2819TIP3    H2 8464   4.838   2.091   0.101  0.1036  0.1168 -1.0567
 2820TIP3   OH2 8465   4.539   1.246   0.486  0.0195  0.2517  0.4371
 2820TIP3    H1 8466   4.611   1.185   0.504 -0.6862 -0.0449  2.4489
 2820TIP3    H2 8467   4.574   1.304   0.418  0.7504 -2.2877 -1.4898
 2821TIP3   OH2 8468   4.149   3.057   2.585 -0.3527 -0.0516 -0.3297
 2821TIP3    H1 8469   4.113   3.124   2.643 -2.2954  1.2659 -2.8829
 2821TIP3    H2 8470   4.221   3.100   2.540  2.0945 -1.4955  1.9178
 2822TIP3   OH2 8471   0.549   4.495   1.633 -0.3170 -0.1635 -0.3432
 2822TIP3    H1 8472   0.469   4.444   1.619 -0.6971  0.5615 -0.9134
 2822TIP3    H2 8473   0.532   4.578   1.587  1.4723 -0.6996 -2.1079
 2823TIP3   OH2 8474   3.349   2.371   3.913 -0.0846 -0.0816  0.2387
 2823TIP3    H1 8475   3.442   2.365   3.938  0.2963 -0.5771 -1.1969
 2823TIP3    H2 8476   3.347   2.434   3.841 -0.5814 -1.3462 -0.9026
 2824TIP3   OH2 8477   4.787   1.337   1.269 -0.3823 -0.3641  0.4509
 2824TIP3    H1 8478   4.778   1.371   1.180 -1.0387  0.5124  0.8413
 2824TIP3    H2 8479   4.751   1.248   1.265  0.2459 -0.5982 -0.3074
 2825TIP3   OH2 8480   1.924   5.371   2.204  0.4455 -0.1390  0.1451
 2825TIP3    H1 8481   1.875   5.321   2.269  0.2486  1.0178  0.9321
 2825TIP3    H2 8482   1.859   5.428   2.163  1.0662  1.3700  1.1536
 2826TIP3   OH2 8483   4.832   4.856   4.467  0.8406 -0.3759 -0.0268
 2826TIP3    H1 8484   4.810   4.920   4.399 -1.1161 -0.7250  0.2348
 2826TIP3    H2 8485   4.775   4.878   4.541  0.4310 -2.1464  0.2292
 2827TIP3   OH2 8486   4.416   5.460   2.589 -0.1630 -0.0478 -0.1868
 2827TIP3    H1 8487   4.449   5.468   2.678 -0.5188  1.6173 -0.1783
 2827TIP3    H2 8488   4.487   5.495   2.534  0.3628 -1.7327 -0.6602
 2828TIP3   OH2 8489   4.655   2.298   3.943  0.0370  0.1726  0.1073
 2828TIP3    H1 8490   4.733   2.275   3.891  0.3704  0.4904  0.4527
 2828TIP3    H2 8491   4.589   2.234   3.918  0.4362 -0.1477 -0.1394
 2829TIP3   OH2 8492   0.660   3.564   3.698  0.3739  0.0790 -0.1017
 2829TIP3    H1 8493   0.655   3.546   3.605  0.3334  0.2203 -0.1281
 2829TIP3    H2 8494   0.748   3.599   3.711  0.6675 -0.7031  0.0516
 2830TIP3   OH2 8495   4.698   5.108   0.917  0.1181  0.0105  0.0809
 2830TIP3    H1 8496   4.714   5.115   1.012  1.2932  0.4052 -0.1367
 2830TIP3    H2 8497   4.688   5.014   0.902  2.7358 -0.3526  0.2006
 2831TIP3   OH2 8498   0.513   3.621   1.534 -0.0474  0.0376 -0.1039
 2831TIP3    H1 8499   0.550   3.676   1.603 -0.6674  0.4121 -0.0502
 2831TIP3    H2 8500   0.543   3.662   1.452 -0.5265  0.4935 -0.0647
 2832TIP3   OH2 8501   4.378   1.485   3.415  0.0646 -0.5602  0.1613
 2832TIP3    H1 8502   4.344   1.459   3.329 -1.1663  0.4755  0.3094
 2832TIP3    H2 8503   4.332   1.428   3.477 -0.6902  0.1697  0.2860
 2833TIP3   OH2 8504   1.648   4.016   3.437  0.1348 -0.0455 -0.3302
 2833TIP3    H1 8505   1.689   4.087   3.487 -1.1728  0.8201 -0.4611
 2833TIP3    H2 8506   1.595   3.969   3.501  1.3796 -1.2374 -0.1372
 2834TIP3   OH2 8507   3.143   5.586   4.234  0.1379 -0.0881  0.4033
 2834TIP3    H1 8508   3.059   5.576   4.279 -0.5462  1.2038 -0.5337
 2834TIP3    H2 8509   3.154   5.505   4.185 -1.6730  0.5662 -1.2096
 2835TIP3   OH2 8510   0.481   0.032   0.238  0.2952 -0.1546  0.1420
 2835TIP3    H1 8511   0.439  -0.053   0.227 -0.3864 -0.1938  2.5556
 2835TIP3    H2 8512   0.426   0.093   0.188  0.6138 -1.0378 -1.3479
 2836TIP3   OH2 8513   4.574   3.749   2.839  0.5556 -0.1131  0.8321
 2836TIP3    H1 8514   4.590   3.836   2.875 -1.2711  0.5356  0.2141
 2836TIP3    H2 8515   4.496   3.718   2.886 -0.5588 -0.1518 -0.9289
 2837TIP3   OH2 8516   2.132   4.029   3.386  0.0884 -0.1293 -0.0574
 2837TIP3    H1 8517   2.109   3.974   3.312  0.4067 -0.0853 -0.1879
 2837TIP3    H2 8518   2.127   4.119   3.353  0.4319 -0.1181 -0.0835
 2838TIP3   OH2 8519   2.620   4.273   1.570  0.3806  0.3543 -0.3644
 2838TIP3    H1 8520   2.672   4.236   1.499  0.5036  2.1028 -1.2367
 2838TIP3    H2 8521   2.682   4.281   1.643  0.5885 -0.2596 -0.4684
 2839TIP3   OH2 8522   4.830   2.418   3.326 -0.1823  0.1496  0.0851
 2839TIP3    H1 8523   4.817   2.512   3.324 -1.4576 -0.0024 -2.2354
 2839TIP3    H2 8524   4.754   2.384   3.374 -0.7782  0.2106 -0.7887
 2840TIP3   OH2 8525   5.345   1.495   0.959  0.2940 -0.2275  0.0063
 2840TIP3    H1 8526   5.292   1.429   1.004  0.2859  0.5561  1.2057
 2840TIP3    H2 8527   5.302   1.578   0.979  0.0012  0.1177 -1.9119
 2841TIP3   OH2 8528   1.524   3.465   3.130  0.6782  0.2456 -0.3417
 2841TIP3    H1 8529   1.431   3.476   3.148  0.0777 -1.4549 -2.0397
 2841TIP3    H2 8530   1.568   3.505   3.205 -1.4370  0.0783  1.0830
 2842TIP3   OH2 8531   3.809   4.798   2.314  0.1310  0.2676 -0.3045
 2842TIP3    H1 8532   3.884   4.856   2.320 -1.1307  2.0106 -0.5769
 2842TIP3    H2 8533   3.789   4.774   2.404 -0.3845  1.7061 -0.0148
 2843TIP3   OH2 8534   0.051   4.391   5.130 -0.6324  0.3895 -0.3779
 2843TIP3    H1 8535   0.048   4.386   5.034  0.7397 -0.0342 -0.4172
 2843TIP3    H2 8536  -0.011   4.324   5.159 -1.9669  1.3270 -0.9413
 2844TIP3   OH2 8537   4.510   3.630   1.628  0.3000 -0.0131 -0.3049
 2844TIP3    H1 8538   4.599   3.646   1.597  0.2364 -0.2839 -0.6338
 2844TIP3    H2 8539   4.473   3.569   1.564 -0.2849  0.4758 -0.4399
 2845TIP3   OH2 8540   5.186   4.990   2.192  0.3754  0.1610  0.3520
 2845TIP3    H1 8541   5.152   4.937   2.265 -1.9991 -1.0029 -1.4610
 2845TIP3    H2 8542   5.226   4.927   2.133  2.0585  1.0685  0.4528
 2846TIP3   OH2 8543   1.329   2.759   3.668  0.1136 -0.0953  0.5474
 2846TIP3    H1 8544   1.281   2.711   3.600 -1.7870 -0.1961  1.8909
 2846TIP3    H2 8545   1.371   2.832   3.621 -0.3134 -0.7430 -0.8779
 2847TIP3   OH2 8546   3.147   0.649   3.354  0.4882  0.3700  0.5075
 2847TIP3    H1 8547   3.197   0.642   3.272 -0.6515  1.6916 -0.3429
 2847TIP3    H2 8548   3.194   0.591   3.415  1.1794 -0.9236 -1.1482
 2848TIP3   OH2 8549   0.391   1.318   4.869  0.1982  0.3712  0.0297
 2848TIP3    H1 8550   0.306   1.331   4.827  0.8985  0.5557 -1.3748
 2848TIP3    H2 8551   0.426   1.239   4.829  0.6362  0.2213  0.6990
 2849TIP3   OH2 8552   5.021   5.065   3.152 -0.1131 -0.1291 -0.0576
 2849TIP3    H1 8553   4.975   5.096   3.074 -0.3795  0.2349  0.2391
 2849TIP3    H2 8554   5.073   4.991   3.122 -1.5742 -1.1087 -0.2313
 2850TIP3   OH2 8555   2.017   2.077   0.052  0.5260 -0.3680  0.7675
 2850TIP3    H1 8556   1.964   2.093  -0.026  0.5068  0.1787  0.8899
 2850TIP3    H2 8557   2.035   2.164   0.087 -1.8448 -0.6832  2.9824
 2851TIP3   OH2 8558   1.184   3.845   2.790  0.3680 -0.3370  0.3524
 2851TIP3    H1 8559   1.137   3.836   2.872  0.3054 -1.2090  0.2319
 2851TIP3    H2 8560   1.259   3.786   2.798  1.5008  1.0838  0.5698
 2852TIP3   OH2 8561   2.986   0.437   0.793 -0.1869 -0.2443 -0.1696
 2852TIP3    H1 8562   2.899   0.468   0.819 -0.3397 -0.1193 -0.8063
 2852TIP3    H2 8563   2.981   0.342   0.801 -0.6510 -0.2986 -0.9819
 2853TIP3   OH2 8564   1.866   3.856   0.053 -0.4358  0.1059 -0.0896
 2853TIP3    H1 8565   1.960   3.871   0.039 -0.8090  1.9328 -0.9829
 2853TIP3    H2 8566   1.828   3.863  -0.034 -1.5500  0.7823  0.4333
 2854TIP3   OH2 8567   3.265   4.973   0.037  0.2489 -0.4245  0.4730
 2854TIP3    H1 8568   3.255   4.880   0.016 -1.0361 -0.2813  0.4050
 2854TIP3    H2 8569   3.297   4.974   0.127 -1.6351 -0.9217  1.1854
 2855TIP3   OH2 8570   6.167   4.608   3.862  0.2166  0.0126  0.1535
 2855TIP3    H1 8571   6.192   4.696   3.891  0.6361  0.3086 -1.0386
 2855TIP3    H2 8572   6.153   4.617   3.768 -0.1694 -1.1088  0.0894
 2856TIP3   OH2 8573   4.324   2.718   4.647  0.0468 -0.5081  0.3337
 2856TIP3    H1 8574   4.371   2.634   4.651 -2.0679 -1.8276 -1.0019
 2856TIP3    H2 8575   4.356   2.760   4.567  0.2099 -0.6058  0.3475
 2857TIP3   OH2 8576   5.413   4.236   4.918  0.0749  0.2938 -0.1752
 2857TIP3    H1 8577   5.490   4.264   4.868  0.2661  0.6859  0.3358
 2857TIP3    H2 8578   5.449   4.186   4.991 -0.1091  1.0941  0.4721
 2858TIP3   OH2 8579   4.988   3.042   2.478  0.6804  0.3582 -0.2272
 2858TIP3    H1 8580   4.952   2.953   2.477 -2.0285  1.3786 -1.5198
 2858TIP3    H2 8581   5.060   3.039   2.415 -0.4562 -0.5205 -1.5224
 2859TIP3   OH2 8582   1.688   1.846   4.557 -0.0225 -0.3106 -0.0735
 2859TIP3    H1 8583   1.669   1.808   4.471 -0.3264 -0.7050  0.1633
 2859TIP3    H2 8584   1.609   1.829   4.608  1.1039 -2.4512  1.1037
 2860TIP3   OH2 8585   2.671   1.786   1.070 -0.0859  0.5637  0.2068
 2860TIP3    H1 8586   2.611   1.837   1.124  0.9466  0.5792  1.3753
 2860TIP3    H2 8587   2.652   1.813   0.981 -0.3204  2.1855  0.7202
 2861TIP3   OH2 8588   1.549   2.560   4.669  0.3033  0.0746 -0.4543
 2861TIP3    H1 8589   1.486   2.542   4.739  0.4651 -0.4694 -0.4408
 2861TIP3    H2 8590   1.604   2.481   4.666  0.4172  0.1734 -1.0648
 2862TIP3   OH2 8591   6.050   2.397   0.098  0.0574  0.3671 -0.5102
 2862TIP3    H1 8592   6.006   2.370   0.178  1.3157 -0.0000  0.0758
 2862TIP3    H2 8593   6.014   2.484   0.079 -1.6196 -0.3061 -0.6094
 2863TIP3   OH2 8594   3.282   2.069   3.359  0.0472 -0.7970 -0.2186
 2863TIP3    H1 8595   3.290   2.119   3.278 -1.0732 -1.0025 -0.4752
 2863TIP3    H2 8596   3.361   2.015   3.362 -0.4613 -1.6972 -1.8239
 2864TIP3   OH2 8597   2.292   2.092   3.172  0.0206 -0.3125 -0.2731
 2864TIP3    H1 8598   2.247   2.090   3.257  1.1473 -0.8782  0.3308
 2864TIP3    H2 8599   2.326   2.003   3.161  3.2481  0.7137  0.5668
 2865TIP3   OH2 8600   3.836   1.230   0.642  0.0298 -0.6741  0.0416
 2865TIP3    H1 8601   3.783   1.226   0.721  0.7698  1.0981  0.6754
 2865TIP3    H2 8602   3.776   1.258   0.573  0.0731  1.2262  0.7336
 2866TIP3   OH2 8603   4.330   4.617   0.025 -0.2320  0.8776  0.6811
 2866TIP3    H1 8604   4.245   4.592   0.061 -0.6395  0.5315 -0.4854
 2866TIP3    H2 8605   4.352   4.699   0.070  1.0657 -1.3046  4.5235
 2867TIP3   OH2 8606   0.021   4.063   3.821 -0.2684 -0.0091 -0.1389
 2867TIP3    H1 8607  -0.021   4.149   3.813  0.8780  0.5010 -0.8953
 2867TIP3    H2 8608   0.110   4.082   3.851  0.4401 -0.8004 -1.6190
 2868TIP3   OH2 8609   3.651   2.821   1.143 -0.2769  0.1565 -0.0815
 2868TIP3    H1 8610   3.670   2.882   1.215 -0.2316 -0.4974  0.4745
 2868TIP3    H2 8611   3.569   2.780   1.168  0.9544 -1.8861  0.8729
 2869TIP3   OH2 8612   1.765   0.362   1.373  0.8435  0.3421  0.1178
 2869TIP3    H1 8613   1.734   0.379   1.462 -0.7710 -0.3984 -0.2810
 2869TIP3    H2 8614   1.821   0.285   1.382 -1.6913 -1.6371  0.1287
 2870TIP3   OH2 8615   2.165   4.551   1.944 -0.4322  0.3810  0.2838
 2870TIP3    H1 8616   2.190   4.639   1.915  2.9555 -0.2525  0.8757
 2870TIP3    H2 8617   2.219   4.535   2.022 -1.1708 -2.1093  0.3748
 2871TIP3   OH2 8618   5.607   3.603   5.054  0.1776 -0.2651  0.0857
 2871TIP3    H1 8619   5.653   3.669   5.002  0.7818 -0.3446  0.5087
 2871TIP3    H2 8620   5.627   3.520   5.010 -1.2795 -0.1192 -0.9549
 2872TIP3   OH2 8621   5.397   2.003   5.052  0.0332  0.1127 -0.5130
 2872TIP3    H1 8622   5.388   1.973   5.143 -0.2395 -2.8487 -1.4237
 2872TIP3    H2 8623   5.327   2.068   5.042  1.0073  1.6663  1.7533
 2873TIP3   OH2 8624   1.302   5.366   2.892  0.4275  0.1077  0.6471
 2873TIP3    H1 8625   1.249   5.424   2.946  1.0414  2.7169 -1.3551
 2873TIP3    H2 8626   1.245   5.343   2.818  0.2885 -1.7015  1.2688
 2874TIP3   OH2 8627   5.542   4.219   0.331  0.0135 -0.1073  0.7440
 2874TIP3    H1 8628   5.511   4.289   0.389 -1.8707  1.6836 -2.1776
 2874TIP3    H2 8629   5.505   4.139   0.368  0.3266  0.6741  2.9152
 2875TIP3   OH2 8630   2.337   2.768   2.330  0.5674 -0.3264  0.1337
 2875TIP3    H1 8631   2.410   2.821   2.364  0.0077  0.4215  0.1980
 2875TIP3    H2 8632   2.326   2.797   2.240  1.7952 -2.0375 -0.6096
 2876TIP3   OH2 8633   2.137   5.100   0.248 -0.3727  0.1613 -0.2042
 2876TIP3    H1 8634   2.232   5.090   0.255 -0.5060 -2.0842 -0.9811
 2876TIP3    H2 8635   2.115   5.056   0.166 -2.2420 -0.4070  0.5802
 2877TIP3   OH2 8636   5.528   2.938   5.100 -0.4569  0.1277  0.1550
 2877TIP3    H1 8637   5.554   3.010   5.157 -0.6271  0.3658 -0.0629
 2877TIP3    H2 8638   5.496   2.981   5.021 -1.1882 -0.1661  0.2847
 2878TIP3   OH2 8639   3.332   5.170   2.106  0.2940  0.5887 -0.8576
 2878TIP3    H1 8640   3.349   5.076   2.100  1.2215  0.8124 -2.1166
 2878TIP3    H2 8641   3.274   5.189   2.032  1.0826  1.1976 -1.3285
 2879TIP3   OH2 8642   1.377   5.406   2.530 -0.0722  0.9208 -0.8975
 2879TIP3    H1 8643   1.344   5.347   2.462  0.1977  0.7014 -0.8417
 2879TIP3    H2 8644   1.308   5.408   2.596  1.3852 -2.4073  1.0113
 2880TIP3   OH2 8645   2.000   0.939   4.645  0.6213  0.3951  0.1670
 2880TIP3    H1 8646   1.970   0.850   4.628 -0.3148  0.5210  1.0288
 2880TIP3    H2 8647   1.957   0.992   4.578  0.7020  0.2745  0.0204
 2881TIP3   OH2 8648   1.821   0.545   0.625  0.5546  0.4086 -0.2694
 2881TIP3    H1 8649   1.784   0.621   0.580 -0.0779 -0.3112 -0.9934
 2881TIP3    H2 8650   1.773   0.540   0.708  2.2922  2.2341  0.9414
 2882TIP3   OH2 8651   4.152   0.461   1.192 -0.0302 -0.6509 -0.1515
 2882TIP3    H1 8652   4.125   0.370   1.188 -0.9623 -0.3634 -0.6221
 2882TIP3    H2 8653   4.124   0.498   1.108 -0.2032  0.2039  0.2750
 2883TIP3   OH2 8654   2.436   0.894   0.241 -0.5919 -0.6589 -0.0588
 2883TIP3    H1 8655   2.367   0.926   0.182 -0.6790 -1.2402 -0.2791
 2883TIP3    H2 8656   2.395   0.893   0.327 -1.5751 -2.9954 -0.4766
 2884TIP3   OH2 8657   4.122   4.298   4.932 -0.2013  0.3854 -0.3334
 2884TIP3    H1 8658   4.061   4.241   4.979 -0.8774  0.1519 -1.4413
 2884TIP3    H2 8659   4.173   4.340   5.000 -0.6456 -0.4911  0.5710
 2885TIP3   OH2 8660   1.454   1.454   4.147  0.5820 -0.3848  0.3251
 2885TIP3    H1 8661   1.489   1.367   4.127  1.8117  0.4234 -1.2493
 2885TIP3    H2 8662   1.391   1.470   4.077  2.3134  1.0376 -0.9934
 2886TIP3   OH2 8663   3.923   0.870   1.728 -0.1576 -0.1644 -0.4281
 2886TIP3    H1 8664   3.969   0.810   1.786 -0.7946 -0.8233 -0.5864
 2886TIP3    H2 8665   3.863   0.814   1.679 -0.9582  0.6357 -0.3822
 2887TIP3   OH2 8666   2.854   2.603   2.818 -0.3732 -0.6648  0.2899
 2887TIP3    H1 8667   2.929   2.663   2.824 -0.6978 -0.3746  1.9452
 2887TIP3    H2 8668   2.838   2.594   2.724  2.2047 -1.3310 -0.1558
 2888TIP3   OH2 8669   1.778   2.472   3.378 -0.2239  0.2186  0.5060
 2888TIP3    H1 8670   1.870   2.485   3.351 -0.3707  0.3027  0.0279
 2888TIP3    H2 8671   1.780   2.394   3.433 -0.1686 -1.0948 -1.2606
 2889TIP3   OH2 8672   4.556   5.875   0.953 -0.3593 -0.1432  0.8127
 2889TIP3    H1 8673   4.553   5.956   0.901  0.0121 -1.8596 -2.0960
 2889TIP3    H2 8674   4.625   5.892   1.018  1.3633  1.1484 -1.1789
 2890TIP3   OH2 8675   4.143   5.803   2.003  0.0561  0.1280  0.0424
 2890TIP3    H1 8676   4.082   5.745   1.957  0.1796  0.0785 -0.0586
 2890TIP3    H2 8677   4.151   5.879   1.947 -1.5870  1.1061  1.0565
 2891TIP3   OH2 8678   5.780   2.825   1.026  0.7383  0.3302  0.3308
 2891TIP3    H1 8679   5.797   2.846   1.118 -0.5314 -0.0987  0.6834
 2891TIP3    H2 8680   5.753   2.909   0.987 -0.8812  0.1179  0.9018
 2892TIP3   OH2 8681   1.992   0.100   0.457  0.1785  0.5032 -0.0603
 2892TIP3    H1 8682   1.908   0.059   0.436  0.0108  1.4448 -1.4012
 2892TIP3    H2 8683   1.978   0.193   0.439  1.5422  0.6529 -0.4668
 2893TIP3   OH2 8684   4.934   4.669   0.764  0.0849 -0.4082 -0.0804
 2893TIP3    H1 8685   4.946   4.645   0.673 -0.5420 -1.6886  0.1478
 2893TIP3    H2 8686   4.921   4.586   0.810  0.4878  0.1937  1.1959
 2894TIP3   OH2 8687   3.148   5.937   1.472  0.0766 -0.5289 -0.4688
 2894TIP3    H1 8688   3.118   5.955   1.562 -2.0339 -2.9014 -0.5746
 2894TIP3    H2 8689   3.091   5.991   1.417  1.4016  0.9607 -0.4378
 2895TIP3   OH2 8690   3.107   1.495   2.518  0.0130  0.2369  0.5760
 2895TIP3    H1 8691   3.019   1.509   2.553 -0.7139  0.6092 -1.3087
 2895TIP3    H2 8692   3.164   1.537   2.582 -1.4340  3.2847  0.0543
 2896TIP3   OH2 8693   5.599   1.382   4.787 -0.0729 -0.8816  0.8418
 2896TIP3    H1 8694   5.596   1.297   4.743  0.1158  0.1549 -1.2698
 2896TIP3    H2 8695   5.687   1.388   4.824  0.5346 -0.8924 -0.5495
 2897TIP3   OH2 8696   1.651   5.366   2.627  0.3972 -0.3850 -0.6055
 2897TIP3    H1 8697   1.574   5.401   2.581  1.5848  0.4400 -2.0596
 2897TIP3    H2 8698   1.693   5.443   2.665 -0.3313 -1.0111  1.6058
 2898TIP3   OH2 8699   0.704   5.955   4.731 -0.1359  0.1685 -0.0390
 2898TIP3    H1 8700   0.619   5.914   4.749  0.7947 -1.5417  0.7264
 2898TIP3    H2 8701   0.724   5.931   4.641 -0.7038  1.0498 -0.4078
 2899TIP3   OH2 8702   2.184   1.366   2.014 -0.1813  0.2863 -0.5586
 2899TIP3    H1 8703   2.277   1.381   2.031 -0.0390  0.6169 -1.5448
 2899TIP3    H2 8704   2.172   1.272   2.021  0.1545  0.2738 -0.1126
 2900TIP3   OH2 8705   1.591   2.407   1.272 -0.0967 -0.2025  0.1343
 2900TIP3    H1 8706   1.546   2.491   1.279  0.4265  0.0261  0.9608
 2900TIP3    H2 8707   1.666   2.424   1.215 -1.0934 -0.6146 -1.3477
 2901TIP3   OH2 8708   4.033  -0.008   2.194  0.0923 -0.1635  0.0896
 2901TIP3    H1 8709   4.055   0.039   2.275 -0.5896  0.0852  0.1382
 2901TIP3    H2 8710   3.947   0.026   2.169  0.3914 -0.0825 -0.8627
 2902TIP3   OH2 8711   2.860   0.186   0.817  0.0143  0.4910 -0.7395
 2902TIP3    H1 8712   2.883   0.168   0.908 -2.6331  2.4624  0.4586
 2902TIP3    H2 8713   2.821   0.105   0.785  2.1342 -0.6464 -0.6470
 2903TIP3   OH2 8714   3.648   2.670   3.876 -0.0276 -0.2589 -0.0884
 2903TIP3    H1 8715   3.643   2.598   3.939  1.6168  0.0167  0.4296
 2903TIP3    H2 8716   3.566   2.717   3.886 -0.0698 -0.6010  1.4067
 2904TIP3   OH2 8717   2.071   1.596   0.740 -0.2319  0.1010 -0.4113
 2904TIP3    H1 8718   2.042   1.674   0.788  1.6218 -1.1464  3.0980
 2904TIP3    H2 8719   1.992   1.543   0.731 -0.3693 -0.6661  3.6672
 2905TIP3   OH2 8720   5.388   1.124   2.487 -0.3001 -0.3748  0.4179
 2905TIP3    H1 8721   5.412   1.116   2.579 -0.1126  0.0600  0.4146
 2905TIP3    H2 8722   5.449   1.190   2.453 -0.7188 -0.1431  0.1128
 2906TIP3   OH2 8723   0.430   1.163   1.579  0.2771  0.0384 -0.1752
 2906TIP3    H1 8724   0.463   1.103   1.646 -2.1469  0.2952  1.3843
 2906TIP3    H2 8725   0.404   1.106   1.506  0.0164 -0.5936  0.4020
 2907TIP3   OH2 8726   2.860   4.608   1.052 -0.4472 -0.2420  0.1773
 2907TIP3    H1 8727   2.955   4.607   1.050 -0.4021  0.9530  0.5044
 2907TIP3    H2 8728   2.835   4.530   1.101  0.2807 -1.5245 -1.4109
 2908TIP3   OH2 8729   6.313   1.868   0.444 -0.4013 -0.4368 -0.3314
 2908TIP3    H1 8730   6.358   1.827   0.371 -2.0370 -1.8286 -0.6194
 2908TIP3    H2 8731   6.250   1.927   0.403 -0.6064 -0.4395 -0.0230
 2909TIP3   OH2 8732   1.997   2.928   4.388 -0.5231 -0.4793 -0.2196
 2909TIP3    H1 8733   1.975   2.983   4.312  1.2554  0.3738 -0.1631
 2909TIP3    H2 8734   1.944   2.964   4.459 -0.2287  0.4437 -0.4487
 2910TIP3   OH2 8735   5.953   2.433   2.662 -0.4513  0.4711  0.8125
 2910TIP3    H1 8736   5.968   2.344   2.632 -0.3988  0.9554 -0.6934
 2910TIP3    H2 8737   5.984   2.434   2.752  0.7362 -0.6979  0.4434
 2911TIP3   OH2 8738   5.208   3.706   1.698  0.5903  0.2012  0.0917
 2911TIP3    H1 8739   5.267   3.773   1.664  0.9304 -0.2619 -0.2530
 2911TIP3    H2 8740   5.252   3.623   1.678 -0.3054 -0.1693 -0.4188
 2912TIP3   OH2 8741   1.004   1.839   2.605  0.7141  0.4389 -0.3284
 2912TIP3    H1 8742   0.986   1.745   2.596  1.6418  0.2751 -0.6368
 2912TIP3    H2 8743   0.966   1.863   2.689 -2.7337  0.6039 -1.7753
 2913TIP3   OH2 8744   0.397   3.865   0.485  0.4614  0.4472 -0.4709
 2913TIP3    H1 8745   0.302   3.855   0.477  0.4904 -0.0955 -0.1605
 2913TIP3    H2 8746   0.409   3.911   0.568  0.5463 -1.1320  0.4310
 2914TIP3   OH2 8747   4.640   3.438   4.136 -0.7012  0.1685  0.3986
 2914TIP3    H1 8748   4.586   3.375   4.183  0.7998 -1.7463 -0.3011
 2914TIP3    H2 8749   4.712   3.386   4.100  0.2576  2.1861 -0.7977
 2915TIP3   OH2 8750   2.474   2.287   0.068 -0.3237  1.0321 -0.0826
 2915TIP3    H1 8751   2.486   2.199   0.103  0.6305  1.1589 -0.0537
 2915TIP3    H2 8752   2.540   2.295  -0.002  0.9606  2.3692  1.2003
 2916TIP3   OH2 8753   2.219   2.519   0.222  0.2960 -0.6239  0.4648
 2916TIP3    H1 8754   2.266   2.492   0.143  0.5906  0.6036  0.1936
 2916TIP3    H2 8755   2.288   2.545   0.283  0.0459 -1.0154  0.9211
 2917TIP3   OH2 8756   5.007   3.411   2.267  0.4823 -0.4217 -0.1622
 2917TIP3    H1 8757   5.081   3.362   2.229  0.5140 -0.9067  0.5168
 2917TIP3    H2 8758   5.001   3.490   2.213  0.3443 -1.2255 -1.3674
 2918TIP3   OH2 8759   0.053   2.311   3.187 -0.0144  0.1521 -0.0379
 2918TIP3    H1 8760  -0.017   2.280   3.244 -0.4845 -0.5196 -0.9674
 2918TIP3    H2 8761   0.096   2.380   3.239  0.2201 -1.1048  1.5331
 2919TIP3   OH2 8762   3.435   4.447   1.060  0.1011 -0.0069 -0.3325
 2919TIP3    H1 8763   3.491   4.519   1.029  1.1756 -0.2535  0.9053
 2919TIP3    H2 8764   3.476   4.420   1.143 -2.3318  0.3442  1.0797
 2920TIP3   OH2 8765   1.589   0.120   1.371 -0.0732  0.3477 -0.2483
 2920TIP3    H1 8766   1.617   0.118   1.463 -0.5057  2.6599  0.0073
 2920TIP3    H2 8767   1.669   0.140   1.323 -0.2778  1.6512 -0.0790
 2921TIP3   OH2 8768   5.006   3.296   0.638  0.2141  0.1522  0.9561
 2921TIP3    H1 8769   5.071   3.366   0.638 -0.2912  0.6356  1.4439
 2921TIP3    H2 8770   4.986   3.280   0.546  1.5265 -0.4928  0.7523
 2922TIP3   OH2 8771   2.048   5.183   2.027 -0.0309 -0.3496 -0.2530
 2922TIP3    H1 8772   2.009   5.265   2.057  3.2113  1.2466  0.0307
 2922TIP3    H2 8773   2.043   5.125   2.103  2.4279  1.5059  1.4669
 2923TIP3   OH2 8774   2.383   2.893   0.240  0.2699 -0.3776 -0.2670
 2923TIP3    H1 8775   2.302   2.842   0.242 -1.9069  2.6858 -1.5574
 2923TIP3    H2 8776   2.403   2.903   0.146 -0.0280  1.8796 -0.1536
 2924TIP3   OH2 8777   2.984   1.443   1.043  0.4357  0.0844 -0.6074
 2924TIP3    H1 8778   2.913   1.408   0.989 -0.6887 -1.2101  1.5262
 2924TIP3    H2 8779   3.048   1.478   0.981 -1.8770  0.9599 -2.6354
 2925TIP3   OH2 8780   2.381   5.461   3.613 -0.7468  0.2369  0.0817
 2925TIP3    H1 8781   2.404   5.507   3.532  1.9933 -2.3130 -0.7664
 2925TIP3    H2 8782   2.456   5.476   3.671 -1.4128 -0.2670  1.1095
 2926TIP3   OH2 8783   4.805   1.674   4.305  0.3718  0.2260  0.4943
 2926TIP3    H1 8784   4.858   1.702   4.380 -0.3204  0.0084  1.0748
 2926TIP3    H2 8785   4.795   1.754   4.252  0.5026  0.4852  0.8553
 2927TIP3   OH2 8786   0.512   1.338   5.162 -0.1418  0.1458 -1.2945
 2927TIP3    H1 8787   0.431   1.307   5.122 -0.0274  1.1062 -2.3344
 2927TIP3    H2 8788   0.489   1.421   5.202  0.0882 -0.1165 -0.6033
 2928TIP3   OH2 8789   4.041   4.136   3.645 -0.4495  0.0018 -0.5422
 2928TIP3    H1 8790   4.130   4.124   3.677 -0.8133 -3.7587 -0.4263
 2928TIP3    H2 8791   4.045   4.111   3.553 -1.4033 -0.5075 -0.4607
 2929TIP3   OH2 8792   5.522   0.375   1.749 -0.3531 -0.2400  0.1996
 2929TIP3    H1 8793   5.449   0.314   1.741  0.5353 -1.1307 -1.5090
 2929TIP3    H2 8794   5.597   0.321   1.773 -0.0041  0.5045  0.8396
 2930TIP3   OH2 8795   3.206   2.224   1.005 -0.2460 -0.1409 -0.2720
 2930TIP3    H1 8796   3.136   2.280   1.038 -2.2931 -2.3872 -0.4897
 2930TIP3    H2 8797   3.252   2.194   1.083 -0.4961  0.1878  0.0065
 2931TIP3   OH2 8798   1.664   4.416   0.118  0.0779 -0.3675  0.0241
 2931TIP3    H1 8799   1.601   4.360   0.072  0.2502 -0.5017 -0.0515
 2931TIP3    H2 8800   1.652   4.503   0.079  0.1172 -0.4475 -0.1697
 2932TIP3   OH2 8801   0.751   2.766   0.143  0.2599  0.3368 -0.3971
 2932TIP3    H1 8802   0.816   2.836   0.140 -0.8259  1.3544 -0.7635
 2932TIP3    H2 8803   0.694   2.783   0.067 -1.8440  0.8785  1.2013
 2933TIP3   OH2 8804   1.930   2.358   4.388  0.8063  0.1666 -0.3938
 2933TIP3    H1 8805   1.862   2.419   4.415 -0.0892 -1.5161  1.3446
 2933TIP3    H2 8806   1.916   2.347   4.294 -0.1313  1.2440 -0.4038
 2934TIP3   OH2 8807   4.649   4.879   2.728  0.1734 -0.2139 -0.1593
 2934TIP3    H1 8808   4.609   4.964   2.710  0.9509  0.5728  1.5851
 2934TIP3    H2 8809   4.575   4.820   2.745 -0.3652  0.1405 -1.2321
 2935TIP3   OH2 8810   6.219   3.536   0.121  0.0779  0.5669  0.6245
 2935TIP3    H1 8811   6.199   3.497   0.207  0.1550  0.3672  0.5537
 2935TIP3    H2 8812   6.299   3.491   0.094 -0.2866  0.1817  0.1697
 2936TIP3   OH2 8813   2.632   0.831   4.422 -0.1011 -0.0662 -0.0022
 2936TIP3    H1 8814   2.707   0.864   4.373  0.9308 -0.8759  0.9936
 2936TIP3    H2 8815   2.591   0.909   4.459  1.1614  0.2765  0.7217
 2937TIP3   OH2 8816   3.123   3.873   0.954 -0.0104  0.1679  0.1722
 2937TIP3    H1 8817   3.066   3.879   1.030  1.5417 -1.0123  1.4767
 2937TIP3    H2 8818   3.164   3.787   0.960  0.7195  0.3347 -1.6080
 2938TIP3   OH2 8819   4.380   5.307   0.764 -0.3348 -0.0734  0.3146
 2938TIP3    H1 8820   4.474   5.306   0.777 -0.3273  1.4689  0.5930
 2938TIP3    H2 8821   4.368   5.292   0.670 -0.0912 -4.8512  0.8188
 2939TIP3   OH2 8822   2.900   5.049   1.975 -0.3400 -0.2226 -0.6020
 2939TIP3    H1 8823   2.947   4.981   2.022  0.3776  0.4506 -0.3272
 2939TIP3    H2 8824   2.810   5.042   2.006  0.0889  0.1159  0.7788
 2940TIP3   OH2 8825   4.231   1.150   2.621 -0.4111  0.1115 -0.6225
 2940TIP3    H1 8826   4.257   1.218   2.558  1.1990 -0.5732 -0.7465
 2940TIP3    H2 8827   4.302   1.087   2.618 -1.0015 -0.6578  0.8581
 2941TIP3   OH2 8828   2.988   2.694   0.138  0.1613  0.1434  0.7272
 2941TIP3    H1 8829   2.896   2.689   0.165  0.1555 -1.6136  0.5167
 2941TIP3    H2 8830   3.007   2.788   0.133 -1.7040  0.5437  0.4916
 2942TIP3   OH2 8831   4.890   4.970   3.390  0.2350  0.3496  0.4063
 2942TIP3    H1 8832   4.931   5.047   3.430  0.1559  0.6251 -0.0374
 2942TIP3    H2 8833   4.933   4.962   3.305 -0.1700  0.2482  0.2133
 2943TIP3   OH2 8834   5.967   3.918   1.671 -0.3509 -0.1991 -0.5212
 2943TIP3    H1 8835   5.893   3.977   1.657 -0.4943 -0.8727 -3.1060
 2943TIP3    H2 8836   6.044   3.969   1.648 -0.1306 -0.0318  0.5165
 2944TIP3   OH2 8837   2.179   3.616   0.614  0.0525  0.2116 -0.7007
 2944TIP3    H1 8838   2.170   3.663   0.531 -4.3350 -1.6318 -1.5755
 2944TIP3    H2 8839   2.231   3.674   0.669  0.7319  2.8299 -3.7821
 2945TIP3   OH2 8840   1.265   5.767   1.564  0.0409 -0.2858  0.0480
 2945TIP3    H1 8841   1.282   5.679   1.530  0.1844 -0.1213 -0.3163
 2945TIP3    H2 8842   1.281   5.824   1.489  0.1450  0.0655  0.3392
 2946TIP3   OH2 8843   1.317   2.763   0.625  0.1871 -0.4614  0.5060
 2946TIP3    H1 8844   1.275   2.735   0.707 -1.5679  0.3000 -0.0695
 2946TIP3    H2 8845   1.277   2.708   0.558  0.5778 -0.1388  0.0085
 2947TIP3   OH2 8846   4.548   3.723   0.422 -0.6551  0.1690 -0.2472
 2947TIP3    H1 8847   4.551   3.633   0.454 -0.3517 -0.0157 -0.7799
 2947TIP3    H2 8848   4.629   3.734   0.371 -0.9408  0.5699 -0.6275
 2948TIP3   OH2 8849   3.712   4.098   4.934  0.3603  0.6743  0.3773
 2948TIP3    H1 8850   3.626   4.099   4.891 -0.3265 -1.6955  1.5072
 2948TIP3    H2 8851   3.697   4.144   5.017  0.6696  1.7733 -0.1543
 2949TIP3   OH2 8852   2.722   3.840   2.863  0.3728  0.5283  0.2124
 2949TIP3    H1 8853   2.685   3.892   2.934  1.3926  0.4013  0.8569
 2949TIP3    H2 8854   2.803   3.805   2.899  1.3283  1.1313 -1.2844
 2950TIP3   OH2 8855   5.763   1.007   0.547  0.3251  0.1054  0.0035
 2950TIP3    H1 8856   5.831   0.941   0.541  1.1897  1.0512 -1.0412
 2950TIP3    H2 8857   5.745   1.015   0.641  0.6448 -1.1514  0.1808
 2951TIP3   OH2 8858   2.301   5.539   0.924  0.8548  0.4377  0.2945
 2951TIP3    H1 8859   2.302   5.464   0.983 -0.9551  1.3553  1.5574
 2951TIP3    H2 8860   2.326   5.503   0.839  0.1335 -1.5748  0.8925
 2952TIP3   OH2 8861   5.624   3.604   4.600  0.1317  0.5883 -0.3412
 2952TIP3    H1 8862   5.648   3.541   4.531  0.2418  0.4905 -0.2158
 2952TIP3    H2 8863   5.594   3.681   4.552  0.8493  0.7726 -0.5069
 2953TIP3   OH2 8864   4.386   3.430   2.714 -0.5932  0.0797  0.5307
 2953TIP3    H1 8865   4.442   3.379   2.656  1.7182  3.0728 -0.1146
 2953TIP3    H2 8866   4.439   3.444   2.793 -0.8676  1.9160  0.4436
 2954TIP3   OH2 8867   3.382   1.014   4.140 -0.9397 -0.7427  0.2193
 2954TIP3    H1 8868   3.306   1.018   4.198 -0.0922  1.3582  1.2727
 2954TIP3    H2 8869   3.435   1.090   4.164  1.3094 -1.9025 -0.7551
 2955TIP3   OH2 8870   5.879   3.051   2.813  0.1743  0.1681  0.2774
 2955TIP3    H1 8871   5.913   2.962   2.803  1.2389  0.6337 -0.3739
 2955TIP3    H2 8872   5.955   3.104   2.834  0.0593  1.3915 -2.0906
 2956TIP3   OH2 8873   5.558   3.429   1.941 -0.2040 -0.2462 -0.3759
 2956TIP3    H1 8874   5.575   3.422   2.035 -3.0090  0.5114  0.2798
 2956TIP3    H2 8875   5.579   3.520   1.920 -0.2322 -0.2318 -0.3414
 2957TIP3   OH2 8876   3.551   3.500   2.898  0.2092 -0.2775 -0.0459
 2957TIP3    H1 8877   3.626   3.441   2.895 -0.2184 -0.8284 -0.0431
 2957TIP3    H2 8878   3.585   3.583   2.864  1.4167  0.1829  2.0723
 2958TIP3   OH2 8879   2.340   3.814   0.739 -0.4778 -0.1635 -0.2115
 2958TIP3    H1 8880   2.381   3.859   0.665 -1.2056  1.0237  0.0724
 2958TIP3    H2 8881   2.274   3.876   0.771 -0.3508 -0.7532  1.2776
 2959TIP3   OH2 8882   5.266   4.179   3.932  0.3754  0.1721 -0.3370
 2959TIP3    H1 8883   5.316   4.116   3.880 -1.0928  0.5386 -2.3296
 2959TIP3    H2 8884   5.208   4.221   3.869 -1.7462  0.4738  1.6650
 2960TIP3   OH2 8885   4.139   2.745   2.878  0.6773 -0.5224  0.2345
 2960TIP3    H1 8886   4.234   2.742   2.887  0.6346  0.0951  0.9386
 2960TIP3    H2 8887   4.114   2.654   2.863  1.3100 -0.8086  0.8403
 2961TIP3   OH2 8888   4.434   5.696   4.081  0.0213  0.1730 -0.0795
 2961TIP3    H1 8889   4.526   5.710   4.104 -0.5210  0.9900  1.7847
 2961TIP3    H2 8890   4.423   5.742   3.998  0.9086  1.5460  0.5333
 2962TIP3   OH2 8891   2.630   0.926   3.197  0.3530  0.1741  0.4684
 2962TIP3    H1 8892   2.552   0.978   3.216 -0.4027 -0.9764  0.5987
 2962TIP3    H2 8893   2.703   0.979   3.229 -0.4509  0.8069  1.2918
 2963TIP3   OH2 8894   2.257   3.048   0.538 -0.0174 -0.0845  0.2242
 2963TIP3    H1 8895   2.217   3.107   0.474  0.1182  0.5736  0.7320
 2963TIP3    H2 8896   2.214   2.964   0.524 -1.7926  0.6520  0.9014
 2964TIP3   OH2 8897   5.332   3.180   1.306  0.1151 -0.0451  0.9891
 2964TIP3    H1 8898   5.282   3.205   1.229  0.7197  1.1574  0.9579
 2964TIP3    H2 8899   5.360   3.263   1.344  2.1069 -0.6647  0.9810
 2965TIP3   OH2 8900   3.850   1.768   0.923  0.4688  0.1214  0.0607
 2965TIP3    H1 8901   3.811   1.771   0.836  0.7860  2.3735 -0.0800
 2965TIP3    H2 8902   3.938   1.804   0.911  1.5067 -2.0086  0.8938
 2966TIP3   OH2 8903   5.638   5.206   1.378 -0.4272  0.4397 -0.1738
 2966TIP3    H1 8904   5.633   5.242   1.289 -0.2837  2.3993  0.5626
 2966TIP3    H2 8905   5.557   5.235   1.419  0.6637  1.8064  1.1041
 2967TIP3   OH2 8906   5.298   0.634   2.248  0.3984  0.1817 -0.0497
 2967TIP3    H1 8907   5.308   0.649   2.342  0.3422  1.2061 -0.1889
 2967TIP3    H2 8908   5.264   0.718   2.214  0.9134 -0.0017 -1.0531
 2968TIP3   OH2 8909   0.380   0.502   4.596 -0.5120  0.0811 -0.4388
 2968TIP3    H1 8910   0.308   0.512   4.534 -2.4578 -0.3910  1.6496
 2968TIP3    H2 8911   0.441   0.573   4.573 -1.8903  0.8571 -1.8846
 2969TIP3   OH2 8912   2.413   3.251   1.497 -0.1543  0.1294  0.3473
 2969TIP3    H1 8913   2.348   3.309   1.536  0.5329 -0.3726  2.3691
 2969TIP3    H2 8914   2.363   3.174   1.469 -0.7867  0.8697 -0.6282
 2970TIP3   OH2 8915   1.069   0.952   2.003 -0.2503 -0.2013  0.0089
 2970TIP3    H1 8916   1.063   1.019   2.071 -1.2956 -0.6125  0.3370
 2970TIP3    H2 8917   1.148   0.902   2.025  0.0989  0.4278  0.2065
 2971TIP3   OH2 8918   3.952   3.918   4.996  0.1149 -0.0514  0.5037
 2971TIP3    H1 8919   3.871   3.913   4.945  0.9006 -0.1328 -0.7776
 2971TIP3    H2 8920   3.964   4.012   5.012  0.3224  0.0569 -0.2442
 2972TIP3   OH2 8921   3.545   4.568   4.715  0.0277 -0.0105 -0.2132
 2972TIP3    H1 8922   3.590   4.645   4.680  0.8289 -0.6090 -0.5368
 2972TIP3    H2 8923   3.457   4.572   4.677  0.4276  0.1258 -1.1494
 2973TIP3   OH2 8924   6.187   0.532   1.509  0.3110  0.0715 -0.3002
 2973TIP3    H1 8925   6.094   0.520   1.529  0.3762 -0.3642 -0.2466
 2973TIP3    H2 8926   6.224   0.569   1.589  0.4871 -1.2629  0.2633
 2974TIP3   OH2 8927   4.879   2.218   3.765 -0.4214  0.1975 -0.5254
 2974TIP3    H1 8928   4.881   2.140   3.710 -0.4547 -1.4377  1.6769
 2974TIP3    H2 8929   4.948   2.275   3.729 -0.8616 -0.5015 -2.5900
 2975TIP3   OH2 8930   0.049   0.369   1.350 -0.2125 -0.3337  0.1894
 2975TIP3    H1 8931   0.038   0.369   1.255  1.5812  0.0317 -0.0664
 2975TIP3    H2 8932  -0.028   0.415   1.383 -1.0840 -0.8373 -1.0394
 2976TIP3   OH2 8933   3.867   2.709   4.254  0.3590  0.4440 -0.0916
 2976TIP3    H1 8934   3.926   2.674   4.320 -0.6807 -2.4746 -0.5316
 2976TIP3    H2 8935   3.779   2.695   4.291 -0.2349 -1.1123 -1.9224
 2977TIP3   OH2 8936   5.268   0.011   2.046 -0.5834  0.6006 -0.0006
 2977TIP3    H1 8937   5.268   0.070   2.121  1.8081 -1.2290  1.5691
 2977TIP3    H2 8938   5.205  -0.057   2.068 -1.9030  1.4610 -0.9497
 2978TIP3   OH2 8939   3.121   5.909   1.782  0.3186 -1.2284  0.3688
 2978TIP3    H1 8940   3.150   5.939   1.868  0.2799 -1.3894  0.4383
 2978TIP3    H2 8941   3.051   5.848   1.801 -0.9444  0.1025  0.1636
 2979TIP3   OH2 8942   5.059   0.360   0.227 -0.0623 -0.4030 -0.0469
 2979TIP3    H1 8943   5.034   0.431   0.169  0.0930 -1.3842 -1.3520
 2979TIP3    H2 8944   5.034   0.280   0.181 -1.6827 -1.2086  2.0326
 2980TIP3   OH2 8945   5.550   5.901   1.863  0.0746  0.1600  0.7881
 2980TIP3    H1 8946   5.644   5.886   1.858  0.2883  1.2702  1.2611
 2980TIP3    H2 8947   5.540   5.996   1.862 -1.1449  0.0723 -0.8581
 2981TIP3   OH2 8948   0.260   3.815   2.481 -0.3546  0.3550  0.1024
 2981TIP3    H1 8949   0.342   3.846   2.519 -1.3709  2.2853  0.8267
 2981TIP3    H2 8950   0.258   3.855   2.394 -0.7759  0.7646  0.2996
 2982TIP3   OH2 8951   3.683   2.434   3.222 -0.3434  0.3905 -0.1448
 2982TIP3    H1 8952   3.753   2.477   3.272 -0.7986  2.4040 -1.1312
 2982TIP3    H2 8953   3.703   2.341   3.228  1.3297  0.7808  1.2018
 2983TIP3   OH2 8954   0.142   5.478   2.673  0.0628  0.5189  0.1867
 2983TIP3    H1 8955   0.144   5.385   2.650 -0.8960  0.4953  0.1610
 2983TIP3    H2 8956   0.234   5.503   2.683  0.3323 -0.3700 -0.0559
 2984TIP3   OH2 8957   4.165   4.817   3.166 -0.0972  0.1618  0.4525
 2984TIP3    H1 8958   4.221   4.774   3.102 -2.6887 -1.1789 -1.0563
 2984TIP3    H2 8959   4.118   4.745   3.209  0.0459  1.1686  2.3906
 2985TIP3   OH2 8960   3.174   5.741   2.335  0.1815  0.3918  0.5695
 2985TIP3    H1 8961   3.249   5.748   2.394 -0.5116  0.6531  1.4387
 2985TIP3    H2 8962   3.102   5.785   2.381 -0.9844 -1.3793  0.5482
 2986TIP3   OH2 8963   5.348   2.323   3.026 -0.2388  0.2433  0.1391
 2986TIP3    H1 8964   5.368   2.399   3.081 -0.3000  0.3532  0.0114
 2986TIP3    H2 8965   5.253   2.328   3.012 -0.4527 -0.5912  1.2137
 2987TIP3   OH2 8966   3.129   0.231   1.191 -0.4712 -0.3107 -0.4650
 2987TIP3    H1 8967   3.193   0.219   1.122  0.1179 -0.1054  0.0329
 2987TIP3    H2 8968   3.086   0.314   1.170  0.4090  0.2638 -0.0509
 2988TIP3   OH2 8969   2.762   4.304   0.547 -0.3722 -0.3743 -0.0283
 2988TIP3    H1 8970   2.774   4.297   0.452 -1.3602  2.0201 -0.4139
 2988TIP3    H2 8971   2.799   4.389   0.569 -3.0630  0.6089  1.1118
 2989TIP3   OH2 8972   0.039   3.142   0.082  0.4246  0.3399 -0.0426
 2989TIP3    H1 8973  -0.053   3.167   0.070  0.1562 -0.8775 -0.6706
 2989TIP3    H2 8974   0.083   3.174   0.003  0.4347  0.4720  0.0174
 2990TIP3   OH2 8975   4.460   5.701   0.545  0.4694 -0.1036  0.3391
 2990TIP3    H1 8976   4.410   5.624   0.517  1.5021 -1.0153  0.9265
 2990TIP3    H2 8977   4.480   5.685   0.637  1.4437  0.4559  0.2406
 2991TIP3   OH2 8978   0.181   3.532   2.490  0.0529  0.4185  0.3918
 2991TIP3    H1 8979   0.208   3.622   2.473  0.8131 -0.0274 -0.8988
 2991TIP3    H2 8980   0.197   3.486   2.408  2.0916 -1.4715  1.7339
 2992TIP3   OH2 8981   3.233   2.595   1.814 -0.5867 -0.1308 -0.2608
 2992TIP3    H1 8982   3.226   2.503   1.839 -1.0809  0.2931  1.2799
 2992TIP3    H2 8983   3.314   2.600   1.763  0.4191 -1.1091  1.1672
 2993TIP3   OH2 8984   5.467   2.455   2.745  0.1927  0.1514 -0.2963
 2993TIP3    H1 8985   5.539   2.436   2.684 -1.7113 -0.9595 -2.3605
 2993TIP3    H2 8986   5.397   2.491   2.690 -1.3953 -0.2599  1.3360
 2994TIP3   OH2 8987   0.820   5.604   1.486 -0.1142  0.2042  0.1971
 2994TIP3    H1 8988   0.822   5.687   1.535 -0.3624  0.2454  0.1362
 2994TIP3    H2 8989   0.803   5.537   1.553  0.0438  0.2061  0.2400
 2995TIP3   OH2 8990   0.539   4.576   1.921 -0.4428 -0.6877 -0.2855
 2995TIP3    H1 8991   0.541   4.541   1.833  1.2141  0.0309 -0.5905
 2995TIP3    H2 8992   0.582   4.510   1.975  1.4470  0.1905 -0.6235
 2996TIP3   OH2 8993   0.132   2.133   2.350 -0.1755 -0.6965 -0.3105
 2996TIP3    H1 8994   0.139   2.214   2.298 -0.6894  0.6242  1.5505
 2996TIP3    H2 8995   0.038   2.122   2.364 -0.0762 -1.3978 -0.2094
 2997TIP3   OH2 8996   4.522   4.721   1.040  0.3509 -0.2421 -0.5116
 2997TIP3    H1 8997   4.487   4.798   1.084  0.2906 -0.9025  0.6478
 2997TIP3    H2 8998   4.593   4.754   0.984  0.4792  0.6118  0.1449
 2998TIP3   OH2 8999   5.330   5.363   3.464  0.3789 -0.5833  0.1341
 2998TIP3    H1 9000   5.415   5.328   3.440 -0.2013 -1.1049 -1.2621
 2998TIP3    H2 9001   5.268   5.314   3.410 -0.8443 -0.4563  1.3614
 2999TIP3   OH2 9002   5.458   1.634   2.820 -0.2427 -0.3464 -0.2378
 2999TIP3    H1 9003   5.484   1.555   2.868 -0.0252 -0.0705  0.1013
 2999TIP3    H2 9004   5.424   1.693   2.887 -0.1646 -0.0505 -0.4569
 3000TIP3   OH2 9005   3.109   0.244   1.965  0.2727 -0.0299 -0.1949
 3000TIP3    H1 9006   3.041   0.195   1.918  0.4026  0.4738 -0.9348
 3000TIP3    H2 9007   3.192   0.210   1.931  0.4276 -0.9898  1.0618
 3001TIP3   OH2 9008   3.397   2.351   4.622  1.0827 -0.0646 -0.7092
 3001TIP3    H1 9009   3.492   2.339   4.625  1.3698  1.7886 -1.0971
 3001TIP3    H2 9010   3.380   2.425   4.680  0.0449  0.4861 -1.6632
 3002TIP3   OH2 9011   4.430   0.455   1.641 -0.0629  0.6851  0.0683
 3002TIP3    H1 9012   4.380   0.447   1.722  1.1759 -2.1577  0.6509
 3002TIP3    H2 9013   4.365   0.486   1.577 -1.3447  1.8291  1.8183
 3003TIP3   OH2 9014   4.297   5.479   4.180  0.0043 -0.1820  0.1039
 3003TIP3    H1 9015   4.330   5.488   4.269  0.8292  0.6406 -0.2665
 3003TIP3    H2 9016   4.334   5.554   4.133 -0.2611 -0.7083 -0.9776
 3004TIP3   OH2 9017   3.593   1.420   3.878  0.3923  0.0973 -0.1570
 3004TIP3    H1 9018   3.562   1.492   3.823 -1.7548 -0.8869 -0.3345
 3004TIP3    H2 9019   3.631   1.463   3.955  0.6322  1.4259 -0.9894
 3005TIP3   OH2 9020   4.518   1.532   1.428  0.0143  0.3423  0.1419
 3005TIP3    H1 9021   4.502   1.445   1.465 -0.7241  0.2376 -0.4023
 3005TIP3    H2 9022   4.613   1.538   1.421  0.1104 -0.0978  0.9438
 3006TIP3   OH2 9023   0.641   1.339   3.533 -0.0066 -0.0434 -0.0690
 3006TIP3    H1 9024   0.732   1.364   3.523 -0.2447  0.1968 -2.1629
 3006TIP3    H2 9025   0.605   1.402   3.595  1.5517 -1.0710  1.9937
 3007TIP3   OH2 9026   4.839   1.360   3.160 -0.0126 -0.5070 -0.0292
 3007TIP3    H1 9027   4.845   1.431   3.096  1.2932  1.5672  2.2184
 3007TIP3    H2 9028   4.753   1.372   3.200 -0.5138 -1.3263 -0.8321
 3008TIP3   OH2 9029   0.698   4.703  -0.002  0.4328 -0.0237  0.9270
 3008TIP3    H1 9030   0.735   4.633  -0.055 -0.8229 -0.2548  0.3315
 3008TIP3    H2 9031   0.765   4.720   0.064  0.6373 -2.0016  1.2913
 3009TIP3   OH2 9032   6.247   3.923   3.286  0.0373 -0.3699  0.1203
 3009TIP3    H1 9033   6.218   3.968   3.207  0.9823  1.1838  0.6096
 3009TIP3    H2 9034   6.278   3.838   3.255 -0.6138 -0.2105 -1.0206
 3010TIP3   OH2 9035   0.775   3.054   2.540  0.3201 -0.3851 -0.0611
 3010TIP3    H1 9036   0.802   2.964   2.557 -0.5274 -0.7404 -0.5278
 3010TIP3    H2 9037   0.795   3.068   2.447  0.2469 -0.1711 -0.0466
 3011TIP3   OH2 9038   1.978   5.687   0.726  0.3254 -0.4056 -0.1143
 3011TIP3    H1 9039   2.009   5.674   0.815 -2.2457  0.3350  0.9974
 3011TIP3    H2 9040   1.964   5.781   0.718 -1.3660 -0.6444 -0.5341
 3012TIP3   OH2 9041   1.868   5.009   0.627  0.0821 -0.0718 -0.5269
 3012TIP3    H1 9042   1.877   4.998   0.532  2.4458 -2.2283 -0.1384
 3012TIP3    H2 9043   1.926   5.082   0.648  0.0444 -0.0115 -0.6257
 3013TIP3   OH2 9044   2.699   1.826   3.174 -0.3129 -0.4713  0.3668
 3013TIP3    H1 9045   2.707   1.921   3.183  0.8111 -0.2805 -1.8237
 3013TIP3    H2 9046   2.761   1.804   3.104  1.6724 -3.2281  2.7688
 3014TIP3   OH2 9047   1.014   1.208   0.426  0.1869  0.2486  0.3279
 3014TIP3    H1 9048   0.966   1.150   0.486  0.2611 -0.4764 -0.3042
 3014TIP3    H2 9049   0.969   1.293   0.434 -0.0128  0.0722  1.1497
 3015TIP3   OH2 9050   0.231   0.450   3.102  0.6497 -0.6626  0.2208
 3015TIP3    H1 9051   0.197   0.535   3.130  1.2372 -0.3345 -0.0387
 3015TIP3    H2 9052   0.307   0.471   3.048  0.5647 -1.3437 -0.1796
 3016TIP3   OH2 9053   4.371   5.196   0.511  0.5118  0.6503 -0.4172
 3016TIP3    H1 9054   4.364   5.125   0.576 -1.2026  0.6584 -0.5282
 3016TIP3    H2 9055   4.328   5.160   0.433  0.1813  1.5837 -0.6773
 3017TIP3   OH2 9056   5.984   3.990   2.718 -0.0628 -0.1745 -0.6071
 3017TIP3    H1 9057   5.954   3.965   2.806  1.5040 -3.0990 -0.7722
 3017TIP3    H2 9058   6.049   4.059   2.734  1.1243 -1.5124  0.7346
 3018TIP3   OH2 9059   4.777   4.607   3.661 -0.0195 -0.1016 -0.5393
 3018TIP3    H1 9060   4.786   4.598   3.566 -0.3546 -1.9141 -0.4366
 3018TIP3    H2 9061   4.790   4.700   3.678  1.6616  0.0225 -2.1865
 3019TIP3   OH2 9062   2.751   3.812   1.088 -0.0256 -0.1079  0.1287
 3019TIP3    H1 9063   2.663   3.784   1.067 -0.1594  0.3773  0.0196
 3019TIP3    H2 9064   2.741   3.904   1.114  0.4020 -0.1395  0.4127
 3020TIP3   OH2 9065   2.038   3.856   3.712 -0.2161 -0.8545  0.0841
 3020TIP3    H1 9066   2.126   3.834   3.680 -0.3963 -1.0098 -0.3013
 3020TIP3    H2 9067   2.008   3.777   3.756  0.2141 -0.4944  1.0469
 3021TIP3   OH2 9068   3.486   2.867   0.487 -0.8025 -0.3011  0.1418
 3021TIP3    H1 9069   3.564   2.810   0.489 -1.7272 -1.6180  0.3452
 3021TIP3    H2 9070   3.450   2.859   0.576 -2.6403 -1.8988 -0.6712
 3022TIP3   OH2 9071   3.612   1.909   5.018 -0.0982  0.1790 -0.1382
 3022TIP3    H1 9072   3.598   1.848   4.946  1.1386 -0.2705 -0.0130
 3022TIP3    H2 9073   3.676   1.866   5.074  0.3239  1.3190  0.2887
 3023TIP3   OH2 9074   5.700   0.279   4.972 -0.0992 -0.1567  0.1522
 3023TIP3    H1 9075   5.709   0.232   4.889  0.0615  0.0739  0.0385
 3023TIP3    H2 9076   5.722   0.214   5.039 -1.4935 -0.7183  0.0953
 3024TIP3   OH2 9077   4.893   3.914   0.744 -0.7452 -0.7645 -0.4656
 3024TIP3    H1 9078   4.804   3.881   0.743  0.0186 -3.0727  0.8142
 3024TIP3    H2 9079   4.948   3.836   0.731  1.1294  0.2736  0.7622
 3025TIP3   OH2 9080   4.684   1.982   3.651  0.0693 -0.5507  0.2984
 3025TIP3    H1 9081   4.659   2.062   3.606  1.0310 -0.0694  0.5937
 3025TIP3    H2 9082   4.677   1.914   3.584  0.7915  0.0391 -0.4023
 3026TIP3   OH2 9083   0.921   1.806   3.416  0.2550  0.0076 -0.1577
 3026TIP3    H1 9084   0.864   1.876   3.450 -0.9121 -1.2914  0.6734
 3026TIP3    H2 9085   0.999   1.811   3.470 -0.5094 -0.3629  1.0241
 3027TIP3   OH2 9086   5.345   0.879   2.412 -0.0539 -0.3864  0.3592
 3027TIP3    H1 9087   5.433   0.841   2.420 -0.3414 -1.5728 -1.4565
 3027TIP3    H2 9088   5.359   0.973   2.422  1.7956 -0.3244 -1.8576
 3028TIP3   OH2 9089   1.087   4.886   4.974 -0.2228  0.1350 -0.2382
 3028TIP3    H1 9090   1.049   4.919   5.055  3.6470  4.0395  0.3558
 3028TIP3    H2 9091   1.030   4.920   4.905 -1.1689  0.5285  0.7052
 3029TIP3   OH2 9092   2.170   0.178   2.194  0.3197 -0.0966  0.1537
 3029TIP3    H1 9093   2.156   0.266   2.228  0.4330 -0.7035  1.8867
 3029TIP3    H2 9094   2.181   0.124   2.272 -0.1204 -1.7110 -0.8552
 3030TIP3   OH2 9095   0.073   4.900   2.693 -0.1123  0.3740  0.0671
 3030TIP3    H1 9096   0.013   4.929   2.624  0.9940  0.8784 -0.7130
 3030TIP3    H2 9097   0.159   4.904   2.653  0.4359 -0.5829  1.0862
 3031TIP3   OH2 9098   3.892   1.291   1.950 -0.1653 -0.1465 -0.2679
 3031TIP3    H1 9099   3.841   1.372   1.949  0.4345  0.2768 -2.3612
 3031TIP3    H2 9100   3.956   1.304   2.019  1.3699  2.1950 -1.9829
 3032TIP3   OH2 9101   1.425   2.878   4.224  0.0158 -0.4695  0.8547
 3032TIP3    H1 9102   1.401   2.833   4.304  1.5560 -0.3409  1.4247
 3032TIP3    H2 9103   1.385   2.965   4.231 -1.8774 -1.2436  0.3388
 3033TIP3   OH2 9104   4.487   1.061   4.253  0.5448 -0.4371 -0.2339
 3033TIP3    H1 9105   4.391   1.071   4.253  0.2968 -2.2182  1.2256
 3033TIP3    H2 9106   4.516   1.110   4.329  0.8312  0.3044 -0.8171
 3034TIP3   OH2 9107   0.053   2.910   5.143 -0.0357 -0.0989 -0.7802
 3034TIP3    H1 9108  -0.021   2.923   5.202  1.6548  0.0933  1.4457
 3034TIP3    H2 9109   0.064   2.995   5.100 -0.7066  0.0784 -0.6145
 3035TIP3   OH2 9110   5.172   5.726   2.922  0.4649 -0.1402  0.3472
 3035TIP3    H1 9111   5.150   5.690   2.836  1.6163  0.8447 -0.3890
 3035TIP3    H2 9112   5.254   5.773   2.908 -0.5140  2.0072  1.4764
 3036TIP3   OH2 9113   6.346   5.583   4.255  0.2165  0.1110 -0.0160
 3036TIP3    H1 9114   6.382   5.548   4.173  0.6575 -1.6307  0.8563
 3036TIP3    H2 9115   6.252   5.583   4.241  0.2658 -0.4969 -0.4200
 3037TIP3   OH2 9116   2.824   4.590   3.184 -0.4269  0.5903 -0.1194
 3037TIP3    H1 9117   2.777   4.647   3.122 -3.5362 -1.9614 -0.3978
 3037TIP3    H2 9118   2.847   4.513   3.131  1.1487  0.3757  0.8516
 3038TIP3   OH2 9119   1.652   4.494   4.297 -0.3086  0.4049  0.3018
 3038TIP3    H1 9120   1.634   4.467   4.387 -1.4909  0.2420  0.0314
 3038TIP3    H2 9121   1.725   4.556   4.305 -0.6357  0.6719  1.4017
 3039TIP3   OH2 9122   3.141   3.913   4.999 -0.1728 -0.4106  0.7634
 3039TIP3    H1 9123   3.151   3.854   4.924  2.4315 -0.5619  1.1561
 3039TIP3    H2 9124   3.049   3.903   5.024 -0.8839 -1.0837 -1.7792
 3040TIP3   OH2 9125   5.080   1.742   3.132 -0.3294 -0.7866 -0.4135
 3040TIP3    H1 9126   5.022   1.763   3.206  0.2865  1.7525 -0.5415
 3040TIP3    H2 9127   5.102   1.650   3.143 -0.1377 -0.4651  2.6759
 3041TIP3   OH2 9128   4.912   3.200   4.489  0.2281 -0.2482 -0.2783
 3041TIP3    H1 9129   4.892   3.148   4.412  0.5397  2.2352 -2.1492
 3041TIP3    H2 9130   5.007   3.196   4.497  0.1752 -0.7223  0.1624
 3042TIP3   OH2 9131   4.710   4.824   0.843  0.2579  0.1149 -0.5386
 3042TIP3    H1 9132   4.641   4.792   0.785  1.4863 -0.6811 -1.6178
 3042TIP3    H2 9133   4.790   4.781   0.811  0.9482 -0.6165  1.9386
 3043TIP3   OH2 9134   6.036   0.803   4.520  0.4245 -0.1023  0.1104
 3043TIP3    H1 9135   6.089   0.766   4.449  0.8764  1.3506 -0.3583
 3043TIP3    H2 9136   5.993   0.728   4.560  1.9545 -1.2042 -0.2331
 3044TIP3   OH2 9137   1.980   2.599   4.073 -0.1603  0.2257 -0.2246
 3044TIP3    H1 9138   1.928   2.679   4.082 -2.4640 -1.2117  0.1879
 3044TIP3    H2 9139   2.071   2.628   4.079 -0.9081  2.7794 -0.0515
 3045TIP3   OH2 9140   5.082   1.175   4.214 -0.2269  0.8077  0.7347
 3045TIP3    H1 9141   5.058   1.162   4.306  1.3630  0.4836  1.1346
 3045TIP3    H2 9142   5.173   1.204   4.217 -0.3049  1.2649 -0.7216
 3046TIP3   OH2 9143   0.369   0.313   0.295  0.2287  0.1691 -0.1850
 3046TIP3    H1 9144   0.301   0.289   0.358 -0.9686 -1.1222 -1.9082
 3046TIP3    H2 9145   0.444   0.337   0.350 -1.1150  0.1909  1.7401
 3047TIP3   OH2 9146   2.724   5.876   5.089 -0.4873  0.7799  0.3687
 3047TIP3    H1 9147   2.662   5.893   5.019 -0.5662 -0.9194 -0.0114
 3047TIP3    H2 9148   2.810   5.878   5.046 -0.3637  1.8082  0.6412
 3048TIP3   OH2 9149   6.061   1.072   4.991 -0.0978  0.0618  0.4101
 3048TIP3    H1 9150   6.120   1.034   4.926  1.3095  0.6385  1.3146
 3048TIP3    H2 9151   6.118   1.119   5.051 -1.3031 -0.8228  2.3509
 3049TIP3   OH2 9152   1.860   2.074   1.282 -0.0235 -0.2468  0.4114
 3049TIP3    H1 9153   1.865   2.154   1.334  0.8190  0.6257 -0.9412
 3049TIP3    H2 9154   1.912   2.010   1.331  0.1728  0.3472  0.9818
 3050TIP3   OH2 9155   1.331   3.590   2.264 -0.0998 -0.2988 -0.1597
 3050TIP3    H1 9156   1.326   3.685   2.257  0.8700 -0.3359 -2.2900
 3050TIP3    H2 9157   1.263   3.558   2.205 -0.6987 -0.9458  0.8585
 3051TIP3   OH2 9158   2.449   0.423   4.597 -0.5503  0.6417  0.0751
 3051TIP3    H1 9159   2.486   0.463   4.518  0.6790 -0.5873 -0.0192
 3051TIP3    H2 9160   2.479   0.480   4.668 -0.7474  1.1454 -0.2332
 3052TIP3   OH2 9161   1.132   2.417   3.938 -0.6853 -0.5595  0.5743
 3052TIP3    H1 9162   1.093   2.430   3.852  0.1539 -1.7667 -0.0210
 3052TIP3    H2 9163   1.063   2.379   3.992 -1.6724  1.5700  0.9191
 3053TIP3   OH2 9164   6.097   5.932   3.208  0.1370  0.4843  0.3126
 3053TIP3    H1 9165   6.082   6.026   3.212  2.1459  0.8135  1.3605
 3053TIP3    H2 9166   6.065   5.899   3.293 -0.9511  0.1321 -0.2179
 3054TIP3   OH2 9167   2.639   4.246   3.526 -0.1962  0.5209 -0.5168
 3054TIP3    H1 9168   2.570   4.208   3.471 -0.4077 -0.0754  0.1479
 3054TIP3    H2 9169   2.650   4.335   3.492 -1.3174  0.6374 -0.6200
 3055TIP3   OH2 9170   1.247   5.500   4.192  0.2492  0.1287 -0.2223
 3055TIP3    H1 9171   1.205   5.520   4.108  0.0412 -0.9488 -0.3913
 3055TIP3    H2 9172   1.276   5.410   4.184 -1.3588 -0.6312  1.4776
 3056TIP3   OH2 9173   1.370   5.055   2.321 -0.1004  0.6454  0.0390
 3056TIP3    H1 9174   1.310   4.980   2.317 -0.6119  1.0566 -0.0017
 3056TIP3    H2 9175   1.401   5.055   2.411 -0.0696  0.3579  0.0291
 3057TIP3   OH2 9176   5.764   4.949   1.667  0.6307 -0.3010 -0.1950
 3057TIP3    H1 9177   5.681   4.903   1.678  0.2650 -0.1916 -2.1410
 3057TIP3    H2 9178   5.803   4.910   1.589  1.9700  0.3258  0.1229
 3058TIP3   OH2 9179   0.816   0.425   1.653  0.0768  0.9574 -0.6499
 3058TIP3    H1 9180   0.759   0.469   1.589  0.0557 -0.5753 -1.7229
 3058TIP3    H2 9181   0.777   0.339   1.664  0.3552  1.0298  1.1159
 3059TIP3   OH2 9182   3.962   0.706   0.366  0.2722  0.1360 -0.3067
 3059TIP3    H1 9183   3.974   0.612   0.354  1.6644  0.1455  0.7152
 3059TIP3    H2 9184   3.870   0.721   0.349 -0.0038 -1.4430 -0.3467
 3060TIP3   OH2 9185   6.198   4.556   3.224  0.8460 -0.4784 -0.1351
 3060TIP3    H1 9186   6.121   4.519   3.180  0.4301  0.0424  0.1429
 3060TIP3    H2 9187   6.226   4.488   3.285  1.0192 -0.9375 -0.7259
 3061TIP3   OH2 9188   4.620   1.496   5.104 -0.3654  0.0317  0.3035
 3061TIP3    H1 9189   4.536   1.512   5.061 -0.1344 -0.4223 -0.3326
 3061TIP3    H2 9190   4.669   1.442   5.041  0.8688  1.3120  0.1157
 3062TIP3   OH2 9191   3.675   4.521   5.002  0.1688 -0.0548  0.4789
 3062TIP3    H1 9192   3.738   4.575   4.956  0.9617 -0.8681  0.5823
 3062TIP3    H2 9193   3.596   4.522   4.947  0.1601  1.2045  0.5007
 3063TIP3   OH2 9194   1.775   1.576   0.039 -0.0591 -0.2380  0.2252
 3063TIP3    H1 9195   1.724   1.530  -0.028  1.1348  1.0538 -1.6511
 3063TIP3    H2 9196   1.725   1.656   0.056 -0.4743 -0.6639  1.0943
 3064TIP3   OH2 9197   2.890   3.726   0.557  0.4023 -0.0060 -0.2740
 3064TIP3    H1 9198   2.804   3.692   0.584 -0.7062  2.3349 -0.5387
 3064TIP3    H2 9199   2.929   3.655   0.508 -0.2877 -2.0524  1.9435
 3065TIP3   OH2 9200   0.226   5.622   2.403 -0.5423 -0.5294 -0.0472
 3065TIP3    H1 9201   0.216   5.692   2.338 -2.8543  0.4862  1.2668
 3065TIP3    H2 9202   0.278   5.662   2.472  1.1023 -1.3021 -0.7866
 3066TIP3   OH2 9203   6.268   0.579   2.985 -0.0395 -0.3718  0.0660
 3066TIP3    H1 9204   6.190   0.550   3.033  0.2742 -0.4375  0.5395
 3066TIP3    H2 9205   6.298   0.656   3.034  2.1741 -2.2987  1.9416
 3067TIP3   OH2 9206   0.114   2.661   2.230 -0.3426 -0.0818  0.3522
 3067TIP3    H1 9207   0.180   2.617   2.283 -2.3021 -0.6136  2.4536
 3067TIP3    H2 9208   0.031   2.622   2.256 -1.4814 -0.0759 -2.8690
 3068TIP3   OH2 9209   0.167   0.905   1.638  0.1483  0.4056 -0.1329
 3068TIP3    H1 9210   0.127   0.988   1.610  0.2139  0.1029 -1.1706
 3068TIP3    H2 9211   0.120   0.838   1.589  0.4046 -0.1454  0.3587
 3069TIP3   OH2 9212   3.340   4.420   5.024  0.1936  0.1339  0.2940
 3069TIP3    H1 9213   3.340   4.410   4.929 -0.4293  0.0809  0.2957
 3069TIP3    H2 9214   3.256   4.385   5.052 -1.0730  3.1172  0.5447
 3070TIP3   OH2 9215   2.661   5.757   1.879  0.2101 -0.6392 -0.3903
 3070TIP3    H1 9216   2.738   5.759   1.822 -0.6597 -1.8337 -1.6824
 3070TIP3    H2 9217   2.594   5.713   1.826 -1.6751  1.2399  0.3394
 3071TIP3   OH2 9218   5.549   5.111   3.706 -0.1148  0.0610 -0.0169
 3071TIP3    H1 9219   5.456   5.134   3.714 -0.2365 -0.3102 -0.3400
 3071TIP3    H2 9220   5.574   5.139   3.619  0.4997  1.6049  0.6216
 3072TIP3   OH2 9221   3.976   1.447   0.068  0.4460  0.0897 -0.2083
 3072TIP3    H1 9222   3.900   1.410   0.024 -0.5542  0.0729  1.4484
 3072TIP3    H2 9223   4.029   1.371   0.093 -0.2088 -0.0870  0.7166
 3073TIP3   OH2 9224   4.534   3.898   0.097 -0.0557  0.3366  0.3124
 3073TIP3    H1 9225   4.546   3.876   0.005  1.2322  0.4351  0.4377
 3073TIP3    H2 9226   4.476   3.829   0.131  0.9739 -0.7888 -0.1463
 3074TIP3   OH2 9227   2.711   1.518   1.181  0.1140  0.7763  0.0980
 3074TIP3    H1 9228   2.716   1.448   1.115 -0.2223 -0.8639  1.7279
 3074TIP3    H2 9229   2.735   1.597   1.134 -1.6199 -0.0473 -2.3894
 3075TIP3   OH2 9230   6.162   3.109   4.622 -0.4442  0.0877  0.0306
 3075TIP3    H1 9231   6.082   3.138   4.666 -0.4503  2.4290 -1.3611
 3075TIP3    H2 9232   6.135   3.093   4.532  0.6034  0.6151 -0.3844
 3076TIP3   OH2 9233   1.633   0.280   0.068 -0.0361  0.0733 -0.3026
 3076TIP3    H1 9234   1.544   0.315   0.071 -0.9168 -2.0935  0.7092
 3076TIP3    H2 9235   1.632   0.221  -0.007 -1.1836 -3.9718  2.5739
 3077TIP3   OH2 9236   4.481   1.517   3.746 -0.2052 -0.0340 -0.8630
 3077TIP3    H1 9237   4.494   1.579   3.817  0.2251  0.2900 -1.2160
 3077TIP3    H2 9238   4.565   1.472   3.737 -0.3306 -0.2426 -1.0050
 3078TIP3   OH2 9239   3.724   1.194   0.079 -0.2874 -0.2745  0.0725
 3078TIP3    H1 9240   3.756   1.200  -0.011  0.2108  2.3107  0.3287
 3078TIP3    H2 9241   3.632   1.220   0.073 -1.0079 -2.6407  0.0272
 3079TIP3   OH2 9242   1.672   4.809   0.725 -0.6898 -0.2396  0.3094
 3079TIP3    H1 9243   1.739   4.855   0.675  0.4370  0.7873  2.5955
 3079TIP3    H2 9244   1.609   4.779   0.660  0.7218  0.9206 -1.6862
 3080TIP3   OH2 9245   5.846   5.322   4.344  0.4222  0.4638  0.2508
 3080TIP3    H1 9246   5.774   5.287   4.291  2.5601 -1.2565 -1.7682
 3080TIP3    H2 9247   5.837   5.417   4.336 -0.0013  0.3006 -2.4518
 3081TIP3   OH2 9248   0.904   3.064   1.150 -0.3457 -0.2436  0.2424
 3081TIP3    H1 9249   0.991   3.092   1.120 -0.0130 -1.3829  0.0912
 3081TIP3    H2 9250   0.853   3.145   1.154  0.3187  0.2704 -1.0335
 3082TIP3   OH2 9251   5.543   3.523   0.430  0.8482 -0.6895 -0.1677
 3082TIP3    H1 9252   5.629   3.487   0.408  0.6127 -2.5400  1.6126
 3082TIP3    H2 9253   5.548   3.542   0.524 -0.8451 -1.3993  0.1029
 3083TIP3   OH2 9254   2.681   1.835   4.054  0.3582 -0.1884 -0.0469
 3083TIP3    H1 9255   2.607   1.834   3.994  0.2579 -1.1592  0.0726
 3083TIP3    H2 9256   2.752   1.877   4.005  0.1862 -0.6897 -0.7351
 3084TIP3   OH2 9257   3.855   1.930   4.029 -0.1581  0.0678 -0.4014
 3084TIP3    H1 9258   3.818   2.010   3.992  0.8301  0.4780 -0.5408
 3084TIP3    H2 9259   3.910   1.894   3.959 -0.1274 -0.4173 -0.1365
 3085TIP3   OH2 9260   3.975   5.650   4.005  0.1267  0.4173 -0.1585
 3085TIP3    H1 9261   3.910   5.650   3.934 -0.8549 -0.2918  0.7186
 3085TIP3    H2 9262   3.992   5.743   4.021 -0.4201  0.6051 -0.6336
 3086TIP3   OH2 9263   0.673   5.270   2.162  0.8599  0.2423  0.0099
 3086TIP3    H1 9264   0.724   5.190   2.174 -0.7563 -1.1587 -1.8293
 3086TIP3    H2 9265   0.718   5.318   2.093  1.2439  0.4025  0.3710
 3087TIP3   OH2 9266   6.042   1.017   3.293 -0.3563 -0.0472  0.2300
 3087TIP3    H1 9267   5.978   1.037   3.224 -0.6411  0.5894  0.6682
 3087TIP3    H2 9268   6.126   1.043   3.256 -0.1765 -1.8469 -0.7524
 3088TIP3   OH2 9269   2.597   3.104   0.286  0.1851 -0.3023 -0.1786
 3088TIP3    H1 9270   2.528   3.038   0.294 -0.9421  0.6352 -1.6702
 3088TIP3    H2 9271   2.672   3.066   0.333 -1.9438 -0.3708  3.5039
 3089TIP3   OH2 9272   2.195   1.103   4.238 -0.0471  1.3862  0.0648
 3089TIP3    H1 9273   2.222   1.048   4.311 -0.4368  1.5363  0.3234
 3089TIP3    H2 9274   2.171   1.042   4.168 -0.9993  1.2090  0.5320
 3090TIP3   OH2 9275   0.280   1.700   1.264  0.2152  0.0631 -0.0004
 3090TIP3    H1 9276   0.363   1.748   1.255 -0.5826  1.3325 -1.0524
 3090TIP3    H2 9277   0.276   1.643   1.188  0.5369 -0.6941  0.5402
 3091TIP3   OH2 9278   5.446   0.391   4.757 -0.1350  0.1778  0.5579
 3091TIP3    H1 9279   5.351   0.386   4.748 -0.2065 -0.2111  1.4355
 3091TIP3    H2 9280   5.469   0.313   4.808  0.9265 -1.0952 -1.6570
 3092TIP3   OH2 9281   4.087   2.198   4.916 -0.1151  0.8923  0.4348
 3092TIP3    H1 9282   4.007   2.146   4.908  0.3930 -0.0305  1.1785
 3092TIP3    H2 9283   4.115   2.213   4.826 -1.5144  1.8534  0.1433
 3093TIP3   OH2 9284   0.598   3.323   3.173  0.9677  0.1772 -0.4598
 3093TIP3    H1 9285   0.655   3.360   3.106  0.8329  0.2993 -0.5079
 3093TIP3    H2 9286   0.514   3.310   3.129  0.8178  0.4576 -0.2578
 3094TIP3   OH2 9287   0.067   1.124   0.132  0.1762 -0.2675 -0.1643
 3094TIP3    H1 9288   0.128   1.051   0.137 -0.3909 -0.7434 -0.0961
 3094TIP3    H2 9289   0.053   1.150   0.223  0.2834 -0.1515 -0.1806
 3095TIP3   OH2 9290   3.269   4.022   1.860 -0.0614  0.1352 -0.0850
 3095TIP3    H1 9291   3.179   4.047   1.882 -0.5263 -2.3256  1.1287
 3095TIP3    H2 9292   3.322   4.058   1.931 -0.3362 -0.0047  0.1914
 3096TIP3   OH2 9293   0.045   3.119   3.875 -0.2322  0.1458  0.4874
 3096TIP3    H1 9294   0.088   3.044   3.834  0.4270  0.4497  0.6151
 3096TIP3    H2 9295   0.071   3.115   3.967 -0.0606  0.6263  0.4615
 3097TIP3   OH2 9296   3.951   3.043   1.928 -0.2033 -0.3334 -0.4529
 3097TIP3    H1 9297   3.882   3.038   1.993 -0.2210  0.4033 -0.4105
 3097TIP3    H2 9298   3.970   2.952   1.905 -0.7557 -0.5564 -0.0143
 3098TIP3   OH2 9299   1.950   2.032   4.285  0.6327 -0.4157 -0.5149
 3098TIP3    H1 9300   1.886   1.990   4.228  0.0638  1.6780 -1.4765
 3098TIP3    H2 9301   1.899   2.066   4.359  0.7989  0.2307 -0.6929
 3099TIP3   OH2 9302   2.959   5.373   3.335  0.2410  0.3453  1.1810
 3099TIP3    H1 9303   2.895   5.390   3.404  0.6089  2.5719  1.0560
 3099TIP3    H2 9304   2.915   5.399   3.254  0.6084 -0.0589  0.8451
 3100TIP3   OH2 9305   0.565   4.082   3.210 -0.5890  0.4581  0.3067
 3100TIP3    H1 9306   0.551   4.093   3.116 -1.4139  3.3640  0.6723
 3100TIP3    H2 9307   0.503   4.014   3.236  0.7329 -1.5332 -1.4150
 3101TIP3   OH2 9308   5.854   1.013   4.389 -0.2022 -0.0362  0.1447
 3101TIP3    H1 9309   5.888   0.964   4.315  1.0377  0.5514  0.3016
 3101TIP3    H2 9310   5.877   0.960   4.466  0.7832  0.5742  0.2839
 3102TIP3   OH2 9311   2.042   2.466   3.277 -0.1003  0.1240 -0.6081
 3102TIP3    H1 9312   2.018   2.480   3.185  0.4824  2.0126 -0.5179
 3102TIP3    H2 9313   2.104   2.537   3.297  0.3690 -0.6953  1.0363
 3103TIP3   OH2 9314   0.003   1.643   4.681  0.5198 -0.0273 -0.3371
 3103TIP3    H1 9315  -0.045   1.722   4.659  1.0525  0.6665  0.8630
 3103TIP3    H2 9316   0.094   1.662   4.658  0.8045  0.0812  0.8227
 3104TIP3   OH2 9317   2.663   0.377   1.032  0.2569  0.5775 -0.2531
 3104TIP3    H1 9318   2.698   0.291   1.007  0.1544 -0.6049  3.1621
 3104TIP3    H2 9319   2.593   0.357   1.094 -0.3018  3.1346  0.0610
 3105TIP3   OH2 9320   4.206   4.387   2.258  0.5314  0.1190  0.4064
 3105TIP3    H1 9321   4.283   4.361   2.207  0.0670  3.0757 -2.0474
 3105TIP3    H2 9322   4.133   4.341   2.216  0.5449 -0.0189  0.5336
 3106TIP3   OH2 9323   2.656   1.213   2.506  0.3632  0.0749 -0.4632
 3106TIP3    H1 9324   2.670   1.193   2.599 -1.7647 -1.3239 -0.3703
 3106TIP3    H2 9325   2.630   1.305   2.505  1.3310  0.3660  0.2167
 3107TIP3   OH2 9326   3.165   1.187   1.211 -0.9658  0.5945 -0.3601
 3107TIP3    H1 9327   3.162   1.237   1.293  0.0632  0.6532 -0.3415
 3107TIP3    H2 9328   3.084   1.212   1.166 -1.6740  0.3719  0.7309
 3108TIP3   OH2 9329   2.895   0.660   3.544  0.4007  1.0347  1.2240
 3108TIP3    H1 9330   2.971   0.619   3.504 -1.4937 -1.4062 -0.1805
 3108TIP3    H2 9331   2.914   0.659   3.638  2.3700  1.1976  0.8646
 3109TIP3   OH2 9332   1.603   1.629   1.950 -0.4409 -0.6009  0.6245
 3109TIP3    H1 9333   1.605   1.720   1.920 -1.7852 -0.6207  0.4034
 3109TIP3    H2 9334   1.551   1.631   2.030 -0.1792 -1.1227  0.8124
 3110TIP3   OH2 9335   1.966   3.966   1.337 -0.3728  0.3800  0.3803
 3110TIP3    H1 9336   1.904   4.014   1.392  1.6519  0.8487  2.4288
 3110TIP3    H2 9337   2.015   3.911   1.399  0.5693 -0.7379 -1.2809
 3111TIP3   OH2 9338   3.206   1.677   3.176 -0.4262  0.4185  0.2904
 3111TIP3    H1 9339   3.157   1.744   3.129 -0.4730 -1.2982 -2.3275
 3111TIP3    H2 9340   3.149   1.653   3.250 -1.6894  1.2649 -0.3744
 3112TIP3   OH2 9341   4.337   2.510   0.360  0.4385 -0.4167 -1.0439
 3112TIP3    H1 9342   4.265   2.569   0.383  2.5198  2.0011 -0.1040
 3112TIP3    H2 9343   4.372   2.545   0.278  0.7123 -1.3746 -1.3500
 3113TIP3   OH2 9344   2.346   1.881   1.489 -0.3107  0.2019 -0.1690
 3113TIP3    H1 9345   2.411   1.812   1.481  0.5929  0.6929  2.0728
 3113TIP3    H2 9346   2.397   1.962   1.483 -1.2866  0.7197 -2.2724
 3114TIP3   OH2 9347   1.959   3.793   0.436 -0.2182 -0.0599 -0.1918
 3114TIP3    H1 9348   1.952   3.833   0.523  1.1887 -0.5007  0.1484
 3114TIP3    H2 9349   2.053   3.781   0.422 -0.4661 -0.8157 -1.4025
 3115TIP3   OH2 9350   0.531   2.880   2.674  0.4699 -0.2189  0.1059
 3115TIP3    H1 9351   0.570   2.967   2.681 -1.7451  0.8075  0.8830
 3115TIP3    H2 9352   0.541   2.841   2.760 -0.3132  0.1314  0.3704
 3116TIP3   OH2 9353   4.578   2.175   1.561 -0.0352 -0.1072  0.2098
 3116TIP3    H1 9354   4.594   2.097   1.614  0.0552  0.4584  1.0396
 3116TIP3    H2 9355   4.492   2.207   1.590 -0.4833 -0.4104 -0.7770
 3117TIP3   OH2 9356   6.250   3.875   4.564 -0.0283  0.3749 -0.1825
 3117TIP3    H1 9357   6.196   3.797   4.552  0.6601 -0.7361  3.0166
 3117TIP3    H2 9358   6.188   3.943   4.592 -0.2920  0.3203 -0.6194
 3118TIP3   OH2 9359   0.189   2.475   1.053 -0.3868  0.9643 -0.4844
 3118TIP3    H1 9360   0.265   2.511   1.099  0.5526  0.0984 -1.3191
 3118TIP3    H2 9361   0.128   2.450   1.123  1.0190 -0.3654  0.3134
 3119TIP3   OH2 9362   2.011   0.058   1.978 -0.0712  0.3125 -0.2376
 3119TIP3    H1 9363   1.917   0.068   1.996 -0.0126  0.1902  0.1477
 3119TIP3    H2 9364   2.054   0.103   2.051  0.1892 -2.4172  1.4520
 3120TIP3   OH2 9365   5.652   4.636   4.630 -0.8792 -0.0474 -0.4094
 3120TIP3    H1 9366   5.696   4.713   4.665 -2.6379  0.9924 -0.3872
 3120TIP3    H2 9367   5.699   4.617   4.548 -0.2125  0.8446 -0.2470
 3121TIP3   OH2 9368   5.871   2.077   4.254  0.2801  0.0810  0.0948
 3121TIP3    H1 9369   5.924   1.998   4.266  0.8115  0.3150 -0.6082
 3121TIP3    H2 9370   5.934   2.143   4.224 -0.3191  0.5089 -0.2317
 3122TIP3   OH2 9371   1.821   0.981   0.308  0.4902  0.2924  0.3968
 3122TIP3    H1 9372   1.880   0.906   0.316 -1.1347 -1.0944  0.1842
 3122TIP3    H2 9373   1.775   0.984   0.392  1.1378  1.6148  0.7177
 3123TIP3   OH2 9374   4.674   0.757   2.658 -0.6916  0.0830 -0.4691
 3123TIP3    H1 9375   4.741   0.692   2.676 -0.4229  0.4921  0.0360
 3123TIP3    H2 9376   4.723   0.836   2.636 -1.0121  0.2790 -0.4811
 3124TIP3   OH2 9377   3.795   5.995   4.582  0.4341  0.3503  0.0695
 3124TIP3    H1 9378   3.767   5.905   4.565 -0.5136  0.6242  0.1402
 3124TIP3    H2 9379   3.851   5.989   4.659 -2.8771  0.3038  2.6584
 3125TIP3   OH2 9380   0.219   2.218   1.273 -0.2129  0.3241  0.1580
 3125TIP3    H1 9381   0.200   2.154   1.342 -0.1699 -2.8608 -2.5188
 3125TIP3    H2 9382   0.307   2.249   1.292 -0.9378  1.1553  2.5658
 3126TIP3   OH2 9383   0.732   3.675   3.946  0.1279  0.0892 -0.1043
 3126TIP3    H1 9384   0.673   3.733   3.898  1.4935  0.5950 -1.2564
 3126TIP3    H2 9385   0.808   3.665   3.888  0.8024 -1.2275  0.9511
 3127TIP3   OH2 9386   0.228   0.223   2.869 -0.3215 -0.4875 -0.2719
 3127TIP3    H1 9387   0.135   0.228   2.892 -0.7111  2.6102 -2.0401
 3127TIP3    H2 9388   0.230   0.240   2.775  2.0812 -0.0475 -0.1822
 3128TIP3   OH2 9389   1.211   3.763   1.070 -0.6623 -0.5442  0.5608
 3128TIP3    H1 9390   1.238   3.687   1.122 -0.3898  0.1310  1.4373
 3128TIP3    H2 9391   1.251   3.838   1.115  1.0963 -0.0791 -1.6424
 3129TIP3   OH2 9392   5.438   2.633   2.393 -0.5785 -0.3068  0.4068
 3129TIP3    H1 9393   5.416   2.541   2.376  0.6869 -0.4297 -0.8014
 3129TIP3    H2 9394   5.476   2.663   2.310  2.3497  0.2508  1.8260
 3130TIP3   OH2 9395   6.041   2.074   1.008  0.7581 -0.1792 -0.7729
 3130TIP3    H1 9396   6.117   2.015   1.010  0.0995 -1.0258  0.1676
 3130TIP3    H2 9397   5.970   2.022   1.045  0.3744  1.5205  1.0202
 3131TIP3   OH2 9398   3.311   3.403   1.736  0.1617  0.4703  0.3672
 3131TIP3    H1 9399   3.220   3.387   1.712  0.4482  1.1749 -1.3277
 3131TIP3    H2 9400   3.307   3.467   1.807 -0.6405  2.8005 -1.6605
 3132TIP3   OH2 9401   2.911   5.561   4.387  0.1515  0.4291  0.0735
 3132TIP3    H1 9402   2.877   5.497   4.324 -0.8041 -0.2722  1.2533
 3132TIP3    H2 9403   2.833   5.607   4.418  0.7012  1.3030  0.1775
 3133TIP3   OH2 9404   5.089   4.003   3.258 -0.3831 -0.1416  0.7113
 3133TIP3    H1 9405   5.025   3.993   3.328 -0.5474 -0.4765  0.5167
 3133TIP3    H2 9406   5.169   3.964   3.293 -0.7735 -1.3684  0.2995
 3134TIP3   OH2 9407   5.250   0.908   0.535 -0.0675  0.1418 -0.1539
 3134TIP3    H1 9408   5.281   0.819   0.520 -2.2409 -1.0832  1.8646
 3134TIP3    H2 9409   5.217   0.907   0.625 -2.3386  2.3016 -0.8463
 3135TIP3   OH2 9410   0.780   2.795   0.795  0.4138 -0.2238 -0.7542
 3135TIP3    H1 9411   0.694   2.759   0.772 -1.0560  1.7612  1.2628
 3135TIP3    H2 9412   0.794   2.767   0.885  2.4449 -1.3622 -1.3487
 3136TIP3   OH2 9413   2.559   1.938   2.006 -0.7258  0.2220 -0.2103
 3136TIP3    H1 9414   2.494   1.967   1.942 -2.0857 -1.7869  0.1959
 3136TIP3    H2 9415   2.579   2.017   2.057 -2.7831  0.9379 -0.4137
 3137TIP3   OH2 9416   2.338   2.307   2.290  0.0467  0.6163  0.5390
 3137TIP3    H1 9417   2.375   2.376   2.235  0.6611 -0.1298 -0.0075
 3137TIP3    H2 9418   2.400   2.298   2.362  2.1921 -2.0292 -1.4070
 3138TIP3   OH2 9419   3.895   5.287   4.376 -0.3562  0.8426 -0.6433
 3138TIP3    H1 9420   3.823   5.227   4.393 -0.5067  0.1765 -3.1943
 3138TIP3    H2 9421   3.951   5.240   4.313  1.6402  1.8534  0.2769
 3139TIP3   OH2 9422   3.223   0.584   2.822  0.3771 -0.0542  0.1767
 3139TIP3    H1 9423   3.211   0.599   2.916 -1.0135 -0.6444  0.1159
 3139TIP3    H2 9424   3.270   0.501   2.817  2.5704  1.0934  0.3641
 3140TIP3   OH2 9425   1.263   4.143   3.097  0.4645 -0.1987 -0.1396
 3140TIP3    H1 9426   1.345   4.116   3.057 -0.8319 -1.1774 -2.3856
 3140TIP3    H2 9427   1.197   4.088   3.055 -1.4513  1.2317  0.8241
 3141TIP3   OH2 9428   3.412   1.398   4.514 -0.1664 -0.1645  0.2461
 3141TIP3    H1 9429   3.400   1.476   4.568 -0.1437  0.0648 -0.0813
 3141TIP3    H2 9430   3.434   1.431   4.427  1.8384 -0.5593  0.5614
 3142TIP3   OH2 9431   2.772   2.452   1.971  0.0411 -0.6713 -0.0951
 3142TIP3    H1 9432   2.706   2.384   1.984  1.3971 -1.9859  0.1175
 3142TIP3    H2 9433   2.835   2.439   2.042  1.2614 -0.3208 -1.0694
 3143TIP3   OH2 9434   5.219   2.990   3.649 -0.0943 -0.8379  0.3020
 3143TIP3    H1 9435   5.140   2.937   3.660  0.2013 -1.6160 -1.1757
 3143TIP3    H2 9436   5.218   3.017   3.558  1.4264 -0.9895  0.2154
 3144TIP3   OH2 9437   4.295   0.401   4.725  0.6257 -0.1954  0.2962
 3144TIP3    H1 9438   4.380   0.378   4.688  0.5155  0.6056 -0.5105
 3144TIP3    H2 9439   4.315   0.443   4.809  1.1084  0.8578 -0.3224
 3145TIP3   OH2 9440   0.639   0.490   2.341  0.3388 -0.5798  0.7460
 3145TIP3    H1 9441   0.575   0.561   2.331  2.6938  1.4106 -1.4326
 3145TIP3    H2 9442   0.708   0.529   2.395  0.7251 -1.9679  1.2767
 3146TIP3   OH2 9443   3.044   0.243   0.526 -0.6078  0.4617  0.1034
 3146TIP3    H1 9444   3.003   0.160   0.502  0.8932 -0.2347 -0.1987
 3146TIP3    H2 9445   2.980   0.310   0.503 -0.8794 -0.4429 -1.9909
 3147TIP3   OH2 9446   1.990   4.364   2.170 -0.4226 -0.1144 -0.2368
 3147TIP3    H1 9447   1.899   4.352   2.140 -1.0213  0.1169  1.3882
 3147TIP3    H2 9448   2.043   4.328   2.099 -1.7838 -0.2552 -1.2307
 3148TIP3   OH2 9449   0.478   1.932   0.785  0.2792  0.1962  0.2874
 3148TIP3    H1 9450   0.507   1.971   0.868  0.4564  2.1963 -0.6636
 3148TIP3    H2 9451   0.543   1.961   0.721 -1.0679  0.5644 -0.9554
 3149TIP3   OH2 9452   5.184   1.297   2.321 -0.0589 -0.2219  0.4238
 3149TIP3    H1 9453   5.252   1.245   2.364  0.9277  1.9161  1.5912
 3149TIP3    H2 9454   5.140   1.235   2.262  1.4356 -2.1913  1.2715
 3150TIP3   OH2 9455   4.334   4.098   0.148  0.3390  0.4275  0.1203
 3150TIP3    H1 9456   4.396   4.032   0.118  1.3507  1.3446  0.1316
 3150TIP3    H2 9457   4.389   4.168   0.184 -0.7000  1.2642  0.1276
 3151TIP3   OH2 9458   1.899   1.583   2.030 -0.0348 -0.4256 -0.1741
 3151TIP3    H1 9459   1.809   1.560   2.051  0.5558 -1.4533  1.4389
 3151TIP3    H2 9460   1.952   1.528   2.088  1.6578 -0.3899 -1.5946
 3152TIP3   OH2 9461   0.870   0.586   3.713  0.6946  0.4366 -0.2169
 3152TIP3    H1 9462   0.836   0.513   3.661  0.2471 -0.2762  1.0166
 3152TIP3    H2 9463   0.937   0.546   3.770  2.1060  1.4351 -1.1235
 3153TIP3   OH2 9464   5.348   4.104   4.336 -0.0849  0.3109 -0.2167
 3153TIP3    H1 9465   5.354   4.056   4.418 -3.2163  0.4751  0.2285
 3153TIP3    H2 9466   5.289   4.177   4.355  1.1507  1.8721 -1.9902
 3154TIP3   OH2 9467   4.138   4.059   0.860 -0.2093 -0.0089  0.4266
 3154TIP3    H1 9468   4.051   4.039   0.827 -0.5591  1.5565  0.3330
 3154TIP3    H2 9469   4.125   4.079   0.953 -0.1011  1.0015  0.2396
 3155TIP3   OH2 9470   2.694   0.069   3.980 -0.0653  0.5095 -0.1570
 3155TIP3    H1 9471   2.742   0.007   4.035 -0.4236  0.3401 -0.0317
 3155TIP3    H2 9472   2.762   0.113   3.928  0.3884  1.4510  1.1889
 3156TIP3   OH2 9473   4.092   3.423   4.682 -0.1259 -0.0718  0.6595
 3156TIP3    H1 9474   4.091   3.468   4.597 -0.3282 -0.5818  0.3893
 3156TIP3    H2 9475   4.010   3.450   4.724  0.2838  0.7135  0.9833
 3157TIP3   OH2 9476   1.727   2.007   3.252  0.3021 -0.2917  0.2406
 3157TIP3    H1 9477   1.730   1.912   3.254  0.7050 -0.2700  0.7935
 3157TIP3    H2 9478   1.641   2.028   3.215  1.0333 -0.8787 -1.9688
 3158TIP3   OH2 9479   0.067   1.177   1.061 -0.5762  0.3487 -0.2332
 3158TIP3    H1 9480   0.030   1.184   1.149  0.7192  0.2074  0.3611
 3158TIP3    H2 9481   0.150   1.225   1.067 -0.8616  1.0397 -1.6230
 3159TIP3   OH2 9482   0.245   2.699   0.409  0.5697  0.0347 -0.7245
 3159TIP3    H1 9483   0.339   2.714   0.400  0.4244  1.0497 -0.7481
 3159TIP3    H2 9484   0.206   2.762   0.348 -0.1192 -0.5391 -0.8792
 3160TIP3   OH2 9485   0.078   4.231   3.238  0.1359  0.1077 -0.7914
 3160TIP3    H1 9486  -0.015   4.226   3.215 -0.1805 -0.8953  0.5839
 3160TIP3    H2 9487   0.121   4.176   3.172 -0.3502 -0.0822 -0.9584
 3161TIP3   OH2 9488   1.897   0.632   1.295 -0.3250  0.1857  0.3971
 3161TIP3    H1 9489   1.847   0.557   1.328 -0.1956 -0.3518 -0.5659
 3161TIP3    H2 9490   1.888   0.625   1.200  2.1032 -0.3111  0.1418
 3162TIP3   OH2 9491   2.492   2.174   2.517 -0.0329 -0.1309  0.1598
 3162TIP3    H1 9492   2.424   2.139   2.575  1.6659 -2.6303  0.7984
 3162TIP3    H2 9493   2.561   2.204   2.576 -0.2042  1.7202 -0.5056
 3163TIP3   OH2 9494   4.595   2.951   0.680 -0.2520  0.4161 -0.0354
 3163TIP3    H1 9495   4.558   2.957   0.768 -0.7023 -2.1755  0.0074
 3163TIP3    H2 9496   4.684   2.985   0.689 -1.0604  2.4535  0.8421
 3164TIP3   OH2 9497   2.991   4.978   0.704 -0.1310  0.7381 -0.5428
 3164TIP3    H1 9498   3.045   4.928   0.766 -0.9620 -1.2757 -1.3345
 3164TIP3    H2 9499   2.901   4.957   0.729 -0.5213 -1.1559 -3.0687
 3165TIP3   OH2 9500   1.329   0.057   3.174 -0.8369 -0.1765 -0.0277
 3165TIP3    H1 9501   1.256   0.044   3.234 -1.2131  1.2173 -0.1403
 3165TIP3    H2 9502   1.397  -0.004   3.204 -1.7312 -0.8824  0.5967
 3166TIP3   OH2 9503   6.050   0.431   3.098 -0.4725 -0.4849  0.2548
 3166TIP3    H1 9504   6.014   0.342   3.099  0.8367 -1.0452 -0.0321
 3166TIP3    H2 9505   6.000   0.477   3.031 -0.2150 -1.4441 -0.6237
 3167TIP3   OH2 9506   0.822   5.120   4.506 -0.6084 -0.6044  0.0268
 3167TIP3    H1 9507   0.915   5.097   4.505 -0.5381 -0.3065 -0.5495
 3167TIP3    H2 9508   0.817   5.199   4.560 -0.1666  0.8346 -1.9407
 3168TIP3   OH2 9509   0.653   3.330   4.862 -0.1220 -0.1884  0.0926
 3168TIP3    H1 9510   0.698   3.287   4.789 -0.1275  0.0685 -0.0609
 3168TIP3    H2 9511   0.660   3.267   4.934 -1.9377 -1.4103 -0.6915
 3169TIP3   OH2 9512   2.677   2.773   0.603  0.0564 -0.2813 -0.5997
 3169TIP3    H1 9513   2.690   2.742   0.513  0.3307 -0.0090 -0.6543
 3169TIP3    H2 9514   2.592   2.735   0.629  0.5655 -1.4081 -0.5202
 3170TIP3   OH2 9515   2.705   1.189   4.432 -0.3264 -0.0354 -0.0228
 3170TIP3    H1 9516   2.636   1.171   4.495 -0.1992 -0.4503  0.0067
 3170TIP3    H2 9517   2.740   1.274   4.457 -0.4222 -0.1008  0.3325
 3171TIP3   OH2 9518   5.148   4.430   4.644 -0.0388  0.3238 -0.3825
 3171TIP3    H1 9519   5.069   4.483   4.635 -1.8967 -2.0608  0.5896
 3171TIP3    H2 9520   5.215   4.478   4.597 -2.7220  1.1942 -3.7162
 3172TIP3   OH2 9521   3.215   2.380   0.105 -0.1967  0.2731 -0.7191
 3172TIP3    H1 9522   3.275   2.357   0.176 -1.6611 -0.2206  0.4033
 3172TIP3    H2 9523   3.228   2.474   0.093 -0.3341  0.4899  0.6396
 3173TIP3   OH2 9524   2.013   5.882   1.360 -0.8513  0.0206  0.1245
 3173TIP3    H1 9525   2.076   5.873   1.289 -2.2106 -0.3747 -1.0680
 3173TIP3    H2 9526   1.931   5.852   1.324 -1.6361 -0.0074  1.8216
 3174TIP3   OH2 9527   3.700   0.263   4.879  0.0387 -0.4125 -0.0255
 3174TIP3    H1 9528   3.630   0.199   4.863  1.1681 -1.6539 -0.1530
 3174TIP3    H2 9529   3.753   0.260   4.799 -0.0035  0.8447 -0.1135
 3175TIP3   OH2 9530   1.570   0.929   0.058 -0.2580  0.2459  0.0203
 3175TIP3    H1 9531   1.651   0.979   0.065 -0.1154  0.1107 -0.6145
 3175TIP3    H2 9532   1.584   0.870  -0.016 -1.3804  1.0599 -0.8804
 3176TIP3   OH2 9533   5.285   3.423   2.890  0.5132  0.7354 -0.4379
 3176TIP3    H1 9534   5.373   3.441   2.923  1.0389  2.5290 -2.6046
 3176TIP3    H2 9535   5.235   3.501   2.912 -0.2576  0.2064 -0.2558
 3177TIP3   OH2 9536   5.933   1.007   0.961  0.0266  0.0507 -0.7091
 3177TIP3    H1 9537   5.850   1.032   0.920 -0.0101 -0.6458 -1.0641
 3177TIP3    H2 9538   5.974   1.090   0.983 -0.9024  0.4081 -0.2464
 3178TIP3   OH2 9539   1.359   3.501   4.687  1.0416  0.3610 -0.7524
 3178TIP3    H1 9540   1.288   3.443   4.716  0.2130  1.4864 -0.4651
 3178TIP3    H2 9541   1.387   3.545   4.767  1.5525  0.4746 -0.9968
 3179TIP3   OH2 9542   0.432   5.324   4.014 -0.4206 -0.0675 -0.0503
 3179TIP3    H1 9543   0.456   5.237   4.047  0.5345  0.0838 -0.3190
 3179TIP3    H2 9544   0.420   5.312   3.920 -0.2030  0.1000 -0.1019
 3180TIP3   OH2 9545   5.422   1.282   3.199 -0.1021 -0.4844  0.6704
 3180TIP3    H1 9546   5.339   1.263   3.242  0.2108 -0.9374  1.0945
 3180TIP3    H2 9547   5.431   1.214   3.132 -0.1990 -0.2791  0.4501
 3181TIP3   OH2 9548   0.946   1.850   3.731 -0.0852  0.0428  0.2746
 3181TIP3    H1 9549   0.957   1.945   3.743 -0.2533  0.0136  0.6983
 3181TIP3    H2 9550   0.851   1.837   3.732 -0.0644 -0.1126  0.0903
 3182TIP3   OH2 9551   2.982   5.569   3.065  0.2104 -0.6719  0.0510
 3182TIP3    H1 9552   2.999   5.596   2.975 -0.4875 -1.3222 -0.2876
 3182TIP3    H2 9553   3.060   5.520   3.090  0.8749  0.4203  0.1874
 3183TIP3   OH2 9554   1.344   0.192   1.794  0.1551  0.2037  0.0033
 3183TIP3    H1 9555   1.381   0.201   1.707  2.2073 -0.3942  0.7540
 3183TIP3    H2 9556   1.418   0.207   1.853 -0.9295 -0.5067  1.6144
 3184TIP3   OH2 9557   0.484   1.334   0.411 -0.3168 -0.1998 -0.8331
 3184TIP3    H1 9558   0.462   1.425   0.429 -1.4563 -0.3753 -1.2683
 3184TIP3    H2 9559   0.422   1.283   0.463  0.9150 -0.7570  0.1485
 3185TIP3   OH2 9560   2.400   1.109   1.543 -0.0861  1.2432  0.0063
 3185TIP3    H1 9561   2.341   1.180   1.517  0.0324  1.5495  0.5699
 3185TIP3    H2 9562   2.346   1.050   1.595 -0.5995  0.0802 -1.7374
 3186TIP3   OH2 9563   1.480   5.565   2.173  0.0061 -0.0409  0.4260
 3186TIP3    H1 9564   1.490   5.505   2.100  1.0361 -0.1985  0.6777
 3186TIP3    H2 9565   1.431   5.515   2.239 -0.2554 -0.1587  0.1442
 3187TIP3   OH2 9566   0.680   1.984   2.584  0.0136 -0.0378 -0.5246
 3187TIP3    H1 9567   0.602   2.031   2.554  0.1903  0.2188 -0.5879
 3187TIP3    H2 9568   0.662   1.962   2.676 -0.4791 -0.7180 -0.7785
 3188TIP3   OH2 9569   3.029   1.681   3.385  0.8254  0.0110  0.0229
 3188TIP3    H1 9570   2.967   1.610   3.403  0.2238  0.4884 -0.1227
 3188TIP3    H2 9571   2.976   1.761   3.388  0.6581  0.1883 -3.5556
 3189TIP3   OH2 9572   3.325   3.122   4.297 -0.5452 -0.0457  0.0481
 3189TIP3    H1 9573   3.269   3.128   4.374 -1.3629  0.3304 -0.5593
 3189TIP3    H2 9574   3.389   3.193   4.309 -1.3956  0.7838 -0.1768
 3190TIP3   OH2 9575   4.741   0.201   4.463  0.5258  0.0457  0.1216
 3190TIP3    H1 9576   4.749   0.276   4.404 -0.5529  0.9792  1.0966
 3190TIP3    H2 9577   4.821   0.202   4.515  0.4630  0.6268  0.2172
 3191TIP3   OH2 9578   4.771   1.857   0.670 -0.2649  0.4550 -0.0545
 3191TIP3    H1 9579   4.792   1.950   0.673 -0.1222  0.4158  0.1811
 3191TIP3    H2 9580   4.856   1.813   0.674 -0.3748  0.2985  0.7105
 3192TIP3   OH2 9581   4.359   4.733   4.841 -0.4518  0.1181 -0.2231
 3192TIP3    H1 9582   4.378   4.666   4.775 -1.9133 -1.0237  0.4504
 3192TIP3    H2 9583   4.334   4.810   4.790 -0.9509 -0.5467 -1.0217
 3193TIP3   OH2 9584   0.645   3.599   4.714 -0.1616  0.3250 -0.1013
 3193TIP3    H1 9585   0.723   3.635   4.671 -0.2444 -0.0381 -0.5667
 3193TIP3    H2 9586   0.679   3.527   4.767 -0.1107  0.5139  0.1223
 3194TIP3   OH2 9587   4.530   0.314   2.736  0.1588  0.4628  0.2146
 3194TIP3    H1 9588   4.471   0.389   2.735  0.8829  1.0543 -0.4638
 3194TIP3    H2 9589   4.531   0.285   2.827  0.9136  2.1617  0.8119
 3195TIP3   OH2 9590   3.136   3.510   3.363  0.2231  0.2798  0.2360
 3195TIP3    H1 9591   3.161   3.602   3.350 -0.5719  0.2392 -1.8938
 3195TIP3    H2 9592   3.057   3.499   3.310  0.9191 -1.8977 -0.4317
 3196TIP3   OH2 9593   2.051   0.451   4.663  0.2997 -0.0944 -0.3079
 3196TIP3    H1 9594   1.996   0.528   4.651  0.8570  0.4642  0.5979
 3196TIP3    H2 9595   2.015   0.386   4.603  0.5588  1.2546 -2.0179
 3197TIP3   OH2 9596   4.439   4.335   0.535 -0.0995 -0.3665 -0.2188
 3197TIP3    H1 9597   4.354   4.291   0.546 -0.6102  0.7495  0.4788
 3197TIP3    H2 9598   4.472   4.346   0.624  1.2295 -1.5894 -0.5272
 3198TIP3   OH2 9599   0.621   1.376   2.091  0.2792 -0.3087 -0.0695
 3198TIP3    H1 9600   0.661   1.369   2.005 -1.7316 -0.6036 -1.0278
 3198TIP3    H2 9601   0.695   1.376   2.152  1.7219 -0.4136 -1.7542
 3199TIP3   OH2 9602   5.393   3.184   3.984 -0.5216 -0.0897 -0.5357
 3199TIP3    H1 9603   5.470   3.235   3.960 -0.4669  0.0513 -0.0671
 3199TIP3    H2 9604   5.331   3.247   4.020 -0.1376 -0.4461  0.8103
 3200TIP3   OH2 9605   5.736   5.724   2.947 -0.0113  0.4813 -0.5743
 3200TIP3    H1 9606   5.736   5.629   2.930 -0.4676  0.5754 -1.0996
 3200TIP3    H2 9607   5.785   5.733   3.029  1.5415 -0.0453 -1.4143
 3201TIP3   OH2 9608   5.470   4.254   1.992  0.3651 -0.1344  0.2489
 3201TIP3    H1 9609   5.403   4.306   2.036  0.4444 -0.1131  0.3447
 3201TIP3    H2 9610   5.429   4.227   1.910  0.0502 -0.5856  0.5530
 3202TIP3   OH2 9611   3.816   2.972   1.575 -0.1444  0.1029 -0.0323
 3202TIP3    H1 9612   3.772   3.042   1.624  1.4351  0.6772  0.6311
 3202TIP3    H2 9613   3.860   2.920   1.642 -0.6213 -1.0469 -0.5953
 3203TIP3   OH2 9614   4.132   3.130   2.114  0.1648  0.5996  0.0091
 3203TIP3    H1 9615   4.089   3.203   2.159 -1.3072 -0.3474  0.2049
 3203TIP3    H2 9616   4.072   3.105   2.044  1.1826  0.3039 -0.7891
 3204TIP3   OH2 9617   0.160   1.932  -0.009  0.2680  0.2169  0.0550
 3204TIP3    H1 9618   0.154   1.905   0.083 -2.5334 -0.3827 -0.2329
 3204TIP3    H2 9619   0.154   1.850  -0.058 -1.4036  0.7522 -0.6947
 3205TIP3   OH2 9620   6.311   1.696   0.651  0.4008 -0.2775 -0.3450
 3205TIP3    H1 9621   6.398   1.726   0.680  0.3670  0.7567 -1.2663
 3205TIP3    H2 9622   6.282   1.763   0.590 -1.8616  0.3709  1.3016
 3206TIP3   OH2 9623   1.171  -0.010   2.680  0.3107  0.2457  0.4513
 3206TIP3    H1 9624   1.109  -0.002   2.607 -0.3396 -3.2908  0.4046
 3206TIP3    H2 9625   1.253   0.024   2.646 -0.4330  0.4330 -1.2708
 3207TIP3   OH2 9626   4.934   0.298   4.907 -0.1286 -0.1217 -0.3225
 3207TIP3    H1 9627   4.918   0.383   4.866 -1.0448 -0.1346 -0.0046
 3207TIP3    H2 9628   4.946   0.238   4.833  0.4828  0.2688 -0.5464
 3208TIP3   OH2 9629   2.444   0.204   2.906  0.2761 -0.1967  0.9005
 3208TIP3    H1 9630   2.500   0.155   2.846 -1.0907 -1.7551  0.8190
 3208TIP3    H2 9631   2.356   0.196   2.868  0.0269  2.8218  0.5971
 3209TIP3   OH2 9632   3.854   3.841   3.432  0.2411 -0.7234 -0.0571
 3209TIP3    H1 9633   3.799   3.919   3.425 -1.4478 -1.7192  1.2652
 3209TIP3    H2 9634   3.914   3.847   3.357 -1.5295  0.5349 -1.4616
 3210TIP3   OH2 9635   0.894   5.882   0.144 -0.0430  0.2250  0.4893
 3210TIP3    H1 9636   0.961   5.838   0.092 -0.0160 -1.2877  1.7148
 3210TIP3    H2 9637   0.923   5.973   0.149  0.3887  0.2301 -1.3809
 3211TIP3   OH2 9638   5.884   0.454   1.500  0.5551  0.0871 -0.0998
 3211TIP3    H1 9639   5.790   0.468   1.497  0.5820  0.3207  0.1378
 3211TIP3    H2 9640   5.910   0.480   1.588  0.3901 -2.9139  0.9723
 3212TIP3   OH2 9641   5.942   2.095   0.434 -0.0501 -0.4403  0.1492
 3212TIP3    H1 9642   5.848   2.092   0.420 -0.4122 -0.8655  2.2589
 3212TIP3    H2 9643   5.952   2.089   0.529  2.0782  0.4587  0.0376
 3213TIP3   OH2 9644   2.649   5.072   0.043  0.3366  0.7342  0.4094
 3213TIP3    H1 9645   2.611   5.152   0.081  0.4470  0.3215  1.4268
 3213TIP3    H2 9646   2.574   5.019   0.019  0.2529  0.4361  1.2968
 3214TIP3   OH2 9647   0.351   5.454   4.897 -0.0956 -0.1463  0.0448
 3214TIP3    H1 9648   0.257   5.451   4.877 -0.1396 -0.3043  0.2700
 3214TIP3    H2 9649   0.361   5.528   4.956  0.2890  1.4024 -1.8531
 3215TIP3   OH2 9650   5.616   3.696   1.817 -0.4139 -0.0287  0.3001
 3215TIP3    H1 9651   5.691   3.682   1.759  0.4915  1.4608  1.0384
 3215TIP3    H2 9652   5.561   3.759   1.771 -0.9698 -0.7252 -0.0092
 3216TIP3   OH2 9653   4.809   1.201   4.185 -0.2751 -0.3829  0.3524
 3216TIP3    H1 9654   4.898   1.194   4.150 -0.7179 -1.1091 -0.6539
 3216TIP3    H2 9655   4.818   1.179   4.277  1.0985  2.5979  1.0711
 3217TIP3   OH2 9656   5.577   2.310   2.028  0.6802  0.3039 -0.0893
 3217TIP3    H1 9657   5.513   2.256   1.982  1.0407 -1.6153  1.4761
 3217TIP3    H2 9658   5.616   2.365   1.961 -1.1099  0.0025 -1.4369
 3218TIP3   OH2 9659   5.402   0.804   4.220 -0.0303 -0.4392 -0.1485
 3218TIP3    H1 9660   5.435   0.859   4.291  1.3264 -0.2433 -0.8853
 3218TIP3    H2 9661   5.307   0.818   4.220  0.1235  0.7106  0.6407
 3219TIP3   OH2 9662   2.547   4.763   1.533 -0.1019  0.1624 -0.7070
 3219TIP3    H1 9663   2.562   4.748   1.440  0.6434  0.1410 -0.5887
 3219TIP3    H2 9664   2.602   4.698   1.577 -0.9876 -0.2983 -0.2579
 3220TIP3   OH2 9665   2.768   2.166   4.561 -0.1348  0.2402  0.1473
 3220TIP3    H1 9666   2.755   2.101   4.630  0.5699  0.2316  0.2752
 3220TIP3    H2 9667   2.689   2.158   4.507 -0.3948 -0.2080  0.5749
 3221TIP3   OH2 9668   2.438   5.047   2.477  0.4493  0.1313 -0.3524
 3221TIP3    H1 9669   2.469   5.120   2.532  1.1166 -0.7641  0.4877
 3221TIP3    H2 9670   2.354   5.023   2.515 -0.5021  1.4049 -1.5484
 3222TIP3   OH2 9671   6.123   5.718   2.720 -0.3653  0.3692 -0.5194
 3222TIP3    H1 9672   6.155   5.773   2.648  1.6889 -0.0304  0.0437
 3222TIP3    H2 9673   6.135   5.771   2.798 -0.8853  0.1081 -0.2582
 3223TIP3   OH2 9674   2.959   0.721   0.124  0.0071  0.0299 -0.0562
 3223TIP3    H1 9675   2.934   0.807   0.091 -0.1588 -0.1202 -0.3258
 3223TIP3    H2 9676   3.053   0.728   0.143  0.1405  0.0768 -0.7053
 3224TIP3   OH2 9677   3.934   1.320   4.562 -0.1034  0.5317  0.0256
 3224TIP3    H1 9678   3.956   1.400   4.515  2.4423 -0.3504 -0.4162
 3224TIP3    H2 9679   3.840   1.329   4.581  0.0710  3.5440 -0.0612
 3225TIP3   OH2 9680   6.068   1.046   2.803 -0.1636 -0.1223 -0.1755
 3225TIP3    H1 9681   5.998   1.011   2.748  0.0190 -0.3146 -0.2843
 3225TIP3    H2 9682   6.024   1.109   2.860 -0.2181  0.6956 -1.0960
 3226TIP3   OH2 9683   2.851   3.930   2.220  0.3376  0.2179  0.2718
 3226TIP3    H1 9684   2.901   3.955   2.142 -0.1037 -1.8758 -0.7722
 3226TIP3    H2 9685   2.764   3.967   2.205  0.5181  0.6379  0.2411
 3227TIP3   OH2 9686   0.285   4.184   0.556 -0.5830 -0.4594  0.3252
 3227TIP3    H1 9687   0.270   4.239   0.633 -2.7229 -0.1636 -0.2370
 3227TIP3    H2 9688   0.344   4.236   0.502 -0.5334  0.1534  0.9456
 3228TIP3   OH2 9689   5.779   0.275   1.756 -0.3478  0.0577  0.3916
 3228TIP3    H1 9690   5.822   0.323   1.685 -1.2490 -1.8685 -1.5546
 3228TIP3    H2 9691   5.837   0.202   1.776 -1.3900 -1.0205 -0.3826
 3229TIP3   OH2 9692   1.545   3.462   1.485 -0.0089  0.0687  0.1355
 3229TIP3    H1 9693   1.611   3.421   1.542 -0.7591 -1.1429  0.1726
 3229TIP3    H2 9694   1.507   3.389   1.436 -1.7500  0.6372  0.5647
 3230TIP3   OH2 9695   6.299   1.883   4.110  0.2727  0.1816  0.1891
 3230TIP3    H1 9696   6.233   1.815   4.119  0.8544 -0.2826  1.0460
 3230TIP3    H2 9697   6.342   1.887   4.196 -0.8552  2.7865  0.7392
 3231TIP3   OH2 9698   5.352   4.788   2.659 -0.3359 -0.0193 -0.4726
 3231TIP3    H1 9699   5.398   4.722   2.607  0.8842  0.8938 -0.5780
 3231TIP3    H2 9700   5.263   4.789   2.623  0.1824 -0.1985 -1.7950
 3232TIP3   OH2 9701   0.447   2.063   4.898  0.3103  0.1734  0.3508
 3232TIP3    H1 9702   0.414   2.139   4.946 -1.2260 -0.0417 -0.3043
 3232TIP3    H2 9703   0.505   2.100   4.831 -0.4412  0.7904  0.0224
 3233TIP3   OH2 9704   0.414   2.972   1.636 -0.2656  0.3902  0.1751
 3233TIP3    H1 9705   0.452   2.887   1.616  0.1425  0.2463  1.4689
 3233TIP3    H2 9706   0.463   3.003   1.712  0.5645  2.4371 -1.1071
 3234TIP3   OH2 9707   5.518   0.127   3.453  0.4055 -0.2112  0.4289
 3234TIP3    H1 9708   5.467   0.057   3.414  1.4955 -0.6728 -0.2182
 3234TIP3    H2 9709   5.596   0.084   3.488 -0.1399  0.2973  2.4519
 3235TIP3   OH2 9710   4.662   1.928   1.734 -0.3490  0.3573  0.3047
 3235TIP3    H1 9711   4.664   1.836   1.707 -2.2154  0.5472 -0.6556
 3235TIP3    H2 9712   4.754   1.953   1.739  0.2346 -1.7695  1.4317
 3236TIP3   OH2 9713   3.215   2.098   1.671 -0.2778 -0.5624  0.0625
 3236TIP3    H1 9714   3.242   2.015   1.630 -0.6364 -0.5984 -0.1063
 3236TIP3    H2 9715   3.293   2.128   1.718 -0.6400 -1.8988  1.5946
 3237TIP3   OH2 9716   1.075   1.525   4.993  0.2605 -0.0111  0.9075
 3237TIP3    H1 9717   1.031   1.444   5.018  0.0409  0.2518  1.3809
 3237TIP3    H2 9718   1.055   1.586   5.063  0.8703  0.3000  0.8212
 3238TIP3   OH2 9719   0.431   2.961   5.078 -0.2791  0.2397  0.3242
 3238TIP3    H1 9720   0.454   3.002   4.995  1.4435  1.0910  1.1828
 3238TIP3    H2 9721   0.378   2.885   5.053 -4.0392  3.0666 -1.3291
 3239TIP3   OH2 9722   2.498   1.091   0.870 -0.6670  0.0374  0.1750
 3239TIP3    H1 9723   2.461   1.095   0.782 -0.9451 -0.0483  0.2853
 3239TIP3    H2 9724   2.488   1.180   0.905  0.0104  0.2308 -0.1023
 3240TIP3   OH2 9725   4.124   4.465   0.817 -0.3311  0.2885  0.1817
 3240TIP3    H1 9726   4.194   4.494   0.876 -0.4407  0.4751  0.2200
 3240TIP3    H2 9727   4.053   4.440   0.874 -0.0167 -0.6464  0.1733
 3241TIP3   OH2 9728   5.701   4.046   2.776 -0.2984  0.0181 -0.5248
 3241TIP3    H1 9729   5.780   4.068   2.827  0.3590 -0.8952 -1.1129
 3241TIP3    H2 9730   5.708   3.952   2.762 -1.6160 -0.1101 -0.4254
 3242TIP3   OH2 9731   2.631   0.492   1.485 -0.7895  0.2768  0.1404
 3242TIP3    H1 9732   2.682   0.422   1.445  0.1184  0.4734  0.9336
 3242TIP3    H2 9733   2.690   0.568   1.485 -1.2803  0.6687  0.5350
 3243TIP3   OH2 9734   4.972   1.132   3.216  0.2337 -0.1313  0.3070
 3243TIP3    H1 9735   5.061   1.167   3.212  0.2490  0.0452  1.7155
 3243TIP3    H2 9736   4.922   1.185   3.154  0.8782  0.5040  0.3268
 3244TIP3   OH2 9737   1.431   4.232   4.840  0.7852 -0.9036  0.0729
 3244TIP3    H1 9738   1.423   4.259   4.748 -0.8580 -2.5826 -0.3225
 3244TIP3    H2 9739   1.363   4.282   4.885 -1.1159 -2.9257 -0.3745
 3245TIP3   OH2 9740   3.811   1.159   3.296 -0.4370  0.2803 -0.2582
 3245TIP3    H1 9741   3.840   1.250   3.300  3.9620 -0.8985  0.4876
 3245TIP3    H2 9742   3.788   1.137   3.386 -0.3549  0.3414 -0.2219
 3246TIP3   OH2 9743   0.083   3.298   3.665  0.4187  0.0013 -0.1340
 3246TIP3    H1 9744   0.095   3.238   3.739  0.3482  0.3804  0.1868
 3246TIP3    H2 9745   0.078   3.385   3.705 -0.5009  0.1290 -0.5075
 3247TIP3   OH2 9746   0.624   3.870   0.154 -0.0362  0.2386 -0.0217
 3247TIP3    H1 9747   0.644   3.812   0.080 -1.0075  0.8213 -0.7693
 3247TIP3    H2 9748   0.590   3.950   0.113 -0.8444  0.4708  1.0583
 3248TIP3   OH2 9749   1.117   5.040   4.509  0.6766 -0.4629  1.0956
 3248TIP3    H1 9750   1.166   5.094   4.448  0.1860 -0.6864  0.4960
 3248TIP3    H2 9751   1.182   5.013   4.574  1.2035 -0.2166  0.6810
 3249TIP3   OH2 9752   5.869   1.849   1.680 -0.0881  0.1445 -0.1450
 3249TIP3    H1 9753   5.843   1.783   1.616  0.7433 -0.0796 -0.2592
 3249TIP3    H2 9754   5.826   1.929   1.651  0.4305  0.0871 -1.0930
 3250TIP3   OH2 9755   1.642   5.261   0.422  0.5928 -0.8310 -0.4664
 3250TIP3    H1 9756   1.722   5.218   0.391  0.9624 -0.0519 -0.6079
 3250TIP3    H2 9757   1.616   5.209   0.498  2.6458  0.3227  1.1367
 3251TIP3   OH2 9758   0.769   2.395   3.353 -0.7057  0.1771  0.2773
 3251TIP3    H1 9759   0.847   2.341   3.367 -1.0492 -1.3747 -2.8908
 3251TIP3    H2 9760   0.802   2.485   3.354  0.2705 -0.0879  3.3921
 3252TIP3   OH2 9761   0.847   0.478   1.045  0.4245 -0.6526 -0.2847
 3252TIP3    H1 9762   0.811   0.411   0.987  1.1582 -0.8897 -0.4838
 3252TIP3    H2 9763   0.884   0.428   1.119 -1.0600 -0.3206  0.7204
 3253TIP3   OH2 9764   2.487   1.481   3.993  0.4798  0.5302  0.1753
 3253TIP3    H1 9765   2.420   1.522   3.939  1.6346  0.5012 -1.3588
 3253TIP3    H2 9766   2.569   1.499   3.947  1.3206 -1.0889  0.9506
 3254TIP3   OH2 9767   6.108   3.700   2.718 -0.8252 -0.6130 -0.2727
 3254TIP3    H1 9768   6.075   3.788   2.732 -1.7216 -0.9825  0.0093
 3254TIP3    H2 9769   6.196   3.712   2.684  0.2925  0.3700  2.7198
 3255TIP3   OH2 9770   2.640   5.710   4.837  0.5832 -0.4198 -0.1172
 3255TIP3    H1 9771   2.574   5.689   4.903 -0.5088  0.3422 -0.9261
 3255TIP3    H2 9772   2.724   5.693   4.881 -0.0779  0.6830  1.6796
 3256TIP3   OH2 9773   2.994   1.762   1.080  0.0806 -0.0751  0.1556
 3256TIP3    H1 9774   2.954   1.835   1.128 -0.9967 -0.6771  0.2107
 3256TIP3    H2 9775   2.960   1.684   1.124  1.2295 -0.6147  0.1017
 3257TIP3   OH2 9776   5.523   3.813   2.877  0.9308  0.5685 -0.0289
 3257TIP3    H1 9777   5.542   3.824   2.971 -1.3128  1.6026  0.3596
 3257TIP3    H2 9778   5.600   3.768   2.843  1.0496 -1.5258  2.6562
 3258TIP3   OH2 9779   1.877   4.685   2.151  0.3339  0.2337 -0.7114
 3258TIP3    H1 9780   1.924   4.670   2.069  1.5949  0.0638  0.0198
 3258TIP3    H2 9781   1.821   4.608   2.162  0.9896 -0.2698 -0.8601
 3259TIP3   OH2 9782   0.307   1.378   0.170 -0.1664  0.2620 -0.0746
 3259TIP3    H1 9783   0.220   1.403   0.202 -0.3867  1.3058 -1.4266
 3259TIP3    H2 9784   0.348   1.335   0.245 -2.0580 -0.8073  0.4362
 3260TIP3   OH2 9785   2.401   2.859   1.421 -0.1627 -0.2082 -0.5993
 3260TIP3    H1 9786   2.350   2.897   1.492 -0.0915 -0.4539 -0.4156
 3260TIP3    H2 9787   2.491   2.889   1.437 -0.2038  0.0066 -0.7718
 3261TIP3   OH2 9788   0.620   1.440   0.920  0.2239  0.1721  0.2512
 3261TIP3    H1 9789   0.544   1.383   0.924  0.3560 -0.0239 -0.0511
 3261TIP3    H2 9790   0.604   1.497   0.845  0.1468  0.4553  0.4821
 3262TIP3   OH2 9791   1.064   3.941   3.046  0.1927 -0.8376 -0.6632
 3262TIP3    H1 9792   1.094   3.933   3.136  1.9837  0.1345 -1.1347
 3262TIP3    H2 9793   0.976   3.903   3.047  0.4086 -1.4053  1.3435
 3263TIP3   OH2 9794   2.976   1.035   0.287 -0.4573  0.7230  0.3806
 3263TIP3    H1 9795   3.033   1.017   0.362  0.4966 -0.5703 -0.6013
 3263TIP3    H2 9796   2.911   0.965   0.289  1.1584 -0.9582 -1.4505
 3264TIP3   OH2 9797   1.785   2.121   3.492  0.0710  0.5778 -0.0991
 3264TIP3    H1 9798   1.771   2.080   3.407  0.1161  0.2676  0.0405
 3264TIP3    H2 9799   1.866   2.172   3.481 -0.5181  1.4479 -0.5667
 3265TIP3   OH2 9800   6.150   1.013   0.264 -0.1929  0.0304  0.5598
 3265TIP3    H1 9801   6.196   1.078   0.318  1.3110 -1.4870  1.2196
 3265TIP3    H2 9802   6.121   0.946   0.327 -0.1883 -0.7824 -0.2808
 3266TIP3   OH2 9803   1.839   1.471   0.621 -0.2943 -0.4633 -0.0489
 3266TIP3    H1 9804   1.747   1.450   0.603 -1.1758  1.8230  1.3463
 3266TIP3    H2 9805   1.878   1.484   0.535 -1.0564 -2.1925 -0.6950
 3267TIP3   OH2 9806   4.674   3.672   1.095  0.1826  0.4240 -0.4653
 3267TIP3    H1 9807   4.720   3.749   1.128  0.6191 -1.3981  3.9574
 3267TIP3    H2 9808   4.586   3.679   1.133  0.1618 -1.0777 -0.1687
 3268TIP3   OH2 9809   5.634   3.296   4.669  0.1199  0.3318 -0.1566
 3268TIP3    H1 9810   5.604   3.367   4.725  0.3216  0.8788 -0.7209
 3268TIP3    H2 9811   5.710   3.333   4.624  1.4448 -0.9112  0.9945
 3269TIP3   OH2 9812   4.780   2.463   1.250 -0.1497 -0.1252  0.9128
 3269TIP3    H1 9813   4.848   2.524   1.276 -0.3053 -0.2992  1.7485
 3269TIP3    H2 9814   4.798   2.383   1.300  0.3121 -0.9381 -0.4738
 3270TIP3   OH2 9815   1.153   3.148   2.894 -0.9902 -0.2016 -0.0805
 3270TIP3    H1 9816   1.066   3.115   2.873 -0.5030 -0.7212 -1.3308
 3270TIP3    H2 9817   1.186   3.185   2.812  0.8053 -1.9407 -0.2079
 3271TIP3   OH2 9818   1.792   5.273   4.634  0.2902 -0.2223 -0.0688
 3271TIP3    H1 9819   1.798   5.258   4.729  1.5246 -0.8892 -0.2261
 3271TIP3    H2 9820   1.814   5.365   4.623 -0.7931  0.1036  0.3612
 3272TIP3   OH2 9821   0.227   4.202   2.283 -0.1400  0.7174  0.1111
 3272TIP3    H1 9822   0.285   4.241   2.217  0.7713 -0.9348 -0.1277
 3272TIP3    H2 9823   0.152   4.261   2.287  1.8449  3.3814  0.9876
 3273TIP3   OH2 9824   3.678   5.552   3.443 -0.7147  0.2155  0.0726
 3273TIP3    H1 9825   3.623   5.580   3.370  0.5711  0.2226 -0.9316
 3273TIP3    H2 9826   3.637   5.590   3.520 -1.3449  1.3614 -0.8015
 3274TIP3   OH2 9827   5.219   4.321   2.361  0.4351 -0.1344  0.0173
 3274TIP3    H1 9828   5.223   4.358   2.450 -0.2710 -1.3295  0.5821
 3274TIP3    H2 9829   5.310   4.310   2.335  0.6647 -0.6507  0.9955
 3275TIP3   OH2 9830   1.436   5.790   1.174 -0.0276 -0.4094 -0.1124
 3275TIP3    H1 9831   1.530   5.775   1.180 -0.3084 -1.8937  1.1370
 3275TIP3    H2 9832   1.409   5.746   1.093  0.1368 -1.3574  0.3318
 3276TIP3   OH2 9833   5.218   3.957   4.130 -0.0064  0.4620  0.3295
 3276TIP3    H1 9834   5.285   4.007   4.176 -0.7889  0.4873  1.5015
 3276TIP3    H2 9835   5.202   4.006   4.049 -0.8778  2.2651  1.5089
 3277TIP3   OH2 9836   3.219   4.628   1.647 -0.9303  0.1598 -0.0709
 3277TIP3    H1 9837   3.280   4.643   1.574 -0.9918  0.6896 -0.0198
 3277TIP3    H2 9838   3.146   4.581   1.607 -0.0191 -1.4595  0.0843
 3278TIP3   OH2 9839   2.209   0.425   4.256  0.3227 -0.2474  0.3249
 3278TIP3    H1 9840   2.237   0.516   4.245 -1.1258  0.2740  0.7698
 3278TIP3    H2 9841   2.259   0.377   4.190 -0.1430  1.1315 -1.1087
 3279TIP3   OH2 9842   2.062   0.007   3.588  0.5134  0.0970  0.2989
 3279TIP3    H1 9843   2.067   0.071   3.518  0.9471 -0.2139  0.0377
 3279TIP3    H2 9844   1.989  -0.050   3.564  1.5485 -0.8677 -0.6506
 3280TIP3   OH2 9845   6.014   2.047   1.323 -0.4175 -0.1832 -0.0622
 3280TIP3    H1 9846   5.954   2.038   1.248  0.2337 -0.4526 -0.5573
 3280TIP3    H2 9847   6.092   2.088   1.286  0.6569 -2.0141  0.0589
 3281TIP3   OH2 9848   3.080   3.569   5.060  0.5435  0.7558  0.4379
 3281TIP3    H1 9849   3.004   3.523   5.094  1.2344  1.2412  2.8546
 3281TIP3    H2 9850   3.069   3.567   4.965 -2.1408  0.2917  0.6751
 3282TIP3   OH2 9851   5.770   2.012   2.926  0.4253  0.6380  0.2942
 3282TIP3    H1 9852   5.718   1.957   2.867 -0.2543  1.9859 -0.3855
 3282TIP3    H2 9853   5.747   1.980   3.014  0.3677 -0.4335 -0.0946
 3283TIP3   OH2 9854   4.700   3.066   1.661  0.0144  0.0328  0.0490
 3283TIP3    H1 9855   4.688   3.004   1.589  2.3981  0.7030 -1.0356
 3283TIP3    H2 9856   4.651   3.144   1.634 -0.7414 -0.4219  0.1091
 3284TIP3   OH2 9857   6.054   4.469   2.381 -0.5883  0.0138  0.3166
 3284TIP3    H1 9858   6.005   4.411   2.440 -0.2049 -0.5182  0.1171
 3284TIP3    H2 9859   5.994   4.484   2.308 -1.1504  0.8504  0.9247
 3285TIP3   OH2 9860   5.940   5.677   1.427  0.5699  0.1414 -0.3600
 3285TIP3    H1 9861   5.879   5.728   1.375  0.0491 -1.9442 -1.9425
 3285TIP3    H2 9862   5.885   5.619   1.479  1.1511 -1.1626 -1.1581
 3286TIP3   OH2 9863   2.300   3.182   3.822  0.4105 -0.3345 -0.0494
 3286TIP3    H1 9864   2.367   3.113   3.827  0.6569 -0.1705 -0.9003
 3286TIP3    H2 9865   2.347   3.260   3.793 -0.2303 -0.3773 -1.3114
 3287TIP3   OH2 9866   5.387   3.183   3.458  0.3090 -0.4225 -0.1858
 3287TIP3    H1 9867   5.313   3.133   3.422  0.8465 -0.8477 -0.7235
 3287TIP3    H2 9868   5.383   3.267   3.414 -0.8541  0.1874  1.0332
 3288TIP3   OH2 9869   3.570   1.922   3.480 -0.3134  0.0195 -0.2451
 3288TIP3    H1 9870   3.514   1.894   3.408 -0.9567 -1.0605  0.6384
 3288TIP3    H2 9871   3.571   2.017   3.474 -2.7940  0.1268  0.0720
 3289TIP3   OH2 9872   1.531   1.639   0.364 -0.8548 -0.1070 -0.0341
 3289TIP3    H1 9873   1.522   1.617   0.271 -1.4387  0.2321 -0.0648
 3289TIP3    H2 9874   1.569   1.561   0.404 -0.8226 -0.3422 -0.5178
 3290TIP3   OH2 9875   2.283   3.802   0.378 -0.4742 -0.4129 -0.2750
 3290TIP3    H1 9876   2.331   3.723   0.399  0.7165  0.4515  0.3514
 3290TIP3    H2 9877   2.325   3.871   0.429 -2.0392  0.4864 -0.1125
 3291TIP3   OH2 9878   2.662   5.057   4.079  0.1316 -0.6154  0.1003
 3291TIP3    H1 9879   2.756   5.040   4.068  0.5711  1.1040  0.8130
 3291TIP3    H2 9880   2.635   4.997   4.149  0.7462 -0.9723  0.0372
 3292TIP3   OH2 9881   4.954   1.461   3.403 -0.3232  0.2777  0.1105
 3292TIP3    H1 9882   4.972   1.453   3.309 -0.5740 -0.4026  0.1158
 3292TIP3    H2 9883   4.990   1.547   3.427 -0.2986  0.4769 -0.6150
 3293TIP3   OH2 9884   1.964   4.131   1.964 -0.5754  0.1312 -0.0005
 3293TIP3    H1 9885   2.054   4.147   1.936  0.2577  0.5873  2.7223
 3293TIP3    H2 9886   1.964   4.040   1.994 -0.9076  0.2696  0.4316
 3294TIP3   OH2 9887   6.216   4.323   1.514  0.4789  0.2439 -0.6199
 3294TIP3    H1 9888   6.134   4.277   1.529 -0.2205  1.8990  1.0087
 3294TIP3    H2 9889   6.190   4.407   1.476  1.4174  0.7293 -0.2442
 3295TIP3   OH2 9890   1.996   2.298   3.501  0.2612 -0.7434  0.7547
 3295TIP3    H1 9891   2.025   2.342   3.421 -1.1702 -1.4367 -0.1916
 3295TIP3    H2 9892   2.024   2.356   3.571  2.7984 -0.8011 -0.1149
 3296TIP3   OH2 9893   3.124   4.196   5.025 -0.1923 -0.2594  0.1768
 3296TIP3    H1 9894   3.107   4.235   5.111 -0.3999 -0.5699  0.2775
 3296TIP3    H2 9895   3.164   4.112   5.044  0.7136  0.1129 -0.0508
 3297TIP3   OH2 9896   5.430   0.384   0.030 -0.4727  0.0587  0.5222
 3297TIP3    H1 9897   5.340   0.385   0.062 -0.6271 -2.3847  0.3437
 3297TIP3    H2 9898   5.442   0.470  -0.011 -2.6220  0.5206  0.7559
 3298TIP3   OH2 9899   5.361   3.752   4.736 -0.1657  0.2426 -0.4378
 3298TIP3    H1 9900   5.314   3.669   4.726  1.0518 -0.6805  1.0632
 3298TIP3    H2 9901   5.314   3.798   4.806  1.1489 -0.7064  1.1038
 3299TIP3   OH2 9902   5.781   3.933   3.574 -0.0237 -0.0358  0.0945
 3299TIP3    H1 9903   5.814   3.985   3.647 -0.3549  1.7391 -0.9618
 3299TIP3    H2 9904   5.860   3.909   3.524 -0.0303  1.8427 -0.9069
 3300TIP3   OH2 9905   0.746   3.437   2.965 -0.3385 -0.7761  0.5099
 3300TIP3    H1 9906   0.702   3.393   2.892 -0.7781 -0.5091  0.6119
 3300TIP3    H2 9907   0.838   3.442   2.938 -0.6796  0.3720 -0.5517
 3301TIP3   OH2 9908   1.229   2.541   1.317  0.2424 -0.5858  0.5843
 3301TIP3    H1 9909   1.243   2.523   1.224  0.1611 -1.2026  0.6815
 3301TIP3    H2 9910   1.302   2.597   1.343 -0.6387  1.0098 -0.2327
 3302TIP3   OH2 9911   0.467   0.498   4.062  0.1001  0.2422 -0.2716
 3302TIP3    H1 9912   0.388   0.534   4.022 -0.2411 -0.1363  0.0529
 3302TIP3    H2 9913   0.538   0.553   4.028 -0.4197  1.3283  0.3339
 3303TIP3   OH2 9914   1.701   5.734   2.151 -0.0731  0.9327  0.3096
 3303TIP3    H1 9915   1.624   5.678   2.144  1.2229 -0.9909  0.8710
 3303TIP3    H2 9916   1.696   5.770   2.240 -0.2410  0.7161  0.3882
 3304TIP3   OH2 9917   1.852   2.766   4.642 -0.3458  0.1826 -0.1092
 3304TIP3    H1 9918   1.824   2.729   4.726  0.7431 -1.2297 -0.3370
 3304TIP3    H2 9919   1.896   2.694   4.597 -0.1157  1.1636 -1.5306
 3305TIP3   OH2 9920   2.823   5.206   5.024  0.2855  0.6708 -0.4449
 3305TIP3    H1 9921   2.830   5.291   5.068  0.3711  0.2226  0.4440
 3305TIP3    H2 9922   2.838   5.143   5.094 -0.3992 -0.0892 -0.9727
 3306TIP3   OH2 9923   3.428   3.294   2.295  0.1100  0.0107 -0.8255
 3306TIP3    H1 9924   3.333   3.305   2.285 -0.1201 -1.3741 -0.4790
 3306TIP3    H2 9925   3.437   3.238   2.372  1.0724 -1.8858 -2.2349
 3307TIP3   OH2 9926   5.843   1.114   3.106 -0.7369 -0.5586  0.1881
 3307TIP3    H1 9927   5.809   1.154   3.186 -0.9307 -0.2312 -0.0503
 3307TIP3    H2 9928   5.802   1.028   3.103 -0.6302 -0.6213  0.5049
 3308TIP3   OH2 9929   1.492   3.962   1.798  0.1451 -0.2809  0.2991
 3308TIP3    H1 9930   1.549   4.021   1.748  0.0807 -0.2269  0.2897
 3308TIP3    H2 9931   1.413   3.954   1.744 -0.0631  0.0435  0.5513
 3309TIP3   OH2 9932   5.898   2.129   4.680 -0.2218  0.2346  0.3940
 3309TIP3    H1 9933   5.948   2.158   4.604  0.2322  2.5237  1.4873
 3309TIP3    H2 9934   5.826   2.192   4.687 -0.6248 -0.3111  1.4873
 3310TIP3   OH2 9935   4.898   2.879   3.239 -0.2067  0.4094 -0.4448
 3310TIP3    H1 9936   4.921   2.950   3.299 -1.3620 -0.9723  1.7710
 3310TIP3    H2 9937   4.822   2.911   3.191 -0.9658  0.5686  0.8272
 3311TIP3   OH2 9938   4.567   0.612   1.127 -0.2217 -0.0853 -0.2643
 3311TIP3    H1 9939   4.632   0.652   1.070 -0.8431  0.1224 -0.8462
 3311TIP3    H2 9940   4.492   0.594   1.069 -2.4100  3.6106  1.0771
 3312TIP3   OH2 9941   1.074   5.248   2.334  0.2904 -0.2642  0.0562
 3312TIP3    H1 9942   1.030   5.317   2.383 -1.0786 -0.9618 -0.1604
 3312TIP3    H2 9943   1.155   5.289   2.303 -0.9155  1.5700 -0.8529
 3313TIP3   OH2 9944   0.959   3.637   3.477 -0.2643 -0.0481  0.1779
 3313TIP3    H1 9945   0.942   3.627   3.383  0.4872  0.2245  0.0037
 3313TIP3    H2 9946   0.925   3.724   3.497 -2.1385 -0.8205  0.5858
 3314TIP3   OH2 9947   2.193   3.169   3.546 -0.6507  0.2198 -0.4462
 3314TIP3    H1 9948   2.169   3.145   3.636  0.0433  1.7441  0.1981
 3314TIP3    H2 9949   2.119   3.221   3.515 -0.2037  1.0588 -0.1407
 3315TIP3   OH2 9950   3.079   4.417   3.019 -0.5604 -0.5618 -0.3643
 3315TIP3    H1 9951   3.092   4.322   3.024 -1.1562 -0.6991 -1.2906
 3315TIP3    H2 9952   2.993   4.428   2.979 -0.5466  0.3747 -0.1583
 3316TIP3   OH2 9953   2.233   4.787   0.102  0.2256  0.0752 -0.1299
 3316TIP3    H1 9954   2.249   4.702   0.061  1.3572  0.1951  0.0321
 3316TIP3    H2 9955   2.138   4.798   0.097  0.1116 -0.9608 -0.6145
 3317TIP3   OH2 9956   0.765   3.526   0.484  0.6447  0.3222 -0.2934
 3317TIP3    H1 9957   0.759   3.438   0.523  0.2031  0.3598 -0.2757
 3317TIP3    H2 9958   0.855   3.553   0.502  0.6640  0.0376  0.0624
 3318TIP3   OH2 9959   6.148   1.703   1.836  0.7639 -0.3551 -0.7414
 3318TIP3    H1 9960   6.085   1.642   1.797  1.3081 -1.9961  0.7937
 3318TIP3    H2 9961   6.234   1.670   1.810  1.1065 -0.9617  1.0082
 3319TIP3   OH2 9962   2.027   0.070   1.145  0.3047 -0.4943  0.6496
 3319TIP3    H1 9963   1.952   0.041   1.092  0.2911 -1.0349  0.9597
 3319TIP3    H2 9964   2.044   0.159   1.114 -0.4804 -0.3519  0.5917
 3320TIP3   OH2 9965   2.582   2.028   2.867 -0.0140 -0.1784 -0.4266
 3320TIP3    H1 9966   2.506   1.970   2.869 -0.6214  0.6213  0.2453
 3320TIP3    H2 9967   2.550   2.111   2.903  0.8277  0.5940 -1.3976
 3321TIP3   OH2 9968   0.639   2.870   2.361  0.3164 -0.0029  0.3538
 3321TIP3    H1 9969   0.623   2.886   2.454 -2.3174 -1.9285  0.3357
 3321TIP3    H2 9970   0.651   2.958   2.324 -1.4230  1.0584  2.0645
 3322TIP3   OH2 9971   5.288   0.180   4.894 -0.0404 -0.7988 -0.5877
 3322TIP3    H1 9972   5.341   0.117   4.846  1.2206  0.6497 -1.2080
 3322TIP3    H2 9973   5.233   0.221   4.827  0.8732  0.3911 -0.6612
 3323TIP3   OH2 9974   3.788   3.794   4.690  0.1338 -0.0059  0.4575
 3323TIP3    H1 9975   3.814   3.886   4.698  1.4948 -0.3001 -0.3940
 3323TIP3    H2 9976   3.787   3.777   4.596  0.2847 -0.9743  0.6218
 3324TIP3   OH2 9977   5.034   4.936   1.656  0.3287 -0.1946 -0.0376
 3324TIP3    H1 9978   5.053   5.026   1.681 -1.5513  0.4944 -0.8390
 3324TIP3    H2 9979   5.009   4.893   1.738 -0.8450  0.6307  0.0618
 3325TIP3   OH2 9980   0.335   1.550   2.128  0.2421 -0.1695  0.3481
 3325TIP3    H1 9981   0.404   1.484   2.123  1.5718  0.9140  2.6301
 3325TIP3    H2 9982   0.382   1.632   2.148 -1.6143  0.8445  0.7539
 3326TIP3   OH2 9983   1.229   3.152   5.004 -0.7265  0.3635 -0.7252
 3326TIP3    H1 9984   1.232   3.216   5.074  1.5799  1.6281 -1.8665
 3326TIP3    H2 9985   1.164   3.088   5.033  2.2781 -1.0386  4.1334
 3327TIP3   OH2 9986   1.581   2.333   2.972  0.2357 -0.2601 -0.1283
 3327TIP3    H1 9987   1.642   2.407   2.963 -0.3642  0.6568  2.4890
 3327TIP3    H2 9988   1.634   2.256   2.950  1.5171  0.7289 -0.6991
 3328TIP3   OH2 9989   6.256   4.859   3.950  0.2888 -0.0624  0.3912
 3328TIP3    H1 9990   6.209   4.943   3.946 -0.1937 -0.3635 -0.5270
 3328TIP3    H2 9991   6.291   4.847   3.862 -2.0855 -2.1809 -0.3765
 3329TIP3   OH2 9992   4.248   0.017   3.214 -0.2649  0.1327  0.0452
 3329TIP3    H1 9993   4.203   0.040   3.133  0.2161 -0.1237 -0.2978
 3329TIP3    H2 9994   4.191   0.051   3.283 -0.5266  0.6230 -0.4041
 3330TIP3   OH2 9995   1.968   1.107   1.723  0.1653  0.1193  0.4800
 3330TIP3    H1 9996   2.045   1.052   1.714  0.4321  0.5383  0.1757
 3330TIP3    H2 9997   1.959   1.150   1.638 -2.7553 -2.9503 -1.0453
 3331TIP3   OH2 9998   3.488   5.607   5.024  0.0046  0.0100  0.4305
 3331TIP3    H1 9999   3.503   5.542   5.092 -0.0126 -1.1921 -0.6712
 3331TIP3    H210000   3.573   5.618   4.981 -0.0645  0.4892  0.4040
 3332TIP3   OH210001   2.576   4.296   2.290  0.4184  0.1958 -0.5101
 3332TIP3    H110002   2.542   4.230   2.351  2.9760  0.4587  1.4040
 3332TIP3    H210003   2.505   4.360   2.281 -0.3148 -0.1916  1.7582
 3333TIP3   OH210004   4.230   0.341   0.326  0.1471 -0.5998 -0.1175
 3333TIP3    H110005   4.215   0.268   0.385  2.0016 -0.5490  0.4750
 3333TIP3    H210006   4.273   0.302   0.250 -1.3282 -0.5079 -1.0557
 3334TIP3   OH210007   2.084   1.404   2.634 -0.1767 -1.2567 -0.4790
 3334TIP3    H110008   2.061   1.384   2.725 -0.9734  0.1453 -0.3482
 3334TIP3    H210009   2.006   1.379   2.583 -0.6513  0.1012 -0.4712
 3335TIP3   OH210010   0.725   2.010   0.695 -0.4793  0.0636 -0.1686
 3335TIP3    H110011   0.779   2.009   0.774 -0.7098  0.9475  0.0084
 3335TIP3    H210012   0.750   1.930   0.649 -0.6007 -0.6600  0.9695
 3336TIP3   OH210013   3.010   3.737   1.174 -0.0961  0.4379  0.0316
 3336TIP3    H110014   2.930   3.777   1.141 -0.2864  0.4149  0.4571
 3336TIP3    H210015   2.988   3.709   1.263  1.0201  2.3639  0.9699
 3337TIP3   OH210016   0.668   3.808   0.764  0.0773  0.4050  0.3012
 3337TIP3    H110017   0.654   3.722   0.724  1.9010  0.6535 -0.9968
 3337TIP3    H210018   0.585   3.854   0.752 -0.7089 -0.9299  0.4304
 3338TIP3   OH210019   5.614   4.986   5.006 -0.0401 -0.0517 -0.1494
 3338TIP3    H110020   5.687   4.944   4.961  1.1056  2.5646 -0.9504
 3338TIP3    H210021   5.536   4.941   4.973  1.0676 -1.3734 -1.0788
 3339TIP3   OH210022   0.715   1.088   3.241  0.3579 -0.2882  0.5867
 3339TIP3    H110023   0.781   1.019   3.253  0.2677 -0.1603  2.1362
 3339TIP3    H210024   0.640   1.058   3.292 -0.3803  0.0859 -0.2652
 3340TIP3   OH210025   4.135   5.344   5.055 -0.8336 -0.2259 -0.2268
 3340TIP3    H110026   4.211   5.366   5.109 -1.5019 -1.0156  1.0909
 3340TIP3    H210027   4.110   5.427   5.014  0.6614  0.0619 -0.6115
 3341TIP3   OH210028   5.504   3.376   1.427 -0.2293  0.5819 -0.5253
 3341TIP3    H110029   5.529   3.329   1.506 -1.0065 -1.0993 -1.2459
 3341TIP3    H210030   5.579   3.434   1.410  1.9031 -2.0464 -0.8880
 3342TIP3   OH210031   4.098   4.385   0.263 -0.1464 -0.9996  0.7984
 3342TIP3    H110032   4.092   4.416   0.173 -2.0816 -0.3313  1.1116
 3342TIP3    H210033   4.137   4.298   0.255  1.8293 -0.0770 -0.4379
 3343TIP3   OH210034   3.547   2.219   2.012 -0.0968 -0.2826  0.0186
 3343TIP3    H110035   3.543   2.306   2.053 -1.3538 -1.2512  2.1323
 3343TIP3    H210036   3.623   2.177   2.052  0.4553 -0.2037 -0.9343
 3344TIP3   OH210037   1.658   0.522   1.135 -0.1039 -0.1474  0.0038
 3344TIP3    H110038   1.673   0.483   1.221  0.9785  0.1408 -0.0365
 3344TIP3    H210039   1.638   0.448   1.078  0.6905 -0.5193  0.1913
 3345TIP3   OH210040   2.819   1.731   2.097  0.2136 -0.5446 -0.2592
 3345TIP3    H110041   2.767   1.671   2.043  1.3643 -0.7193 -1.2094
 3345TIP3    H210042   2.905   1.731   2.056  0.4908  1.0654  0.2799
 3346TIP3   OH210043   2.721   1.373   0.456 -0.1817 -0.0404 -0.3557
 3346TIP3    H110044   2.758   1.420   0.530  0.1369  0.9136 -1.0951
 3346TIP3    H210045   2.716   1.438   0.386  1.3368 -1.3625 -1.7871
 3347TIP3   OH210046   4.975   4.420   0.067 -0.1175  0.1065 -0.9139
 3347TIP3    H110047   4.942   4.506   0.093 -0.8133 -0.2863 -0.4783
 3347TIP3    H210048   5.059   4.412   0.112  0.1061  0.6950 -1.2201
 3348TIP3   OH210049   0.270   4.629   0.382  0.5531  0.3806  0.7951
 3348TIP3    H110050   0.330   4.561   0.414 -0.5677 -1.2073 -0.3357
 3348TIP3    H210051   0.187   4.610   0.425 -0.3313 -0.3172 -1.1243
 3349TIP3   OH210052   0.125   3.782   0.549  0.1441  0.1273 -0.1131
 3349TIP3    H110053   0.119   3.715   0.481 -0.1574 -0.3500  0.3744
 3349TIP3    H210054   0.099   3.737   0.629  0.4860  0.6849  0.3188
 3350TIP3   OH210055   2.098   3.209   4.420  0.0708  0.3061  0.1246
 3350TIP3    H110056   2.032   3.162   4.369  0.9349 -1.3930  0.4915
 3350TIP3    H210057   2.051   3.235   4.500 -1.2907  3.0117 -1.4388
 3351TIP3   OH210058   5.237   3.409   4.011  0.0497  0.2100  0.0662
 3351TIP3    H110059   5.293   3.479   4.046 -0.3786  1.4585 -1.5923
 3351TIP3    H210060   5.249   3.414   3.916 -2.4767  0.2340 -0.3278
 3352TIP3   OH210061   2.491   4.676   3.495 -0.5487 -0.0303  0.4976
 3352TIP3    H110062   2.404   4.660   3.457 -0.1235 -2.7616  0.4781
 3352TIP3    H210063   2.486   4.765   3.529 -2.4187  0.9540 -2.0087
 3353TIP3   OH210064   0.720   0.828   3.785 -0.2768 -0.2345 -0.3586
 3353TIP3    H110065   0.772   0.757   3.749 -0.1914 -1.3262  1.7667
 3353TIP3    H210066   0.778   0.871   3.848 -0.1501  2.1046 -1.9601
 3354TIP3   OH210067   0.496   0.670   4.989 -0.1876  0.2770  0.1624
 3354TIP3    H110068   0.538   0.672   4.903 -0.4324 -2.0494 -0.0818
 3354TIP3    H210069   0.462   0.581   4.997 -1.7637  0.9571  1.9320
 3355TIP3   OH210070   0.165   2.357   4.904  0.6807 -0.9595 -0.1938
 3355TIP3    H110071   0.194   2.283   4.851 -1.0380 -1.5859 -0.3251
 3355TIP3    H210072   0.124   2.316   4.981 -0.6810 -0.1844 -0.4764
 3356TIP3   OH210073   0.482   3.368   4.431 -0.5810  0.5266 -0.1645
 3356TIP3    H110074   0.445   3.451   4.461 -1.1417 -0.0133  0.6670
 3356TIP3    H210075   0.575   3.373   4.453 -0.8277  0.4758  0.9518
 3357TIP3   OH210076   3.137   3.898   0.336  0.1418  0.3396  0.2737
 3357TIP3    H110077   3.156   3.828   0.399  1.0112 -3.0721 -3.3544
 3357TIP3    H210078   3.045   3.919   0.350  0.4536  0.2631  3.0292
 3358TIP3   OH210079   3.142   3.320   1.390  0.1241  0.2000 -0.4425
 3358TIP3    H110080   3.118   3.345   1.301 -2.4618 -2.9020 -0.8204
 3358TIP3    H210081   3.229   3.280   1.381 -0.8043 -1.6516 -2.0268
 3359TIP3   OH210082   0.324   5.538   0.983  0.4180 -0.3821 -0.6569
 3359TIP3    H110083   0.391   5.474   1.003  0.2314 -0.8435 -1.4946
 3359TIP3    H210084   0.245   5.504   1.026  1.0747  1.0931  1.9423
 3360TIP3   OH210085   5.829   1.334   2.206  0.2643  0.1213 -0.2950
 3360TIP3    H110086   5.904   1.282   2.237  0.4150 -0.5913 -1.7751
 3360TIP3    H210087   5.831   1.325   2.111 -2.3529 -0.8819 -0.3570
 3361TIP3   OH210088   3.375   0.611   4.122 -0.1127  0.1440  0.3696
 3361TIP3    H110089   3.469   0.614   4.144  0.0640 -2.8436  0.5081
 3361TIP3    H210090   3.331   0.597   4.205 -0.5062 -0.2083  0.1084
 3362TIP3   OH210091   3.371   1.241   1.592  0.1642 -0.0002  0.1507
 3362TIP3    H110092   3.399   1.162   1.637  1.7470 -0.0914 -0.9028
 3362TIP3    H210093   3.279   1.226   1.572  0.2479 -1.2512  0.6319
 3363TIP3   OH210094   3.717   3.102   5.008  0.6147 -0.1000 -0.0177
 3363TIP3    H110095   3.801   3.060   4.989  0.9470  0.5906 -0.0813
 3363TIP3    H210096   3.717   3.181   4.954  0.7577  0.9155  1.4088
 3364TIP3   OH210097   0.450   1.092   2.881  0.0307 -0.2685 -0.1198
 3364TIP3    H110098   0.426   1.181   2.855 -1.2846 -0.9526 -1.3404
 3364TIP3    H210099   0.455   1.096   2.977  0.6666  1.2548 -0.1829
 3365TIP3   OH210100   1.940   1.152   0.544  0.8669 -0.9005 -0.1311
 3365TIP3    H110101   1.941   1.119   0.454 -0.0933 -2.3241  0.3397
 3365TIP3    H210102   2.022   1.200   0.553  0.3779  0.4462 -2.1655
 3366TIP3   OH210103   2.368   4.658   1.266 -0.1441  0.3195 -0.3097
 3366TIP3    H110104   2.390   4.683   1.177 -0.4297  0.3981 -0.3587
 3366TIP3    H210105   2.380   4.738   1.318 -1.4218  0.6862 -0.5276
 3367TIP3   OH210106   4.745   1.902   4.172 -0.2155  0.4925  0.3270
 3367TIP3    H110107   4.780   1.924   4.086 -0.0114  1.7521  0.7127
 3367TIP3    H210108   4.653   1.931   4.168 -0.3046  0.2298  0.4248
 3368TIP3   OH210109   4.290   4.030   2.966  0.0167  0.0765  0.1562
 3368TIP3    H110110   4.207   3.982   2.961 -0.2707  0.3919  1.4298
 3368TIP3    H210111   4.282   4.098   2.899 -1.0540  0.5163  0.6865
 3369TIP3   OH210112   2.050   0.430   1.738  0.5089 -0.6850 -0.9408
 3369TIP3    H110113   2.099   0.476   1.669  0.9299 -1.2992 -1.0631
 3369TIP3    H210114   2.051   0.491   1.812  1.0814 -0.5033 -1.0901
 3370TIP3   OH210115   2.768   4.291   3.239 -0.5472  0.0913  0.1089
 3370TIP3    H110116   2.750   4.374   3.283  0.9864 -0.4073  1.8102
 3370TIP3    H210117   2.695   4.234   3.262 -0.6625  0.4079  0.5280
 3371TIP3   OH210118   4.549   0.072   0.147 -0.3028 -0.1177 -0.2129
 3371TIP3    H110119   4.553   0.028   0.062  0.4860  0.0216 -0.2598
 3371TIP3    H210120   4.464   0.114   0.148 -0.5760 -0.6450 -0.6739
 3372TIP3   OH210121   2.027   2.842   2.168 -0.3376 -0.2506 -0.4531
 3372TIP3    H110122   2.038   2.747   2.170 -0.7177 -0.2969 -0.3295
 3372TIP3    H210123   1.932   2.855   2.171 -0.3113  0.1981  2.8871
 3373TIP3   OH210124   2.579   5.639   0.447  0.6333 -0.1109  0.4426
 3373TIP3    H110125   2.520   5.637   0.372  0.2923 -0.2179  0.7108
 3373TIP3    H210126   2.624   5.724   0.440 -0.3376  0.4574  0.8286
 3374TIP3   OH210127   1.461   4.160   0.166  0.0632 -0.4545 -0.0699
 3374TIP3    H110128   1.464   4.203   0.252  1.6200 -0.5649 -0.0282
 3374TIP3    H210129   1.521   4.086   0.175  1.3093  0.3017 -1.6416
 3375TIP3   OH210130   0.749   4.626   2.455 -0.3111  0.2821 -0.0824
 3375TIP3    H110131   0.842   4.645   2.467 -0.2165 -0.2303  0.0167
 3375TIP3    H210132   0.712   4.707   2.419  0.6757 -0.3246 -2.6832
 3376TIP3   OH210133   1.649   1.964   4.162 -0.1812 -0.0772  0.5394
 3376TIP3    H110134   1.650   1.891   4.224 -0.6082  0.3835  1.0995
 3376TIP3    H210135   1.641   2.042   4.217  1.7982  0.5134  0.0387
 3377TIP3   OH210136   5.266   3.779   5.005 -0.1675 -0.6854 -0.0405
 3377TIP3    H110137   5.255   3.685   5.020 -1.2343 -0.3620  1.3392
 3377TIP3    H210138   5.331   3.806   5.070 -1.7040 -0.0356  1.2662
 3378TIP3   OH210139   3.494   4.239   2.585  0.2737  0.1691 -0.2815
 3378TIP3    H110140   3.583   4.242   2.620  1.0627 -3.8299 -1.4538
 3378TIP3    H210141   3.439   4.225   2.662  0.8178  0.9793  0.2723
 3379TIP3   OH210142   0.350   2.137   2.961  0.5730 -0.4258 -0.3107
 3379TIP3    H110143   0.377   2.071   3.026  1.6481 -1.8078 -2.0492
 3379TIP3    H210144   0.298   2.088   2.897 -0.2017  0.8320 -0.6861
 3380TIP3   OH210145   1.416   3.395   1.077 -0.8495  0.5888  0.5780
 3380TIP3    H110146   1.323   3.415   1.084 -0.6247  1.5767  0.9933
 3380TIP3    H210147   1.439   3.357   1.162 -1.1817 -1.1506 -0.0599
 3381TIP3   OH210148   4.175   4.509   5.158  0.4989 -0.3473  0.2557
 3381TIP3    H110149   4.097   4.535   5.207  0.6680 -0.7537  0.7498
 3381TIP3    H210150   4.218   4.592   5.137 -0.1523 -0.1040 -0.1859
 3382TIP3   OH210151   1.186   2.104   2.810  0.6531  0.3893 -0.0757
 3382TIP3    H110152   1.152   2.110   2.721  0.3534 -1.8050 -0.1614
 3382TIP3    H210153   1.279   2.085   2.799  0.2510 -1.8860 -0.0193
 3383TIP3   OH210154   0.596   2.857   3.677 -0.3352  0.3455 -0.0730
 3383TIP3    H110155   0.593   2.771   3.635  1.6295 -0.1979  0.7479
 3383TIP3    H210156   0.521   2.858   3.736 -1.5645  0.0544 -1.5542
 3384TIP3   OH210157   2.973   4.316   4.420  0.0332  0.7622 -0.1790
 3384TIP3    H110158   2.990   4.397   4.372  2.4079  0.5859  0.2247
 3384TIP3    H210159   2.967   4.249   4.351  2.6289  0.6355 -0.4059
 3385TIP3   OH210160   3.190   1.060   3.387  0.2011 -0.1835 -0.2814
 3385TIP3    H110161   3.239   0.978   3.385  1.4400  0.5432 -0.5431
 3385TIP3    H210162   3.229   1.109   3.459  0.9042  1.0188 -1.4448
 3386TIP3   OH210163   5.849   3.652   1.680  0.7026  0.3684 -0.6371
 3386TIP3    H110164   5.924   3.712   1.681  1.6384 -0.7645  0.5298
 3386TIP3    H210165   5.884   3.572   1.640  0.7722 -0.9067  1.7808
 3387TIP3   OH210166   4.075   4.047   1.746  1.0070  0.5694 -0.3016
 3387TIP3    H110167   4.135   4.015   1.678 -0.3478  0.6373 -1.5687
 3387TIP3    H210168   4.000   3.989   1.741  0.0814  1.7191 -0.1508
 3388TIP3   OH210169   0.962   2.476   3.728 -0.3972 -0.0618  0.5424
 3388TIP3    H110170   0.927   2.565   3.732 -0.6939 -0.1207 -0.4249
 3388TIP3    H210171   0.889   2.420   3.751 -0.7963 -0.1506 -0.8561
 3389TIP3   OH210172   4.939   3.203   5.025  0.4819  0.0542  0.5646
 3389TIP3    H110173   4.889   3.204   4.944 -0.6749 -1.9354  1.1756
 3389TIP3    H210174   4.958   3.295   5.043  0.7285  0.5313 -1.9042
 3390TIP3   OH210175   1.423   2.590   3.456 -0.1617  0.1324 -0.0822
 3390TIP3    H110176   1.480   2.586   3.533 -0.6199  0.2283  0.2629
 3390TIP3    H210177   1.480   2.621   3.386  0.1704  0.3841  0.2967
 3391TIP3   OH210178   1.491   4.866   3.113  0.1693  0.3406  0.4931
 3391TIP3    H110179   1.517   4.953   3.142  0.6511  0.2252  0.4318
 3391TIP3    H210180   1.419   4.881   3.052  0.8552  0.7719 -0.2367
 3392TIP3   OH210181   4.301   2.777   3.674  0.3453 -0.0292  0.1656
 3392TIP3    H110182   4.231   2.842   3.688 -0.5614 -1.2963  1.8785
 3392TIP3    H210183   4.379   2.817   3.712  0.1599  0.6963 -0.2048
 3393TIP3   OH210184   6.284   0.956   2.290 -0.2670  0.1388 -0.2918
 3393TIP3    H110185   6.369   0.962   2.247 -0.6489 -0.2337 -1.1278
 3393TIP3    H210186   6.304   0.947   2.383  0.7152 -2.3937 -0.6590
 3394TIP3   OH210187   6.023   5.042   3.225  0.1089  0.1300  0.7400
 3394TIP3    H110188   6.014   5.062   3.319 -0.0418  1.3559  0.4870
 3394TIP3    H210189   5.936   5.058   3.189  0.1349 -0.4729  0.4091
 3395TIP3   OH210190   5.010   5.206   1.718 -0.0044 -0.0772 -0.1943
 3395TIP3    H110191   5.058   5.242   1.792 -1.3874 -1.8179  1.6648
 3395TIP3    H210192   4.928   5.255   1.717 -0.0588 -0.1718 -0.4711
 3396TIP3   OH210193   4.909   5.393   3.371  0.4895  0.3204  0.7200
 3396TIP3    H110194   4.849   5.348   3.430  0.1175 -0.2582 -0.0857
 3396TIP3    H210195   4.984   5.333   3.362  0.5350  0.3955  0.5898
 3397TIP3   OH210196   1.694   2.492   4.383 -0.6098 -0.0228 -0.3340
 3397TIP3    H110197   1.689   2.586   4.367 -2.2197 -0.1238 -0.6230
 3397TIP3    H210198   1.620   2.474   4.442 -0.5576 -1.1667 -0.5966
 3398TIP3   OH210199   1.303   3.260   1.469  0.4214  0.1727  0.8211
 3398TIP3    H110200   1.223   3.207   1.463  2.1387 -2.4350 -1.3228
 3398TIP3    H210201   1.273   3.349   1.452 -2.0129 -0.7151 -0.0540
 3399TIP3   OH210202   0.904   1.787   2.869  0.1146 -0.3690 -0.3251
 3399TIP3    H110203   0.918   1.780   2.964 -0.5530 -0.9024 -0.2544
 3399TIP3    H210204   0.879   1.699   2.842  0.6419 -0.3030 -1.0686
 3400TIP3   OH210205   5.508   2.123   1.114 -0.5060 -0.5293 -0.4252
 3400TIP3    H110206   5.412   2.126   1.115 -0.5923  0.2339 -2.9925
 3400TIP3    H210207   5.531   2.127   1.021  2.0505 -0.2669  0.1402
 3401TIP3   OH210208   3.652   2.068   2.317  0.8651  0.2393  0.2035
 3401TIP3    H110209   3.706   2.046   2.242  0.5085 -2.4247  0.6544
 3401TIP3    H210210   3.715   2.084   2.388  1.2080  2.9028 -0.5894
 3402TIP3   OH210211   0.783   1.114   1.672 -0.2097 -0.1841  0.0625
 3402TIP3    H110212   0.773   1.029   1.714 -1.5584 -0.0907 -0.0360
 3402TIP3    H210213   0.829   1.168   1.737  0.3905 -0.8820  0.2384
 3403TIP3   OH210214   4.897   0.065   3.392  0.3421 -0.1164  0.6507
 3403TIP3    H110215   4.811   0.093   3.423  1.4672  1.1560  2.8481
 3403TIP3    H210216   4.901  -0.028   3.412 -0.0599  0.0885  1.7413
 3404TIP3   OH210217   0.819   0.517   4.744  0.8368  0.3146 -0.3800
 3404TIP3    H110218   0.815   0.568   4.825  0.4960  2.4378 -1.6580
 3404TIP3    H210219   0.787   0.430   4.768 -0.5097  1.2662  1.4801
 3405TIP3   OH210220   2.199   1.765   4.624 -0.0948  0.0498  0.0784
 3405TIP3    H110221   2.245   1.726   4.699  0.9851 -0.7573 -0.9718
 3405TIP3    H210222   2.107   1.766   4.651 -0.2005 -3.2333  0.2111
 3406TIP3   OH210223   2.378   4.803   3.094 -0.1018  0.1566 -0.0022
 3406TIP3    H110224   2.310   4.859   3.131  0.3678  0.7958 -0.0819
 3406TIP3    H210225   2.376   4.723   3.146 -2.7466 -0.9977 -1.6833
 3407TIP3   OH210226   2.806   2.827   4.154  0.8365 -0.1145  0.0296
 3407TIP3    H110227   2.795   2.858   4.244  1.4074 -0.0578  0.0849
 3407TIP3    H210228   2.818   2.732   4.163  1.3367 -0.0543  0.0598
 3408TIP3   OH210229   3.579   4.264   5.127 -0.5302  0.0468 -0.0368
 3408TIP3    H110230   3.645   4.332   5.109 -0.1674 -0.8253 -2.3227
 3408TIP3    H210231   3.498   4.299   5.089 -1.0277  0.3470  1.2252
 3409TIP3   OH210232   4.207   2.970   0.192  0.5749  0.1150 -0.4715
 3409TIP3    H110233   4.273   2.972   0.122  1.0964 -0.4805 -0.0103
 3409TIP3    H210234   4.224   3.048   0.243  2.0871 -0.9014  0.6661
 3410TIP3   OH210235   3.462   2.953   5.104  0.2432  0.4092 -0.1977
 3410TIP3    H110236   3.542   2.997   5.077 -0.8959  1.5071 -2.0237
 3410TIP3    H210237   3.414   2.939   5.022 -1.1524 -0.7555  0.7772
 3411TIP3   OH210238   5.945   2.587   3.595 -0.0067  0.2616 -0.2776
 3411TIP3    H110239   5.955   2.637   3.515 -0.8462  0.4135 -0.2945
 3411TIP3    H210240   5.862   2.617   3.632 -1.2117 -1.9872 -0.9454
 3412TIP3   OH210241   3.758   2.398   3.682 -0.8295 -0.0642 -0.0507
 3412TIP3    H110242   3.844   2.363   3.659 -0.3670  0.3441  0.9780
 3412TIP3    H210243   3.776   2.469   3.744 -2.0013 -1.5446  2.1105
 3413TIP3   OH210244   0.287   4.330   0.161  0.4863 -0.4726  0.3615
 3413TIP3    H110245   0.286   4.238   0.134 -0.0874 -0.3433 -0.0969
 3413TIP3    H210246   0.320   4.377   0.085 -0.9041 -0.1282 -0.0582
 3414TIP3   OH210247   5.788   1.833   4.955 -0.3316 -1.2518  0.0012
 3414TIP3    H110248   5.749   1.918   4.934  0.6414 -0.6446  0.5801
 3414TIP3    H210249   5.718   1.784   4.998 -1.4884 -1.4717 -2.0081
 3415TIP3   OH210250   5.284   0.349   3.193 -0.3962  0.1441  0.4508
 3415TIP3    H110251   5.269   0.344   3.098 -1.0892  0.6208  0.5337
 3415TIP3    H210252   5.254   0.264   3.226 -1.9596  0.6671  0.4703
 3416TIP3   OH210253   4.539   1.199   2.065  0.2947 -0.4076 -0.3096
 3416TIP3    H110254   4.511   1.108   2.077  0.1100 -0.6943 -2.6108
 3416TIP3    H210255   4.577   1.201   1.977  2.5117  1.2201  0.5901
 3417TIP3   OH210256   3.290   3.074   2.829  0.2677  0.2154  0.0659
 3417TIP3    H110257   3.350   3.133   2.784 -2.4069  2.6263 -0.6741
 3417TIP3    H210258   3.294   3.101   2.921  0.6649  0.0552  0.0947
 3418TIP3   OH210259   6.150   4.601   3.593 -0.0850  0.3320 -0.9687
 3418TIP3    H110260   6.089   4.629   3.524 -1.3882 -0.6017 -0.2261
 3418TIP3    H210261   6.194   4.524   3.556 -1.2253 -0.5354 -0.5393
 3419TIP3   OH210262   4.292   2.641   3.949  0.0429  0.0712 -0.2701
 3419TIP3    H110263   4.381   2.617   3.975 -0.7858 -0.6580  2.0802
 3419TIP3    H210264   4.305   2.714   3.888  2.2361 -0.1383 -0.1608
 3420TIP3   OH210265   5.513   4.566   2.523  0.4497  0.0428 -0.1902
 3420TIP3    H110266   5.467   4.483   2.517  0.2128  0.1599  0.0000
 3420TIP3    H210267   5.489   4.613   2.442 -0.8212  0.6388  0.5000
 3421TIP3   OH210268   5.000   2.595   3.067 -0.1553  0.5058 -0.2422
 3421TIP3    H110269   4.981   2.689   3.059  0.1943  0.4976 -1.5093
 3421TIP3    H210270   5.004   2.579   3.161 -0.7524  1.6501 -0.0018
 3422TIP3   OH210271   4.662   3.360   5.036  0.2041 -0.2397 -0.9047
 3422TIP3    H110272   4.681   3.322   4.950 -0.3654  0.1259 -1.1980
 3422TIP3    H210273   4.567   3.362   5.041  0.1651 -2.2873  0.6403
 3423TIP3   OH210274   2.309   4.418   0.181  0.0821  0.0528  0.5468
 3423TIP3    H110275   2.218   4.396   0.200  0.5814 -2.5603  0.2557
 3423TIP3    H210276   2.314   4.421   0.086  0.2168  0.6233  0.5710
 3424TIP3   OH210277   5.840   5.932   1.833  0.5844  0.2751  0.2217
 3424TIP3    H110278   5.868   5.974   1.752 -1.6514  0.0821 -0.7369
 3424TIP3    H210279   5.903   5.961   1.899  1.8951  1.2195 -1.3734
 3425TIP3   OH210280   2.969   2.309   2.634  0.2654 -0.4454 -0.2160
 3425TIP3    H110281   2.993   2.396   2.602  2.2076 -1.4354 -1.6564
 3425TIP3    H210282   3.036   2.288   2.699 -0.3848 -0.7521  0.3739
 3426TIP3   OH210283   3.888   0.833   4.259  0.0743  0.2273  0.1078
 3426TIP3    H110284   3.810   0.784   4.234 -0.2871  0.9865 -0.2637
 3426TIP3    H210285   3.861   0.886   4.334  0.0030  1.0935 -0.5170
 3427TIP3   OH210286   2.740   2.086   3.204 -0.6315  0.1883  0.2992
 3427TIP3    H110287   2.666   2.148   3.207 -0.1334  0.9014 -1.1296
 3427TIP3    H210288   2.807   2.127   3.258 -0.0964  1.2479 -1.0902
 3428TIP3   OH210289   5.908   4.142   3.777  0.4311  0.2625 -0.1231
 3428TIP3    H110290   5.855   4.217   3.806  1.4168  0.4649  1.2625
 3428TIP3    H210291   5.989   4.181   3.744  1.5423 -0.1921  1.9039
 3429TIP3   OH210292   5.486   0.985   4.865 -0.1571  0.2111  0.0034
 3429TIP3    H110293   5.517   1.015   4.951  1.4166 -1.0443 -0.0818
 3429TIP3    H210294   5.471   0.892   4.876 -1.2017  0.2719 -0.7677
 3430TIP3   OH210295   3.485   5.917   3.922 -0.1116  0.0634 -0.6004
 3430TIP3    H110296   3.571   5.889   3.956 -0.4753 -0.1377  0.1805
 3430TIP3    H210297   3.480   6.010   3.943 -0.9320 -0.3572  1.2535
 3431TIP3   OH210298   6.299   0.988   4.450  0.2425 -0.4666 -0.3385
 3431TIP3    H110299   6.280   0.899   4.420 -0.6734 -0.3600 -0.1129
 3431TIP3    H210300   6.390   1.003   4.425  0.5294 -1.6060 -0.0342
 3432TIP3   OH210301   3.241   3.933   1.605 -0.2665 -0.7019  0.2571
 3432TIP3    H110302   3.267   3.939   1.697 -0.5470  0.7893  0.2639
 3432TIP3    H210303   3.192   4.014   1.588 -0.0718 -0.8650 -1.2548
 3433TIP3   OH210304   5.517   3.860   0.694  0.2022 -0.2129  0.1483
 3433TIP3    H110305   5.439   3.841   0.746  0.2086  0.0256  0.2464
 3433TIP3    H210306   5.532   3.954   0.708  0.9172 -0.4052  0.6837
 3434TIP3   OH210307   4.860   3.892   4.948 -0.3255 -0.1804 -0.0787
 3434TIP3    H110308   4.946   3.930   4.966  0.1274 -0.1734 -2.0057
 3434TIP3    H210309   4.804   3.967   4.930 -0.7147 -0.1949  1.0072
 3435TIP3   OH210310   2.748   5.167   3.095  0.5509 -0.5131 -0.1420
 3435TIP3    H110311   2.666   5.148   3.139 -1.0077  1.8400 -1.7747
 3435TIP3    H210312   2.746   5.262   3.081  2.7632 -0.6242 -1.7109
 3436TIP3   OH210313   5.437   5.567   4.271 -0.0669 -0.5685 -0.2885
 3436TIP3    H110314   5.461   5.660   4.277  1.2090 -0.8784 -0.2908
 3436TIP3    H210315   5.370   5.555   4.339  0.7288  0.0689  0.6359
 3437TIP3   OH210316   0.576   3.702   2.001  0.4205 -0.4088  0.2788
 3437TIP3    H110317   0.572   3.614   2.038  0.1616 -0.9524 -0.9896
 3437TIP3    H210318   0.508   3.751   2.047 -1.1916 -1.5801 -0.7491
 3438TIP3   OH210319   0.185   1.326   1.492  0.0815  0.0163 -0.1289
 3438TIP3    H110320   0.159   1.417   1.506 -0.5505 -0.3170  0.8972
 3438TIP3    H210321   0.232   1.302   1.571 -1.8907 -1.2960  0.7115
 3439TIP3   OH210322   6.144   5.898   4.182 -0.0152  0.7311  0.0944
 3439TIP3    H110323   6.236   5.909   4.157 -0.0734 -0.7514 -0.8843
 3439TIP3    H210324   6.135   5.949   4.263  1.4248  1.6452 -0.2908
 3440TIP3   OH210325   4.039   3.022   0.681  0.6242 -0.5290  0.5134
 3440TIP3    H110326   3.998   2.941   0.649 -0.1592 -0.1659  0.5659
 3440TIP3    H210327   3.970   3.064   0.732  0.7581  0.5578 -0.1697
 3441TIP3   OH210328   5.142   0.745   4.017 -0.0011 -0.2276 -0.0290
 3441TIP3    H110329   5.126   0.732   4.110 -1.0676  0.8308 -0.0331
 3441TIP3    H210330   5.110   0.834   4.000  1.4820  0.1263 -1.1226
 3442TIP3   OH210331   4.335   4.327   1.271  0.1418 -0.1739 -0.5536
 3442TIP3    H110332   4.387   4.407   1.273  0.0858 -0.1474  0.3115
 3442TIP3    H210333   4.353   4.284   1.355 -0.2400 -0.8013 -0.7821
 3443TIP3   OH210334   1.390   3.357   1.736 -0.4106 -0.1972 -0.1957
 3443TIP3    H110335   1.403   3.452   1.742 -2.9518  0.2920 -1.0986
 3443TIP3    H210336   1.395   3.338   1.642  1.2731 -1.2228  0.0521
 3444TIP3   OH210337   2.791   4.463   4.733 -0.6039  0.2984  0.6984
 3444TIP3    H110338   2.754   4.425   4.813 -0.2825  1.0601  1.2251
 3444TIP3    H210339   2.793   4.391   4.671  2.4667 -1.3523  2.4675
 3445TIP3   OH210340   3.760   0.818   1.072 -0.6904  0.0123  0.6897
 3445TIP3    H110341   3.751   0.802   1.166 -1.4197 -0.5673  0.5230
 3445TIP3    H210342   3.671   0.823   1.039 -0.4444  0.5409  0.0709
 3446TIP3   OH210343   0.915   4.830   3.883  0.8738  0.3786 -0.3524
 3446TIP3    H110344   0.930   4.918   3.916  0.9030  0.2205  0.0650
 3446TIP3    H210345   0.997   4.783   3.902  0.9561  0.3330 -0.8120
 3447TIP3   OH210346   2.896   0.842   2.771 -0.2044 -0.4174  0.2444
 3447TIP3    H110347   2.924   0.892   2.694 -0.1086 -0.0197  0.5404
 3447TIP3    H210348   2.914   0.751   2.747 -0.0123 -0.2828 -0.1389
 3448TIP3   OH210349   6.197   5.813   4.768  0.1491 -0.6352 -0.0699
 3448TIP3    H110350   6.214   5.761   4.689 -1.3839 -0.5012 -0.5022
 3448TIP3    H210351   6.102   5.820   4.773  0.2845  2.2424 -0.0792
 3449TIP3   OH210352   0.568   0.769   3.263 -0.1864 -0.0002  0.4613
 3449TIP3    H110353   0.653   0.811   3.279 -0.8548  1.4058  0.3906
 3449TIP3    H210354   0.534   0.750   3.350  0.8582 -2.0104  0.4925
 3450TIP3   OH210355   1.332   5.664   0.953 -0.3108  0.3612 -0.2461
 3450TIP3    H110356   1.264   5.630   1.011 -0.2783  0.7549  0.0238
 3450TIP3    H210357   1.321   5.614   0.872 -0.5624  0.0352 -0.0132
 3451TIP3   OH210358   4.895   1.545   1.841  0.2178 -0.1104 -0.3543
 3451TIP3    H110359   4.824   1.587   1.793  2.0896  2.9531 -0.6929
 3451TIP3    H210360   4.936   1.486   1.777  1.1007  2.0164 -1.8660
 3452TIP3   OH210361   1.143   0.359   2.682 -0.3411  0.1223 -0.2708
 3452TIP3    H110362   1.220   0.331   2.732 -1.1761 -0.4112  0.7759
 3452TIP3    H210363   1.133   0.293   2.614  0.9469  0.9835 -1.3309
 3453TIP3   OH210364   2.183   3.145   2.969  0.2817 -0.3931 -0.4284
 3453TIP3    H110365   2.101   3.116   3.008  0.0242 -1.5919 -1.8125
 3453TIP3    H210366   2.240   3.163   3.045 -0.9408 -0.4034  0.5236
 3454TIP3   OH210367   2.722   0.654   4.033 -0.2979 -0.3684 -0.2080
 3454TIP3    H110368   2.664   0.591   4.077 -0.7072  0.5591  0.6104
 3454TIP3    H210369   2.666   0.728   4.012  0.4501  0.2582 -0.0220
 3455TIP3   OH210370   2.189   0.230   0.101  0.7761 -0.1677  0.7148
 3455TIP3    H110371   2.117   0.291   0.080  0.6219  0.0772  1.8586
 3455TIP3    H210372   2.256   0.249   0.036  0.8354  1.4338  1.1739
 3456TIP3   OH210373   1.612   0.840   1.234 -0.3783 -0.0810 -0.4263
 3456TIP3    H110374   1.684   0.903   1.228  0.7672 -1.3097  0.0128
 3456TIP3    H210375   1.644   0.763   1.187 -0.4656 -1.4664  1.6795
 3457TIP3   OH210376   5.193   5.078   4.307 -0.0256  0.2438  0.3253
 3457TIP3    H110377   5.257   5.135   4.349  1.6512 -1.8258  0.7271
 3457TIP3    H210378   5.235   5.048   4.226 -0.7519 -0.6144  0.2404
 3458TIP3   OH210379   2.783   4.598   0.800  0.7322 -0.0061  0.1680
 3458TIP3    H110380   2.850   4.557   0.745 -1.1660 -2.1811 -0.6962
 3458TIP3    H210381   2.799   4.563   0.888  0.8794 -0.3237  0.0157
 3459TIP3   OH210382   4.245   4.421   3.025 -0.4895 -0.7978  0.0469
 3459TIP3    H110383   4.243   4.407   3.120 -0.3178 -0.7612  0.0567
 3459TIP3    H210384   4.337   4.436   3.005 -0.8360  2.5064  0.3608
 3460TIP3   OH210385   6.136   5.509   1.399 -0.4555  0.0332  0.2663
 3460TIP3    H110386   6.110   5.460   1.477  1.3783 -0.7148  0.4540
 3460TIP3    H210387   6.078   5.586   1.399 -1.3495 -0.5913  1.6372
 3461TIP3   OH210388   6.089   5.665   4.024  0.0640  0.0195 -0.3782
 3461TIP3    H110389   6.003   5.685   3.987  0.5450 -1.2439 -2.3437
 3461TIP3    H210390   6.123   5.749   4.051 -0.1849  1.2051 -3.3238
 3462TIP3   OH210391   1.802   5.754   4.755 -0.6813  0.0072  0.6221
 3462TIP3    H110392   1.787   5.786   4.666  0.6811 -0.0084  0.3631
 3462TIP3    H210393   1.868   5.813   4.791  0.1029 -1.0547  0.9791
 3463TIP3   OH210394   1.683   0.170   2.721 -0.6370  0.0554 -0.2951
 3463TIP3    H110395   1.710   0.159   2.629  1.5856 -1.9279  0.4695
 3463TIP3    H210396   1.677   0.081   2.755  0.5277  0.7384  1.9526
 3464TIP3   OH210397   5.188   2.417   1.604  0.3096  0.1119  0.0539
 3464TIP3    H110398   5.189   2.339   1.549  1.2523  1.7474 -2.4049
 3464TIP3    H210399   5.161   2.385   1.690  2.7968 -3.3095 -0.2440
 3465TIP3   OH210400   2.167   3.681   3.443 -0.3136  0.4300  0.4196
 3465TIP3    H110401   2.161   3.632   3.525  0.1289 -0.3502 -0.0029
 3465TIP3    H210402   2.253   3.723   3.447  1.0617 -2.0291 -0.9205
 3466TIP3   OH210403   3.309   0.020   0.517  0.0307  0.2841  0.4804
 3466TIP3    H110404   3.378   0.087   0.523  1.0712 -0.7491  0.3561
 3466TIP3    H210405   3.291   0.012   0.424  1.3592 -1.0199  0.3076
 3467TIP3   OH210406   0.334   1.990   3.527  0.1637  0.3317  0.0324
 3467TIP3    H110407   0.401   2.020   3.465 -0.7439  0.7176 -0.7820
 3467TIP3    H210408   0.283   1.925   3.478 -1.0666  1.2281  0.0907
 3468TIP3   OH210409   4.741   2.074   2.656 -0.2043  0.0162  0.5147
 3468TIP3    H110410   4.752   1.996   2.601 -0.6283  1.6776 -2.1009
 3468TIP3    H210411   4.806   2.136   2.624 -0.7637  1.2254  1.6257
 3469TIP3   OH210412   3.045   3.445   1.163 -0.1501 -0.1467  0.2477
 3469TIP3    H110413   3.063   3.535   1.138  0.5274 -0.5164 -0.6202
 3469TIP3    H210414   2.953   3.432   1.141  0.1195 -0.0916 -0.9575
 3470TIP3   OH210415   6.279   4.980   1.951  0.0350  0.2653  0.7966
 3470TIP3    H110416   6.318   4.982   1.863  0.4341  0.3718  0.9746
 3470TIP3    H210417   6.189   4.952   1.936  1.1219 -3.7979  0.7131
 3471TIP3   OH210418   6.160   2.821   4.530 -0.4367 -0.2038 -0.4926
 3471TIP3    H110419   6.204   2.737   4.520  0.3516 -0.2010  2.2217
 3471TIP3    H210420   6.231   2.885   4.533 -0.8183  0.2015  0.3485
 3472TIP3   OH210421   3.286   2.797   3.492 -0.1208  0.2469  0.2510
 3472TIP3    H110422   3.379   2.776   3.498 -0.0530  0.6279  0.5206
 3472TIP3    H210423   3.277   2.843   3.409 -0.0436  0.3572  0.3045
 3473TIP3   OH210424   2.635   1.666   5.135  0.0184 -0.2974  0.6806
 3473TIP3    H110425   2.560   1.606   5.132  0.9153 -1.4157 -0.6205
 3473TIP3    H210426   2.625   1.713   5.217  0.3976 -3.7545  2.8981
 3474TIP3   OH210427   3.945   1.950   1.374 -0.2017  0.3441  0.0998
 3474TIP3    H110428   3.903   1.865   1.361 -1.3595  0.8958  0.1115
 3474TIP3    H210429   3.972   1.949   1.466 -0.2947  0.0382  0.1261
 3475TIP3   OH210430   4.057   2.502   3.997  0.3448 -0.2634 -0.0465
 3475TIP3    H110431   4.084   2.416   4.028 -0.7630 -1.1221 -1.3582
 3475TIP3    H210432   4.126   2.527   3.935  0.3359 -0.5037 -0.1546
 3476TIP3   OH210433   2.436   2.009   1.772 -0.1186  0.2718 -0.3968
 3476TIP3    H110434   2.470   1.960   1.697 -0.6767 -0.5270 -0.1447
 3476TIP3    H210435   2.341   2.000   1.764 -0.1697 -0.4166  0.7910
 3477TIP3   OH210436   4.065   5.907   4.669 -0.2126  0.0130  0.4396
 3477TIP3    H110437   4.081   5.980   4.609 -2.4143 -0.9924 -1.5522
 3477TIP3    H210438   4.153   5.879   4.696  0.9750  0.4840 -2.4830
 3478TIP3   OH210439   4.351   2.842   4.192 -0.7211  0.3315 -0.0689
 3478TIP3    H110440   4.398   2.813   4.114  0.8217 -0.9540  1.2656
 3478TIP3    H210441   4.259   2.824   4.172 -0.1076 -2.9013 -0.4900
 3479TIP3   OH210442   4.826   5.242   2.189  0.4276 -0.0704 -0.8104
 3479TIP3    H110443   4.806   5.335   2.197 -1.5151 -0.5044 -0.2281
 3479TIP3    H210444   4.838   5.229   2.095  1.6320  0.9097 -0.8226
 3480TIP3   OH210445   5.593   3.356   0.089 -0.6302  0.4608  0.1371
 3480TIP3    H110446   5.602   3.275   0.040 -0.2722  0.5274  0.0923
 3480TIP3    H210447   5.624   3.336   0.177 -2.6861 -0.0715  0.7799
 3481TIP3   OH210448   6.016   5.318   2.413 -0.1595 -0.3666  0.2288
 3481TIP3    H110449   5.930   5.323   2.372 -0.1700 -0.5439  0.2259
 3481TIP3    H210450   6.016   5.388   2.478  0.4290  0.9299 -1.1186
 3482TIP3   OH210451   2.971   1.079   4.528  0.4523 -0.2314  0.3710
 3482TIP3    H110452   2.921   1.004   4.561  2.3271 -1.7437 -0.0785
 3482TIP3    H210453   2.907   1.130   4.478 -0.7039 -1.9716 -0.0104
 3483TIP3   OH210454   4.016   2.395   1.121  0.1046 -0.2821  0.0800
 3483TIP3    H110455   3.929   2.435   1.132  0.0073 -0.3514 -0.3851
 3483TIP3    H210456   4.008   2.308   1.161 -0.0192 -0.2607  0.1015
 3484TIP3   OH210457   4.089   2.598   4.475  0.1320 -0.2776 -0.1101
 3484TIP3    H110458   4.052   2.511   4.456 -0.8560 -0.6023  2.7868
 3484TIP3    H210459   4.182   2.582   4.491 -0.1557 -0.9536  0.9965
 3485TIP3   OH210460   1.989   3.708   1.878  0.0377  0.3142  0.2814
 3485TIP3    H110461   2.080   3.692   1.904 -0.1123  0.1488  0.7202
 3485TIP3    H210462   1.955   3.768   1.945  0.1343  1.2438 -0.4836
 3486TIP3   OH210463   2.192   0.983   5.012 -0.9048 -0.0127  0.1285
 3486TIP3    H110464   2.116   0.992   5.069 -1.1573 -0.5097 -0.1258
 3486TIP3    H210465   2.172   1.038   4.936 -1.3152 -0.6642 -0.2472
 3487TIP3   OH210466   5.285   5.257   2.832  0.0230  0.2997 -0.2644
 3487TIP3    H110467   5.206   5.311   2.817 -0.5784 -0.3460  0.4863
 3487TIP3    H210468   5.255   5.167   2.820  0.9609  0.1023 -1.2477
 3488TIP3   OH210469   1.794   3.643   0.268  0.4702 -0.3803 -0.0827
 3488TIP3    H110470   1.781   3.712   0.203  1.0205  0.8580  1.0762
 3488TIP3    H210471   1.839   3.687   0.340 -0.4520 -1.6387  1.2940
 3489TIP3   OH210472   3.733   3.968   0.544  1.0085 -0.5322 -0.0894
 3489TIP3    H110473   3.669   4.004   0.606  0.0890 -1.4585 -0.4599
 3489TIP3    H210474   3.806   4.029   0.546  0.1937  0.4545  0.5105
 3490TIP3   OH210475   3.731   4.305   1.583  0.1112  0.2326 -0.0777
 3490TIP3    H110476   3.815   4.350   1.588  0.5962 -0.7664  1.9257
 3490TIP3    H210477   3.666   4.372   1.606  0.4971  0.6780 -0.2857
 3491TIP3   OH210478   1.117   0.047   4.042 -0.5989 -0.0098  0.1625
 3491TIP3    H110479   1.170  -0.023   4.080 -0.7933 -0.0286  0.3995
 3491TIP3    H210480   1.040   0.052   4.097 -1.2426 -0.5385 -0.6679
 3492TIP3   OH210481   1.217   5.738   3.921 -0.7284  0.5705 -0.1538
 3492TIP3    H110482   1.176   5.754   3.836  1.2320  0.7416 -1.1322
 3492TIP3    H210483   1.156   5.681   3.967 -1.2798 -0.5573 -2.1761
 3493TIP3   OH210484   3.863   1.753   0.065 -0.4349 -0.0830  0.3128
 3493TIP3    H110485   3.925   1.797   0.123 -0.5574 -0.2724  0.5829
 3493TIP3    H210486   3.861   1.663   0.095  0.5593 -0.5318 -0.8411
 3494TIP3   OH210487   1.321   2.701   2.113  0.2057  0.0786  0.2704
 3494TIP3    H110488   1.388   2.730   2.051 -0.0170  2.0238  0.9061
 3494TIP3    H210489   1.252   2.665   2.057  1.1939 -0.7942 -0.4486
 3495TIP3   OH210490   1.460   2.549   3.827 -0.2724 -0.1804  0.1777
 3495TIP3    H110491   1.480   2.604   3.903 -1.1791 -0.0999  0.3688
 3495TIP3    H210492   1.402   2.603   3.773  0.8935  0.0149 -0.9077
 3496TIP3   OH210493   5.937   0.585   4.653  0.6308  0.3733  0.2486
 3496TIP3    H110494   5.910   0.592   4.744  0.0041  1.3893 -0.0049
 3496TIP3    H210495   5.924   0.492   4.631 -1.0649  0.4977  0.6342
 3497TIP3   OH210496   5.067   4.182   2.593 -0.2812  0.0541 -0.3712
 3497TIP3    H110497   5.148   4.231   2.609 -0.2991 -0.4809  1.5173
 3497TIP3    H210498   5.092   4.090   2.602 -1.1517 -0.1085  0.5153
 3498TIP3   OH210499   5.870   0.372   4.245  0.1250  0.0620  0.7488
 3498TIP3    H110500   5.919   0.405   4.170  0.1858  1.1112  1.2293
 3498TIP3    H210501   5.912   0.288   4.266  0.0430 -0.2848 -0.4330
 3499TIP3   OH210502   4.321   2.468   1.814  0.6505 -0.4441 -0.1333
 3499TIP3    H110503   4.250   2.517   1.854  1.8107  1.0358  0.2137
 3499TIP3    H210504   4.319   2.494   1.721 -0.0924 -1.4618 -0.4159
 3500TIP3   OH210505   5.010   3.804   4.746  0.0671 -0.0421  0.3846
 3500TIP3    H110506   4.960   3.761   4.676  1.2797 -0.5706 -0.1850
 3500TIP3    H210507   4.954   3.796   4.823 -0.9267 -0.2109 -0.3299
 3501TIP3   OH210508   4.409   0.126   1.381 -0.5939 -0.3830 -0.0215
 3501TIP3    H110509   4.398   0.206   1.330 -0.5805  0.0899  0.6979
 3501TIP3    H210510   4.423   0.058   1.316 -2.1476 -0.0746 -0.7343
 3502TIP3   OH210511   0.302   1.967   5.150  0.8608  0.1485  0.0723
 3502TIP3    H110512   0.302   1.922   5.065  0.2916  0.9040 -0.3399
 3502TIP3    H210513   0.255   1.907   5.208  1.3783 -0.4416 -0.0946
 3503TIP3   OH210514   4.249   5.889   4.181  0.4167 -0.0423 -0.2338
 3503TIP3    H110515   4.271   5.979   4.157  1.9973  0.0019  1.1833
 3503TIP3    H210516   4.306   5.835   4.126 -0.7469 -0.2079 -1.3000
 3504TIP3   OH210517   5.162   4.297   5.039  0.0398  0.2392  0.0894
 3504TIP3    H110518   5.238   4.269   4.987  0.6286  0.9447  0.5483
 3504TIP3    H210519   5.190   4.380   5.078  0.4070 -1.2202  3.1998
 3505TIP3   OH210520   1.741   0.071   3.629  0.0596 -0.1852 -0.0301
 3505TIP3    H110521   1.765   0.147   3.682  0.2264  0.2404 -0.6960
 3505TIP3    H210522   1.650   0.087   3.605  0.1275 -0.1429 -0.2598
 3506TIP3   OH210523   1.574   4.367   1.038  0.2573 -0.1400  0.1273
 3506TIP3    H110524   1.557   4.452   0.998 -1.5356 -0.5394 -0.0163
 3506TIP3    H210525   1.510   4.359   1.108 -0.3401 -1.8237 -0.5542
 3507TIP3   OH210526   5.181   4.837   3.043  0.3379 -0.5135 -0.4694
 3507TIP3    H110527   5.229   4.766   3.086  0.1044 -0.2816  0.1885
 3507TIP3    H210528   5.129   4.794   2.976 -0.9323 -1.1799  0.8733
 3508TIP3   OH210529   5.088   5.489   0.810  0.2729  0.7464  0.7070
 3508TIP3    H110530   4.998   5.498   0.841  0.4255  0.4903  1.2445
 3508TIP3    H210531   5.141   5.485   0.890  0.9226  2.3842  0.3988
 3509TIP3   OH210532   6.193   0.115   1.339  0.0562  0.0511 -0.4391
 3509TIP3    H110533   6.224   0.183   1.280 -1.6729  0.4374 -0.9551
 3509TIP3    H210534   6.263   0.104   1.402  0.9506  1.3159 -1.1743
 3510TIP3   OH210535   0.597   0.818   2.453  0.1940  0.1362  0.3874
 3510TIP3    H110536   0.550   0.901   2.461 -2.2028 -1.0490 -0.2979
 3510TIP3    H210537   0.643   0.825   2.369 -0.4848  0.5780  0.0372
 3511TIP3   OH210538   3.284   0.941   4.811  0.2375 -0.1846  0.2073
 3511TIP3    H110539   3.229   0.865   4.799 -0.4471  0.4490 -0.7985
 3511TIP3    H210540   3.370   0.906   4.835  0.5088 -1.3883 -2.2600
 3512TIP3   OH210541   3.686   3.643   3.592  0.4716  0.2970 -0.0095
 3512TIP3    H110542   3.757   3.684   3.543 -0.1452 -1.2757 -2.3956
 3512TIP3    H210543   3.621   3.712   3.604  0.0022  0.4254 -2.7949
 3513TIP3   OH210544   1.850   3.922   0.660 -0.0446 -0.3520  0.4042
 3513TIP3    H110545   1.764   3.889   0.632 -0.7584  1.8942 -0.2500
 3513TIP3    H210546   1.831   3.975   0.737  0.7173  0.3008  0.1573
 3514TIP3   OH210547   5.562   2.617   5.070  0.3072  0.6410  0.2479
 3514TIP3    H110548   5.562   2.547   5.004  0.8917  0.5791  0.3091
 3514TIP3    H210549   5.507   2.685   5.033 -1.6132 -0.4816  0.8672
 3515TIP3   OH210550   1.145   2.871   1.072 -0.8425 -0.1550 -0.3286
 3515TIP3    H110551   1.109   2.817   1.142 -0.7048 -0.6380 -0.6252
 3515TIP3    H210552   1.098   2.842   0.994 -0.8681  0.2580 -0.4663
 3516TIP3   OH210553   1.715   4.094   2.479 -0.0583 -0.1575  0.2818
 3516TIP3    H110554   1.785   4.159   2.473  1.3380 -1.2834  2.8222
 3516TIP3    H210555   1.720   4.062   2.569 -1.1878 -3.2080 -0.6254
 3517TIP3   OH210556   1.104   0.509   0.917  0.6814 -0.3649  0.5189
 3517TIP3    H110557   1.018   0.509   0.959  0.5103  1.0398  0.2207
 3517TIP3    H210558   1.085   0.491   0.824  0.7059 -0.0055  0.4444
 3518TIP3   OH210559   2.926   2.639   5.048  0.3445  0.8642  0.1606
 3518TIP3    H110560   3.021   2.640   5.061  0.1900  2.0091  1.3973
 3518TIP3    H210561   2.902   2.732   5.040 -0.8967  0.7394  1.8758
 3519TIP3   OH210562   2.075   1.392   1.758 -0.4097 -0.3436  0.2703
 3519TIP3    H110563   2.088   1.407   1.852  0.4795  1.4469 -0.0989
 3519TIP3    H210564   2.051   1.299   1.752 -0.7908 -0.4218  2.2808
 3520TIP3   OH210565   6.095   1.249   2.200 -0.7872 -0.2940  0.0233
 3520TIP3    H110566   6.090   1.181   2.266  0.0475  0.7338  1.1978
 3520TIP3    H210567   6.148   1.318   2.240 -2.3846  1.4754 -0.7137
 3521TIP3   OH210568   3.575   2.658   4.321  0.0413  0.0886 -0.0775
 3521TIP3    H110569   3.493   2.707   4.308  0.6500  1.0925 -0.2517
 3521TIP3    H210570   3.610   2.693   4.403 -0.0171 -0.8032  0.3356
 3522TIP3   OH210571   4.783   5.245   2.642  0.4613  0.2276 -0.1263
 3522TIP3    H110572   4.708   5.211   2.692  2.0745  0.9494  3.0637
 3522TIP3    H210573   4.771   5.340   2.645  1.0095  0.3043 -0.4432
 3523TIP3   OH210574   1.082   5.364   3.754 -0.2526 -0.7584 -0.0001
 3523TIP3    H110575   1.122   5.299   3.697 -2.1032  0.2183 -2.6185
 3523TIP3    H210576   0.998   5.383   3.713 -0.1707  2.6421  1.1156
 3524TIP3   OH210577   2.655   4.623   0.319  0.2002 -0.6630  0.1024
 3524TIP3    H110578   2.585   4.572   0.361 -0.7412  1.0436  0.7013
 3524TIP3    H210579   2.694   4.673   0.390  0.7329 -0.1491 -0.5395
 3525TIP3   OH210580   0.645   0.090   3.546  0.2647  0.1673 -0.3797
 3525TIP3    H110581   0.585   0.039   3.600  0.4611  0.6915  0.3472
 3525TIP3    H210582   0.610   0.082   3.457  0.1421 -1.0015 -0.2481
 3526TIP3   OH210583   2.547   3.924   1.751 -0.2881  0.1481 -0.5978
 3526TIP3    H110584   2.619   3.980   1.780  0.3658 -1.3925  0.9367
 3526TIP3    H210585   2.505   3.895   1.832 -1.2936 -0.6959 -1.3893
 3527TIP3   OH210586   2.815   5.470   0.472 -0.4394  0.2711 -0.3605
 3527TIP3    H110587   2.812   5.407   0.544 -1.4236 -0.4927 -1.0510
 3527TIP3    H210588   2.729   5.513   0.475  0.6101  2.4372  0.8268
 3528TIP3   OH210589   1.982   1.025   1.315 -0.6998 -0.0342 -0.2432
 3528TIP3    H110590   2.049   0.965   1.284 -0.8921  0.1589 -1.0470
 3528TIP3    H210591   1.973   1.089   1.245 -1.9081 -0.2035 -0.2556
 3529TIP3   OH210592   4.420   2.760   3.165  0.0380 -0.7103  0.1191
 3529TIP3    H110593   4.326   2.776   3.173  0.1493 -0.2231  0.5065
 3529TIP3    H210594   4.431   2.732   3.074 -0.4620 -0.6283  0.0280
 3530TIP3   OH210595   2.686   1.787   2.727 -0.7659 -0.1734 -0.2411
 3530TIP3    H110596   2.608   1.740   2.697 -1.1156  1.2496 -1.7421
 3530TIP3    H210597   2.653   1.871   2.759  0.0718  0.1660 -0.2275
 3531TIP3   OH210598   4.765   5.762   0.782  0.4278  0.0089 -0.2149
 3531TIP3    H110599   4.720   5.814   0.848  0.4332 -0.1379 -0.0940
 3531TIP3    H210600   4.749   5.671   0.809 -0.5919 -0.0913 -1.0894
 3532TIP3   OH210601   2.473   5.777   1.426 -0.0654 -0.0364 -0.0522
 3532TIP3    H110602   2.395   5.782   1.481  0.0902  0.5773  0.1128
 3532TIP3    H210603   2.463   5.848   1.363  0.1927 -0.1769 -0.2546
 3533TIP3   OH210604   3.974   5.883   4.311  0.3797  0.2414  0.1033
 3533TIP3    H110605   3.895   5.876   4.365  0.4638  1.9192  0.4732
 3533TIP3    H210606   3.999   5.792   4.296 -1.2169 -0.3230  0.5667
 3534TIP3   OH210607   4.417   2.604   0.100 -0.4399  0.4590 -0.0612
 3534TIP3    H110608   4.383   2.535   0.044 -0.5678  1.3593 -1.1411
 3534TIP3    H210609   4.429   2.679   0.041 -0.6126  1.4577  1.1275
 3535TIP3   OH210610   0.912   4.202   4.969 -0.4433  0.3545  0.4213
 3535TIP3    H110611   0.833   4.148   4.968 -1.5426  1.8703  1.3093
 3535TIP3    H210612   0.950   4.191   4.882 -1.4652 -0.6397  0.0845
 3536TIP3   OH210613   5.975   3.109   3.737 -0.5056  0.0756  0.1012
 3536TIP3    H110614   6.031   3.143   3.667 -1.1536 -0.7370 -0.8406
 3536TIP3    H210615   6.036   3.078   3.804  0.1845 -0.9043 -0.9543
 3537TIP3   OH210616   4.878   2.950   1.889 -0.0654 -0.2692 -0.7103
 3537TIP3    H110617   4.786   2.924   1.885 -0.3048  0.1821  0.9761
 3537TIP3    H210618   4.879   3.039   1.854 -0.6856  0.5880  1.3416
 3538TIP3   OH210619   2.162   1.946   1.743 -0.5282 -0.1383 -0.1121
 3538TIP3    H110620   2.107   1.900   1.807  0.7534 -0.6410  0.6591
 3538TIP3    H210621   2.180   1.880   1.676  0.8381 -0.6442  0.7061
 3539TIP3   OH210622   0.833   5.205   1.542  0.1264 -0.2164 -1.0385
 3539TIP3    H110623   0.770   5.134   1.551 -0.8372  0.6946 -0.4717
 3539TIP3    H210624   0.789   5.282   1.578  1.3498  0.5616 -1.1386
 3540TIP3   OH210625   0.929   0.213   3.928  0.5706 -0.0932  0.2163
 3540TIP3    H110626   1.007   0.156   3.933  0.9373  0.3714 -0.1881
 3540TIP3    H210627   0.857   0.153   3.910  1.2046 -0.2703 -2.0624
 3541TIP3   OH210628   2.230   4.146   1.812  0.2309 -0.0048  0.1968
 3541TIP3    H110629   2.296   4.106   1.756 -0.6922 -1.1733 -0.0880
 3541TIP3    H210630   2.148   4.137   1.764 -0.0586  2.1714  0.1642
 3542TIP3   OH210631   4.582   1.777   0.404 -0.0580 -0.0110 -0.1545
 3542TIP3    H110632   4.634   1.737   0.334 -0.3480 -2.0376  0.7291
 3542TIP3    H210633   4.627   1.754   0.485 -2.3300 -2.0065  0.6585
 3543TIP3   OH210634   1.763   4.246   3.089  0.0710 -0.0974 -1.0257
 3543TIP3    H110635   1.794   4.161   3.119  1.0230  0.5515 -0.1181
 3543TIP3    H210636   1.766   4.240   2.993  1.2400 -0.6876 -0.9673
 3544TIP3   OH210637   0.678   0.348   3.632  0.2214 -0.5881 -0.1724
 3544TIP3    H110638   0.676   0.406   3.556  0.2595 -0.7923 -0.3283
 3544TIP3    H210639   0.668   0.260   3.596  3.0394 -0.9705 -0.2266
 3545TIP3   OH210640   5.897   3.434   2.397  0.1474 -0.4125  0.4762
 3545TIP3    H110641   5.856   3.433   2.311 -1.0310 -2.3245  1.0072
 3545TIP3    H210642   5.951   3.356   2.399 -0.9529 -1.1927  1.9300
 3546TIP3   OH210643   5.530   3.458   3.928 -0.1030  0.2810 -0.1055
 3546TIP3    H110644   5.607   3.468   3.984 -1.0438  0.8139  1.1412
 3546TIP3    H210645   5.556   3.393   3.863  1.6393  1.0021 -0.1705
 3547TIP3   OH210646   4.838   1.141   4.440 -0.0129  0.1446  0.3067
 3547TIP3    H110647   4.903   1.203   4.473  0.9642  0.2813 -1.7483
 3547TIP3    H210648   4.868   1.055   4.471  0.1452  0.4051  0.8808
 3548TIP3   OH210649   4.727   2.308   1.943 -0.2269 -0.2291  0.2141
 3548TIP3    H110650   4.639   2.344   1.927 -0.1081 -0.5471 -1.3608
 3548TIP3    H210651   4.781   2.385   1.960 -1.0462 -0.1176  2.7146
 3549TIP3   OH210652   2.831   5.079   0.443  0.3274  0.2711 -0.3044
 3549TIP3    H110653   2.863   4.997   0.482 -1.8490  0.1955  1.5901
 3549TIP3    H210654   2.840   5.143   0.513 -1.8263  0.6235 -0.2582
 3550TIP3   OH210655   3.404   1.725   1.311 -0.0424 -0.4067 -0.2185
 3550TIP3    H110656   3.420   1.667   1.385  1.5784 -0.3639 -0.4973
 3550TIP3    H210657   3.410   1.668   1.234  0.2873 -0.1042 -0.4229
 3551TIP3   OH210658   2.138   2.257   1.194  0.3421  0.0789  0.0882
 3551TIP3    H110659   2.224   2.254   1.152 -0.4770  1.0380 -1.7640
 3551TIP3    H210660   2.145   2.197   1.268  1.8861 -1.6615 -1.3900
 3552TIP3   OH210661   0.878   5.179   2.657  0.1206 -0.3866  0.0932
 3552TIP3    H110662   0.797   5.227   2.639 -1.0032 -1.4971  1.8541
 3552TIP3    H210663   0.856   5.124   2.731  3.2564  1.1649  2.3871
 3553TIP3   OH210664   5.924   0.138   2.249  0.3618 -0.2172 -0.3884
 3553TIP3    H110665   5.881   0.199   2.190  0.1934  1.2411  1.1684
 3553TIP3    H210666   5.864   0.129   2.323  0.7632 -1.6573 -0.1971
 3554TIP3   OH210667   0.230   4.453   3.224 -0.2476 -0.0714 -0.2811
 3554TIP3    H110668   0.169   4.387   3.259 -0.4055 -0.0851 -0.5812
 3554TIP3    H210669   0.223   4.526   3.286 -0.7096  0.0002 -0.4151
 3555TIP3   OH210670   1.199   2.290   1.410 -0.4852 -0.6757  0.6525
 3555TIP3    H110671   1.205   2.382   1.384  0.6925 -0.7815  0.5056
 3555TIP3    H210672   1.146   2.291   1.490 -0.9522  0.0621  0.3456
 3556TIP3   OH210673   5.150   2.727   4.236  0.2795  0.0675 -0.0290
 3556TIP3    H110674   5.057   2.727   4.217  0.5752 -0.3565 -1.5814
 3556TIP3    H210675   5.172   2.819   4.250 -0.1469  0.3041 -0.8733
 3557TIP3   OH210676   4.716   4.831   3.949  0.2037 -0.0337  0.2839
 3557TIP3    H110677   4.684   4.756   3.898 -0.3392 -0.1328  0.7634
 3557TIP3    H210678   4.645   4.851   4.009  1.3488 -0.7901  1.9605
 3558TIP3   OH210679   5.828   2.986   1.286  0.4543  0.4634 -0.1128
 3558TIP3    H110680   5.859   2.910   1.336  2.9605  1.5330  0.0865
 3558TIP3    H210681   5.750   3.015   1.334  0.1431 -1.2295  0.4949
 3559TIP3   OH210682   5.512   1.766   2.498  0.1479 -0.0979 -0.2573
 3559TIP3    H110683   5.523   1.704   2.570  1.8325  2.5521  1.9725
 3559TIP3    H210684   5.546   1.721   2.421  0.3195 -2.2862  1.0369
 3560TIP3   OH210685   0.726   0.937   0.246  0.1529 -0.6288 -0.4582
 3560TIP3    H110686   0.723   1.025   0.208  1.5595 -0.3333  0.0692
 3560TIP3    H210687   0.647   0.931   0.300 -0.1835  0.1356 -0.8517
 3561TIP3   OH210688   3.499   0.926   3.875  0.1777  0.4146  0.1734
 3561TIP3    H110689   3.588   0.959   3.888  0.8731 -1.1671 -0.3316
 3561TIP3    H210690   3.503   0.835   3.904 -1.2802  0.3052  0.0968
 3562TIP3   OH210691   2.587   5.270   1.062  0.0898 -0.5264 -0.1473
 3562TIP3    H110692   2.668   5.227   1.091  0.3539 -0.5988 -0.9817
 3562TIP3    H210693   2.593   5.272   0.967 -0.6139  0.0258 -0.1883
 3563TIP3   OH210694   5.342   4.742   3.430  0.1091 -0.9340 -0.0684
 3563TIP3    H110695   5.332   4.837   3.432  1.3537 -0.6867 -2.1628
 3563TIP3    H210696   5.283   4.710   3.499 -1.1760  1.2570 -0.0490
 3564TIP3   OH210697   5.220   5.010   2.741 -0.1078  0.3352 -0.0114
 3564TIP3    H110698   5.284   4.942   2.719 -1.0682 -0.2054 -1.2957
 3564TIP3    H210699   5.159   4.966   2.800 -1.5280 -0.4034 -1.9471
 3565TIP3   OH210700   0.351   0.398   3.332 -0.0595 -0.3130  0.0717
 3565TIP3    H110701   0.301   0.388   3.251 -0.3446 -1.7096  0.4016
 3565TIP3    H210702   0.435   0.435   3.303 -0.1827 -0.7275 -0.8577
 3566TIP3   OH210703   6.163   1.789   3.625 -0.1640  0.0852 -0.2006
 3566TIP3    H110704   6.131   1.875   3.599 -0.0573 -0.2159 -1.3741
 3566TIP3    H210705   6.084   1.739   3.646 -0.3006  0.0994 -0.6856
 3567TIP3   OH210706   1.064   5.864   1.208  0.5490  0.1384  0.1735
 3567TIP3    H110707   1.038   5.862   1.116 -0.2557 -0.2483  0.3978
 3567TIP3    H210708   0.986   5.894   1.255  0.0086 -2.3071  1.0069
 3568TIP3   OH210709   3.308   0.394   4.384  0.2499 -0.1985 -0.3353
 3568TIP3    H110710   3.253   0.471   4.376 -0.4795 -0.4378  1.6733
 3568TIP3    H210711   3.254   0.331   4.432  1.8351 -0.8553  0.6863
 3569TIP3   OH210712   2.538   5.187   1.880  0.3513  0.3562 -0.5584
 3569TIP3    H110713   2.600   5.158   1.812  0.8222  2.1816 -0.9444
 3569TIP3    H210714   2.470   5.234   1.832 -0.1561  0.2922  0.0888
 3570TIP3   OH210715   3.179   4.601   2.438  0.4851  0.1518  0.4347
 3570TIP3    H110716   3.173   4.696   2.452  1.7408  0.4278 -0.6141
 3570TIP3    H210717   3.218   4.567   2.518 -0.0263  0.5185  0.8403
 3571TIP3   OH210718   5.649   0.553   3.081  0.0057  0.6236 -0.4648
 3571TIP3    H110719   5.580   0.537   3.017 -1.6012 -3.1369  1.8416
 3571TIP3    H210720   5.602   0.572   3.163  1.8068  0.8498  0.5816
 3572TIP3   OH210721   4.519   2.772   3.417 -0.1500 -0.1816  0.1648
 3572TIP3    H110722   4.473   2.783   3.334  0.4677  1.0418 -0.0378
 3572TIP3    H210723   4.467   2.820   3.481  0.8569  1.3143 -0.0891
 3573TIP3   OH210724   2.339   2.937   1.165  0.1020  0.0333  0.0452
 3573TIP3    H110725   2.280   3.012   1.162  0.8296  0.6027 -0.5898
 3573TIP3    H210726   2.340   2.910   1.257 -1.7956 -0.5417 -0.0511
 3574TIP3   OH210727   5.483   2.769   1.428  0.1273  0.3519 -0.4216
 3574TIP3    H110728   5.577   2.788   1.433  0.0754  0.3850  0.6138
 3574TIP3    H210729   5.444   2.823   1.497 -0.4905 -0.6622  0.0493
 3575TIP3   OH210730   4.409   5.057   4.288  0.9128  0.3775 -0.2895
 3575TIP3    H110731   4.385   5.076   4.379  3.0830  0.8464  0.2250
 3575TIP3    H210732   4.410   5.143   4.245 -1.6290  0.0326 -1.2358
 3576TIP3   OH210733   6.188   4.601   2.895 -0.5738  0.5754  0.4048
 3576TIP3    H110734   6.177   4.590   2.801  2.7754 -3.5083  0.1919
 3576TIP3    H210735   6.145   4.525   2.933  0.2696  0.8055  1.9153
 3577TIP3   OH210736   4.276   4.950   2.606  0.1499 -0.2153  0.2147
 3577TIP3    H110737   4.256   5.024   2.664 -1.3121 -0.7220  0.4052
 3577TIP3    H210738   4.207   4.886   2.624  0.7380 -1.1620 -0.7607
 3578TIP3   OH210739   4.960   3.182   1.754  0.2583 -0.3386  0.0771
 3578TIP3    H110740   4.914   3.227   1.825  0.0601 -0.5895  0.1081
 3578TIP3    H210741   4.900   3.189   1.679 -0.2822 -1.5334  0.3778
 3579TIP3   OH210742   0.580   1.507   4.142 -0.0664  0.0626  0.2036
 3579TIP3    H110743   0.511   1.501   4.075  0.4847 -1.7996 -0.2508
 3579TIP3    H210744   0.644   1.569   4.105 -0.5490  0.3097 -0.2424
 3580TIP3   OH210745   4.733   4.060   0.155 -0.5547  0.0641  0.1906
 3580TIP3    H110746   4.752   4.070   0.248  0.3867  0.4062 -0.0275
 3580TIP3    H210747   4.668   3.989   0.151 -0.2353 -0.2902  1.0702
 3581TIP3   OH210748   2.205   1.816   4.283 -0.0666  0.4293  1.1888
 3581TIP3    H110749   2.245   1.870   4.352  2.5205  0.8436 -0.5180
 3581TIP3    H210750   2.205   1.872   4.206 -0.2113 -0.9813  0.1257
 3582TIP3   OH210751   2.037   5.422   3.878  0.0372  0.4682  0.8226
 3582TIP3    H110752   2.060   5.456   3.791  2.1029 -0.2538  1.0499
 3582TIP3    H210753   2.108   5.362   3.900 -1.8732 -1.6001  1.8050
 3583TIP3   OH210754   4.533  -0.015   4.381 -0.7493  0.3769  0.4121
 3583TIP3    H110755   4.454   0.010   4.429 -0.7667  2.1280 -0.4668
 3583TIP3    H210756   4.580   0.067   4.366 -0.9841  0.0493 -2.9455
 3584TIP3   OH210757   1.054   3.449   2.936 -0.2141  0.1455  0.0523
 3584TIP3    H110758   1.040   3.510   2.863 -1.3305 -0.2251 -0.0521
 3584TIP3    H210759   1.118   3.386   2.902 -1.2748 -0.4564 -0.8789
 3585TIP3   OH210760   1.642   1.264   4.564  0.0354  0.3548  0.4098
 3585TIP3    H110761   1.677   1.231   4.481  0.2313 -1.6234  1.2157
 3585TIP3    H210762   1.550   1.285   4.544  0.0721 -0.1215 -0.3229
 3586TIP3   OH210763   1.120   4.926   0.123  0.3587 -0.0923  0.1010
 3586TIP3    H110764   1.184   4.962   0.184 -0.2731  1.3514 -0.0474
 3586TIP3    H210765   1.087   4.848   0.167  1.5737 -0.3590  0.5702
 3587TIP3   OH210766   1.006   1.514   4.365  0.7617  0.1364  0.1899
 3587TIP3    H110767   0.921   1.472   4.380  0.8052  0.5251  1.7646
 3587TIP3    H210768   1.050   1.457   4.303 -0.5271 -0.2287 -0.4415
 3588TIP3   OH210769   4.287   4.777   1.309  0.1764 -0.1657  0.0450
 3588TIP3    H110770   4.324   4.844   1.251  1.2429 -1.2371 -0.5694
 3588TIP3    H210771   4.194   4.774   1.286  0.3500  0.2672 -0.7611
 3589TIP3   OH210772   0.424   1.062   2.435 -0.0481  0.4085 -0.2008
 3589TIP3    H110773   0.466   1.085   2.352 -0.4107  0.7564 -0.2921
 3589TIP3    H210774   0.431   1.141   2.488 -0.6855  0.5071 -0.2580
 3590TIP3   OH210775   1.103   2.060   2.531 -0.0239  0.0098  0.4362
 3590TIP3    H110776   1.074   2.055   2.440 -1.3826  0.1512  0.8334
 3590TIP3    H210777   1.069   1.980   2.571  1.0826 -0.3477  0.6954
 3591TIP3   OH210778   0.613   2.773   4.791 -0.0771 -0.2998  0.3057
 3591TIP3    H110779   0.601   2.860   4.829  0.8921  0.1024 -0.2605
 3591TIP3    H210780   0.574   2.780   4.704 -0.1316 -0.4872  0.3152
 3592TIP3   OH210781   0.779   4.047   0.626  0.2388 -0.2869  0.0273
 3592TIP3    H110782   0.723   3.971   0.641 -1.5175  0.8753 -0.3755
 3592TIP3    H210783   0.811   4.035   0.536  0.7382 -1.0000  0.2892
 3593TIP3   OH210784   4.874   5.033   3.837  0.1142  0.2852 -0.3088
 3593TIP3    H110785   4.840   4.969   3.900 -0.1668  1.2538  0.5502
 3593TIP3    H210786   4.795   5.075   3.802  0.1181 -1.7137 -2.9612
 3594TIP3   OH210787   3.900   2.419   0.462  0.3640 -0.0766 -0.5687
 3594TIP3    H110788   3.823   2.455   0.418  0.5048 -0.4139 -1.1133
 3594TIP3    H210789   3.906   2.329   0.429  2.2452  0.5985 -2.2477
 3595TIP3   OH210790   3.886   2.546   3.336 -0.0879  0.2484 -0.0245
 3595TIP3    H110791   3.942   2.525   3.261  2.0646 -1.3207  1.8871
 3595TIP3    H210792   3.942   2.533   3.412 -2.3236  1.3029  1.9163
 3596TIP3   OH210793   0.326   5.917   3.731  0.0126  0.6411 -0.1943
 3596TIP3    H110794   0.370   5.996   3.698 -0.2208  0.4836 -0.8891
 3596TIP3    H210795   0.391   5.876   3.788  0.6958  0.5290 -1.0298
 3597TIP3   OH210796   2.819   5.434   4.165  0.5757 -0.3967  0.1266
 3597TIP3    H110797   2.846   5.343   4.151 -0.0473 -0.5850  0.1574
 3597TIP3    H210798   2.873   5.484   4.103  2.3439 -0.5544  1.4653
 3598TIP3   OH210799   0.342   1.731   2.722  0.0654 -0.2571 -0.0844
 3598TIP3    H110800   0.287   1.661   2.688 -0.4613  0.9286 -1.8374
 3598TIP3    H210801   0.431   1.703   2.703 -0.2051  0.3585 -2.6468
 3599TIP3   OH210802   1.443   1.542   4.439  0.5907  0.6853  0.4070
 3599TIP3    H110803   1.429   1.454   4.473 -0.1208  0.0302 -1.4261
 3599TIP3    H210804   1.365   1.591   4.467 -0.1941  0.0423 -0.5865
 3600TIP3   OH210805   5.967   5.527   2.601  0.3569  0.2199 -0.1894
 3600TIP3    H110806   5.916   5.508   2.680  0.2284 -0.6389 -0.4795
 3600TIP3    H210807   6.043   5.576   2.634  1.1090 -1.4625  0.6831
 3601TIP3   OH210808   2.643   0.743   0.965 -0.2907 -0.2032  0.3818
 3601TIP3    H110809   2.700   0.806   0.922 -1.3455  0.3824 -0.2071
 3601TIP3    H210810   2.686   0.658   0.954 -0.7553 -0.1714 -2.3338
 3602TIP3   OH210811   3.570   0.960   4.779  0.2766  0.3063  0.9858
 3602TIP3    H110812   3.639   1.020   4.809  0.9628 -0.3881  0.8293
 3602TIP3    H210813   3.604   0.873   4.800 -0.3624 -0.0643  0.5001
 3603TIP3   OH210814   4.833   3.486   1.225  0.1577  0.3661  0.2160
 3603TIP3    H110815   4.791   3.567   1.199 -0.1426 -0.1105 -0.8438
 3603TIP3    H210816   4.862   3.501   1.316 -3.3656  0.3290  1.4892
 3604TIP3   OH210817   0.760   5.663   2.962  0.1386  0.2460  0.4705
 3604TIP3    H110818   0.668   5.641   2.976  0.2845 -0.8747 -0.2414
 3604TIP3    H210819   0.801   5.650   3.048 -0.3743  0.8881  0.8275
 3605TIP3   OH210820   4.295   1.301   0.379  0.2509  0.3094  0.0856
 3605TIP3    H110821   4.366   1.261   0.429  0.0146 -0.0289  0.1511
 3605TIP3    H210822   4.334   1.382   0.344  0.6154  0.2153  0.2617
 3606TIP3   OH210823   5.095   4.033   4.533  0.1534 -0.5760 -0.0846
 3606TIP3    H110824   5.149   4.102   4.571 -1.2756  1.1877 -1.1223
 3606TIP3    H210825   5.050   3.994   4.608  0.5857 -0.0273  0.4662
 3607TIP3   OH210826   5.660   0.440   4.575  0.2935  0.4761 -0.7593
 3607TIP3    H110827   5.713   0.367   4.544  1.6314  0.1647  2.0392
 3607TIP3    H210828   5.594   0.400   4.633  0.8761  1.4156  0.5939
 3608TIP3   OH210829   6.175   5.734   0.905 -0.2952  0.5057  0.0808
 3608TIP3    H110830   6.203   5.822   0.879 -0.2897  0.7116  0.7651
 3608TIP3    H210831   6.168   5.738   1.000 -1.3997  0.0865  0.0307
 3609TIP3   OH210832   5.945   5.196   1.324  0.2117  0.3753  0.0746
 3609TIP3    H110833   5.971   5.109   1.355 -0.1002  0.1870 -0.1826
 3609TIP3    H210834   5.850   5.198   1.337  0.2160  0.6717  0.0618
 3610TIP3   OH210835   3.007   3.439   1.585  0.5625  0.2647 -0.5039
 3610TIP3    H110836   3.054   3.392   1.516  0.4531 -0.2141 -0.2640
 3610TIP3    H210837   2.984   3.523   1.547  2.6801  1.0183 -0.2363
 3611TIP3   OH210838   2.621   3.661   2.124 -0.6326  0.4903  0.4474
 3611TIP3    H110839   2.712   3.683   2.105 -0.7079  0.5504  0.1541
 3611TIP3    H210840   2.585   3.634   2.039 -0.9520  0.6920  0.5211
 3612TIP3   OH210841   5.991   3.743   3.035 -0.3088  0.0466 -0.2147
 3612TIP3    H110842   5.956   3.654   3.037 -1.1712  0.3344 -1.6750
 3612TIP3    H210843   5.915   3.799   3.048  0.5150  0.6051  3.1068
 3613TIP3   OH210844   4.108   1.554   1.853 -0.2747 -0.2898  0.4517
 3613TIP3    H110845   4.181   1.572   1.794 -1.1047  2.7776  0.1650
 3613TIP3    H210846   4.104   1.459   1.859  1.1893 -0.6623 -2.7177
 3614TIP3   OH210847   4.385   3.463   0.736  0.3632 -0.9424  0.3814
 3614TIP3    H110848   4.373   3.436   0.827  0.8934 -1.9489  0.1614
 3614TIP3    H210849   4.371   3.383   0.685 -1.4785 -0.0844 -0.5542
 3615TIP3   OH210850   3.415   5.581   4.739 -0.1794  0.2423 -0.4420
 3615TIP3    H110851   3.423   5.580   4.835  1.7714 -0.8752 -0.5779
 3615TIP3    H210852   3.402   5.490   4.715  0.1900  0.4135 -1.3062
 3616TIP3   OH210853   4.270   2.154   5.137 -0.0965  0.0148 -0.5343
 3616TIP3    H110854   4.334   2.128   5.203 -2.2082  1.5796  2.3453
 3616TIP3    H210855   4.271   2.082   5.073  0.3237 -2.8812  2.4692
 3617TIP3   OH210856   4.840   4.287   3.279  0.3387 -0.2501 -0.2106
 3617TIP3    H110857   4.762   4.234   3.265  0.1321  0.1682 -0.6626
 3617TIP3    H210858   4.870   4.309   3.191 -0.1330  1.1732 -0.0437
 3618TIP3   OH210859   1.463   3.007   5.097  0.4589  0.4090 -0.3315
 3618TIP3    H110860   1.380   3.047   5.073  1.2413  1.6191 -1.1568
 3618TIP3    H210861   1.484   3.045   5.182  0.5516  0.7485 -0.5027
 3619TIP3   OH210862   3.048   2.108   4.643  0.0632  0.1756  0.0303
 3619TIP3    H110863   3.055   2.156   4.726  0.1579 -1.1404  0.8049
 3619TIP3    H210864   2.954   2.104   4.626  0.0341  0.3214  0.1444
 3620TIP3   OH210865   4.811   0.134   0.208  0.4038 -0.1142  0.6117
 3620TIP3    H110866   4.798   0.182   0.290  0.1015  0.2146  0.3767
 3620TIP3    H210867   4.732   0.082   0.198  0.2818  0.1175  0.3517
 3621TIP3   OH210868   5.630   5.073   0.968  0.3829 -0.3510 -0.3453
 3621TIP3    H110869   5.640   5.120   0.885  1.6351 -0.2555 -0.1598
 3621TIP3    H210870   5.713   5.027   0.980 -0.6640 -2.3044 -0.3047
 3622TIP3   OH210871   1.021   2.728   1.270 -0.1929  0.4253 -0.3795
 3622TIP3    H110872   1.068   2.651   1.300 -0.4728  0.1185 -0.7226
 3622TIP3    H210873   0.958   2.747   1.339 -0.5946 -0.0661 -0.6093
 3623TIP3   OH210874   4.985   2.578   0.791  0.0266 -0.0186 -0.3183
 3623TIP3    H110875   4.958   2.502   0.740  0.6242  0.3416 -1.1920
 3623TIP3    H210876   4.908   2.601   0.843 -0.9492  0.2358 -1.8103
 3624TIP3   OH210877   2.185   5.860   4.974 -0.1442 -0.6458 -0.2633
 3624TIP3    H110878   2.114   5.822   5.026 -2.0430  0.7811 -1.6674
 3624TIP3    H210879   2.148   5.940   4.937  1.7257 -0.6048 -2.2825
 3625TIP3   OH210880   3.654   3.760   4.948 -0.3303 -0.1615 -0.4269
 3625TIP3    H110881   3.584   3.820   4.923  0.1491 -0.2274 -2.0333
 3625TIP3    H210882   3.723   3.775   4.883  1.2106 -0.0093  1.1863
 3626TIP3   OH210883   2.723   5.515   0.771 -0.2869 -0.3292  0.1498
 3626TIP3    H110884   2.656   5.584   0.770 -0.0008 -0.0095 -1.9988
 3626TIP3    H210885   2.798   5.556   0.814 -0.8465 -0.0524  0.8847
 3627TIP3   OH210886   5.626   0.350   1.298 -0.1801  0.1207 -0.6837
 3627TIP3    H110887   5.595   0.366   1.210 -1.0330 -0.9509 -0.5909
 3627TIP3    H210888   5.653   0.258   1.298 -1.5967 -0.3316  0.5580
 3628TIP3   OH210889   1.081   2.911   0.370 -0.2213  0.3309  0.0601
 3628TIP3    H110890   1.063   2.925   0.277 -2.5913  2.7610  0.7747
 3628TIP3    H210891   1.023   2.839   0.395 -0.3872  0.4057 -0.1105
 3629TIP3   OH210892   4.874   0.987   3.839  0.0643 -0.5028  0.4310
 3629TIP3    H110893   4.812   1.030   3.780  0.6450 -1.8440 -1.2271
 3629TIP3    H210894   4.926   1.059   3.875 -1.7964  0.5633  1.1578
 3630TIP3   OH210895   2.499   0.031   0.582 -0.1885  0.9688  0.0980
 3630TIP3    H110896   2.547  -0.032   0.528  0.1444  2.2664 -1.1830
 3630TIP3    H210897   2.421   0.052   0.531 -1.2345  0.2453  1.3485
 3631TIP3   OH210898   1.522   2.028   0.730  0.1802 -0.3587 -0.1058
 3631TIP3    H110899   1.550   2.102   0.675 -0.8979 -0.1217 -0.3656
 3631TIP3    H210900   1.460   1.980   0.675 -0.5462 -0.3988  0.7238
 3632TIP3   OH210901   4.183   4.615   4.606  0.5656  0.1649 -0.1587
 3632TIP3    H110902   4.252   4.553   4.630  0.8728  0.0679 -1.2287
 3632TIP3    H210903   4.184   4.615   4.510 -1.1983 -0.1480 -0.1992
 3633TIP3   OH210904   3.372   5.876   0.354 -0.5100  0.0485  0.0719
 3633TIP3    H110905   3.406   5.798   0.310  0.3588 -0.2585  1.2226
 3633TIP3    H210906   3.337   5.931   0.284  0.3226 -0.6555 -0.9194
 3634TIP3   OH210907   0.456   5.165   4.571 -0.3864  0.1332  0.0577
 3634TIP3    H110908   0.472   5.216   4.491 -1.1657 -0.3267 -0.3935
 3634TIP3    H210909   0.363   5.175   4.589 -0.5329 -1.0487  0.0284
 3635TIP3   OH210910   3.569   0.365   4.266 -0.1286 -0.5371 -0.6077
 3635TIP3    H110911   3.495   0.364   4.327  1.0467 -0.4491  0.8616
 3635TIP3    H210912   3.582   0.458   4.246 -1.0761 -0.6253 -1.7382
 3636TIP3   OH210913   4.058   2.094   0.803  0.3306  0.4237  0.1464
 3636TIP3    H110914   4.121   2.148   0.852  1.1366  0.9077 -1.3691
 3636TIP3    H210915   4.083   2.004   0.825  0.4452  0.6237  0.8877
 3637TIP3   OH210916   3.546   5.542   2.126 -0.1962  0.1394  0.4195
 3637TIP3    H110917   3.568   5.512   2.214  2.0831 -1.8150 -0.7082
 3637TIP3    H210918   3.614   5.605   2.104 -1.7187  1.9533  0.5997
 3638TIP3   OH210919   1.960   1.252   1.496 -0.1208 -0.0015 -0.2267
 3638TIP3    H110920   1.981   1.199   1.419 -1.4935  0.1505 -0.7351
 3638TIP3    H210921   1.892   1.312   1.466  0.7951  1.4919  0.5669
 3639TIP3   OH210922   4.306   0.363   3.348 -0.0894  0.2136  0.5946
 3639TIP3    H110923   4.251   0.414   3.287  0.2061 -0.6465 -0.4256
 3639TIP3    H210924   4.378   0.331   3.293  0.5405 -0.0459  1.5566
 3640TIP3   OH210925   4.111   3.524   3.515  0.3200 -0.1969  0.0972
 3640TIP3    H110926   4.027   3.478   3.515 -0.3763  1.0117  0.5698
 3640TIP3    H210927   4.106   3.583   3.591  0.7726  1.2845 -0.9683
 3641TIP3   OH210928   1.734   2.928   2.188  0.0490  0.3282  0.0630
 3641TIP3    H110929   1.675   2.882   2.247 -2.0912  0.3229 -1.9604
 3641TIP3    H210930   1.716   3.021   2.203  2.2989  0.5298  2.0790
 3642TIP3   OH210931   6.195   4.102   0.327 -0.3077 -0.0786 -0.4932
 3642TIP3    H110932   6.151   4.031   0.376  0.1142 -1.1104 -1.5633
 3642TIP3    H210933   6.277   4.063   0.297 -0.4247  0.6187 -1.7686
 3643TIP3   OH210934   2.050   3.466   2.838  0.2621 -0.1285  0.6921
 3643TIP3    H110935   2.137   3.506   2.841  0.0480  0.2940  1.7273
 3643TIP3    H210936   2.023   3.477   2.747  1.0391  0.2979  0.4973
 3644TIP3   OH210937   5.560   2.783   0.177 -0.0878  0.2299 -0.8097
 3644TIP3    H110938   5.602   2.732   0.107  0.9116  0.2454 -0.2456
 3644TIP3    H210939   5.633   2.817   0.229 -0.8008 -1.2894  1.3259
 3645TIP3   OH210940   2.116   1.476   3.556  0.7783 -0.3675 -0.3464
 3645TIP3    H110941   2.026   1.475   3.522  1.1943  1.3132 -1.6257
 3645TIP3    H210942   2.135   1.569   3.571  2.6370 -0.5906 -1.0401
 3646TIP3   OH210943   1.967   4.837   4.691 -0.2151  0.1138  0.2778
 3646TIP3    H110944   1.914   4.827   4.770 -2.7453 -0.3929 -1.3894
 3646TIP3    H210945   2.057   4.821   4.721 -1.3711 -3.2821  2.5138
 3647TIP3   OH210946   4.416   3.966   3.959  0.3861  0.1210 -0.2525
 3647TIP3    H110947   4.427   4.045   4.013  0.3346 -0.6018  0.8338
 3647TIP3    H210948   4.346   3.917   4.002  1.1156 -1.0174 -0.3288
 3648TIP3   OH210949   5.078   4.612   1.126  0.3030 -0.2743  0.4615
 3648TIP3    H110950   5.142   4.643   1.190  2.1223  0.3068 -1.5124
 3648TIP3    H210951   5.044   4.691   1.085 -0.4486 -0.6623  0.3030
 3649TIP3   OH210952   1.848   3.650   0.926  0.2557  0.0258 -0.5421
 3649TIP3    H110953   1.755   3.636   0.942  0.0932 -1.5353 -2.4128
 3649TIP3    H210954   1.852   3.724   0.866  0.4990  2.1609  1.9475
 3650TIP3   OH210955   1.007   5.016   2.933  0.3162  0.2159 -0.4926
 3650TIP3    H110956   0.914   5.031   2.918  0.5285  1.7732 -0.4187
 3650TIP3    H210957   1.025   5.061   3.015  1.3504  0.8462 -1.0502
 3651TIP3   OH210958   2.486   4.387   2.781  0.2684  0.3524  0.2469
 3651TIP3    H110959   2.561   4.440   2.754  1.0089 -0.8848 -0.2188
 3651TIP3    H210960   2.410   4.434   2.747  0.8686  1.2805  0.1430
 3652TIP3   OH210961   5.438   1.863   4.478  0.4494  0.0627  0.6675
 3652TIP3    H110962   5.390   1.791   4.437  1.0978 -0.2064  0.3565
 3652TIP3    H210963   5.462   1.830   4.564  0.1312  0.1762  0.8012
 3653TIP3   OH210964   1.886   2.110   3.998 -0.1390  0.1159 -1.0931
 3653TIP3    H110965   1.884   2.204   4.016 -0.2420 -0.2903  1.4780
 3653TIP3    H210966   1.794   2.083   4.001  0.0440 -0.4483  0.9976
 3654TIP3   OH210967   5.625   3.252   2.871  0.4708  0.2929 -0.0153
 3654TIP3    H110968   5.589   3.260   2.782  1.0816 -0.7342 -0.3765
 3654TIP3    H210969   5.701   3.194   2.861 -0.7154 -1.6486  1.5063
 3655TIP3   OH210970   3.754   0.742   4.512 -0.1428 -0.2178 -0.0659
 3655TIP3    H110971   3.671   0.786   4.492 -0.1471 -0.0502  0.3069
 3655TIP3    H210972   3.770   0.763   4.604  0.8278  0.6046 -0.4018
 3656TIP3   OH210973   3.187   5.491   3.772 -0.6083 -0.5179  0.2875
 3656TIP3    H110974   3.269   5.450   3.742 -1.5858 -1.0249 -1.8811
 3656TIP3    H210975   3.206   5.584   3.774 -0.2315 -0.5360 -1.2157
 3657TIP3   OH210976   0.833   4.906   4.796  0.0121 -0.2043 -0.0419
 3657TIP3    H110977   0.774   4.869   4.862 -1.2649  0.9066 -0.5143
 3657TIP3    H210978   0.793   4.881   4.712 -1.2067  2.5556 -0.3904
 3658TIP3   OH210979   1.485   4.785   0.563  0.0289 -0.0237  0.2220
 3658TIP3    H110980   1.494   4.699   0.522 -3.9757  0.9432 -3.3908
 3658TIP3    H210981   1.404   4.778   0.615 -0.0574  1.4157  0.3214
 3659TIP3   OH210982   1.204   4.622   3.291  0.2761 -0.2044 -1.0676
 3659TIP3    H110983   1.197   4.673   3.372  0.3140 -0.1776 -1.0813
 3659TIP3    H210984   1.118   4.583   3.280 -0.1174  0.8017 -1.6756
 3660TIP3   OH210985   3.890   5.267   3.155 -0.6469  0.2063  0.0209
 3660TIP3    H110986   3.918   5.197   3.213 -0.4984 -1.0800 -1.5474
 3660TIP3    H210987   3.801   5.287   3.184 -1.5495 -2.1831 -0.8460
 3661TIP3   OH210988   2.700   2.635   1.796 -0.2964 -0.2314  0.5242
 3661TIP3    H110989   2.709   2.584   1.715  2.4631  0.4874  0.2785
 3661TIP3    H210990   2.728   2.575   1.865 -0.7149 -0.2202  0.7044
 3662TIP3   OH210991   0.641   2.659   1.477 -0.7263 -0.1017 -0.2097
 3662TIP3    H110992   0.631   2.666   1.572  0.7581 -1.7121  0.1209
 3662TIP3    H210993   0.704   2.729   1.455  0.3163 -0.8503  0.3003
 3663TIP3   OH210994   0.359   1.650   0.131  0.7246  0.2065  0.3376
 3663TIP3    H110995   0.422   1.675   0.064 -0.8552  1.2063 -0.8581
 3663TIP3    H210996   0.367   1.555   0.137  1.1180  0.1290 -1.0717
 3664TIP3   OH210997   4.945   2.306   0.056  0.1313  0.4262  0.0767
 3664TIP3    H110998   4.918   2.397   0.073 -1.3167  0.4313 -1.8732
 3664TIP3    H210999   5.008   2.287   0.125 -1.6760  1.9439  2.3227
 3665TIP3   OH211000   2.826   3.233   0.128 -0.1265  0.5115 -0.0663
 3665TIP3    H111001   2.758   3.265   0.187 -0.0721 -0.9688  0.8626
 3665TIP3    H211002   2.876   3.169   0.181 -0.3754 -1.2414 -1.8167
 3666TIP3   OH211003   2.979   5.305   4.794 -0.1758 -0.1243 -0.1831
 3666TIP3    H111004   3.054   5.286   4.738  1.7728  0.9150  1.8914
 3666TIP3    H211005   2.957   5.221   4.834  2.8176  0.1516  2.4486
 3667TIP3   OH211006   0.779   1.702   4.560 -0.4085 -0.3228 -0.0661
 3667TIP3    H111007   0.845   1.744   4.615 -1.2428 -0.4131  1.0294
 3667TIP3    H211008   0.824   1.626   4.523  0.7697  0.8335 -1.1487
 3668TIP3   OH211009   4.055   0.539   4.059 -0.2191  0.0211 -0.2246
 3668TIP3    H111010   4.051   0.444   4.050  0.6613 -0.0093 -0.3849
 3668TIP3    H211011   3.993   0.560   4.129 -0.0329 -0.7267  0.1715
 3669TIP3   OH211012   5.867   1.043   4.099 -0.1064  0.3291  0.2414
 3669TIP3    H111013   5.929   1.088   4.156 -0.8321 -0.0186  1.3426
 3669TIP3    H211014   5.860   1.099   4.021  1.0037  0.7454  0.4307
 3670TIP3   OH211015   4.133   0.419   2.674 -0.3624 -0.5541  0.1134
 3670TIP3    H111016   4.077   0.429   2.598  0.8258 -1.2754 -0.8900
 3670TIP3    H211017   4.201   0.486   2.664 -0.1104 -0.7521  0.4516
 3671TIP3   OH211018   1.517   1.496   2.540 -0.2764 -0.0086  0.1803
 3671TIP3    H111019   1.572   1.505   2.618 -0.2229 -0.5671  0.2096
 3671TIP3    H211020   1.494   1.403   2.537 -0.3975  0.0362 -0.3863
 3672TIP3   OH211021   0.724   1.734   0.529 -0.0012 -0.5843 -0.0509
 3672TIP3    H111022   0.772   1.786   0.464 -2.4483  0.8738 -0.8431
 3672TIP3    H211023   0.643   1.709   0.484 -1.6599  0.2225  2.3052
 3673TIP3   OH211024   3.708   5.037   1.795  0.1119  0.1846 -0.4094
 3673TIP3    H111025   3.803   5.037   1.782  0.3152 -2.6752  0.4716
 3673TIP3    H211026   3.694   5.096   1.869  0.8533  2.5725 -2.0519
 3674TIP3   OH211027   1.058   1.644   0.216  1.1263  0.3111 -0.0654
 3674TIP3    H111028   1.071   1.673   0.306  0.8056 -0.7860  0.3615
 3674TIP3    H211029   1.123   1.574   0.204  0.1614 -0.6089 -0.1428
 3675TIP3   OH211030   3.308   0.700   3.095  0.4911 -0.5331  0.0622
 3675TIP3    H111031   3.320   0.737   3.182  1.2534 -1.8577  0.5652
 3675TIP3    H211032   3.395   0.667   3.072  0.4197  0.2557 -1.4369
 3676TIP3   OH211033   2.793   3.658   0.043 -0.5611 -0.5729 -0.3322
 3676TIP3    H111034   2.735   3.665  -0.033 -0.2561  0.7732 -0.4678
 3676TIP3    H211035   2.739   3.683   0.118 -0.6623 -1.1889 -0.1922
 3677TIP3   OH211036   0.943   5.345   3.464  0.1238 -0.3323 -0.0105
 3677TIP3    H111037   0.932   5.267   3.410  1.2653 -0.1277 -0.5672
 3677TIP3    H211038   0.948   5.417   3.402  0.5659  0.0097  0.4090
 3678TIP3   OH211039   0.044   5.132   1.425  0.0772 -0.4053 -0.2016
 3678TIP3    H111040  -0.040   5.157   1.463 -0.0901 -0.8930 -0.2419
 3678TIP3    H211041   0.021   5.084   1.345  0.3700 -0.9931  0.0574
 3679TIP3   OH211042   5.078   1.944   3.851  0.2721 -0.4868 -0.2174
 3679TIP3    H111043   5.091   2.007   3.922 -0.2107 -0.4950 -0.1207
 3679TIP3    H211044   5.155   1.887   3.856  0.6637  0.0346 -0.2485
 3680TIP3   OH211045   3.316   3.657   2.532  0.3885 -0.3120  0.6674
 3680TIP3    H111046   3.381   3.611   2.478  1.1013  0.7734  0.5733
 3680TIP3    H211047   3.281   3.589   2.590 -0.4883 -1.5435 -1.2196
 3681TIP3   OH211048   1.210   3.671   0.762 -0.4906  0.3122  0.0819
 3681TIP3    H111049   1.119   3.647   0.744 -0.4602  1.0720 -1.2257
 3681TIP3    H211050   1.222   3.653   0.855 -1.9366  0.0466  0.2344
 3682TIP3   OH211051   1.208   1.516   2.768 -0.0804  0.6886  0.3357
 3682TIP3    H111052   1.221   1.453   2.697 -1.0308  0.7569  0.0885
 3682TIP3    H211053   1.296   1.532   2.803  0.1707 -0.8823  0.4932
 3683TIP3   OH211054   3.472   4.170   4.820 -0.3466  0.0784  0.5918
 3683TIP3    H111055   3.408   4.099   4.811  0.7328 -0.6963 -1.3896
 3683TIP3    H211056   3.419   4.249   4.830 -1.6160 -0.6273 -0.3249
 3684TIP3   OH211057   1.782   2.276   4.977  0.0444 -0.0462 -0.3836
 3684TIP3    H111058   1.701   2.298   4.931 -0.1397  1.0629  0.4391
 3684TIP3    H211059   1.803   2.187   4.948 -0.4110  0.3767 -2.0849
 3685TIP3   OH211060   1.301   4.448   1.799 -0.0722  0.2670 -0.4819
 3685TIP3    H111061   1.347   4.530   1.780  0.4488  0.1132  0.0914
 3685TIP3    H211062   1.224   4.450   1.742 -0.6247  1.6387  0.2468
 3686TIP3   OH211063   2.447   2.079   4.074  0.1594 -0.3057 -0.4042
 3686TIP3    H111064   2.494   2.006   4.113 -1.6975 -0.2620  2.1934
 3686TIP3    H211065   2.355   2.053   4.077 -0.5350  1.9433  0.2881
 3687TIP3   OH211066   1.295   0.705   0.961 -0.3137 -0.1217 -0.3629
 3687TIP3    H111067   1.256   0.729   1.045 -0.5494  1.8746 -0.9795
 3687TIP3    H211068   1.243   0.631   0.930 -0.9223 -0.1744  0.7402
 3688TIP3   OH211069   3.052   1.008   0.566  0.4093 -0.1630 -0.3118
 3688TIP3    H111070   3.094   1.076   0.619  2.9841 -1.1252 -0.9738
 3688TIP3    H211071   2.966   0.996   0.606  0.4925  2.3299  0.7867
 3689TIP3   OH211072   0.798   1.643   4.026 -0.4879  0.4867 -0.2099
 3689TIP3    H111073   0.845   1.726   4.038 -0.0683  0.2538 -0.2256
 3689TIP3    H211074   0.831   1.609   3.943  0.0757 -0.1721  0.2763
 3690TIP3   OH211075   4.771   1.798   2.794  0.1345  0.1017 -0.4162
 3690TIP3    H111076   4.784   1.885   2.832 -2.6702  0.7708 -0.7814
 3690TIP3    H211077   4.787   1.809   2.701  2.2346 -0.4389 -0.1890
 3691TIP3   OH211078   0.541   0.864   0.527 -0.4951 -0.3922 -0.0001
 3691TIP3    H111079   0.579   0.804   0.592  0.9231  0.0761 -0.3555
 3691TIP3    H211080   0.539   0.949   0.572  0.6076 -0.0413 -0.5772
 3692TIP3   OH211081   2.457   0.371   4.940 -0.3036 -0.2450  0.6380
 3692TIP3    H111082   2.401   0.445   4.919  0.3413  0.2233  0.5152
 3692TIP3    H211083   2.544   0.410   4.952 -0.1535 -0.8339  1.6284
 3693TIP3   OH211084   0.276   3.210   4.862 -0.4628  0.1267 -0.0495
 3693TIP3    H111085   0.226   3.188   4.941 -0.8948 -0.0768 -0.3726
 3693TIP3    H211086   0.236   3.292   4.832 -0.7879 -0.1747 -0.4563
 3694TIP3   OH211087   3.308   3.827   4.436 -0.5363  0.9157 -0.8457
 3694TIP3    H111088   3.292   3.733   4.427  1.5948  0.5422 -1.2230
 3694TIP3    H211089   3.319   3.840   4.530 -1.1880  0.8737 -0.7566
 3695TIP3   OH211090   3.502   4.508   3.737 -0.1774  0.0934  0.0723
 3695TIP3    H111091   3.461   4.584   3.779 -0.1454 -0.6188  1.4521
 3695TIP3    H211092   3.596   4.524   3.748 -0.1128  0.5972 -1.0416
 3696TIP3   OH211093   2.997   2.123   3.326 -0.0804  0.0003  0.0050
 3696TIP3    H111094   3.011   2.218   3.328 -0.4747  0.0531  1.4391
 3696TIP3    H211095   3.081   2.086   3.353  0.3414 -0.1147 -1.3999
 3697TIP3   OH211096   0.545   4.571   0.176  0.6106 -0.7251 -0.0387
 3697TIP3    H111097   0.543   4.483   0.138  0.4849 -0.4471 -0.6906
 3697TIP3    H211098   0.597   4.622   0.114  1.0743 -0.4456  0.5728
 3698TIP3   OH211099   0.173   1.861   1.887  0.2190 -0.1619 -0.3777
 3698TIP3    H111100   0.084   1.897   1.880  0.7435  1.1290 -0.7224
 3698TIP3    H211101   0.160   1.771   1.917 -1.1530  0.3833  0.7997
 3699TIP3   OH211102   0.104   5.693   3.006  0.4485 -0.2799  0.3798
 3699TIP3    H111103   0.198   5.703   2.991  0.3753  1.3607  0.8110
 3699TIP3    H211104   0.087   5.601   2.987  1.4560  0.1550 -3.4976
 3700TIP3   OH211105   2.015   4.387   0.534 -0.6825 -0.1279 -0.0632
 3700TIP3    H111106   2.099   4.433   0.533 -2.2275  3.0030  1.3939
 3700TIP3    H211107   2.006   4.351   0.446  1.6806  0.3026 -0.5553
 3701TIP3   OH211108   2.934   1.138   2.197  0.5895 -0.0351 -0.0701
 3701TIP3    H111109   2.949   1.171   2.286 -2.2461 -0.9923  0.8811
 3701TIP3    H211110   2.876   1.203   2.157 -0.3979 -0.9458 -0.1828
 3702TIP3   OH211111   2.959   3.686   2.206  0.1535 -0.0049 -0.1329
 3702TIP3    H111112   2.905   3.762   2.230  0.4686  0.0060  0.5445
 3702TIP3    H211113   2.984   3.646   2.289 -0.6668 -1.3263 -0.4810
 3703TIP3   OH211114   5.064   5.132   1.974 -0.2317  0.1399 -0.0505
 3703TIP3    H111115   5.105   5.118   2.060 -0.8833  0.3424  0.2947
 3703TIP3    H211116   4.988   5.074   1.974 -0.7607  0.8245 -0.1233
 3704TIP3   OH211117   6.098   4.372   0.388  0.6130  0.2409 -0.1054
 3704TIP3    H111118   6.105   4.292   0.337 -3.6892  0.1399 -0.8451
 3704TIP3    H211119   6.094   4.343   0.479  3.1206  0.0419  0.0093
 3705TIP3   OH211120   1.350   0.817   3.624  0.2484  0.1062  0.0124
 3705TIP3    H111121   1.278   0.818   3.687  1.4281 -0.7642  1.4645
 3705TIP3    H211122   1.354   0.907   3.591  0.2941  0.9351  2.0849
 3706TIP3   OH211123   6.082   3.168   0.776  0.5377 -0.1115  0.0678
 3706TIP3    H111124   6.025   3.156   0.699  0.5648 -0.9919  0.1665
 3706TIP3    H211125   6.129   3.249   0.759  1.6258 -1.0259 -1.5638
 3707TIP3   OH211126   4.518   4.271   0.786  0.2005  0.1938 -0.3816
 3707TIP3    H111127   4.471   4.203   0.737 -1.4089  0.7913  0.2525
 3707TIP3    H211128   4.478   4.269   0.873  1.1609  0.9536  0.0873
 3708TIP3   OH211129   0.858   5.273   3.037 -0.2208 -0.4327 -0.1745
 3708TIP3    H111130   0.797   5.277   3.111 -0.4306 -0.8545 -0.3248
 3708TIP3    H211131   0.935   5.229   3.073 -0.2589 -0.4889 -0.1616
 3709TIP3   OH211132   2.806   3.577   0.906  0.7431 -0.7214 -0.2400
 3709TIP3    H111133   2.823   3.647   0.969 -1.1454 -0.9447  0.5673
 3709TIP3    H211134   2.762   3.509   0.957 -0.5156 -1.0590 -1.7122
 3710TIP3   OH211135   2.063   5.537   1.524 -0.2765 -0.3249  0.1084
 3710TIP3    H111136   2.063   5.453   1.569 -0.8972  0.2835  1.2988
 3710TIP3    H211137   2.029   5.599   1.589 -1.4900  0.5501 -1.2862
 3711TIP3   OH211138   3.174   4.227   0.369 -0.1483 -0.0742  0.0215
 3711TIP3    H111139   3.161   4.313   0.409  0.1488 -0.7417  1.6522
 3711TIP3    H211140   3.087   4.190   0.362 -0.2492  0.2433 -0.4123
 3712TIP3   OH211141   4.770   3.999   2.307  0.1238 -0.1173 -0.1586
 3712TIP3    H111142   4.727   4.081   2.281 -0.1987 -0.6161 -1.2318
 3712TIP3    H211143   4.837   4.027   2.369  0.1007  0.9809 -0.5961
 3713TIP3   OH211144   5.010   4.098   2.961  0.0727  0.8598 -0.4179
 3713TIP3    H111145   4.953   4.174   2.975 -2.6220 -1.0359 -0.3029
 3713TIP3    H211146   4.972   4.054   2.885 -0.3774 -1.9497  1.2984
 3714TIP3   OH211147   0.288   3.186   0.739 -0.2863 -0.4417  0.3058
 3714TIP3    H111148   0.206   3.178   0.689 -1.3292 -1.9637  2.1218
 3714TIP3    H211149   0.259   3.194   0.830  1.5725  1.1185  0.8063
 3715TIP3   OH211150   2.174   2.263   4.446 -0.4814  0.1367 -0.0288
 3715TIP3    H111151   2.218   2.296   4.368  1.0868  1.9599  1.5060
 3715TIP3    H211152   2.081   2.276   4.430 -0.2145  0.1539 -1.6895
 3716TIP3   OH211153   1.289   5.217   4.119 -0.3048  0.3641 -0.1056
 3716TIP3    H111154   1.248   5.189   4.201 -1.2631  0.6868 -0.4617
 3716TIP3    H211155   1.360   5.154   4.105 -2.0595 -1.6446 -0.6205
 3717TIP3   OH211156   5.030   4.265   3.772 -0.4544 -0.1252  0.2180
 3717TIP3    H111157   4.940   4.281   3.798 -0.6227  1.3604 -1.0850
 3717TIP3    H211158   5.031   4.280   3.677  1.1002 -0.3820  0.1599
 3718TIP3   OH211159   1.397   5.042   2.598  0.0381 -0.1186  0.5077
 3718TIP3    H111160   1.307   5.025   2.623 -0.3236  1.3206  0.2983
 3718TIP3    H211161   1.437   5.083   2.675  0.2356  0.0874  0.3007
 3719TIP3   OH211162   1.567   3.913   0.604  0.7037 -0.8094 -0.1299
 3719TIP3    H111163   1.536   3.822   0.601  0.2199 -0.6394 -0.6094
 3719TIP3    H211164   1.555   3.944   0.514  0.2838 -0.0808  0.1755
 3720TIP3   OH211165   5.125   5.400   3.066 -0.2230  0.5298 -0.3860
 3720TIP3    H111166   5.176   5.475   3.036 -0.6639  0.5276 -1.1642
 3720TIP3    H211167   5.105   5.350   2.987 -1.9400  0.8524 -0.2104
 3721TIP3   OH211168   1.101   5.522   1.074 -0.9490  0.0103 -0.2863
 3721TIP3    H111169   1.021   5.537   1.022 -1.7241 -2.5587  0.0005
 3721TIP3    H211170   1.086   5.570   1.155 -0.5106  2.6092 -1.6683
 3722TIP3   OH211171   2.086   5.252   4.887  0.0362  0.0621 -0.4903
 3722TIP3    H111172   2.068   5.284   4.799 -2.0286 -0.7668 -0.4178
 3722TIP3    H211173   2.001   5.247   4.929  0.8698 -0.5169  1.2420
 3723TIP3   OH211174   6.285   2.122   1.221 -0.2920 -0.2975 -0.0886
 3723TIP3    H111175   6.285   2.051   1.157  1.2315 -2.1369  1.8037
 3723TIP3    H211176   6.377   2.150   1.226 -0.7298  1.2862 -0.1774
 3724TIP3   OH211177   3.338   4.905   4.591 -0.4256  1.0319  0.0187
 3724TIP3    H111178   3.245   4.898   4.615 -0.1845 -2.7786  0.3564
 3724TIP3    H211179   3.384   4.902   4.675  0.0905  2.8095 -0.1579
 3725TIP3   OH211180   4.876   4.435   0.925 -0.3785  0.1182  0.2757
 3725TIP3    H111181   4.864   4.346   0.893  0.6352  0.0619 -0.0044
 3725TIP3    H211182   4.807   4.448   0.990  0.0940 -1.2486  1.0943
 3726TIP3   OH211183   4.869   4.953   2.591  0.3054  0.1144 -0.1916
 3726TIP3    H111184   4.791   4.911   2.628  2.3182 -1.6632  2.3638
 3726TIP3    H211185   4.848   5.046   2.590 -1.8160 -0.3076  0.4192
 3727TIP3   OH211186   5.962   3.575   0.921 -0.4890  0.1883 -0.1505
 3727TIP3    H111187   6.000   3.598   1.006  0.0848  2.1000 -0.8921
 3727TIP3    H211188   5.875   3.616   0.922  0.2572  1.8970 -1.1934
 3728TIP3   OH211189   3.491   3.683   3.975  0.4987  0.1539 -0.2066
 3728TIP3    H111190   3.535   3.763   3.947  0.8716  0.0546  0.0837
 3728TIP3    H211191   3.467   3.639   3.894 -0.6968  1.0841 -0.3841
 3729TIP3   OH211192   4.508   1.276   1.161 -0.2945 -0.0804  0.0123
 3729TIP3    H111193   4.539   1.237   1.079 -0.4273  1.4109 -0.7913
 3729TIP3    H211194   4.546   1.364   1.161 -1.3562  0.4073  0.9131
 3730TIP3   OH211195   2.035   5.598   0.966 -0.3859 -0.4664 -0.3770
 3730TIP3    H111196   2.040   5.600   1.061 -1.4207  0.2217 -0.3107
 3730TIP3    H211197   2.118   5.562   0.937  0.1496 -0.1749  0.7726
 3731TIP3   OH211198   1.113   4.630   0.224  0.0914  0.3024 -0.2982
 3731TIP3    H111199   1.159   4.611   0.306  0.9215 -0.1468 -0.8512
 3731TIP3    H211200   1.139   4.559   0.165 -2.1300 -0.5491 -0.3352
 3732TIP3   OH211201   4.552   5.149   2.783  0.1937  0.0054 -0.1549
 3732TIP3    H111202   4.460   5.151   2.759  0.1787  0.4425 -0.0663
 3732TIP3    H211203   4.552   5.156   2.879  0.2618 -1.4279 -0.0244
 3733TIP3   OH211204   3.480   2.496   3.667 -0.2848 -0.3003  0.5302
 3733TIP3    H111205   3.526   2.573   3.634 -0.7037  0.2064  1.1124
 3733TIP3    H211206   3.547   2.428   3.672  0.4823  0.5064  1.6411
 3734TIP3   OH211207   5.480   5.129   4.703 -0.3907  0.0884  0.2844
 3734TIP3    H111208   5.483   5.215   4.661  0.7916  0.6335  1.4387
 3734TIP3    H211209   5.467   5.147   4.796 -0.3305 -1.0029  0.5238
 3735TIP3   OH211210   4.729   3.392   3.034 -0.0454 -0.5399  0.1592
 3735TIP3    H111211   4.755   3.413   3.124 -1.7223  1.5069  0.2565
 3735TIP3    H211212   4.777   3.455   2.980  0.5648 -1.4229 -0.3423
 3736TIP3   OH211213   5.299   2.500   3.225  0.1737  0.2685 -0.3751
 3736TIP3    H111214   5.212   2.518   3.260 -1.2086 -1.4755 -2.5614
 3736TIP3    H211215   5.354   2.489   3.302 -1.2730  2.3476  1.0775
 3737TIP3   OH211216   5.257   1.374   0.382  0.4083 -0.6412 -0.0594
 3737TIP3    H111217   5.198   1.312   0.341 -2.8206  1.6384  0.7431
 3737TIP3    H211218   5.341   1.361   0.337 -0.3394 -4.6509 -0.6734
 3738TIP3   OH211219   5.480   1.872   1.489 -0.2451 -0.4121 -0.2022
 3738TIP3    H111220   5.458   1.915   1.571 -2.0574 -1.4819 -0.0720
 3738TIP3    H211221   5.561   1.914   1.460  0.4011  0.0211  2.0829
 3739TIP3   OH211222   3.283   5.037   3.693  0.3779 -0.3671  0.2404
 3739TIP3    H111223   3.367   5.023   3.737  1.4753  0.5102 -1.4297
 3739TIP3    H211224   3.294   5.121   3.648 -1.0978 -0.6303 -0.6723
 3740TIP3   OH211225   1.106   3.106   1.702  0.2041 -0.0008  0.2902
 3740TIP3    H111226   1.088   3.135   1.612  0.8275 -0.3875  0.0356
 3740TIP3    H211227   1.166   3.032   1.692  1.1549  0.6455  1.0752
 3741TIP3   OH211228   1.796   3.955   3.211  0.2842 -0.4230 -0.1420
 3741TIP3    H111229   1.735   3.968   3.284 -0.9322 -1.7924 -0.8396
 3741TIP3    H211230   1.871   3.910   3.250  0.8436  1.1761  0.7099
 3742TIP3   OH211231   2.721   5.423   5.131  0.4462 -0.2199 -0.5921
 3742TIP3    H111232   2.637   5.385   5.105 -0.1107  0.6969 -0.1566
 3742TIP3    H211233   2.708   5.517   5.125  0.9276 -0.0228  1.0204
 3743TIP3   OH211234   0.325   2.695   3.837 -0.1149 -0.3789  0.0812
 3743TIP3    H111235   0.336   2.666   3.746  0.9747 -0.9171  0.3633
 3743TIP3    H211236   0.311   2.789   3.831  0.6495 -0.2986 -0.6162
 3744TIP3   OH211237   1.343   4.605   1.231 -0.5003 -0.3850 -0.3034
 3744TIP3    H111238   1.271   4.587   1.292 -0.9121  1.5092 -0.1831
 3744TIP3    H211239   1.305   4.666   1.167  0.5547 -0.6185 -1.1785
 3745TIP3   OH211240   6.287   1.129   3.919 -0.1432 -0.1488 -0.4031
 3745TIP3    H111241   6.206   1.111   3.871 -1.0791  0.5605  0.8508
 3745TIP3    H211242   6.275   1.084   4.003  0.5016  0.4564  0.0197
 3746TIP3   OH211243   5.402   2.868   0.608 -0.3747 -0.5921  0.0793
 3746TIP3    H111244   5.310   2.877   0.632 -0.1066  1.2976  0.5258
 3746TIP3    H211245   5.416   2.773   0.604 -2.6937 -0.9675 -1.4513
 3747TIP3   OH211246   4.636   5.338   3.468 -0.2614  0.2083  0.0521
 3747TIP3    H111247   4.642   5.395   3.544 -2.6865 -0.9815  1.2392
 3747TIP3    H211248   4.563   5.374   3.417  0.0235 -0.1897 -0.6537
 3748TIP3   OH211249   5.091   0.818   2.315  0.5732  0.4318 -0.1839
 3748TIP3    H111250   5.167   0.837   2.370 -0.1003 -0.9780  1.2908
 3748TIP3    H211251   5.021   0.874   2.349 -0.0012 -0.8535  0.8121
 3749TIP3   OH211252   1.587   5.612   3.355 -0.6628 -0.6436 -0.0420
 3749TIP3    H111253   1.518   5.655   3.304 -0.3656  0.5924  0.5589
 3749TIP3    H211254   1.667   5.656   3.328 -0.3193 -0.9679  0.4402
 3750TIP3   OH211255   6.050   4.883   2.591 -0.4118  0.6204 -0.1831
 3750TIP3    H111256   6.045   4.912   2.500 -1.0012  0.2955 -0.2593
 3750TIP3    H211257   5.961   4.855   2.612 -0.3607  1.0437  0.6147
 3751TIP3   OH211258   3.127   2.637   2.944  0.0416 -0.0169 -0.0960
 3751TIP3    H111259   3.207   2.677   2.910  0.0681  0.5876  0.6519
 3751TIP3    H211260   3.157   2.560   2.992  0.4856  1.6389  2.4531
 3752TIP3   OH211261   2.896   5.844   3.161  0.1943  0.3777  0.4749
 3752TIP3    H111262   2.949   5.771   3.129 -0.1723 -0.3167  1.4123
 3752TIP3    H211263   2.830   5.803   3.217  0.2990  1.4620  1.4365
 3753TIP3   OH211264   2.366   5.206   4.584  0.2628 -0.0920  0.1002
 3753TIP3    H111265   2.441   5.204   4.524 -0.0001  0.8765 -0.2826
 3753TIP3    H211266   2.371   5.292   4.624  0.3953 -0.7034  1.4509
 3754TIP3   OH211267   0.994   4.152   4.717 -0.2129  0.7916  0.5722
 3754TIP3    H111268   0.953   4.227   4.674 -1.5743 -0.4165 -0.3045
 3754TIP3    H211269   1.037   4.104   4.646 -0.6313 -0.0674  0.8904
 3755TIP3   OH211270   4.921   5.834   3.230  0.1148 -0.3654  0.1104
 3755TIP3    H111271   4.875   5.778   3.293  0.4764  0.1259  0.8245
 3755TIP3    H211272   5.014   5.818   3.248  0.2220 -0.0224 -0.1340
 3756TIP3   OH211273   4.747   1.322   4.898  0.0549 -0.0230  0.1342
 3756TIP3    H111274   4.818   1.258   4.902 -0.0507 -0.6309 -3.6119
 3756TIP3    H211275   4.670   1.269   4.875 -0.3730  1.2056 -1.4413
 3757TIP3   OH211276   2.450   3.365   2.887  0.2993 -0.3541 -0.6662
 3757TIP3    H111277   2.459   3.414   2.805  2.0908 -0.6127 -0.6505
 3757TIP3    H211278   2.357   3.344   2.891 -0.4929  2.6236 -0.9029
 3758TIP3   OH211279   4.719   5.046   4.629 -0.6135  0.1323 -0.5376
 3758TIP3    H111280   4.722   5.140   4.608  0.9597  0.0345 -0.8285
 3758TIP3    H211281   4.687   5.044   4.720 -0.5739  0.9571 -0.4906
 3759TIP3   OH211282   5.000   3.603   4.994 -0.1252  0.2031  0.3152
 3759TIP3    H111283   5.024   3.671   5.057  0.2257 -0.4935  0.9549
 3759TIP3    H211284   4.967   3.531   5.048  1.5917 -1.0137 -0.1615
 3760TIP3   OH211285   4.971   3.251   2.714  0.0302  0.0367  0.4719
 3760TIP3    H111286   4.967   3.179   2.651  0.9542  0.4120 -0.0412
 3760TIP3    H211287   4.880   3.282   2.722 -0.3986 -1.2685  0.8207
 3761TIP3   OH211288   2.967   3.105   0.349  0.0590  0.1809  0.9567
 3761TIP3    H111289   3.019   3.032   0.383  0.0819 -0.6391 -0.7667
 3761TIP3    H211290   2.932   3.147   0.428 -0.2380 -1.8864  2.0216
 3762TIP3   OH211291   0.807   0.064   4.937  0.1386  0.1430  0.3186
 3762TIP3    H111292   0.724   0.098   4.905 -0.1243 -1.1238 -0.4324
 3762TIP3    H211293   0.874   0.124   4.903 -0.4404  1.1179  0.8549
 3763TIP3   OH211294   6.026   3.959   0.492  0.3071  0.0124  0.2803
 3763TIP3    H111295   6.032   3.897   0.419  0.8904  0.3577  0.0207
 3763TIP3    H211296   5.985   3.910   0.563 -2.0841  0.2133 -0.8660
 3764TIP3   OH211297   4.652   0.771   5.076 -0.3570 -0.2069 -0.1816
 3764TIP3    H111298   4.685   0.789   4.988  1.2433 -0.0035  0.4246
 3764TIP3    H211299   4.729   0.742   5.125 -1.2667 -0.5665  1.0906
 3765TIP3   OH211300   4.560   5.979   0.510  0.3269  0.0729 -0.4567
 3765TIP3    H111301   4.576   5.886   0.495  2.0175  0.1400  0.6282
 3765TIP3    H211302   4.625   6.024   0.456  0.8776  0.5265  0.5445
 3766TIP3   OH211303   1.715   5.221   3.617 -0.0966 -0.2055 -0.8359
 3766TIP3    H111304   1.664   5.162   3.561 -1.3476  0.7046 -0.7089
 3766TIP3    H211305   1.666   5.303   3.615 -1.6238 -0.7459  3.4637
 3767TIP3   OH211306   2.479   4.878   1.846 -0.4536 -0.1369 -0.0390
 3767TIP3    H111307   2.543   4.935   1.804  0.4096 -0.4473  0.8257
 3767TIP3    H211308   2.501   4.790   1.816 -2.0869 -0.0402 -1.7652
 3768TIP3   OH211309   0.953   2.354   0.634  0.0184  0.1455  0.4795
 3768TIP3    H111310   0.875   2.317   0.675  0.3924 -1.0124  0.1641
 3768TIP3    H211311   0.967   2.437   0.681  0.6715 -1.3009  2.9993
 3769TIP3   OH211312   6.048   5.747   1.685 -0.2056 -0.0409  0.7999
 3769TIP3    H111313   5.972   5.720   1.736 -0.1395  1.3073  1.6778
 3769TIP3    H211314   6.042   5.698   1.603 -1.6446 -0.4367  1.1268
 3770TIP3   OH211315   2.211   2.493   3.615 -0.0076 -0.2676  0.6458
 3770TIP3    H111316   2.146   2.538   3.670  0.7709  0.2432  1.1726
 3770TIP3    H211317   2.219   2.549   3.537 -1.0235 -0.9293  0.0429
 3771TIP3   OH211318   0.965   1.743   4.873  0.8406 -0.0724  0.4086
 3771TIP3    H111319   0.909   1.755   4.949  1.4813 -0.7237  1.0081
 3771TIP3    H211320   0.992   1.651   4.877 -0.1869 -0.4959 -1.3662
 3772TIP3   OH211321   0.260   0.982   4.419  0.0847 -0.1968  0.7136
 3772TIP3    H111322   0.258   1.077   4.403 -1.5183 -0.1249  1.1434
 3772TIP3    H211323   0.310   0.947   4.346 -4.4035  0.4205 -3.1663
 3773TIP3   OH211324   5.332   1.128   0.907 -0.0610  0.2385 -0.2965
 3773TIP3    H111325   5.337   1.044   0.952  0.4933 -0.3254 -1.3689
 3773TIP3    H211326   5.397   1.183   0.951 -1.5500  0.6728  1.4804
 3774TIP3   OH211327   1.640   5.077   4.162  0.2934  0.3144 -0.4063
 3774TIP3    H111328   1.659   5.098   4.254  4.9750 -1.2903 -0.7440
 3774TIP3    H211329   1.620   4.983   4.163 -0.9553  0.5588 -0.9413
 3775TIP3   OH211330   4.399   0.589   4.471  0.3914  0.0569 -0.1552
 3775TIP3    H111331   4.425   0.679   4.455 -2.6562  1.2798  1.0749
 3775TIP3    H211332   4.344   0.566   4.397 -0.1013 -0.2059  0.2819
 3776TIP3   OH211333   0.810   4.864   0.464  0.1873 -0.5304 -0.3970
 3776TIP3    H111334   0.733   4.920   0.455 -0.4597 -1.0384  1.6075
 3776TIP3    H211335   0.883   4.926   0.471 -0.4678  0.1022  1.3937
 3777TIP3   OH211336   3.625   0.869   2.726 -0.1421  0.9771 -0.0695
 3777TIP3    H111337   3.555   0.802   2.726  0.7776 -0.0147  0.1768
 3777TIP3    H211338   3.579   0.951   2.710 -1.3349  0.3060 -0.2490
 3778TIP3   OH211339   2.315   5.756   0.310 -0.4920  0.0780 -0.2234
 3778TIP3    H111340   2.394   5.810   0.306 -1.0993  0.9223 -1.2282
 3778TIP3    H211341   2.283   5.767   0.399 -0.5074  1.2683 -0.3604
 3779TIP3   OH211342   3.766   5.660   1.997  0.1468 -0.3127 -0.0950
 3779TIP3    H111343   3.846   5.609   1.984  1.4225  1.1162  1.5733
 3779TIP3    H211344   3.732   5.675   1.908  0.2143 -3.1596 -0.6843
 3780TIP3   OH211345   6.100   1.874   3.222 -0.0409 -0.0685  0.4977
 3780TIP3    H111346   6.160   1.908   3.155 -0.2169 -0.3274  0.2070
 3780TIP3    H211347   6.029   1.938   3.224 -0.3221 -0.3623  0.0233
 3781TIP3   OH211348   3.091   3.880   4.254  0.1470  0.5456 -0.3250
 3781TIP3    H111349   3.009   3.901   4.299 -1.0355 -1.6595 -1.2782
 3781TIP3    H211350   3.153   3.861   4.324  0.0248  2.6628  0.4226
 3782TIP3   OH211351   2.594   3.497   4.011 -0.2685 -0.3390 -0.1342
 3782TIP3    H111352   2.598   3.587   4.043 -0.0996 -0.8780  1.4415
 3782TIP3    H211353   2.685   3.472   3.997 -0.2837 -0.4311 -0.0710
 3783TIP3   OH211354   2.547   0.843   2.902  0.5982  0.3129  0.4021
 3783TIP3    H111355   2.569   0.880   2.987  1.7895 -0.3828  0.4192
 3783TIP3    H211356   2.496   0.765   2.922 -1.2275  1.4601  0.3869
 3784TIP3   OH211357   1.696   1.741   3.324 -0.0893 -1.0593  0.1016
 3784TIP3    H111358   1.681   1.689   3.403 -0.5420 -2.7466 -1.0353
 3784TIP3    H211359   1.779   1.710   3.289  0.5037  0.2343  0.3107
 3785TIP3   OH211360   0.229   4.907   1.865 -0.3480  0.1679  0.1738
 3785TIP3    H111361   0.189   4.972   1.923 -0.9573 -0.9404  1.0376
 3785TIP3    H211362   0.251   4.834   1.923  1.8597  0.2467 -0.4760
 3786TIP3   OH211363   3.395   3.231   1.135 -0.3828  0.0314  0.4742
 3786TIP3    H111364   3.311   3.211   1.094 -0.5894  1.7433 -0.0260
 3786TIP3    H211365   3.388   3.193   1.223 -0.9355 -1.4402 -0.1673
 3787TIP3   OH211366   5.035   4.118   0.363  0.3343  0.1048  0.5061
 3787TIP3    H111367   5.038   4.205   0.404  0.7814  0.2439  0.1884
 3787TIP3    H211368   5.120   4.109   0.321  0.1150 -0.3015  0.1488
 3788TIP3   OH211369   3.121   3.384   1.952 -0.3496 -0.1088  0.1437
 3788TIP3    H111370   3.038   3.412   1.913  0.2353 -1.1147 -1.9461
 3788TIP3    H211371   3.116   3.289   1.955  0.2631 -0.1243  1.1589
 3789TIP3   OH211372   5.156   1.499   4.121 -0.2943 -0.1710 -0.0999
 3789TIP3    H111373   5.191   1.465   4.038 -1.6199 -0.3229 -0.6259
 3789TIP3    H211374   5.063   1.515   4.103  0.0427  2.9135  0.3908
 3790TIP3   OH211375   4.311   5.706   3.235  0.5409  0.4557  0.2052
 3790TIP3    H111376   4.327   5.800   3.230 -0.6004  0.6432  0.0120
 3790TIP3    H211377   4.398   5.669   3.254  1.5124  1.2909 -2.2567
 3791TIP3   OH211378   2.200   3.436   4.271 -0.3553 -0.2320  0.2603
 3791TIP3    H111379   2.177   3.380   4.345 -0.0036  0.0298  0.5677
 3791TIP3    H211380   2.250   3.379   4.213 -1.0263 -0.5690 -0.0091
 3792TIP3   OH211381   2.955   5.207   2.282 -0.1494 -0.1074  0.0411
 3792TIP3    H111382   2.985   5.296   2.262 -0.9067  0.4227  1.1233
 3792TIP3    H211383   2.938   5.168   2.197  0.5282  0.6622 -0.4714
 3793TIP3   OH211384   1.223   0.742   4.641  0.3222 -0.0185  0.6227
 3793TIP3    H111385   1.285   0.677   4.673  0.5587  0.2272  0.6623
 3793TIP3    H211386   1.165   0.758   4.716 -1.1254 -1.8162 -0.0402
 3794TIP3   OH211387   4.780   3.541   0.842  0.2116  0.4253  0.5002
 3794TIP3    H111388   4.755   3.602   0.912 -1.2034  1.5504 -0.8965
 3794TIP3    H211389   4.857   3.580   0.802  1.4325 -0.5637  1.7885
 3795TIP3   OH211390   6.001   3.811   3.412  0.1947  0.1936  0.5532
 3795TIP3    H111391   5.942   3.821   3.337 -0.2634  0.2534  0.9194
 3795TIP3    H211392   6.072   3.873   3.395 -0.1670  0.5734  0.4264
 3796TIP3   OH211393   3.779   0.592   2.837 -0.2169 -0.1890  0.1206
 3796TIP3    H111394   3.867   0.628   2.824  0.3445 -1.1652  0.9912
 3796TIP3    H211395   3.742   0.586   2.750  0.1902  1.1798 -0.1708
 3797TIP3   OH211396   5.108   1.646   2.011 -0.0928 -0.0913  0.2512
 3797TIP3    H111397   5.030   1.644   1.955  1.7250  0.7363 -2.4995
 3797TIP3    H211398   5.144   1.557   2.005  0.7104  0.2971 -0.8521
 3798TIP3   OH211399   1.370   2.146   4.417 -0.5910  0.7228  0.0027
 3798TIP3    H111400   1.458   2.182   4.421  0.0460 -0.8634  1.5572
 3798TIP3    H211401   1.373   2.083   4.345 -0.8397  1.5495 -0.7489
 3799TIP3   OH211402   5.839   3.319   2.123  0.1140 -0.1492 -0.2319
 3799TIP3    H111403   5.910   3.257   2.139  0.1779  0.1366  0.6765
 3799TIP3    H211404   5.868   3.370   2.048  0.5095 -0.5530 -0.3612
 3800TIP3   OH211405   0.464   3.769   5.155 -0.3753  0.4996 -0.7788
 3800TIP3    H111406   0.394   3.748   5.094 -0.4168 -0.0078 -0.5649
 3800TIP3    H211407   0.427   3.753   5.242  0.0047  0.2093 -0.6649
 3801TIP3   OH211408   3.318   4.198   3.130 -0.0819 -0.0223 -0.6848
 3801TIP3    H111409   3.308   4.235   3.217 -0.3929  2.4937 -1.7034
 3801TIP3    H211410   3.231   4.168   3.105 -0.2537  0.3922 -0.5876
 3802TIP3   OH211411   2.903   2.867   0.751 -0.2991  0.0549 -0.1745
 3802TIP3    H111412   2.890   2.962   0.748 -0.5647 -0.0010 -1.2107
 3802TIP3    H211413   2.818   2.831   0.725  0.0256 -0.4472 -0.5547
 3803TIP3   OH211414   1.883   3.108   3.165  0.7301 -0.3678 -0.3579
 3803TIP3    H111415   1.912   3.096   3.256  0.8393  1.4958 -0.1184
 3803TIP3    H211416   1.861   3.201   3.159 -0.3473 -0.6937 -1.9467
 3804TIP3   OH211417   5.506   4.495   1.519 -0.4358  0.0906 -0.3134
 3804TIP3    H111418   5.588   4.544   1.527 -0.7303  0.6160 -0.5138
 3804TIP3    H211419   5.515   4.424   1.583 -0.1166  0.5570  0.1686
 3805TIP3   OH211420   3.793   5.685   3.805 -0.3343  0.5161  0.0493
 3805TIP3    H111421   3.819   5.732   3.725  1.7921 -1.9935 -0.8937
 3805TIP3    H211422   3.711   5.640   3.781  0.3424 -0.3007 -0.8130
 3806TIP3   OH211423   5.238   2.545   2.646  0.6213  0.0723  0.2754
 3806TIP3    H111424   5.169   2.611   2.647  0.2297 -0.3370  0.9411
 3806TIP3    H211425   5.199   2.468   2.688  1.5457 -0.0942  0.8630
 3807TIP3   OH211426   3.600   4.724   2.510  0.0936  0.2879  0.4709
 3807TIP3    H111427   3.544   4.664   2.559  0.4912  0.4338  1.1109
 3807TIP3    H211428   3.550   4.805   2.503  0.3744  0.5449  1.3738
 3808TIP3   OH211429   2.815   0.479   4.942  0.2810 -0.7004  0.2219
 3808TIP3    H111430   2.765   0.421   4.885  0.8439 -2.1568  1.1616
 3808TIP3    H211431   2.906   0.469   4.913  0.3742 -0.2189  0.3407
 3809TIP3   OH211432   0.775   3.432   4.366  0.0657  1.0773  0.1156
 3809TIP3    H111433   0.739   3.507   4.319 -1.0924  0.8784  0.6573
 3809TIP3    H211434   0.787   3.365   4.299 -0.2380  1.2668 -0.1271
 3810TIP3   OH211435   1.902   2.790   3.680 -0.9781  0.2779  0.3432
 3810TIP3    H111436   1.928   2.826   3.595 -0.5503 -1.2951 -0.2407
 3810TIP3    H211437   1.818   2.747   3.663 -0.5424 -0.6773  0.5104
 3811TIP3   OH211438   2.870   1.087   3.231  0.0666 -0.0173  0.7715
 3811TIP3    H111439   2.918   1.012   3.267 -0.4141  0.1324  1.7571
 3811TIP3    H211440   2.891   1.086   3.137  1.8593 -0.0605  1.1200
 3812TIP3   OH211441   1.738   2.723   1.461  0.1677  0.3647  0.1418
 3812TIP3    H111442   1.801   2.671   1.510  1.4488  2.4882  0.8836
 3812TIP3    H211443   1.745   2.811   1.498 -2.1996  1.0155 -0.7632
 3813TIP3   OH211444   3.826   2.053   4.905 -0.2784  0.9367  0.0419
 3813TIP3    H111445   3.805   2.012   4.988 -1.1262 -1.8329 -1.4193
 3813TIP3    H211446   3.746   2.098   4.879 -0.3180  0.9984  0.2717
 3814TIP3   OH211447   4.613   5.114   1.250  0.2161 -0.6412  0.1227
 3814TIP3    H111448   4.595   5.052   1.321  0.6184  0.5583  1.3142
 3814TIP3    H211449   4.689   5.077   1.204  1.5546 -0.2153  1.8872
 3815TIP3   OH211450   3.356   5.324   4.679  0.5979 -0.2276 -0.1906
 3815TIP3    H111451   3.385   5.304   4.590  0.9890  0.7662 -0.3039
 3815TIP3    H211452   3.269   5.285   4.685  0.4701 -0.1175 -1.0871
 3816TIP3   OH211453   3.037   1.741   0.531  0.7356  0.2372 -0.0344
 3816TIP3    H111454   2.986   1.817   0.503 -2.5004 -2.0144 -0.7813
 3816TIP3    H211455   3.090   1.773   0.604 -2.1884  2.7379  1.2174
 3817TIP3   OH211456   4.892   5.563   2.023 -0.0451  0.1426 -0.1502
 3817TIP3    H111457   4.812   5.540   1.976  0.4338  1.2918 -1.5833
 3817TIP3    H211458   4.960   5.511   1.981  0.4506  1.4702 -1.0326
 3818TIP3   OH211459   1.478   1.607   0.109 -0.4978  0.2178  0.4240
 3818TIP3    H111460   1.517   1.633   0.025 -0.5703  0.2763  0.4083
 3818TIP3    H211461   1.414   1.676   0.128  1.5864  1.8535  2.0036
 3819TIP3   OH211462   0.988   5.707   0.675  0.4938 -0.1214  0.1170
 3819TIP3    H111463   0.991   5.748   0.588  0.8505  1.8845  1.0000
 3819TIP3    H211464   0.898   5.719   0.704  0.9603  1.6355  1.0274
 3820TIP3   OH211465   3.182   3.474   4.765  0.1626  0.4772 -0.1995
 3820TIP3    H111466   3.100   3.457   4.718  0.3417  0.2565 -0.4331
 3820TIP3    H211467   3.250   3.439   4.708  0.3609 -0.0783  0.3757
 3821TIP3   OH211468   2.491   1.504   4.250  0.3290 -0.7731 -0.2138
 3821TIP3    H111469   2.430   1.441   4.288  1.8942 -2.3863 -0.2662
 3821TIP3    H211470   2.478   1.496   4.156 -0.7373  0.3376 -0.1870
 3822TIP3   OH211471   0.186   2.728   3.198  0.2510  0.0002  0.3600
 3822TIP3    H111472   0.181   2.740   3.103 -0.6936  0.7486  0.4928
 3822TIP3    H211473   0.273   2.759   3.221  1.1087 -1.6733 -0.4529
 3823TIP3   OH211474   4.315   3.409   3.868  0.4583  0.2413 -0.6601
 3823TIP3    H111475   4.288   3.339   3.808  0.8987 -0.8124  0.3226
 3823TIP3    H211476   4.277   3.489   3.831 -0.2809 -0.5531 -1.6730
 3824TIP3   OH211477   1.673   1.909   2.187  0.1389  0.8241 -0.2803
 3824TIP3    H111478   1.654   1.902   2.093 -0.3194  0.3444 -0.1573
 3824TIP3    H211479   1.593   1.879   2.230  1.0646 -1.0146  0.2558
 3825TIP3   OH211480   3.869   5.310   2.872 -0.2165 -0.2572 -0.3092
 3825TIP3    H111481   3.896   5.333   2.960 -2.9378 -0.7272  0.7357
 3825TIP3    H211482   3.846   5.217   2.876 -1.1792 -0.0930 -1.2596
 3826TIP3   OH211483   5.014   4.447   2.755  0.3990 -0.1976  0.0409
 3826TIP3    H111484   4.940   4.423   2.811 -0.6668  1.1848 -0.7181
 3826TIP3    H211485   5.000   4.399   2.674  1.1053 -0.9950  0.3726
 3827TIP3   OH211486   0.616   4.605   1.273 -0.0479 -0.1920  0.5238
 3827TIP3    H111487   0.625   4.597   1.178 -1.9329 -1.0705  0.3637
 3827TIP3    H211488   0.682   4.545   1.308  0.0414 -0.5668 -0.2581
 3828TIP3   OH211489   4.517   3.079   4.268  0.1674 -0.2338  0.1553
 3828TIP3    H111490   4.465   3.013   4.314 -0.3044 -1.5769 -2.1644
 3828TIP3    H211491   4.484   3.163   4.300 -0.5498 -1.0848  1.7608
 3829TIP3   OH211492   3.455   3.147   4.814 -0.1595 -0.2918  0.0305
 3829TIP3    H111493   3.522   3.211   4.839  0.7784 -0.4335 -1.9544
 3829TIP3    H211494   3.379   3.170   4.868  0.5513  1.6990  0.2766
 3830TIP3   OH211495   5.916   5.619   1.002  0.1779 -0.6917  0.4477
 3830TIP3    H111496   5.934   5.656   0.916  1.1009  0.1315  0.9653
 3830TIP3    H211497   5.965   5.675   1.062 -0.9897 -0.8304  1.5797
 3831TIP3   OH211498   5.933   4.263   0.991 -0.4903 -0.1404  0.0696
 3831TIP3    H111499   5.989   4.203   1.041 -2.5400 -2.1732  0.1257
 3831TIP3    H211500   5.901   4.325   1.056 -0.9460 -1.0621  0.7627
 3832TIP3   OH211501   1.796   0.360   0.415  0.1884 -0.5900  0.2958
 3832TIP3    H111502   1.799   0.412   0.496 -1.1805  2.2425 -1.2820
 3832TIP3    H211503   1.743   0.413   0.355  2.6247 -1.6161 -3.0955
 3833TIP3   OH211504   1.499   3.819   3.955 -0.0333  0.7537 -0.3662
 3833TIP3    H111505   1.563   3.803   3.886  0.4165 -0.1709  0.2526
 3833TIP3    H211506   1.424   3.764   3.931 -0.1933  1.0407 -0.5337
 3834TIP3   OH211507   3.133   1.891   5.063 -0.0246 -0.2068 -0.8825
 3834TIP3    H111508   3.135   1.985   5.049 -0.8130 -0.1983 -0.9597
 3834TIP3    H211509   3.219   1.871   5.102 -0.3736  0.7539  0.4686
 3835TIP3   OH211510   2.174   5.757   2.474 -0.1383 -0.0985 -0.2451
 3835TIP3    H111511   2.120   5.763   2.396  0.1221  1.1525 -0.3543
 3835TIP3    H211512   2.112   5.749   2.547 -0.6486  3.0737 -0.1869
 3836TIP3   OH211513   3.835   2.225   4.148  0.1210 -0.3478 -0.2510
 3836TIP3    H111514   3.892   2.149   4.138 -0.5228 -0.9063  0.2157
 3836TIP3    H211515   3.894   2.301   4.143  0.8121 -0.8892 -0.3801
 3837TIP3   OH211516   4.386   4.653   1.593 -0.4614 -0.3364 -0.3791
 3837TIP3    H111517   4.400   4.713   1.667  0.2072 -0.2387 -0.5787
 3837TIP3    H211518   4.341   4.707   1.528 -0.8209 -0.3523 -0.1524
 3838TIP3   OH211519   2.898   2.156   1.882  0.0483  0.5204 -0.2156
 3838TIP3    H111520   2.943   2.081   1.922 -0.1056  0.2795 -0.4856
 3838TIP3    H211521   2.943   2.233   1.916  0.6878  0.2834 -0.5052
 3839TIP3   OH211522   2.718   4.272   4.548  0.5843 -0.3811  0.0851
 3839TIP3    H111523   2.657   4.303   4.481 -1.8356 -1.9261  1.4277
 3839TIP3    H211524   2.802   4.264   4.503 -0.6275 -0.0422 -2.3718
 3840TIP3   OH211525   0.710   5.283   3.266 -0.3517 -0.2506 -0.3466
 3840TIP3    H111526   0.654   5.211   3.296 -1.2816  0.5528 -0.1000
 3840TIP3    H211527   0.703   5.349   3.335  0.0098  0.3227 -0.8502
 3841TIP3   OH211528   1.289   5.378   3.449  0.5362  0.6589 -0.4505
 3841TIP3    H111529   1.294   5.464   3.491  0.8498  1.6881 -2.4545
 3841TIP3    H211530   1.235   5.326   3.508  0.3223  2.2217  0.8167
 3842TIP3   OH211531   4.192   0.824   4.368  0.2241 -0.2747 -0.3751
 3842TIP3    H111532   4.226   0.746   4.324 -0.8889  0.3313 -2.4484
 3842TIP3    H211533   4.097   0.816   4.363  0.0447  0.1007  1.5418
 3843TIP3   OH211534   1.658   0.762   0.464  0.6538  0.4202  0.2481
 3843TIP3    H111535   1.651   0.706   0.387 -0.6648 -1.0327  1.3582
 3843TIP3    H211536   1.575   0.808   0.468  0.4149 -0.0680  1.1907
 3844TIP3   OH211537   0.458   2.993   1.925  0.7983  0.3557 -0.7931
 3844TIP3    H111538   0.423   3.010   2.012  2.6270 -1.1650  0.3152
 3844TIP3    H211539   0.524   3.061   1.911  1.4973 -0.2152 -0.3556
 3845TIP3   OH211540   2.672   1.782   1.773 -0.5128  0.0238 -0.5193
 3845TIP3    H111541   2.675   1.817   1.863  0.9381 -0.1302 -0.4841
 3845TIP3    H211542   2.730   1.840   1.723 -0.8680 -0.2341 -1.2409
 3846TIP3   OH211543   4.326   5.234   1.577  0.1466 -0.0667 -0.0753
 3846TIP3    H111544   4.302   5.172   1.508 -1.6872 -1.3193  1.5897
 3846TIP3    H211545   4.421   5.227   1.584  0.1215 -1.6106 -0.9247
 3847TIP3   OH211546   1.613   1.527   2.785 -0.1161  0.0089 -0.2724
 3847TIP3    H111547   1.574   1.497   2.867  0.5824  0.3468  0.1982
 3847TIP3    H211548   1.707   1.534   2.805 -0.2207  2.4692 -0.3461
 3848TIP3   OH211549   2.959   2.006   0.490  0.0758  0.6006  0.0760
 3848TIP3    H111550   2.959   2.045   0.403  0.5638  1.2338  0.3519
 3848TIP3    H211551   3.041   2.035   0.530  0.1338 -0.1635  0.5367
 3849TIP3   OH211552   3.423   4.725   1.476 -0.0439  0.3985  0.1492
 3849TIP3    H111553   3.499   4.676   1.446 -0.6503  0.1159 -1.0145
 3849TIP3    H211554   3.451   4.767   1.557  0.1711 -2.7461  1.8774
 3850TIP3   OH211555   2.951   2.375   3.477  0.2885 -0.0097 -0.0699
 3850TIP3    H111556   3.028   2.419   3.512  0.0170  0.4211 -0.0137
 3850TIP3    H211557   2.926   2.427   3.401  0.6714 -0.7455 -0.7162
 3851TIP3   OH211558   3.748   1.279   2.697  0.2898 -0.1235 -0.0921
 3851TIP3    H111559   3.667   1.230   2.711  0.6983 -0.5678  0.8090
 3851TIP3    H211560   3.802   1.220   2.643  0.9739 -0.9120  1.4035
 3852TIP3   OH211561   4.885   2.100   4.314 -0.4500 -0.4840  0.4435
 3852TIP3    H111562   4.817   2.155   4.276  0.5780  0.3823 -0.1929
 3852TIP3    H211563   4.868   2.012   4.279 -0.0249  0.1291 -1.4091
 3853TIP3   OH211564   2.535   2.680   4.110 -0.3830 -0.8889 -0.2001
 3853TIP3    H111565   2.562   2.682   4.018  0.1906 -1.2798 -0.0449
 3853TIP3    H211566   2.612   2.648   4.157 -0.2536  0.4324  0.5592
 3854TIP3   OH211567   0.897   0.784   1.423 -0.1334 -0.4879 -0.0133
 3854TIP3    H111568   0.866   0.801   1.334 -0.0188  0.1680  0.0702
 3854TIP3    H211569   0.822   0.806   1.479  0.0799 -0.0671  0.1087
 3855TIP3   OH211570   2.234   1.723   3.324  0.2469  0.4417 -0.4617
 3855TIP3    H111571   2.250   1.773   3.404 -0.2660  2.2411 -1.4159
 3855TIP3    H211572   2.273   1.777   3.255 -0.0639 -0.6462 -1.5125
 3856TIP3   OH211573   2.159   0.551   3.059  0.0591 -0.2308 -0.2070
 3856TIP3    H111574   2.114   0.583   2.981 -0.7968 -1.0281 -0.0537
 3856TIP3    H211575   2.252   0.561   3.038 -0.1651  0.7677 -0.8138
 3857TIP3   OH211576   1.468   0.072   2.435  0.5630  0.0979 -0.3542
 3857TIP3    H111577   1.439   0.059   2.345  1.4902 -0.7295 -0.5542
 3857TIP3    H211578   1.532   0.002   2.450  0.0706 -0.0880  1.1088
 3858TIP3   OH211579   1.571   0.755   4.215  0.0821  0.2045 -0.2210
 3858TIP3    H111580   1.516   0.762   4.292 -0.0734 -0.1006 -0.3022
 3858TIP3    H211581   1.559   0.665   4.184  1.1387 -0.0805  0.1491
 3859TIP3   OH211582   4.574   4.930   3.116 -0.2444  0.0906  0.2279
 3859TIP3    H111583   4.592   4.963   3.204 -2.1663  1.1636  0.2802
 3859TIP3    H211584   4.519   4.998   3.076 -0.1498 -0.7842 -1.4992
 3860TIP3   OH211585   0.545   3.267   0.586  0.0426 -0.5674  0.2629
 3860TIP3    H111586   0.472   3.329   0.582 -0.2616 -0.9877 -3.3391
 3860TIP3    H211587   0.532   3.222   0.670 -2.1662  1.2816  1.0328
 3861TIP3   OH211588   3.611   1.888   1.667  0.5314 -0.0760 -0.2111
 3861TIP3    H111589   3.652   1.827   1.605  3.2560  1.0058  0.3696
 3861TIP3    H211590   3.533   1.843   1.697  0.5028 -1.7221 -2.4922
 3862TIP3   OH211591   1.641   1.287   1.032 -0.0318 -0.3072  0.4972
 3862TIP3    H111592   1.640   1.253   1.121  1.6479 -0.7770  0.3572
 3862TIP3    H211593   1.688   1.370   1.038  0.0676 -0.3297  0.0448
 3863TIP3   OH211594   4.273   5.438   2.273 -0.3394  0.2075  0.3337
 3863TIP3    H111595   4.310   5.451   2.186  0.8006 -1.3869  0.5466
 3863TIP3    H211596   4.242   5.525   2.298 -0.5879  0.7285 -1.5968
 3864TIP3   OH211597   2.052   2.935   4.966 -0.0927  0.2667 -0.6747
 3864TIP3    H111598   2.017   2.968   5.049  0.2153  0.7642 -0.7387
 3864TIP3    H211599   2.140   2.904   4.989 -0.2261 -0.1380 -0.6996
 3865TIP3   OH211600   4.198   4.446   1.943 -0.2900  0.8625  0.5444
 3865TIP3    H111601   4.158   4.360   1.954  2.3356 -0.4474  0.7452
 3865TIP3    H211602   4.257   4.436   1.868 -1.4293  3.1393 -0.7428
 3866TIP3   OH211603   5.390   5.467   1.742 -0.1122  0.1667 -0.5043
 3866TIP3    H111604   5.483   5.454   1.759 -0.2703 -0.1973  0.1425
 3866TIP3    H211605   5.368   5.401   1.677  0.3193  1.0023 -1.5205
 3867TIP3   OH211606   2.948   4.399   0.084 -0.3405 -0.0011 -0.2241
 3867TIP3    H111607   2.992   4.480   0.058 -0.2764 -0.1338 -0.5387
 3867TIP3    H211608   2.857   4.412   0.060 -0.5068  0.3361  0.5756
 3868TIP3   OH211609   1.312   5.945   1.339 -1.0157  0.0284 -0.1081
 3868TIP3    H111610   1.229   5.967   1.296 -0.0079  1.0713 -1.5998
 3868TIP3    H211611   1.358   5.888   1.277 -1.9644 -3.5167  2.1323
 3869TIP3   OH211612   1.848   2.252   3.141 -0.3426  0.2772  0.4047
 3869TIP3    H111613   1.781   2.184   3.145 -0.6801  0.6554  1.8334
 3869TIP3    H211614   1.930   2.205   3.155 -0.3737 -0.0906 -0.6005
 3870TIP3   OH211615   3.604   4.754   0.313  0.2862 -0.3882  0.3448
 3870TIP3    H111616   3.512   4.728   0.306  0.2474 -0.0050 -1.0386
 3870TIP3    H211617   3.653   4.676   0.286  0.3187 -0.2737  0.0664
 3871TIP3   OH211618   0.538   0.108   3.296  0.7498  0.0749 -0.0809
 3871TIP3    H111619   0.558   0.017   3.272 -1.1678 -0.5503  0.5194
 3871TIP3    H211620   0.508   0.148   3.214  0.1200 -0.2957 -0.0398
 3872TIP3   OH211621   5.651   3.497   2.572 -0.4711  0.0710 -0.4472
 3872TIP3    H111622   5.616   3.408   2.579 -1.5443  0.3514 -1.8659
 3872TIP3    H211623   5.744   3.485   2.555 -0.2330 -0.7180  1.1621
 3873TIP3   OH211624   5.168   1.290   1.033  0.3709  0.8094  0.1442
 3873TIP3    H111625   5.229   1.227   0.995 -0.6713  0.3707 -0.8568
 3873TIP3    H211626   5.141   1.251   1.116  3.0795  2.0189  1.7273
 3874TIP3   OH211627   5.477   2.568   0.005 -0.4425  0.0793  0.2706
 3874TIP3    H111628   5.415   2.626  -0.039 -0.7982 -0.2210  0.3712
 3874TIP3    H211629   5.465   2.585   0.098 -1.2407 -0.8371  0.3534
 3875TIP3   OH211630   0.053   0.259   3.249  0.1430  0.0915  0.2418
 3875TIP3    H111631  -0.012   0.311   3.297  0.2030  1.0406 -0.6718
 3875TIP3    H211632   0.092   0.320   3.187  3.1211  0.0381  1.8464
 3876TIP3   OH211633   2.905   4.726   4.536  0.4174  0.3988 -0.0442
 3876TIP3    H111634   2.978   4.679   4.576  0.5345 -1.5641 -2.3505
 3876TIP3    H211635   2.827   4.688   4.577  0.5920  1.4577  1.3463
 3877TIP3   OH211636   6.157   1.411   3.651 -0.1698  0.4113  0.5256
 3877TIP3    H111637   6.091   1.413   3.582  1.2595  2.0179 -0.8711
 3877TIP3    H211638   6.182   1.319   3.657 -1.0982  0.0789 -0.3038
 3878TIP3   OH211639   0.891   1.910   0.376 -0.7256  0.5762 -0.2747
 3878TIP3    H111640   0.926   1.897   0.464 -0.5405  0.4864 -0.3591
 3878TIP3    H211641   0.886   2.005   0.366 -0.4089  0.5920 -0.2958
 3879TIP3   OH211642   2.762   2.079   0.018  0.9064  0.1480  0.5368
 3879TIP3    H111643   2.701   2.096   0.090 -0.8555 -1.0275 -0.5958
 3879TIP3    H211644   2.800   1.994   0.038  1.1816  0.2772  0.5688
 3880TIP3   OH211645   3.559   1.184   2.416 -0.3095 -0.4594 -0.3241
 3880TIP3    H111646   3.495   1.124   2.454 -0.2259 -0.7563 -0.6498
 3880TIP3    H211647   3.540   1.269   2.457  0.0949 -0.8710  0.7443
 3881TIP3   OH211648   4.827   1.690   2.252 -0.5912 -0.4608  0.5361
 3881TIP3    H111649   4.903   1.742   2.225 -0.1114 -1.4827 -0.1148
 3881TIP3    H211650   4.858   1.639   2.327 -0.9455 -0.1127  0.9237
 3882TIP3   OH211651   6.318   1.940   5.031  0.2440 -0.1075 -0.1540
 3882TIP3    H111652   6.234   1.899   5.050 -0.1806  0.0272 -1.5978
 3882TIP3    H211653   6.364   1.877   4.976  0.7277  0.2018 -0.1132
 3883TIP3   OH211654   5.334   3.123   1.964 -0.5456 -0.0668  0.2307
 3883TIP3    H111655   5.421   3.127   2.004 -0.3857  0.7262 -0.1663
 3883TIP3    H211656   5.327   3.034   1.929 -0.5434 -0.6655  1.6747
 3884TIP3   OH211657   3.652   5.160   2.047 -0.9074  0.1283  0.5346
 3884TIP3    H111658   3.624   5.081   2.093 -2.5900  0.4152  0.0869
 3884TIP3    H211659   3.726   5.193   2.098 -0.5320 -1.4358  1.0315
 3885TIP3   OH211660   6.308   4.316   2.920  0.1909 -0.2557  0.1772
 3885TIP3    H111661   6.229   4.342   2.967 -0.5541 -0.3463 -0.9820
 3885TIP3    H211662   6.360   4.396   2.915  0.1320 -0.1694  0.8640
 3886TIP3   OH211663   4.598   4.763   1.840  0.2203  0.3853  0.2918
 3886TIP3    H111664   4.644   4.683   1.812 -0.1985  0.6221 -1.1835
 3886TIP3    H211665   4.514   4.731   1.874  0.5074  0.1236  0.7636
 3887TIP3   OH211666   3.416   0.529   1.802  0.2515 -0.4997  0.2253
 3887TIP3    H111667   3.440   0.453   1.856 -0.2736 -0.4553  0.5256
 3887TIP3    H211668   3.402   0.600   1.865 -0.7916 -0.5578  0.0694
 3888TIP3   OH211669   5.769   5.164   3.147  0.0362 -0.2407  0.2335
 3888TIP3    H111670   5.744   5.174   3.055 -0.3066 -0.1944  0.3311
 3888TIP3    H211671   5.799   5.251   3.174  2.3515 -0.7391 -0.4744
 3889TIP3   OH211672   3.561   2.882   3.092 -0.5899 -0.3724  0.4231
 3889TIP3    H111673   3.644   2.847   3.125  1.0107  0.8548 -2.0438
 3889TIP3    H211674   3.571   2.881   2.997 -2.9203  1.0078  0.0974
 3890TIP3   OH211675   0.845   2.860   1.435 -0.5177 -0.2992  0.3518
 3890TIP3    H111676   0.833   2.907   1.518 -0.7814  0.2925 -0.0183
 3890TIP3    H211677   0.819   2.923   1.368 -0.5544 -0.8655 -0.1683
 3891TIP3   OH211678   3.781   4.763   3.941 -0.7742  0.0654  0.0655
 3891TIP3    H111679   3.773   4.712   4.022 -1.6610 -0.8689 -0.5942
 3891TIP3    H211680   3.868   4.804   3.947 -0.8042 -0.0235  1.4545
 3892TIP3   OH211681   4.992   1.757   0.838 -0.1899 -0.3228  0.4569
 3892TIP3    H111682   5.081   1.790   0.849 -0.0601 -0.0531 -1.1614
 3892TIP3    H211683   4.936   1.832   0.861  0.0524  0.1599 -0.4803
 3893TIP3   OH211684   4.218   3.149   4.460 -0.2134 -0.1099  0.2508
 3893TIP3    H111685   4.244   3.160   4.551  1.9812  1.6491 -0.4847
 3893TIP3    H211686   4.190   3.058   4.453 -0.5163 -0.2620  2.6616
 3894TIP3   OH211687   2.311   1.158   4.759  0.3536 -0.1259 -0.0938
 3894TIP3    H111688   2.364   1.200   4.827 -0.6655 -0.6409  1.0616
 3894TIP3    H211689   2.221   1.167   4.790 -0.1010 -0.7454 -1.1818
 3895TIP3   OH211690   5.729   5.553   4.235  0.2180 -0.0815 -0.2805
 3895TIP3    H111691   5.733   5.648   4.233  0.5575 -0.1007 -0.6576
 3895TIP3    H211692   5.637   5.533   4.252  0.0683  0.3116 -0.6156
 3896TIP3   OH211693   2.125   2.338   0.732  0.4288 -0.3754 -0.0874
 3896TIP3    H111694   2.100   2.368   0.819 -1.9859 -0.3349 -0.7221
 3896TIP3    H211695   2.076   2.257   0.719  2.0736 -1.3210 -0.7954
 3897TIP3   OH211696   3.597   0.784   1.821  0.1296  0.3299  0.5255
 3897TIP3    H111697   3.652   0.849   1.865  0.1839  0.2859  0.5223
 3897TIP3    H211698   3.590   0.712   1.884 -0.2177  0.4860  0.6695
 3898TIP3   OH211699   3.540   2.525   2.590  0.1722  0.3661 -1.1406
 3898TIP3    H111700   3.518   2.552   2.501  0.8942 -0.5872 -1.6253
 3898TIP3    H211701   3.625   2.481   2.582 -0.8162 -1.8264 -0.3763
 3899TIP3   OH211702   4.913   1.440   3.805  0.2605 -0.3410  0.5573
 3899TIP3    H111703   4.861   1.452   3.885 -1.7268 -2.2599 -0.3389
 3899TIP3    H211704   4.972   1.367   3.826  0.9132  0.2466  0.7901
 3900TIP3   OH211705   3.168   4.137   4.091  0.2049  0.5698  0.4096
 3900TIP3    H111706   3.113   4.129   4.169 -1.6296  0.4987 -0.8267
 3900TIP3    H211707   3.222   4.058   4.092 -0.4333  0.1199  1.1243
 3901TIP3   OH211708   6.091   4.530   4.330 -0.2344  0.0001  0.1313
 3901TIP3    H111709   6.097   4.579   4.249  1.7408 -0.1451  0.1459
 3901TIP3    H211710   6.120   4.442   4.307  0.9735  0.1183  1.0950
 3902TIP3   OH211711   3.807   1.539   2.633  0.3560  0.4302  0.3485
 3902TIP3    H111712   3.781   1.447   2.638 -1.4296  0.7360 -1.8034
 3902TIP3    H211713   3.892   1.537   2.588  1.3567 -0.2208  2.1500
 3903TIP3   OH211714   4.730   3.647   0.239  0.5752 -0.7771 -0.2635
 3903TIP3    H111715   4.668   3.610   0.177 -0.6188 -0.4524  0.6842
 3903TIP3    H211716   4.777   3.714   0.189 -0.4493 -0.4295 -0.7940
 3904TIP3   OH211717   0.649   3.493   3.436 -0.2011  0.1428  0.5517
 3904TIP3    H111718   0.730   3.442   3.440  0.3016  0.7385 -1.0779
 3904TIP3    H211719   0.597   3.449   3.368 -1.4849 -0.5243  1.9160
 3905TIP3   OH211720   5.443   2.401   2.265 -0.1442 -0.8157 -0.0424
 3905TIP3    H111721   5.474   2.327   2.317 -1.0089 -1.6762 -0.7167
 3905TIP3    H211722   5.507   2.409   2.194 -0.7709 -1.8020 -0.7384
 3906TIP3   OH211723   3.780   1.491   4.794  0.0643  0.2304 -0.2031
 3906TIP3    H111724   3.836   1.421   4.763  1.2564  0.8820  0.4183
 3906TIP3    H211725   3.730   1.452   4.866  1.2376  0.2020  0.6115
 3907TIP3   OH211726   0.995   2.633   2.306  0.3638 -0.1286  0.6384
 3907TIP3    H111727   0.949   2.670   2.230  0.3507 -0.2242  0.5997
 3907TIP3    H211728   0.956   2.547   2.318  2.1826 -1.2860 -0.9432
 3908TIP3   OH211729   1.467   4.700   2.028 -0.0998 -0.9936 -0.9851
 3908TIP3    H111730   1.453   4.615   2.070 -1.1188 -0.4054 -0.0886
 3908TIP3    H211731   1.385   4.718   1.982  0.2007 -0.6056 -1.3779
 3909TIP3   OH211732   0.444   2.098   1.894  0.0007 -0.7635 -0.1106
 3909TIP3    H111733   0.472   2.117   1.804 -2.0306 -1.3749 -0.9382
 3909TIP3    H211734   0.431   2.003   1.895  0.3552 -0.8071  0.9498
 3910TIP3   OH211735   2.972   1.793   4.594  0.6308  0.4517 -0.2403
 3910TIP3    H111736   2.981   1.759   4.505  1.9407 -2.6977  0.9674
 3910TIP3    H211737   2.883   1.771   4.619  0.9038 -0.5597 -0.1039
 3911TIP3   OH211738   5.222   3.218   4.396  0.2781 -0.1496  0.1769
 3911TIP3    H111739   5.188   3.239   4.310  2.0454 -1.9086 -1.0403
 3911TIP3    H211740   5.316   3.236   4.390  0.7875 -2.2074  1.0143
 3912TIP3   OH211741   3.029   2.970   0.075 -0.8254  0.4013 -0.4337
 3912TIP3    H111742   3.046   3.046   0.130 -2.0395 -0.2091  0.8388
 3912TIP3    H211743   2.978   3.005   0.002  0.6659  1.1860 -1.1554
 3913TIP3   OH211744   5.124   5.502   1.582 -0.3659 -0.4664 -0.1990
 3913TIP3    H111745   5.170   5.509   1.666 -1.4386 -0.8827  0.4466
 3913TIP3    H211746   5.039   5.543   1.598 -0.6367 -0.6798 -1.0497
 3914TIP3   OH211747   1.557   3.322   4.139  0.0758 -0.8522  0.3546
 3914TIP3    H111748   1.505   3.402   4.141  0.2520 -0.7287 -0.0283
 3914TIP3    H211749   1.565   3.297   4.232  0.0418 -0.4153  0.4777
 3915TIP3   OH211750   5.068   2.272   3.518  0.1873  0.1312  0.2143
 3915TIP3    H111751   5.157   2.265   3.554 -0.2924 -0.2205  1.3965
 3915TIP3    H211752   5.073   2.229   3.433  0.8446 -1.1393  0.8664
 3916TIP3   OH211753   1.198   5.095   0.999 -0.0194  0.2052 -0.3186
 3916TIP3    H111754   1.207   5.088   0.904  0.4058  1.1356 -0.3594
 3916TIP3    H211755   1.106   5.119   1.012 -0.0388  0.2405 -0.5067
 3917TIP3   OH211756   3.305   2.032   4.561  0.2346 -0.0402 -0.5373
 3917TIP3    H111757   3.282   1.945   4.593  0.1640  0.0815 -0.2584
 3917TIP3    H211758   3.240   2.090   4.600 -0.1745  0.0433 -1.3115
 3918TIP3   OH211759   4.467   5.347   1.307 -0.5817  0.1230 -0.1092
 3918TIP3    H111760   4.392   5.296   1.337  0.8521 -1.8294  0.3793
 3918TIP3    H211761   4.530   5.282   1.277  1.4902  1.5660  0.8178
 3919TIP3   OH211762   1.451   1.793   2.251  0.7467 -0.0570 -0.5103
 3919TIP3    H111763   1.418   1.775   2.339  0.7634 -0.6694 -0.6303
 3919TIP3    H211764   1.397   1.739   2.194 -1.0771  2.2601 -1.1779
 3920TIP3   OH211765   0.214   2.581   4.553 -0.0110  0.0127  0.3343
 3920TIP3    H111766   0.287   2.519   4.551  1.2212  1.4163 -0.9875
 3920TIP3    H211767   0.226   2.629   4.635  1.8075  1.5579 -0.7421
 3921TIP3   OH211768   5.314   1.027   3.235  0.0451  0.2203 -0.1763
 3921TIP3    H111769   5.324   0.954   3.296 -1.8815  0.6674  0.7520
 3921TIP3    H211770   5.267   1.094   3.285  0.9677  1.7602 -1.2862
 3922TIP3   OH211771   0.875   2.771   2.107  0.1032  0.0027 -0.4403
 3922TIP3    H111772   0.784   2.793   2.085 -0.2121 -1.2764 -0.4994
 3922TIP3    H211773   0.919   2.765   2.022  0.4943  1.5210 -0.3799
 3923TIP3   OH211774   1.764   0.130   2.463 -0.9170  0.1545  0.3144
 3923TIP3    H111775   1.841   0.170   2.422 -0.5871 -0.8630 -0.0733
 3923TIP3    H211776   1.691   0.156   2.407 -0.7672  0.5663  0.3067
 3924TIP3   OH211777   3.639   2.374   1.636  0.4276 -0.4211  0.0334
 3924TIP3    H111778   3.733   2.389   1.637  0.5261 -1.0582  0.9142
 3924TIP3    H211779   3.601   2.459   1.660  0.7756 -0.2022 -0.1832
 3925TIP3   OH211780   2.392   1.642   1.203  0.1382 -0.6941 -0.2029
 3925TIP3    H111781   2.378   1.547   1.205 -0.0832 -0.6498  1.0059
 3925TIP3    H211782   2.400   1.663   1.110  0.3340 -1.9178 -0.4803
 3926TIP3   OH211783   2.027   4.194   0.729  0.5167  0.4136 -0.7617
 3926TIP3    H111784   1.937   4.220   0.751 -0.1507 -1.6770 -0.7520
 3926TIP3    H211785   2.051   4.250   0.656 -1.3531  0.0821 -1.6959
 3927TIP3   OH211786  -0.028   5.527   2.455  0.5351  0.1231  0.2827
 3927TIP3    H111787   0.061   5.563   2.448  0.2207  1.1966  1.4128
 3927TIP3    H211788  -0.028   5.481   2.539 -0.4051  1.4719  1.0602
 3928TIP3   OH211789   1.516   5.285   1.686  0.2531  0.2354 -0.6892
 3928TIP3    H111790   1.530   5.211   1.744  0.9247  0.7244 -0.2143
 3928TIP3    H211791   1.496   5.246   1.601 -3.5009 -0.5622  0.3817
 3929TIP3   OH211792   4.095   2.755   4.126  0.3203  0.1689 -0.1168
 3929TIP3    H111793   4.016   2.729   4.174 -0.1844  0.1763 -0.9289
 3929TIP3    H211794   4.115   2.681   4.069  0.4009  0.5060 -0.5348
 3930TIP3   OH211795   2.775   3.124   1.259 -0.2465  0.4448  0.0253
 3930TIP3    H111796   2.815   3.129   1.172 -2.3084 -1.0456 -1.1152
 3930TIP3    H211797   2.835   3.071   1.311  0.7281  0.8435 -0.6753
 3931TIP3   OH211798   5.295   5.037   3.431 -0.5358  0.4374 -0.5769
 3931TIP3    H111799   5.376   5.087   3.440 -0.5628  0.2285  1.2919
 3931TIP3    H211800   5.281   5.030   3.337  1.7831  0.1987 -0.9493
 3932TIP3   OH211801   0.826   0.744   1.156  0.5228 -0.2470  0.1703
 3932TIP3    H111802   0.863   0.801   1.088 -2.1009  1.8433  0.3358
 3932TIP3    H211803   0.807   0.662   1.110  1.6401  0.0197 -0.8283
 3933TIP3   OH211804   4.853   3.397   0.341 -0.4871  0.3559  0.0225
 3933TIP3    H111805   4.843   3.490   0.320  0.9320  0.7756  1.0937
 3933TIP3    H211806   4.764   3.367   0.360 -0.8120  1.8057  0.9098
 3934TIP3   OH211807   5.776   0.083   2.518  0.4673  0.1905 -0.4720
 3934TIP3    H111808   5.827   0.005   2.495 -0.8221 -1.2313  1.2788
 3934TIP3    H211809   5.815   0.115   2.599 -0.7438 -0.3353  0.3502
 3935TIP3   OH211810   3.180   4.796   4.385  0.4435  0.2617 -0.4648
 3935TIP3    H111811   3.113   4.858   4.356 -0.9851 -0.2336  1.5759
 3935TIP3    H211812   3.238   4.848   4.440 -0.0230  0.0613  0.2201
 3936TIP3   OH211813   0.481   1.948   1.518 -0.1975 -0.2895 -0.2630
 3936TIP3    H111814   0.391   1.973   1.540  0.5591  1.7595  0.7927
 3936TIP3    H211815   0.511   1.895   1.592 -0.2895 -0.3036 -0.2364
 3937TIP3   OH211816   1.526   2.464   1.931 -0.3003  0.2044  0.1631
 3937TIP3    H111817   1.553   2.543   1.979 -0.5378  0.4740 -0.1335
 3937TIP3    H211818   1.597   2.402   1.945  0.4451  0.8645 -0.5312
 3938TIP3   OH211819   4.780   4.435   4.836 -0.3277 -0.0608 -0.3209
 3938TIP3    H111820   4.691   4.458   4.862 -0.5138  0.5657 -1.4379
 3938TIP3    H211821   4.826   4.518   4.833  0.7441 -0.5242  1.7366
 3939TIP3   OH211822   4.804   2.520   2.170 -0.4478  0.0721  0.3622
 3939TIP3    H111823   4.879   2.541   2.225 -1.0438  0.7049  0.9612
 3939TIP3    H211824   4.740   2.590   2.189 -1.2390 -0.5276 -0.0246
 3940TIP3   OH211825   2.626   4.973   4.964 -0.4825  0.1210  0.0608
 3940TIP3    H111826   2.644   4.885   4.999 -1.2340  1.0087  2.9884
 3940TIP3    H211827   2.545   4.963   4.914  0.6080 -1.2181 -1.5678
 3941TIP3   OH211828   4.538   3.133   3.314  0.4684  0.5291  0.0915
 3941TIP3    H111829   4.590   3.056   3.290 -1.1045  0.4102 -3.5200
 3941TIP3    H211830   4.594   3.180   3.376  2.7327 -2.0065  0.1964
 3942TIP3   OH211831   0.686   4.954   1.857  0.0462 -0.5064 -0.1179
 3942TIP3    H111832   0.746   4.880   1.860  1.4222  0.4227 -2.4359
 3942TIP3    H211833   0.689   4.984   1.767 -2.6503  0.6594  0.0813
 3943TIP3   OH211834   4.810   3.122   0.743 -0.0137  0.3090  0.3247
 3943TIP3    H111835   4.881   3.186   0.741  0.8433 -0.6064  0.3846
 3943TIP3    H211836   4.743   3.161   0.799  0.6511  0.9849  0.6617
 3944TIP3   OH211837   4.285   5.193   4.471 -0.6258  0.3443 -0.1723
 3944TIP3    H111838   4.209   5.151   4.510  0.5768  0.6024  2.7094
 3944TIP3    H211839   4.307   5.264   4.531  2.8777 -0.8149  0.1580
 3945TIP3   OH211840   1.829   1.545   1.706 -0.1134 -0.2108  0.0834
 3945TIP3    H111841   1.910   1.494   1.700  0.3134  0.0144  2.7397
 3945TIP3    H211842   1.820   1.565   1.799 -0.1791  4.7121 -0.7380
 3946TIP3   OH211843   3.864   1.928   2.147 -0.0858  0.1670  0.4511
 3946TIP3    H111844   3.872   1.858   2.082  0.9307  1.1217 -0.5053
 3946TIP3    H211845   3.858   2.008   2.096  0.0950  0.8997  1.5305
 3947TIP3   OH211846   1.168   5.799   5.053  0.1698  0.0654 -0.7193
 3947TIP3    H111847   1.170   5.863   5.124  0.5762  1.5321 -2.0175
 3947TIP3    H211848   1.092   5.822   5.001 -0.0647 -0.9351 -0.8408
 3948TIP3   OH211849   1.148   3.463   1.121  0.2039 -0.1144 -0.4612
 3948TIP3    H111850   1.101   3.382   1.103  0.0160 -0.1620  0.2128
 3948TIP3    H211851   1.080   3.531   1.120  0.2943 -0.0261 -0.6004
 3949TIP3   OH211852   2.809   5.793   1.247 -0.2449  0.0512  0.2822
 3949TIP3    H111853   2.773   5.705   1.232  1.2522 -0.5622 -0.0056
 3949TIP3    H211854   2.736   5.845   1.278 -1.8784 -0.5409 -2.3069
 3950TIP3   OH211855   0.018   1.171   1.350 -0.1012 -0.9214 -0.2425
 3950TIP3    H111856  -0.058   1.209   1.393 -0.0949 -0.1772 -0.8692
 3950TIP3    H211857   0.093   1.217   1.387  0.1432 -2.2695  1.0325
 3951TIP3   OH211858   3.618   3.899   2.481 -0.2052 -0.5055 -0.6737
 3951TIP3    H111859   3.554   3.967   2.500 -0.8328 -1.3944  0.5492
 3951TIP3    H211860   3.586   3.857   2.401 -1.3409 -1.1160  0.0707
 3952TIP3   OH211861   3.871   0.955   2.834  0.2870  0.3242 -0.3886
 3952TIP3    H111862   3.785   0.933   2.798 -0.5479  2.1795  0.3198
 3952TIP3    H211863   3.927   0.883   2.808 -1.1268 -0.2050 -2.1935
 3953TIP3   OH211864   6.262   4.827   3.219 -0.1860  0.2340  0.5677
 3953TIP3    H111865   6.257   4.731   3.224  0.2698  0.1629 -0.2209
 3953TIP3    H211866   6.196   4.851   3.154 -0.1272  0.4379  0.5820
 3954TIP3   OH211867   4.131   2.089   0.065 -0.1487  0.0534  0.0476
 3954TIP3    H111868   4.200   2.034   0.027  2.4418  2.0487  1.5037
 3954TIP3    H211869   4.167   2.116   0.149 -1.8798  2.7671  0.0125
 3955TIP3   OH211870   2.381   3.981   4.285 -0.1538 -0.2189 -0.0945
 3955TIP3    H111871   2.366   4.019   4.372  0.0359 -1.3959  0.4708
 3955TIP3    H211872   2.293   3.959   4.253 -0.3426  1.4639 -0.8053
 3956TIP3   OH211873   2.881   1.776   1.331 -0.0456  0.9432  0.5355
 3956TIP3    H111874   2.788   1.793   1.340 -0.4362 -0.5637 -0.2522
 3956TIP3    H211875   2.898   1.704   1.392  0.5706  1.1031  0.5589
 3957TIP3   OH211876   4.079   5.676   0.950 -0.1075 -0.2972  0.3582
 3957TIP3    H111877   4.166   5.716   0.948 -0.6962  0.9973 -0.0541
 3957TIP3    H211878   4.018   5.749   0.949 -1.2205 -1.1908  0.4248
 3958TIP3   OH211879   5.786   5.046   1.944 -0.4454  0.1439  0.0228
 3958TIP3    H111880   5.819   5.015   1.860  0.7976  3.2121 -0.7382
 3958TIP3    H211881   5.697   5.011   1.950  0.3666 -2.3672 -1.2406
 3959TIP3   OH211882   2.608   5.000   2.068 -0.4808 -0.5648  0.5164
 3959TIP3    H111883   2.557   4.923   2.046  0.4436 -1.1904  0.4832
 3959TIP3    H211884   2.595   5.060   1.995  1.7258 -2.1939 -1.3800
 3960TIP3   OH211885   5.324   0.185   1.728  0.8871  0.2164 -0.0874
 3960TIP3    H111886   5.293   0.094   1.727  1.4413  0.0191 -1.3305
 3960TIP3    H211887   5.247   0.236   1.704 -0.1544  0.3856  3.1538
 3961TIP3   OH211888   2.303   5.781   3.181  0.0159 -0.0800  0.0233
 3961TIP3    H111889   2.271   5.784   3.091 -2.7786 -1.7243  0.8348
 3961TIP3    H211890   2.269   5.862   3.220  0.0464 -0.0189 -0.0767
 3962TIP3   OH211891   0.623   3.480   2.133 -0.2385  0.3083 -0.3958
 3962TIP3    H111892   0.634   3.384   2.134  0.2116  0.3562 -0.6862
 3962TIP3    H211893   0.558   3.496   2.201  1.6574  0.0232  1.5914
 3963TIP3   OH211894   4.968   3.420   3.856 -0.4033 -0.0024 -0.1328
 3963TIP3    H111895   5.039   3.374   3.812 -0.5661 -1.3543  0.9690
 3963TIP3    H211896   4.926   3.354   3.910 -1.4580  1.1615  0.5205
 3964TIP3   OH211897   5.079   3.632   2.805 -0.1673  0.0294  0.2442
 3964TIP3    H111898   4.987   3.624   2.829 -0.1697 -0.2874  0.1409
 3964TIP3    H211899   5.084   3.594   2.717 -0.0349  0.5393  0.0298
 3965TIP3   OH211900   4.882   4.707   4.771 -0.0211  0.9048 -0.1104
 3965TIP3    H111901   4.876   4.708   4.675  1.3318  2.5021 -0.2158
 3965TIP3    H211902   4.975   4.698   4.789 -0.3588 -0.6186  1.1171
 3966TIP3   OH211903   1.008   2.134   4.995 -0.1209 -0.0721 -0.3680
 3966TIP3    H111904   1.054   2.063   5.039  1.3123  0.7049 -0.5488
 3966TIP3    H211905   0.915   2.113   5.006  0.2079 -2.9599 -2.0117
 3967TIP3   OH211906   5.930   3.014   0.574 -0.1156  0.3043 -0.2131
 3967TIP3    H111907   5.938   2.920   0.586 -0.2886  0.3512  0.2936
 3967TIP3    H211908   5.836   3.031   0.578 -0.1469  0.3855 -1.1789
 3968TIP3   OH211909   5.201   1.765   1.711  0.0140 -0.1463 -0.0237
 3968TIP3    H111910   5.260   1.839   1.724  0.2641 -0.4612  0.7264
 3968TIP3    H211911   5.169   1.745   1.799  0.6523 -1.5007 -0.0687
 3969TIP3   OH211912   4.580   3.658   4.314  0.2685  0.2646 -0.0253
 3969TIP3    H111913   4.613   3.581   4.268 -0.3867  0.6634 -1.1968
 3969TIP3    H211914   4.519   3.623   4.378 -1.3811 -0.1304 -1.7236
 3970TIP3   OH211915   3.423   0.499   2.234 -0.6340  0.6564  0.0435
 3970TIP3    H111916   3.380   0.429   2.283  0.0808  0.1299 -0.0648
 3970TIP3    H211917   3.368   0.576   2.248 -1.0323  0.2467  0.7571
 3971TIP3   OH211918   4.445   1.797   3.056  0.2863  0.1364  0.0203
 3971TIP3    H111919   4.375   1.732   3.052 -0.2500  0.7436 -1.0285
 3971TIP3    H211920   4.409   1.873   3.009  2.2687 -0.1636 -2.1942
 3972TIP3   OH211921   5.915   0.571   2.621  0.4157 -0.4489  0.5152
 3972TIP3    H111922   5.985   0.629   2.651 -0.2681  0.3805  0.5540
 3972TIP3    H211923   5.956   0.516   2.554  0.9800  0.3895  0.1532
 3973TIP3   OH211924   4.956   0.057   1.979  0.4154 -0.5754  0.2401
 3973TIP3    H111925   4.899  -0.016   2.002  1.5745 -2.5340 -2.5318
 3973TIP3    H211926   5.045   0.025   1.997  0.8935  0.8153  0.5130
 3974TIP3   OH211927   0.144   4.574   2.357 -0.3928 -0.9670 -0.0111
 3974TIP3    H111928   0.144   4.657   2.310 -1.1679 -1.4578 -0.9077
 3974TIP3    H211929   0.237   4.557   2.375 -0.1515 -0.3656 -0.6400
 3975TIP3   OH211930   3.187   2.998   1.769  1.0927  0.3225  0.2212
 3975TIP3    H111931   3.205   2.910   1.734  1.0343  0.4603 -0.1566
 3975TIP3    H211932   3.264   3.049   1.748  1.5921  0.0922  1.3905
 3976TIP3   OH211933   2.588   0.633   3.375  0.0680  0.2197 -0.1625
 3976TIP3    H111934   2.679   0.619   3.401  0.7145  2.0030 -1.2813
 3976TIP3    H211935   2.578   0.728   3.371 -2.3240  0.1271  1.3938
 3977TIP3   OH211936   5.694   4.697   1.441 -0.5283  0.5478  0.0028
 3977TIP3    H111937   5.662   4.787   1.433  1.2696  1.2559  0.2354
 3977TIP3    H211938   5.789   4.705   1.434 -0.3303 -1.3449  0.0627
 3978TIP3   OH211939   4.335   0.097   0.930  0.1323  0.1220 -0.0320
 3978TIP3    H111940   4.421   0.058   0.919  0.1530  0.3124 -0.5652
 3978TIP3    H211941   4.350   0.191   0.923  0.0773  0.2343  1.2167
 3979TIP3   OH211942   3.793   1.137   4.810  0.1898 -0.2511 -0.2307
 3979TIP3    H111943   3.844   1.197   4.865 -0.9872 -0.2447  0.8813
 3979TIP3    H211944   3.854   1.065   4.791  0.5623 -0.3724  1.2949
 3980TIP3   OH211945   1.877   1.152   2.947  0.4688 -0.5807  0.9438
 3980TIP3    H111946   1.932   1.188   2.877 -0.1658 -2.4823 -0.6091
 3980TIP3    H211947   1.839   1.229   2.989  2.5380  0.7022  0.6416
 3981TIP3   OH211948   0.201   0.579   3.976  0.8422 -0.2750 -0.0682
 3981TIP3    H111949   0.157   0.498   4.001  0.9630  0.1001  1.4830
 3981TIP3    H211950   0.138   0.624   3.919  0.7475 -1.3943 -0.8803
 3982TIP3   OH211951   0.288   1.908   4.128 -0.0513 -0.6428  0.1514
 3982TIP3    H111952   0.269   1.828   4.178 -2.8156 -0.7563 -0.9009
 3982TIP3    H211953   0.230   1.903   4.052  0.9393  1.5794 -0.8389
 3983TIP3   OH211954   1.264   4.122   3.674  0.1449 -0.1058 -0.0399
 3983TIP3    H111955   1.255   4.120   3.578 -0.6828 -0.1438  0.0276
 3983TIP3    H211956   1.263   4.216   3.695  1.0558 -0.0685 -0.1187
 3984TIP3   OH211957   0.683   5.406   2.405  0.0825 -0.4870  0.1910
 3984TIP3    H111958   0.634   5.485   2.427 -0.8460 -0.5969 -1.3220
 3984TIP3    H211959   0.643   5.375   2.324  0.3304 -2.5970  0.8215
 3985TIP3   OH211960   6.239   0.456   3.325  0.1998 -0.3847  0.0252
 3985TIP3    H111961   6.173   0.466   3.256  0.1524 -1.0089 -0.0294
 3985TIP3    H211962   6.260   0.545   3.351 -0.4270 -0.1659 -0.1886
 3986TIP3   OH211963   4.848   2.139   0.458 -0.2403  0.1016 -0.1498
 3986TIP3    H111964   4.829   2.128   0.365 -1.1949 -1.9464  0.2431
 3986TIP3    H211965   4.769   2.179   0.494 -0.8405 -1.3150  0.1617
 3987TIP3   OH211966   0.619   4.334   3.359  0.1879 -0.3955 -0.1382
 3987TIP3    H111967   0.600   4.428   3.356  1.2792 -0.1764 -1.1567
 3987TIP3    H211968   0.578   4.299   3.280  0.0589 -0.7149  0.0704
 3988TIP3   OH211969   4.750   1.333   0.311  0.3284 -0.4507 -0.1901
 3988TIP3    H111970   4.819   1.301   0.369  0.6057  0.3644 -0.0621
 3988TIP3    H211971   4.781   1.309   0.223  1.0628  0.3955 -0.1814
 3989TIP3   OH211972   0.208   4.061   3.566 -0.4415 -0.5321  0.2948
 3989TIP3    H111973   0.237   4.148   3.593 -0.9004 -0.6238  1.1156
 3989TIP3    H211974   0.119   4.074   3.534 -0.9920 -0.8756  1.6065
 3990TIP3   OH211975   1.911   5.647   4.031  0.4594 -0.0244 -0.1298
 3990TIP3    H111976   1.974   5.575   4.031 -0.3042 -0.7089  0.6670
 3990TIP3    H211977   1.855   5.630   4.106 -2.3851 -0.9741 -2.2708
 3991TIP3   OH211978   4.002   4.316   1.675  0.3908  0.0378 -0.1033
 3991TIP3    H111979   4.050   4.234   1.682  3.5075  1.8324  2.5206
 3991TIP3    H211980   3.951   4.322   1.756 -1.9989 -0.4023 -1.4712
 3992TIP3   OH211981   4.310   2.524   3.634 -0.4974  0.1389 -0.1352
 3992TIP3    H111982   4.285   2.615   3.649  0.1093  0.3416 -0.2986
 3992TIP3    H211983   4.406   2.527   3.627 -0.5062 -0.4457 -0.5785
 3993TIP3   OH211984   0.592   2.609   2.314 -0.2919 -0.1841  0.1643
 3993TIP3    H111985   0.512   2.600   2.365  0.3976 -1.5115  1.0470
 3993TIP3    H211986   0.619   2.700   2.327 -0.3080 -0.4064  1.8942
 3994TIP3   OH211987   5.955   2.812   3.849 -0.0520 -0.0849 -0.4595
 3994TIP3    H111988   5.877   2.844   3.893 -0.9371 -2.2894 -0.3120
 3994TIP3    H211989   6.026   2.865   3.885 -0.9473 -0.7132  2.5120
 3995TIP3   OH211990   2.258  -0.002   4.735 -0.5470 -0.3760  0.8368
 3995TIP3    H111991   2.319   0.071   4.745  0.9547 -1.3869 -0.3984
 3995TIP3    H211992   2.172   0.039   4.729  0.3944  1.4651 -1.6920
 3996TIP3   OH211993   4.484   1.407   2.220 -0.6633  0.0835 -0.1368
 3996TIP3    H111994   4.489   1.334   2.159  0.2784 -1.3447  1.5664
 3996TIP3    H211995   4.538   1.475   2.179 -0.6711 -0.5324 -1.2272
 3997TIP3   OH211996   2.822   5.463   1.671 -0.8633  0.0778 -0.2946
 3997TIP3    H111997   2.790   5.501   1.590 -1.3827 -0.8349 -0.5401
 3997TIP3    H211998   2.915   5.447   1.656 -0.4970  1.7472  0.0275
 3998TIP3   OH211999   4.769   4.233   0.718  0.0580  0.1603  0.2350
 3998TIP3    H112000   4.692   4.279   0.751  1.1221  1.7152  0.6763
 3998TIP3    H212001   4.734   4.162   0.664 -1.6615  0.9271  0.2911
 3999TIP3   OH212002   3.882   3.948   2.735 -0.0675  0.8339 -0.6995
 3999TIP3    H112003   3.897   3.878   2.799  0.9878  0.9169 -0.8389
 3999TIP3    H212004   3.969   3.987   2.721 -0.7369  2.6590 -0.0727
 4000TIP3   OH212005   4.994   5.413   4.868  0.7168  0.0935 -0.0745
 4000TIP3    H112006   5.057   5.383   4.934  0.2099 -1.3201 -0.1960
 4000TIP3    H212007   5.034   5.388   4.785  1.5544  2.2457 -0.3820
 4001TIP3   OH212008   0.794   5.835   1.075 -0.3382  0.2111 -0.5284
 4001TIP3    H112009   0.865   5.837   1.011 -0.5964  0.8571 -0.8066
 4001TIP3    H212010   0.714   5.829   1.023 -0.5534  0.7412 -0.2718
 4002TIP3   OH212011   4.218   3.929   1.530 -0.9154  0.9924  0.1788
 4002TIP3    H112012   4.263   3.934   1.445 -1.5682  5.2638 -0.1687
 4002TIP3    H212013   4.165   3.850   1.524  1.8237 -0.8898 -1.8329
 4003TIP3   OH212014   5.190   2.362   2.332  0.3742 -0.5319 -0.1968
 4003TIP3    H112015   5.194   2.274   2.369  1.0806 -0.9490 -1.2022
 4003TIP3    H212016   5.282   2.390   2.329  0.0573  0.9317  1.6348
 4004TIP3   OH212017   5.416   3.647   2.164 -0.1183 -0.6603  0.2067
 4004TIP3    H112018   5.381   3.618   2.079  0.0909 -0.7486  0.1498
 4004TIP3    H212019   5.408   3.570   2.220 -1.5780 -0.1992  0.6832
 4005TIP3   OH212020   2.597   2.425   5.115 -0.3231 -0.2867  0.2200
 4005TIP3    H112021   2.631   2.386   5.034 -0.1013 -0.7609  0.5431
 4005TIP3    H212022   2.615   2.519   5.105 -1.1711 -0.2030 -0.7109
 4006TIP3   OH212023   2.651   2.195   2.102 -0.2758 -0.4242  0.1809
 4006TIP3    H112024   2.733   2.152   2.127 -0.8027 -0.5930  1.7346
 4006TIP3    H212025   2.642   2.267   2.164 -0.3240  0.8453 -1.2564
 4007TIP3   OH212026   2.004   2.642   4.441 -0.2378 -0.2284  1.0091
 4007TIP3    H112027   2.012   2.581   4.368  1.2693 -1.0680  1.8260
 4007TIP3    H212028   2.027   2.727   4.404  4.3754 -1.1427  1.1347
 4008TIP3   OH212029   1.715   4.691   3.797  0.2502  0.0594 -0.0100
 4008TIP3    H112030   1.798   4.721   3.834  0.5573  0.0268 -0.6457
 4008TIP3    H212031   1.714   4.597   3.815  0.4044  0.0414 -0.0886
 4009TIP3   OH212032   4.297   4.963   0.692  0.0722  0.1823  0.3655
 4009TIP3    H112033   4.285   5.001   0.780  1.3090  0.6812  0.3325
 4009TIP3    H212034   4.269   4.872   0.702 -0.6061  0.4537  1.0647
 4010TIP3   OH212035   4.223   3.230   3.678  0.1413 -0.1861  0.0311
 4010TIP3    H112036   4.240   3.264   3.590 -1.3486 -0.7659 -0.5040
 4010TIP3    H212037   4.140   3.270   3.704  0.0665 -0.7950  0.7634
 4011TIP3   OH212038   4.265   4.875   4.544 -0.1640 -0.1879  0.5646
 4011TIP3    H112039   4.292   4.923   4.623 -0.2079 -0.5810  0.8233
 4011TIP3    H212040   4.232   4.792   4.578 -0.2448 -0.3306  0.1326
 4012TIP3   OH212041   5.204   0.306   2.908  0.5148 -0.3753 -0.2570
 4012TIP3    H112042   5.213   0.292   2.814  1.2113  0.5571 -0.3477
 4012TIP3    H212043   5.187   0.400   2.916 -1.8937 -0.7970  0.4143
 4013TIP3   OH212044   6.316   3.150   2.033  0.0837 -0.1973  0.1471
 4013TIP3    H112045   6.347   3.065   2.003  0.2213 -0.4619  1.0126
 4013TIP3    H212046   6.286   3.194   1.954  1.3257 -0.4924 -0.5108
 4014TIP3   OH212047   1.951   5.249   2.728  0.5766 -0.1199  0.8366
 4014TIP3    H112048   2.028   5.209   2.688 -0.5732 -0.0985 -1.4985
 4014TIP3    H212049   1.877   5.196   2.699 -0.4063  0.2019  2.5756
 4015TIP3   OH212050   5.424   0.601   0.728 -0.4665  0.1276 -0.3015
 4015TIP3    H112051   5.340   0.608   0.683 -1.7364 -2.2942  1.4432
 4015TIP3    H212052   5.426   0.511   0.761  1.9740  0.6872  1.3581
 4016TIP3   OH212053   4.103   3.772   2.306 -0.0572 -0.2278  0.3584
 4016TIP3    H112054   4.156   3.851   2.290 -0.7113  0.9160  3.2401
 4016TIP3    H212055   4.043   3.798   2.375 -2.2917 -2.4572 -0.6180
 4017TIP3   OH212056   0.515   3.940   3.582  0.3000  0.0257 -0.6502
 4017TIP3    H112057   0.456   3.936   3.506 -0.7973  0.0082  0.1741
 4017TIP3    H212058   0.510   3.852   3.620 -1.7733  0.8810  1.3062
 4018TIP3   OH212059   4.532   3.676   4.769  0.2141  0.0836  0.6158
 4018TIP3    H112060   4.586   3.687   4.846  0.6878  1.3340  0.1333
 4018TIP3    H212061   4.453   3.727   4.787  0.1790  0.1019  0.4210
 4019TIP3   OH212062   0.320   3.780   1.242  0.0729  0.3161 -0.4273
 4019TIP3    H112063   0.333   3.851   1.305 -0.4053 -0.6965  0.8659
 4019TIP3    H212064   0.372   3.806   1.166  1.7856  0.9410  0.8802
 4020TIP3   OH212065   2.146   2.597   2.443  0.1138 -0.1451 -0.0448
 4020TIP3    H112066   2.206   2.657   2.399 -0.0159 -0.4956 -0.7094
 4020TIP3    H212067   2.087   2.567   2.374  0.0419 -0.8632  0.3187
 4021TIP3   OH212068   5.586   4.346   4.753  0.1157 -0.2355  0.3936
 4021TIP3    H112069   5.575   4.316   4.663 -1.4552  0.5004  0.3144
 4021TIP3    H212070   5.665   4.401   4.750 -0.3417  0.3952 -0.7107
 4022TIP3   OH212071   0.318   2.583   4.874  0.0676 -0.6016  0.1070
 4022TIP3    H112072   0.405   2.556   4.903 -0.0704 -0.5968  0.5414
 4022TIP3    H212073   0.264   2.504   4.883 -0.0713 -0.4906  0.2660
 4023TIP3   OH212074   3.585   2.243   4.031 -0.3513 -0.1460  0.2265
 4023TIP3    H112075   3.572   2.172   3.968  0.8062 -1.0119  0.9193
 4023TIP3    H212076   3.664   2.218   4.079  1.0893  2.4222 -0.6129
 4024TIP3   OH212077   3.978   0.434   0.346  0.6815 -0.0631 -0.1710
 4024TIP3    H112078   3.915   0.365   0.365  1.6658 -0.5363  1.5890
 4024TIP3    H212079   4.059   0.388   0.325  0.3545  0.5104 -3.2071
 4025TIP3   OH212080   0.544   1.862   4.002  0.3688 -0.7964  0.7453
 4025TIP3    H112081   0.456   1.834   4.024  0.3039 -1.3132 -0.1060
 4025TIP3    H212082   0.576   1.907   4.080 -1.0427  0.3580  0.6983
 4026TIP3   OH212083   5.637   0.645   2.130 -0.5446  0.2606  0.4342
 4026TIP3    H112084   5.564   0.694   2.169 -2.3436 -0.3285 -1.9709
 4026TIP3    H212085   5.616   0.641   2.037  0.5555 -3.3153  0.2088
 4027TIP3   OH212086   0.274   4.741   1.092 -0.1322 -0.2528  0.4168
 4027TIP3    H112087   0.219   4.769   1.019  0.4748  0.0064  0.0468
 4027TIP3    H212088   0.297   4.822   1.138 -0.5238 -0.4167  0.9095
 4028TIP3   OH212089   4.706   3.830   2.082 -0.1820 -0.3334  0.3588
 4028TIP3    H112090   4.726   3.878   2.162 -0.3652  0.0012  0.2064
 4028TIP3    H212091   4.633   3.878   2.043  2.4830  2.0603 -2.1554
 4029TIP3   OH212092   5.968   1.525   2.614 -0.1234  0.0151  0.3815
 4029TIP3    H112093   5.906   1.498   2.546  0.3708 -0.2447  0.0219
 4029TIP3    H212094   5.955   1.464   2.686  1.0249 -1.2641 -0.4464
 4030TIP3   OH212095   0.279   0.788   0.857  0.2596  0.2225 -0.4208
 4030TIP3    H112096   0.244   0.731   0.925  2.8699 -0.1517  0.7382
 4030TIP3    H212097   0.374   0.780   0.865  0.7083  1.0793 -3.3780
 4031TIP3   OH212098   0.686   3.563   1.044 -0.0524  0.1695  0.2759
 4031TIP3    H112099   0.617   3.577   1.109 -0.5968  0.3995 -0.3394
 4031TIP3    H212100   0.760   3.614   1.077 -0.3349  0.3212  0.6915
 4032TIP3   OH212101   1.840   4.263   0.270 -0.3969  0.1225 -0.4654
 4032TIP3    H112102   1.767   4.309   0.230 -1.1763 -1.4912 -1.0002
 4032TIP3    H212103   1.810   4.172   0.278  1.6229 -0.6498 -0.9328
 4033TIP3   OH212104   3.283   3.546   4.410  0.4441  0.5150  0.0080
 4033TIP3    H112105   3.313   3.476   4.468  0.7283  1.6567  1.2780
 4033TIP3    H212106   3.361   3.571   4.360  0.1334 -0.6648 -1.1285
 4034TIP3   OH212107   3.263   4.700   0.191 -0.4205  0.2662 -0.6301
 4034TIP3    H112108   3.254   4.765   0.260 -2.3506 -0.7932  0.1844
 4034TIP3    H212109   3.305   4.625   0.234  0.0073  0.2486 -1.0711
 4035TIP3   OH212110   2.224   5.798   2.923  0.1894  0.0866 -0.2202
 4035TIP3    H112111   2.269   5.837   2.849 -2.8690  0.6877 -1.9369
 4035TIP3    H212112   2.216   5.705   2.901  0.8472 -0.0875  0.2470
 4036TIP3   OH212113   5.376   0.354   0.828 -0.0278 -0.7906 -0.0235
 4036TIP3    H112114   5.289   0.325   0.802  0.8817 -1.1997 -3.0350
 4036TIP3    H212115   5.427   0.273   0.833  0.3647 -0.4966  1.0606
 4037TIP3   OH212116   3.268   1.780   3.635  0.5279  0.1591  0.2428
 4037TIP3    H112117   3.247   1.837   3.709  1.8542  1.0277 -0.0031
 4037TIP3    H212118   3.259   1.837   3.559  2.0148  0.1094  0.0024
 4038TIP3   OH212119   3.156   3.190   1.023  0.0555 -0.3405 -0.1047
 4038TIP3    H112120   3.106   3.271   1.013  1.0729  0.6142  1.7322
 4038TIP3    H212121   3.091   3.122   1.037 -0.8404  0.8469  2.1280
 4039TIP3   OH212122   3.086   5.789   4.730  0.6662 -0.1886 -0.2195
 4039TIP3    H112123   3.073   5.716   4.669 -0.6742  0.1667 -0.4048
 4039TIP3    H212124   3.171   5.826   4.705  0.9539 -1.1345 -0.7007
 4040TIP3   OH212125   5.601   0.283   2.354 -0.3247  0.5820  0.0744
 4040TIP3    H112126   5.561   0.344   2.415  1.6714  0.9706  1.0846
 4040TIP3    H212127   5.666   0.236   2.407  0.6461  0.0996 -1.4819
 4041TIP3   OH212128   4.885   5.987   0.463  0.5606  0.3342  0.2909
 4041TIP3    H112129   4.967   5.938   0.457  0.5010  0.3474 -0.8900
 4041TIP3    H212130   4.832   5.955   0.390  0.2990  1.7245 -0.1710
 4042TIP3   OH212131   4.600   1.913   1.240  0.3929 -0.2512  0.4689
 4042TIP3    H112132   4.554   1.859   1.175 -0.2803 -0.2388  0.9185
 4042TIP3    H212133   4.677   1.861   1.263  0.2249 -0.6148  0.2324
 4043TIP3   OH212134   1.899   3.508   4.333 -0.3714  0.3558  0.1851
 4043TIP3    H112135   1.984   3.509   4.290 -0.7031  1.5350 -0.5163
 4043TIP3    H212136   1.919   3.518   4.426  0.2551  0.8687  0.0037
 4044TIP3   OH212137   1.790   4.991   2.760  0.5081  0.2158 -0.6929
 4044TIP3    H112138   1.833   4.938   2.827 -0.6463  0.1142 -0.0014
 4044TIP3    H212139   1.698   4.993   2.786 -0.2378 -0.8749 -2.9562
 4045TIP3   OH212140   2.103   0.642   2.821  0.1531 -0.1228 -0.5469
 4045TIP3    H112141   2.165   0.580   2.783  0.1346 -0.3078 -0.2716
 4045TIP3    H212142   2.088   0.706   2.751  0.2495 -0.3704 -0.7946
 4046TIP3   OH212143   3.126   2.854   0.410 -0.3352  0.0456  0.1378
 4046TIP3    H112144   3.187   2.916   0.449  0.4611 -0.4380 -0.3064
 4046TIP3    H212145   3.180   2.779   0.386 -0.9278  0.0029 -1.1594
 4047TIP3   OH212146   2.577   1.725   1.422  0.1511  0.3549 -0.0135
 4047TIP3    H112147   2.572   1.671   1.343  0.4045  0.1760  0.0909
 4047TIP3    H212148   2.613   1.667   1.489  0.0281  0.5344  0.2090
 4048TIP3   OH212149   0.774   0.282   0.853 -0.3245  0.5653  0.2289
 4048TIP3    H112150   0.704   0.249   0.907 -3.4001 -0.5054 -3.9032
 4048TIP3    H212151   0.794   0.211   0.792  3.1746  1.4990  0.0375
 4049TIP3   OH212152   4.442   0.565   2.739  0.1485 -0.2773 -0.1485
 4049TIP3    H112153   4.406   0.640   2.690 -1.1472 -0.4699  0.4555
 4049TIP3    H212154   4.536   0.581   2.742 -0.2630  2.4331  1.7022
 4050TIP3   OH212155   1.307   5.819   3.463  0.2276  0.4240  0.4560
 4050TIP3    H112156   1.340   5.754   3.525 -0.9703 -0.0040  0.6674
 4050TIP3    H212157   1.374   5.822   3.395  1.5151  0.8259  1.6927
 4051TIP3   OH212158   6.041   4.616   1.108  0.3170 -0.0184 -0.6199
 4051TIP3    H112159   6.105   4.637   1.176  0.9221  0.3653 -1.2952
 4051TIP3    H212160   6.094   4.601   1.030 -0.3589 -0.6137 -0.9725
 4052TIP3   OH212161   0.134   3.621   1.971  0.5282  0.3423  0.0404
 4052TIP3    H112162   0.161   3.621   1.879  0.5552  0.2904  0.0487
 4052TIP3    H212163   0.057   3.678   1.972  0.5072  0.3157 -0.0207
 4053TIP3   OH212164   3.221   0.892   2.833  0.2487  0.3186  0.1210
 4053TIP3    H112165   3.277   0.943   2.891 -1.0370  0.7745  1.0204
 4053TIP3    H212166   3.202   0.812   2.882 -0.6037  0.5763  0.2405
 4054TIP3   OH212167   4.630   5.028   1.824  0.1349  0.2488 -0.4769
 4054TIP3    H112168   4.724   5.026   1.841  0.0041  1.6421  0.6350
 4054TIP3    H212169   4.606   4.937   1.809  1.7756 -0.0495 -1.4955
 4055TIP3   OH212170   1.288   0.055   0.185 -0.5076  0.0776  0.2061
 4055TIP3    H112171   1.287   0.000   0.107 -1.3618 -1.3640  1.1812
 4055TIP3    H212172   1.325  -0.001   0.253 -1.3295  0.7170  1.2159
 4056TIP3   OH212173   1.827   5.133   4.866  0.5613 -0.2836 -0.5764
 4056TIP3    H112174   1.833   5.038   4.862 -1.7353 -0.4920 -0.3772
 4056TIP3    H212175   1.850   5.155   4.956 -2.1342 -1.0278  0.3660
 4057TIP3   OH212176   3.699   3.660   2.656  0.0801 -0.0007 -0.1401
 4057TIP3    H112177   3.674   3.727   2.594 -0.3016  0.3895  0.4285
 4057TIP3    H212178   3.777   3.619   2.617 -0.6071 -0.2872 -1.2352
 4058TIP3   OH212179   5.626   2.108   4.941  0.6191  0.7822  0.3554
 4058TIP3    H112180   5.599   2.199   4.928 -0.7686  0.1614 -1.6229
 4058TIP3    H212181   5.552   2.068   4.987  0.9336  0.5121  0.6232
 4059TIP3   OH212182   3.288   3.912   3.968  0.1867 -0.1531  0.0407
 4059TIP3    H112183   3.229   3.945   3.900 -0.6416 -2.2410 -0.3502
 4059TIP3    H212184   3.376   3.932   3.936 -0.1902  3.3271  0.7880
 4060TIP3   OH212185   4.429   3.206   1.892 -0.1489 -0.1958  0.1292
 4060TIP3    H112186   4.434   3.283   1.835  0.8228 -0.0246  0.4309
 4060TIP3    H212187   4.360   3.228   1.955  0.2702  0.5348  0.3498
 4061TIP3   OH212188   3.739   5.952   0.492 -0.1093 -0.2334  0.4095
 4061TIP3    H112189   3.832   5.935   0.508  0.2702 -0.5085 -1.7867
 4061TIP3    H212190   3.710   5.877   0.441 -0.9936  0.8551 -0.7376
 4062TIP3   OH212191   3.201   1.069   4.356 -0.4312 -0.4495 -0.1587
 4062TIP3    H112192   3.271   1.076   4.420 -1.0817  0.5792  0.4770
 4062TIP3    H212193   3.122   1.057   4.408 -0.8254 -0.8066 -0.8241
 4063TIP3   OH212194   0.929   1.567   1.142 -0.3114  0.1702 -0.3960
 4063TIP3    H112195   0.872   1.538   1.214 -1.9364 -0.4840 -1.8647
 4063TIP3    H212196   1.001   1.504   1.141  1.1395  1.6150  2.1666
 4064TIP3   OH212197   6.071   2.759   5.002 -0.1722  0.1683 -0.1464
 4064TIP3    H112198   6.101   2.850   4.996  0.2340 -0.0056 -0.8895
 4064TIP3    H212199   6.046   2.748   5.094 -0.5276  1.1215 -0.1200
 4065TIP3   OH212200   4.395   4.685   5.091  0.3843 -0.0762 -0.6385
 4065TIP3    H112201   4.395   4.710   4.999  0.7219  0.4211 -0.5087
 4065TIP3    H212202   4.357   4.761   5.136 -0.1999 -0.4921 -0.4113
 4066TIP3   OH212203   0.179  -0.022   3.252 -0.2627 -0.4300  0.8950
 4066TIP3    H112204   0.229   0.023   3.320  2.2112 -1.2611 -0.2630
 4066TIP3    H212205   0.173   0.042   3.181  0.8806 -0.9679  0.2946
 4067TIP3   OH212206   5.986   0.156   3.028  0.5755  0.4956 -0.0007
 4067TIP3    H112207   5.961   0.174   2.937 -0.1931 -1.3717 -0.2128
 4067TIP3    H212208   6.044   0.079   3.021 -0.1247 -0.1502  1.1297
 4068TIP3   OH212209   2.694   2.642   3.870  0.5249 -0.0361  0.3807
 4068TIP3    H112210   2.745   2.699   3.813  0.9848 -1.6664 -0.9403
 4068TIP3    H212211   2.611   2.629   3.823  0.4909 -0.5535  0.5732
 4069TIP3   OH212212   1.047   3.303   0.792 -0.4251 -0.0448  0.8279
 4069TIP3    H112213   0.957   3.326   0.816 -0.6680  3.5154 -2.5793
 4069TIP3    H212214   1.038   3.249   0.714  0.4230 -0.8069  1.2371
 4070TIP3   OH212215   6.033   2.486   5.077  0.5706 -0.2814  0.6562
 4070TIP3    H112216   6.060   2.534   5.155 -2.3486 -0.2806  1.8038
 4070TIP3    H212217   5.989   2.551   5.023  0.6695 -0.7350  0.0180
 4071TIP3   OH212218   5.587   1.228   1.773  0.5826 -0.0845 -0.4677
 4071TIP3    H112219   5.508   1.185   1.805 -1.9678  2.2823 -3.0178
 4071TIP3    H212220   5.596   1.199   1.683  1.7460  0.8317 -0.6826
 4072TIP3   OH212221   1.582   4.724   3.545 -0.2309 -0.1361 -0.0764
 4072TIP3    H112222   1.615   4.637   3.523  1.9008  1.1409 -2.3899
 4072TIP3    H212223   1.639   4.754   3.616  2.6697  1.3116 -2.7959
 4073TIP3   OH212224   3.432   3.150   1.689 -0.1633 -0.7083  0.0762
 4073TIP3    H112225   3.410   3.218   1.753  0.4305  0.6900 -1.1329
 4073TIP3    H212226   3.528   3.148   1.689 -0.1760 -1.3414 -0.1058
 4074TIP3   OH212227   4.953   2.502   1.901  0.4809  0.4296 -0.0868
 4074TIP3    H112228   4.913   2.567   1.960  0.5608 -1.0997  1.7561
 4074TIP3    H212229   5.020   2.551   1.854 -1.7097  2.4612 -1.3271
 4075TIP3   OH212230   4.662   0.404   2.139 -0.7787  0.0096  0.0242
 4075TIP3    H112231   4.694   0.443   2.057 -0.4893  0.0036  0.1307
 4075TIP3    H212232   4.674   0.473   2.204 -0.3669 -0.2183  0.1920
 4076TIP3   OH212233   1.256   4.985   0.344  0.4925  0.2391 -0.1501
 4076TIP3    H112234   1.298   4.903   0.319  2.5131  1.1871 -0.1086
 4076TIP3    H212235   1.323   5.031   0.395 -0.4617  2.0361 -0.4331
 4077TIP3   OH212236   0.664   5.364   0.923  0.4948  0.3618 -0.3936
 4077TIP3    H112237   0.672   5.270   0.909 -1.3042  0.1991 -0.5718
 4077TIP3    H212238   0.602   5.372   0.996 -0.3745  1.4132 -1.2147
 4078TIP3   OH212239   4.086   0.557   0.952 -0.1881 -0.2745  0.4327
 4078TIP3    H112240   4.084   0.642   0.995  1.3549 -0.4999  1.0064
 4078TIP3    H212241   4.149   0.567   0.881  0.2660 -1.0104  0.7122
 4079TIP3   OH212242   2.795   3.272   0.560  0.0263 -0.0516  0.3259
 4079TIP3    H112243   2.745   3.201   0.601  0.6129 -0.9628 -0.5082
 4079TIP3    H212244   2.772   3.350   0.611 -1.5033 -0.6244  0.5540
 4080TIP3   OH212245   6.299   2.005   3.400  0.0058  0.1946  0.8624
 4080TIP3    H112246   6.267   2.094   3.416 -1.6569 -0.3777  0.9818
 4080TIP3    H212247   6.235   1.968   3.339  0.8417 -0.8232  0.5778
 4081TIP3   OH212248   1.470   3.765   2.542 -0.6482  0.2064  0.2211
 4081TIP3    H112249   1.491   3.859   2.536  1.2511 -0.1244  0.8623
 4081TIP3    H212250   1.523   3.724   2.474 -2.3800 -0.3236 -0.8659
 4082TIP3   OH212251   3.049   2.562   2.555  0.1459 -0.4607  0.4981
 4082TIP3    H112252   3.101   2.632   2.595  1.3924 -1.4103  0.5927
 4082TIP3    H212253   3.059   2.576   2.460  0.2762 -0.4111  0.5185
 4083TIP3   OH212254   1.390   2.062   0.069 -0.2836 -0.3634  0.0754
 4083TIP3    H112255   1.431   2.023  -0.008  1.1513  0.9499  0.1236
 4083TIP3    H212256   1.434   2.021   0.144 -1.2772 -1.2196  0.2170
 4084TIP3   OH212257   4.261   3.747   4.434  0.0117 -0.3504 -0.7944
 4084TIP3    H112258   4.343   3.796   4.434  0.5869 -0.7577  4.3244
 4084TIP3    H212259   4.194   3.812   4.457 -0.1405 -0.9060  0.4155
 4085TIP3   OH212260   0.582   5.655   3.664  0.2120  0.2017 -0.2178
 4085TIP3    H112261   0.537   5.690   3.586  1.7258  1.8737 -0.4123
 4085TIP3    H212262   0.536   5.697   3.737 -0.0570  0.0413 -0.2916
 4086TIP3   OH212263   1.814   4.078   4.465 -0.2141  0.0051  0.3820
 4086TIP3    H112264   1.768   4.068   4.548  0.2750  4.5422  1.4677
 4086TIP3    H212265   1.891   4.022   4.473 -2.0066 -2.4645  1.3515
 4087TIP3   OH212266   4.988   2.517   3.630 -0.4388 -0.2575  0.1612
 4087TIP3    H112267   4.895   2.496   3.639 -0.8683  0.6625 -1.6241
 4087TIP3    H212268   5.026   2.441   3.587 -0.3832 -0.5794  0.7732
 4088TIP3   OH212269   0.732   2.461   4.554 -0.3202 -0.3477  0.3003
 4088TIP3    H112270   0.713   2.465   4.648  0.2916  0.2165  0.4003
 4088TIP3    H212271   0.802   2.525   4.540  0.7765 -1.6199 -0.2492
 4089TIP3   OH212272   1.252   1.905   3.077  0.4697 -0.3376 -0.0133
 4089TIP3    H112273   1.228   1.925   2.987  2.0542 -1.1492 -0.6484
 4089TIP3    H212274   1.250   1.990   3.122  0.1814  0.1517 -0.9330
 4090TIP3   OH212275   5.581   3.307   1.155  0.1408  0.2003 -0.0655
 4090TIP3    H112276   5.549   3.251   1.225 -0.8701  1.7942  0.8041
 4090TIP3    H212277   5.662   3.345   1.190  1.0425 -0.9729 -0.8082
 4091TIP3   OH212278   3.877   0.617   3.605 -0.4673  0.2269  0.0802
 4091TIP3    H112279   3.888   0.583   3.516 -0.6544 -0.7690  0.4309
 4091TIP3    H212280   3.921   0.702   3.603 -0.3119  0.1370 -0.9151
 4092TIP3   OH212281   5.358   2.860   1.844  0.5688 -0.2699  0.1997
 4092TIP3    H112282   5.389   2.774   1.817 -1.2145 -1.2331  1.0582
 4092TIP3    H212283   5.269   2.845   1.875  0.4971  1.7571  1.1418
 4093TIP3   OH212284   3.309   2.660   0.357  0.2171 -0.3822  0.2510
 4093TIP3    H112285   3.382   2.719   0.372  0.5000 -0.6175 -0.1786
 4093TIP3    H212286   3.339   2.601   0.288 -0.9345  0.4960 -1.0612
 4094TIP3   OH212287   1.725   2.090   2.917  0.3524 -0.0223 -0.3766
 4094TIP3    H112288   1.737   1.995   2.917 -0.3495 -0.1165 -0.0220
 4094TIP3    H212289   1.808   2.125   2.886  1.0237 -0.6968  0.6183
 4095TIP3   OH212290   5.929   2.877   3.071  0.4124 -0.3203 -0.1243
 4095TIP3    H112291   5.984   2.917   3.139  0.6254 -1.7878  0.6215
 4095TIP3    H212292   5.854   2.936   3.062  0.8204  0.3555  0.7433
 4096TIP3   OH212293   3.060   4.460   3.792 -0.3862 -0.4943 -0.2236
 4096TIP3    H112294   3.012   4.444   3.873 -1.8532  1.2498 -0.6845
 4096TIP3    H212295   3.005   4.424   3.723 -1.4715  2.0271 -0.8111
 4097TIP3   OH212296   4.875   3.910   2.760  0.5667  0.3984  0.6403
 4097TIP3    H112297   4.811   3.919   2.689  0.5871 -1.1798  0.3715
 4097TIP3    H212298   4.953   3.875   2.717  0.6312 -0.4235  1.4056
 4098TIP3   OH212299   0.222   4.987   0.096 -0.1871 -0.0272 -0.1017
 4098TIP3    H112300   0.288   4.923   0.068 -1.0026 -0.5829 -0.8191
 4098TIP3    H212301   0.154   4.934   0.137 -0.3300  0.5125  0.3737
 4099TIP3   OH212302   2.985   0.334   0.089  0.1964  0.4321 -0.1718
 4099TIP3    H112303   2.931   0.413   0.092  0.9939  0.9864 -0.0546
 4099TIP3    H212304   2.927   0.263   0.116  0.1054  1.3399  2.2187
 4100TIP3   OH212305   3.232   1.560   1.634 -0.0705 -0.5915 -0.1293
 4100TIP3    H112306   3.192   1.545   1.719  1.4898 -0.8294  0.5916
 4100TIP3    H212307   3.161   1.544   1.571 -0.6728 -2.6932  0.9918
 4101TIP3   OH212308   0.555   3.887   3.883 -0.4237 -0.3193  0.1551
 4101TIP3    H112309   0.577   3.953   3.818  0.6029  1.1055  1.8867
 4101TIP3    H212310   0.557   3.933   3.967  0.7720 -2.6229  1.4820
 4102TIP3   OH212311   2.638   2.268   4.210 -0.1183  0.0609  0.0471
 4102TIP3    H112312   2.577   2.247   4.140  0.7265 -0.0891 -0.6570
 4102TIP3    H212313   2.607   2.216   4.284  0.4619 -1.7910 -0.9481
 4103TIP3   OH212314   5.994   1.320   0.392 -0.4493 -0.4940  0.2352
 4103TIP3    H112315   6.031   1.403   0.422 -2.1493 -0.4616  2.4957
 4103TIP3    H212316   6.070   1.265   0.372  0.7223  0.8892  0.7594
 4104TIP3   OH212317   1.979   1.662   3.228 -0.0834  0.0456  0.1064
 4104TIP3    H112318   1.971   1.578   3.274 -1.8332  0.5589  0.8235
 4104TIP3    H212319   2.060   1.699   3.260 -0.0137 -0.7440  0.8799
 4105TIP3   OH212320   5.196   0.336   4.668 -0.3712 -0.4426  0.3954
 4105TIP3    H112321   5.132   0.400   4.698 -0.9157 -1.3949  1.3578
 4105TIP3    H212322   5.163   0.306   4.583  0.4786  1.3185 -0.6099
 4106TIP3   OH212323   4.060   1.610   4.500 -0.1962  0.2909 -0.2783
 4106TIP3    H112324   4.022   1.636   4.584  0.0613  1.2479 -0.4373
 4106TIP3    H212325   4.010   1.659   4.435 -0.0909 -0.0899 -0.6460
 4107TIP3   OH212326   5.090   4.289   1.619  0.5716 -0.4170  0.1119
 4107TIP3    H112327   5.093   4.272   1.525  0.4961 -2.2436  0.4153
 4107TIP3    H212328   5.067   4.382   1.625 -1.2282 -0.6812 -1.6517
 4108TIP3   OH212329   2.434   5.503   0.669  0.6568 -0.8743 -0.0401
 4108TIP3    H112330   2.509   5.521   0.612  0.8141 -0.9828  0.1315
 4108TIP3    H212331   2.359   5.495   0.609  1.0479 -2.3526 -0.3873
 4109TIP3   OH212332   3.898   2.632   3.810 -0.1849 -0.7199 -0.2468
 4109TIP3    H112333   3.816   2.669   3.844 -0.2310 -1.7724  0.8685
 4109TIP3    H212334   3.960   2.641   3.883  0.4873 -0.6070 -0.8222
 4110TIP3   OH212335   6.218   0.143   2.295  0.3069 -0.1243 -0.2474
 4110TIP3    H112336   6.232   0.106   2.382 -0.3854  1.5907  0.6537
 4110TIP3    H212337   6.123   0.141   2.282  0.4138 -0.5407 -1.0658
 4111TIP3   OH212338   5.102   0.032   5.037 -0.1406 -0.0497  0.1946
 4111TIP3    H112339   5.145   0.098   4.983 -1.8622 -1.1139 -2.7622
 4111TIP3    H212340   5.018   0.072   5.061 -1.2887 -1.0912 -1.7983
 4112TIP3   OH212341   5.929   4.379   0.739  0.7219  0.3883 -0.7209
 4112TIP3    H112342   6.001   4.325   0.706  0.5215 -0.7560  0.6203
 4112TIP3    H212343   5.929   4.363   0.834 -1.5111  0.1016 -0.7292
 4113TIP3   OH212344   0.554   1.395   3.267 -0.0391  0.0319 -0.3216
 4113TIP3    H112345   0.489   1.463   3.284 -1.2429 -0.4405 -2.6208
 4113TIP3    H212346   0.592   1.376   3.353 -0.3516  2.8695  0.5335
 4114TIP3   OH212347   3.453   1.522   3.295 -0.1827 -0.1223  0.0936
 4114TIP3    H112348   3.496   1.443   3.266 -0.4253  0.1324 -1.0022
 4114TIP3    H212349   3.373   1.527   3.243  0.6732  1.7423 -1.1517
 4115TIP3   OH212350   2.642   1.204   4.716 -0.3563 -0.6700 -0.3527
 4115TIP3    H112351   2.684   1.144   4.778 -1.3220  1.0871  2.2055
 4115TIP3    H212352   2.711   1.267   4.695 -0.3873 -0.4873  0.0699
 4116TIP3   OH212353   1.368   4.401   3.444  0.3340  0.3236  0.5344
 4116TIP3    H112354   1.345   4.465   3.376  0.2831 -1.2811 -1.0206
 4116TIP3    H212355   1.453   4.367   3.418  1.2066  0.9568  2.3182
 4117TIP3   OH212356  -0.006   0.644   1.723  0.0882 -0.5371 -0.1386
 4117TIP3    H112357   0.028   0.570   1.773  0.6561  0.3699  0.8753
 4117TIP3    H212358  -0.015   0.714   1.788 -0.0516  0.4042 -1.1462
 4118TIP3   OH212359   3.735   5.516   2.995 -0.2834 -0.2560  0.8907
 4118TIP3    H112360   3.761   5.441   2.943 -0.2110  0.9566 -0.9269
 4118TIP3    H212361   3.657   5.488   3.042 -1.1328 -1.0183 -0.9039
 4119TIP3   OH212362   3.634   0.818   0.335 -0.2620  0.5602 -0.0935
 4119TIP3    H112363   3.648   0.762   0.411  0.6653  1.4131  0.3871
 4119TIP3    H212364   3.613   0.757   0.264 -2.0275 -0.1931  1.0230
 4120TIP3   OH212365   0.804   0.510   3.406 -0.0910  0.2554  0.4026
 4120TIP3    H112366   0.886   0.470   3.433 -0.4583 -0.5165  0.3932
 4120TIP3    H212367   0.801   0.498   3.311  0.0126  0.7237  0.3366
 4121TIP3   OH212368   3.473   4.992   2.440 -0.0444  0.1914  0.2876
 4121TIP3    H112369   3.549   5.049   2.434 -1.1126  1.5961 -0.7658
 4121TIP3    H212370   3.401   5.044   2.403 -1.7751 -0.6134  2.2612
 4122TIP3   OH212371   1.212   4.093   0.291 -0.2323  0.4518 -0.2319
 4122TIP3    H112372   1.299   4.127   0.268  0.0611  0.3517  0.7097
 4122TIP3    H212373   1.212   4.089   0.386 -0.1413 -2.4306 -0.2827
 4123TIP3   OH212374   0.010   0.059   2.560  0.1717 -0.0777  0.6841
 4123TIP3    H112375   0.086   0.118   2.558 -2.0798  3.0646 -1.2370
 4123TIP3    H212376  -0.017   0.059   2.652  1.6241 -0.1200  1.1388
 4124TIP3   OH212377   2.661   1.730   3.704 -0.4502  0.2150  0.3137
 4124TIP3    H112378   2.608   1.783   3.764  2.7192  2.1173  1.6746
 4124TIP3    H212379   2.712   1.794   3.654  1.6472 -1.4652  0.1691
 4125TIP3   OH212380   5.878   4.471   2.757 -0.0019 -0.7793 -0.5266
 4125TIP3    H112381   5.940   4.544   2.760 -1.3534  0.4489 -0.9357
 4125TIP3    H212382   5.915   4.405   2.815  0.2165  1.0869  1.5866
 4126TIP3   OH212383   2.555   1.944   0.861 -0.2726 -0.2145  0.0002
 4126TIP3    H112384   2.545   1.865   0.809  0.1507 -0.5313  0.3898
 4126TIP3    H212385   2.468   1.986   0.859 -1.1418 -1.7819  1.5348
 4127TIP3   OH212386   5.442   0.955   0.259 -0.0738  0.0838  0.3317
 4127TIP3    H112387   5.438   0.981   0.167  1.6741  1.4718  0.6007
 4127TIP3    H212388   5.369   1.001   0.300 -0.0874  0.4971 -0.1399
 4128TIP3   OH212389   4.388   3.289   2.251 -0.6730  0.0300 -0.0350
 4128TIP3    H112390   4.453   3.328   2.192 -1.0062 -0.2743 -0.6143
 4128TIP3    H212391   4.320   3.355   2.260 -1.0179 -0.2238 -0.6573
 4129TIP3   OH212392   4.833   4.499   1.312 -0.6347 -0.3715  0.2204
 4129TIP3    H112393   4.772   4.462   1.248 -0.0611 -0.7211 -0.1343
 4129TIP3    H212394   4.920   4.482   1.275 -0.2847 -0.8517  1.2409
 4130TIP3   OH212395   5.795   4.065   1.367  0.0697  0.3496 -0.1004
 4130TIP3    H112396   5.869   4.124   1.383 -0.4301  0.9388  0.0994
 4130TIP3    H212397   5.760   4.046   1.454 -0.8918  1.2523 -0.2540
 4131TIP3   OH212398   3.428   4.520   2.595 -0.3873  0.3079 -0.4313
 4131TIP3    H112399   3.502   4.484   2.643 -0.2878 -0.4722 -1.1401
 4131TIP3    H212400   3.370   4.556   2.662  0.5849  0.8560  0.1329
 4132TIP3   OH212401   2.376   3.938   3.943 -0.2200 -0.2069  0.8483
 4132TIP3    H112402   2.367   3.906   3.854  0.7806 -1.3887  1.1474
 4132TIP3    H212403   2.295   3.912   3.987  0.0697 -1.2623  0.7657
 4133TIP3   OH212404   5.244   3.204   3.138  0.3373 -0.2943 -0.6662
 4133TIP3    H112405   5.162   3.222   3.092  0.8851  0.4537 -1.3577
 4133TIP3    H212406   5.290   3.142   3.081 -0.9168 -2.9994  1.0281
 4134TIP3   OH212407   3.091   0.784   1.471  0.3759 -0.1287  0.5927
 4134TIP3    H112408   3.012   0.738   1.498  1.1586 -2.0223 -0.1544
 4134TIP3    H212409   3.073   0.812   1.381 -0.5371  2.1872  1.4155
 4135TIP3   OH212410   2.997   2.076   2.454 -0.3074 -0.0383 -0.0456
 4135TIP3    H112411   2.990   2.142   2.523  0.1173 -1.3990  1.3668
 4135TIP3    H212412   2.909   2.037   2.450 -0.7133  0.9232 -1.2602
 4136TIP3   OH212413   3.693   2.587   0.210  0.0918 -0.1422  0.2220
 4136TIP3    H112414   3.600   2.598   0.189 -0.1944 -1.7616  0.5229
 4136TIP3    H212415   3.700   2.614   0.302  0.0410  0.4774  0.0535
 4137TIP3   OH212416   6.149   0.672   2.206 -0.4565  0.6353  0.1302
 4137TIP3    H112417   6.197   0.601   2.249 -2.0080  0.8383  2.3956
 4137TIP3    H212418   6.189   0.752   2.242 -2.5209  0.8110  2.3295
 4138TIP3   OH212419   4.726   3.184   3.535 -0.3067  0.2672 -1.0598
 4138TIP3    H112420   4.786   3.121   3.577  1.8863  2.6544 -0.3833
 4138TIP3    H212421   4.696   3.240   3.606  2.3007  3.4675 -2.2164
 4139TIP3   OH212422   4.664   4.986   2.188 -0.1982  0.2223  0.4808
 4139TIP3    H112423   4.578   5.024   2.169  0.1400  1.0996  0.6485
 4139TIP3    H212424   4.716   5.060   2.220  0.5644 -0.3369  0.5543
 4140TIP3   OH212425   4.367   3.196   2.500  0.3543  0.2644 -0.0592
 4140TIP3    H112426   4.383   3.207   2.406  1.7268  2.2138  0.3537
 4140TIP3    H212427   4.452   3.171   2.536  0.0954  0.6199  0.8214
 4141TIP3   OH212428   0.074   1.664   2.352 -0.1456 -0.3498 -0.1197
 4141TIP3    H112429   0.155   1.715   2.353  0.6383 -1.5301  1.3654
 4141TIP3    H212430   0.095   1.585   2.302 -1.2956  0.5884 -2.2421
 4142TIP3   OH212431   5.415   1.973   4.081 -0.2038 -0.2962  0.3445
 4142TIP3    H112432   5.465   1.919   4.142 -0.0647 -0.5317  0.0162
 4142TIP3    H212433   5.355   1.912   4.038 -1.2872  0.0946  1.2598
 4143TIP3   OH212434   3.216   5.664   2.767 -0.1173 -0.7743 -0.2819
 4143TIP3    H112435   3.294   5.692   2.816  0.0361 -0.7799 -0.5195
 4143TIP3    H212436   3.143   5.707   2.811 -0.0599 -1.3678  0.4052
 4144TIP3   OH212437   4.239   0.684   3.308 -0.1723  0.1524  0.2809
 4144TIP3    H112438   4.215   0.615   3.245  1.8395  0.9957 -1.5624
 4144TIP3    H212439   4.301   0.642   3.367 -1.3170 -0.3839  1.1394
 4145TIP3   OH212440   2.351   5.899   2.670 -0.1486  0.3832 -0.3013
 4145TIP3    H112441   2.412   5.883   2.598 -0.8389  0.5832 -0.9438
 4145TIP3    H212442   2.283   5.955   2.632 -0.4902  0.5480  0.5262
 4146TIP3   OH212443   0.255   2.727   5.143 -0.6444 -0.4500  0.1622
 4146TIP3    H112444   0.220   2.669   5.075 -2.1462 -0.6637  1.0694
 4146TIP3    H212445   0.195   2.802   5.143 -0.0969 -0.0026  0.5951
 4147TIP3   OH212446   0.416   0.636   0.132 -0.1329 -0.5374  0.1051
 4147TIP3    H112447   0.335   0.656   0.179  0.1681  2.9900 -0.5661
 4147TIP3    H212448   0.478   0.610   0.200 -0.5803  1.3575  1.3000
 4148TIP3   OH212449   5.670   5.324   0.808  0.6905  0.1031  0.4616
 4148TIP3    H112450   5.575   5.331   0.804  0.4909 -2.2861 -0.5278
 4148TIP3    H212451   5.700   5.342   0.719  0.9002 -1.5218  0.1655
 4149TIP3   OH212452   2.169   1.848   2.180  0.9513 -0.0620 -0.3125
 4149TIP3    H112453   2.092   1.887   2.221  1.1853 -1.2062  1.3048
 4149TIP3    H212454   2.243   1.897   2.215  1.0099  0.6210 -1.3707
 4150TIP3   OH212455   0.139   3.769   4.671 -0.1895 -0.4960  0.2122
 4150TIP3    H112456   0.058   3.814   4.644  0.2233  0.2758  0.2329
 4150TIP3    H212457   0.185   3.833   4.726  0.4897 -0.8867  0.1071
 4151TIP3   OH212458   0.606   1.484   0.084  0.1731 -0.4059  0.0186
 4151TIP3    H112459   0.584   1.551   0.148 -0.8766 -1.2389  0.5702
 4151TIP3    H212460   0.700   1.495   0.069  0.2620  0.3803  1.0257
 4152TIP3   OH212461   0.559   4.636   0.451  0.0319  0.1045 -0.1670
 4152TIP3    H112462   0.535   4.585   0.374  0.2934 -0.3777  0.0680
 4152TIP3    H212463   0.550   4.727   0.423 -0.4412 -0.0687 -0.5871
 4153TIP3   OH212464   6.149   2.702   1.803 -0.1280 -0.2977 -0.0522
 4153TIP3    H112465   6.230   2.674   1.846 -0.2560 -0.7993 -0.1324
 4153TIP3    H212466   6.127   2.786   1.844  0.5980 -0.0033 -0.2466
 4154TIP3   OH212467   0.552   2.559   0.256  0.6344 -0.0818 -0.7554
 4154TIP3    H112468   0.557   2.654   0.268  0.3479 -0.2354  0.7223
 4154TIP3    H212469   0.562   2.546   0.162 -0.4455  1.4921 -1.1208
 4155TIP3   OH212470   2.392   4.861   0.318  0.3538 -0.1841 -0.3387
 4155TIP3    H112471   2.327   4.816   0.263 -0.5015  0.1243  0.4023
 4155TIP3    H212472   2.431   4.927   0.261  1.4248 -1.6337 -1.3698
 4156TIP3   OH212473   3.144   4.276   1.941  0.1510  0.3096  0.0343
 4156TIP3    H112474   3.090   4.355   1.952 -1.5394 -0.6524 -0.9559
 4156TIP3    H212475   3.174   4.280   1.851 -0.1894 -0.3244 -0.1083
 4157TIP3   OH212476   5.562   3.207   3.771 -0.2249 -0.5168 -0.3206
 4157TIP3    H112477   5.593   3.122   3.739 -0.5028 -0.1489 -1.6515
 4157TIP3    H212478   5.474   3.215   3.735 -0.8625 -0.3908  1.2160
 4158TIP3   OH212479   1.893   3.193   2.356  0.0613  0.3200 -0.5457
 4158TIP3    H112480   1.894   3.112   2.406  1.8948 -0.9357 -2.4548
 4158TIP3    H212481   1.820   3.183   2.295  1.1312 -0.5507 -1.7166
 4159TIP3   OH212482   4.029   1.380   3.705 -0.3466  0.2587 -0.1837
 4159TIP3    H112483   4.113   1.335   3.700 -0.1822  0.3573  1.2936
 4159TIP3    H212484   4.050   1.473   3.696 -0.1242  0.3871  1.3925
 4160TIP3   OH212485   0.728   3.111   1.951 -0.3128  0.0114 -0.3750
 4160TIP3    H112486   0.750   3.203   1.933 -2.5758  0.3591 -1.8170
 4160TIP3    H212487   0.761   3.095   2.039  0.5663  2.0581 -0.2724
 4161TIP3   OH212488   3.466   1.556   1.080 -0.1395 -0.0722 -0.2219
 4161TIP3    H112489   3.558   1.556   1.055 -0.6007 -0.5710 -2.0669
 4161TIP3    H212490   3.449   1.465   1.108 -0.2994 -0.2276 -0.8176
 4162TIP3   OH212491   4.022   5.941   0.493 -0.0633  0.6547 -0.2308
 4162TIP3    H112492   4.093   5.912   0.435  1.1637 -0.6413  1.7840
 4162TIP3    H212493   3.984   6.016   0.448  1.7995  0.6492 -1.9850
 4163TIP3   OH212494   1.107   5.194   4.773 -0.0741  0.0735  0.7212
 4163TIP3    H112495   1.145   5.208   4.686 -0.2835 -0.0979  0.5990
 4163TIP3    H212496   1.114   5.279   4.816 -1.0261  0.4784  0.1156
 4164TIP3   OH212497   1.508   2.137   1.278  0.1540  0.5371 -0.0648
 4164TIP3    H112498   1.537   2.227   1.293 -1.4422  1.1819 -0.6669
 4164TIP3    H212499   1.554   2.110   1.198 -1.6436  1.9675 -1.6938
 4165TIP3   OH212500   3.873   2.972   2.326  0.0570  0.4804  0.5855
 4165TIP3    H112501   3.835   3.056   2.303 -0.6147  0.0479  0.0673
 4165TIP3    H212502   3.907   2.985   2.415 -0.9570  1.0069  0.9156
 4166TIP3   OH212503   1.160   2.742   2.855 -0.3340 -0.2747  0.1660
 4166TIP3    H112504   1.100   2.697   2.796  0.2521 -1.5459  0.4984
 4166TIP3    H212505   1.235   2.683   2.863  1.3429  1.6125 -0.8521
 4167TIP3   OH212506   2.457   5.919   4.018 -0.5170  0.2039 -0.6087
 4167TIP3    H112507   2.509   5.999   4.026  1.1065 -0.9539  1.2679
 4167TIP3    H212508   2.503   5.866   3.954 -0.0202 -0.3399  0.1856
 4168TIP3   OH212509   4.809   2.292   4.517  0.2642  0.7224 -0.1476
 4168TIP3    H112510   4.783   2.201   4.528  2.1092  0.2843  0.9639
 4168TIP3    H212511   4.896   2.288   4.477  0.4782  1.9815  0.1407
 4169TIP3   OH212512   4.672   1.130   2.855  0.1063 -1.0413  0.3992
 4169TIP3    H112513   4.652   1.125   2.948  0.3193  1.4562  0.6485
 4169TIP3    H212514   4.674   1.224   2.836 -0.5772 -1.4904 -2.2709
 4170TIP3   OH212515   2.703   0.328   4.761 -0.1406 -0.0223  0.4579
 4170TIP3    H112516   2.621   0.343   4.713  0.4047  0.1208 -0.4524
 4170TIP3    H212517   2.698   0.236   4.788 -1.0509  0.2622  1.2942
 4171TIP3   OH212518   1.014   0.139   1.878 -0.4858 -0.8237 -0.1540
 4171TIP3    H112519   1.087   0.159   1.937  0.1356 -0.3827 -1.0442
 4171TIP3    H212520   0.941   0.191   1.911  0.7143  2.0671 -1.6128
 4172TIP3   OH212521   2.556   0.188   3.185 -0.2874 -0.0923 -0.2628
 4172TIP3    H112522   2.511   0.223   3.108  0.4604 -0.2501 -0.7931
 4172TIP3    H212523   2.541   0.253   3.253 -0.0596  0.6009 -0.8572
 4173TIP3   OH212524   3.613   3.903   1.979  0.0091  0.6914 -0.2878
 4173TIP3    H112525   3.564   3.985   1.987  1.5531  1.8533 -1.9456
 4173TIP3    H212526   3.704   3.927   2.001  0.0444 -1.2965  2.2868
 4174TIP3   OH212527   0.938   5.065   4.130 -0.1258 -0.1816  0.4782
 4174TIP3    H112528   1.018   5.017   4.151 -0.5185 -1.6800 -1.2219
 4174TIP3    H212529   0.952   5.153   4.166  2.1223 -0.5227  0.5407
 4175TIP3   OH212530   1.687   1.218   5.121 -0.1734 -0.2383  0.0906
 4175TIP3    H112531   1.651   1.164   5.192 -0.4932  0.1387  0.2203
 4175TIP3    H212532   1.746   1.279   5.166  1.1395 -1.2452 -0.1802
 4176TIP3   OH212533   2.014   2.119   4.691 -0.1380  0.3211  0.1670
 4176TIP3    H112534   1.981   2.075   4.770 -1.6365  0.9052 -0.1018
 4176TIP3    H212535   2.056   2.199   4.725  1.7945 -0.8221  0.5794
 4177TIP3   OH212536   6.199   0.853   0.047  0.1373  0.0020  0.2714
 4177TIP3    H112537   6.222   0.784   0.108 -0.7378 -1.2626 -0.7681
 4177TIP3    H212538   6.181   0.930   0.102 -0.9581 -1.1733  1.6170
 4178TIP3   OH212539   4.175   4.148   3.971  0.2439  0.0769 -0.9058
 4178TIP3    H112540   4.185   4.135   4.065 -1.5552  2.3451 -0.3024
 4178TIP3    H212541   4.112   4.082   3.944 -0.2197  0.2417 -0.2407
 4179TIP3   OH212542   0.109   0.132   1.466 -0.0596 -0.4316  0.5202
 4179TIP3    H112543   0.161   0.162   1.540  0.8772 -1.0175  0.1271
 4179TIP3    H212544   0.076   0.212   1.425  1.6050  0.0530  0.0387
 4180TIP3   OH212545   2.423   0.008   4.133  0.6578  0.1918 -0.0995
 4180TIP3    H112546   2.482  -0.016   4.205  0.7582  1.7085  0.3671
 4180TIP3    H212547   2.480   0.015   4.056  0.8865  0.4344  0.0891
 4181TIP3   OH212548   0.518   3.912   2.509  0.5450  0.2302  0.0629
 4181TIP3    H112549   0.604   3.898   2.469  0.1850  2.8490 -1.8608
 4181TIP3    H212550   0.532   3.986   2.568 -0.2800  0.3473  0.1133
 4182TIP3   OH212551   5.605   0.993   4.164  0.4920 -0.2859  0.0546
 4182TIP3    H112552   5.570   0.907   4.140 -1.6385  1.2007 -2.8501
 4182TIP3    H212553   5.692   0.996   4.124 -0.6771 -0.0466 -2.6892
 4183TIP3   OH212554   3.317   2.700   2.504  0.1968  0.6422 -0.0838
 4183TIP3    H112555   3.260   2.771   2.532  1.4074  1.2968  0.8122
 4183TIP3    H212556   3.399   2.716   2.550  1.2281 -0.0784 -1.6144
 4184TIP3   OH212557   5.200   3.930   0.544 -0.0528 -0.4869 -0.2431
 4184TIP3    H112558   5.130   3.980   0.503  0.4363  0.9998  0.6502
 4184TIP3    H212559   5.281   3.970   0.510  0.4042 -2.0118 -1.0745
 4185TIP3   OH212560   5.397   2.342   4.696 -0.3826  0.8256 -0.6478
 4185TIP3    H112561   5.452   2.302   4.629  2.5480  1.9712  0.9003
 4185TIP3    H212562   5.315   2.363   4.651  0.5092 -0.7298 -3.1679
 4186TIP3   OH212563   0.245   4.585   1.677  0.5542  0.3714 -0.1662
 4186TIP3    H112564   0.240   4.590   1.582  1.4227 -0.0798 -0.2427
 4186TIP3    H212565   0.305   4.655   1.702  0.9662 -0.0246 -0.0253
 4187TIP3   OH212566   0.382   4.167   4.996 -0.3050 -0.3582 -0.3750
 4187TIP3    H112567   0.355   4.219   5.072 -0.4253 -0.0184 -0.6461
 4187TIP3    H212568   0.462   4.123   5.024  2.0960  2.9803 -1.3502
 4188TIP3   OH212569   2.036   4.465   0.209 -0.0909  0.0505  0.2611
 4188TIP3    H112570   2.010   4.557   0.207 -0.9480 -0.1807  0.3178
 4188TIP3    H212571   1.955   4.417   0.224  0.2224 -0.7718 -0.5407
 4189TIP3   OH212572   3.026   2.654   3.344 -0.0082  0.4720  0.3222
 4189TIP3    H112573   3.037   2.741   3.305 -1.6275 -0.0742 -1.5447
 4189TIP3    H212574   2.981   2.671   3.427 -2.4263  1.3661 -1.0467
 4190TIP3   OH212575   2.903   2.768   3.580  0.1573 -0.1433 -0.1337
 4190TIP3    H112576   2.969   2.784   3.647 -0.3470  0.8033  0.1550
 4190TIP3    H212577   2.835   2.834   3.596 -0.0189  0.0549 -1.5025
 4191TIP3   OH212578   2.190   0.424   0.902 -0.7373  0.0366 -0.1354
 4191TIP3    H112579   2.264   0.380   0.859 -1.5501 -1.0010 -0.5287
 4191TIP3    H212580   2.161   0.489   0.838 -1.3739 -0.8964 -0.8489
 4192TIP3   OH212581   0.782   4.233   3.799 -0.1642 -0.0012  0.1430
 4192TIP3    H112582   0.847   4.285   3.752  0.7838  0.0576  1.4850
 4192TIP3    H212583   0.761   4.285   3.877 -1.2593 -0.3722  0.1128
 4193TIP3   OH212584   2.776   4.115   1.424 -0.4949  0.1778 -0.3242
 4193TIP3    H112585   2.760   4.028   1.458 -1.2101  0.4180 -0.0315
 4193TIP3    H212586   2.752   4.109   1.331 -0.1201 -0.0449 -0.4098
 4194TIP3   OH212587   1.451   2.170   0.470 -0.2049 -0.3952 -0.1239
 4194TIP3    H112588   1.359   2.183   0.494  0.1610 -0.3562  1.3930
 4194TIP3    H212589   1.483   2.257   0.447 -0.1896 -0.1428  0.7959
 4195TIP3   OH212590   1.026   5.027   2.449 -0.1398  0.2712 -0.0261
 4195TIP3    H112591   0.937   5.051   2.475 -1.5113 -1.9399 -2.1835
 4195TIP3    H212592   1.058   5.102   2.400 -1.8997  0.1344 -1.4791
 4196TIP3   OH212593   1.468   4.652   4.008  0.0646  0.2952  0.3146
 4196TIP3    H112594   1.377   4.673   3.986  0.5737  0.3809 -1.9872
 4196TIP3    H212595   1.484   4.568   3.964  0.9170 -0.0584  1.2549
 4197TIP3   OH212596   5.758   2.409   3.741  0.3094  0.1489 -0.5192
 4197TIP3    H112597   5.730   2.500   3.743  0.3496  0.1450  1.2433
 4197TIP3    H212598   5.793   2.392   3.828  2.8727 -0.7717 -1.6202
 4198TIP3   OH212599   3.193   1.363   5.132 -0.3565 -0.0415  0.1252
 4198TIP3    H112600   3.236   1.282   5.104 -0.7126 -0.5132  0.8955
 4198TIP3    H212601   3.217   1.427   5.065  2.2279 -0.0512  0.8999
 4199TIP3   OH212602   5.971   0.483   1.243  0.3332  0.3183 -0.3956
 4199TIP3    H112603   5.955   0.405   1.189  0.9803  0.9406 -1.5331
 4199TIP3    H212604   5.938   0.460   1.329  1.2377 -1.5347 -0.4911
 4200TIP3   OH212605   0.111   2.809   2.935 -0.6431 -0.0773 -0.4706
 4200TIP3    H112606   0.022   2.780   2.914 -0.1774 -1.6368 -0.4317
 4200TIP3    H212607   0.145   2.843   2.852 -0.2883 -2.2625 -1.3069
 4201TIP3   OH212608   0.906   3.397   3.328 -0.9204 -0.0581 -0.3472
 4201TIP3    H112609   0.924   3.475   3.276  2.6340 -1.2339 -1.1584
 4201TIP3    H212610   0.930   3.324   3.272  1.1670 -1.4733  2.1623
 4202TIP3   OH212611   3.524   3.596   4.228  0.2191 -0.5327  0.5375
 4202TIP3    H112612   3.497   3.622   4.140  0.7656 -1.4253  0.0894
 4202TIP3    H212613   3.550   3.678   4.271 -1.1251  0.0573  0.2653
 4203TIP3   OH212614   1.801   5.550   4.503 -0.2836 -0.3794 -0.1818
 4203TIP3    H112615   1.741   5.544   4.577 -0.5488 -0.1221 -0.3709
 4203TIP3    H212616   1.811   5.644   4.488 -0.1888 -0.4292 -0.4334
 4204TIP3   OH212617   0.560   0.771   0.897 -0.0309 -0.4180  0.3319
 4204TIP3    H112618   0.641   0.746   0.851  0.2748 -0.6399  0.9687
 4204TIP3    H212619   0.574   0.862   0.922 -1.1371  0.4464 -1.9713
 4205TIP3   OH212620   3.580   5.207   3.534 -1.0620  0.3216  0.4813
 4205TIP3    H112621   3.670   5.216   3.565  0.1119 -3.7926 -1.0768
 4205TIP3    H212622   3.528   5.200   3.615  0.2517  0.9588  1.4266
 4206TIP3   OH212623   4.596   2.591   0.551  0.4597 -0.0142  0.3668
 4206TIP3    H112624   4.597   2.682   0.580 -1.4966  0.4052 -0.6642
 4206TIP3    H212625   4.503   2.567   0.552  0.9947 -2.2781  1.3993
 4207TIP3   OH212626   0.977   3.377   3.612 -0.0749 -0.3766  0.3035
 4207TIP3    H112627   0.983   3.443   3.543  1.5399 -1.8259 -1.0282
 4207TIP3    H212628   0.894   3.332   3.595 -1.2857  1.3500  1.3400
 4208TIP3   OH212629   4.408   5.617   0.109  0.7934  0.1363 -0.1813
 4208TIP3    H112630   4.389   5.539   0.057 -0.7239 -0.7698  1.6320
 4208TIP3    H212631   4.498   5.604   0.140  0.4396 -1.0852  0.3838
 4209TIP3   OH212632   4.400   0.793   1.400  0.0936  0.3649 -0.0372
 4209TIP3    H112633   4.449   0.713   1.421  1.3016  0.7325 -1.3166
 4209TIP3    H212634   4.350   0.812   1.480  1.2490 -0.6084  0.9604
 4210TIP3   OH212635   3.631   3.146   3.465  0.6275  0.1958 -0.0822
 4210TIP3    H112636   3.631   3.094   3.545 -0.5163 -0.4242 -0.4692
 4210TIP3    H212637   3.681   3.093   3.403  1.4383  0.6355  0.1879
 4211TIP3   OH212638   3.802   4.447   3.732  0.2658 -0.1643 -0.2773
 4211TIP3    H112639   3.854   4.527   3.725  0.9304 -0.6812 -1.6784
 4211TIP3    H212640   3.864   4.381   3.764 -0.3264 -0.0935  1.0638
 4212TIP3   OH212641   5.814   0.938   5.068  0.0044  0.1432 -0.2841
 4212TIP3    H112642   5.796   0.902   4.981  1.9129 -1.6309 -0.0208
 4212TIP3    H212643   5.893   0.990   5.056  0.1440  0.0807  0.3572
 4213TIP3   OH212644   6.099   3.127   0.347 -0.2079  0.4728 -0.0804
 4213TIP3    H112645   6.100   3.222   0.358 -0.0238  0.4743 -0.1002
 4213TIP3    H212646   6.047   3.095   0.420 -1.3259  0.6756 -0.7662
 4214TIP3   OH212647   5.951   4.347   4.637 -0.1923  0.5678  0.2650
 4214TIP3    H112648   5.939   4.405   4.713 -0.7577  1.5907 -0.5737
 4214TIP3    H212649   5.909   4.394   4.565  0.7940 -0.1407 -0.8006
 4215TIP3   OH212650   4.905   0.065   3.010 -0.7060  0.0690  0.6398
 4215TIP3    H112651   4.945  -0.007   3.059  0.2662  1.3846  1.8215
 4215TIP3    H212652   4.850   0.021   2.944  0.3403 -1.7498  0.9249
 4216TIP3   OH212653   0.600   5.529   1.876 -0.5790  0.2747 -0.8066
 4216TIP3    H112654   0.645   5.456   1.918 -1.7672  0.9012  1.7943
 4216TIP3    H212655   0.658   5.604   1.889  0.0604  0.0780 -2.3481
 4217TIP3   OH212656   4.756   3.759   4.602 -0.0924  0.2216  0.3606
 4217TIP3    H112657   4.788   3.672   4.624 -0.6980 -0.5117 -1.4241
 4217TIP3    H212658   4.669   3.764   4.641 -0.5336 -0.4536 -0.5018
 4218TIP3   OH212659   6.011   5.228   1.812 -0.1077  0.1700  0.0429
 4218TIP3    H112660   5.920   5.249   1.790 -0.3673  0.9628  1.7619
 4218TIP3    H212661   6.036   5.294   1.877  1.6157 -0.2087 -0.1973
 4219TIP3   OH212662   3.827   4.055   4.566  0.0219  0.3226  0.0886
 4219TIP3    H112663   3.846   4.148   4.571 -0.3079  0.3469  1.0500
 4219TIP3    H212664   3.732   4.049   4.574  0.0803 -0.1215  0.5058
 4220TIP3   OH212665   6.329   0.612   4.664  0.0039  0.1476  0.3160
 4220TIP3    H112666   6.322   0.650   4.576  1.2115 -0.1162  0.0789
 4220TIP3    H212667   6.239   0.605   4.695 -0.4182  0.5630 -0.7684
 4221TIP3   OH212668   2.168   3.333   0.583  0.0642  0.0145 -0.3576
 4221TIP3    H112669   2.147   3.283   0.662  1.6946 -0.8554 -0.4264
 4221TIP3    H212670   2.166   3.424   0.612  0.5464 -0.2851  0.6902
 4222TIP3   OH212671   2.298   4.308   2.437 -0.3850 -0.1839  0.1464
 4222TIP3    H112672   2.256   4.226   2.413 -0.5209  0.0180 -0.3106
 4222TIP3    H212673   2.274   4.321   2.529  0.0030 -0.8764  0.3574
 4223TIP3   OH212674   1.997   1.961   2.792  0.3017  0.0188 -0.2973
 4223TIP3    H112675   1.972   1.885   2.739  0.6707  0.5858 -1.3243
 4223TIP3    H212676   2.062   1.926   2.854 -0.4896 -0.7533  0.1175
 4224TIP3   OH212677   0.716   3.359   3.890  0.0792 -0.2010  0.3737
 4224TIP3    H112678   0.732   3.434   3.833  2.4241 -0.0750  1.0746
 4224TIP3    H212679   0.623   3.365   3.913 -0.5269  0.6802 -2.0468
 4225TIP3   OH212680   4.338   0.818   3.554  0.3239  0.2093 -0.3924
 4225TIP3    H112681   4.293   0.814   3.470 -0.8171  0.5231  0.1764
 4225TIP3    H212682   4.369   0.729   3.570  0.9092  0.2339 -1.3187
 4226TIP3   OH212683   5.834   0.403   3.542  0.4113  0.1403 -0.1723
 4226TIP3    H112684   5.908   0.434   3.594 -0.2771  0.4653  0.6496
 4226TIP3    H212685   5.849   0.309   3.532  0.7365  0.1343  0.3265
 4227TIP3   OH212686   3.855   3.474   1.144  0.4656  0.0217 -0.3154
 4227TIP3    H112687   3.845   3.494   1.051 -0.6486  1.1087  0.0062
 4227TIP3    H212688   3.811   3.547   1.189  0.9226 -0.5196  1.0564
 4228TIP3   OH212689   2.802   3.166   4.653  0.0366  0.1331  0.4629
 4228TIP3    H112690   2.751   3.187   4.575 -0.5274 -1.0145  0.4984
 4228TIP3    H212691   2.737   3.158   4.723  0.3758 -0.2420  0.7432
 4229TIP3   OH212692   3.930   5.232   4.042  0.8036  0.3193 -0.2388
 4229TIP3    H112693   4.009   5.228   4.096  1.6280 -0.1165 -1.4367
 4229TIP3    H212694   3.945   5.307   3.983  0.5446 -0.0443 -0.7768
 4230TIP3   OH212695   3.992   5.576   4.979 -0.1711 -0.0346 -0.0144
 4230TIP3    H112696   3.998   5.580   4.884  0.1312  1.7782  0.0416
 4230TIP3    H212697   3.922   5.638   5.001  0.5754  0.4706  1.0047
 4231TIP3   OH212698   3.806   2.538   2.950 -0.3806  0.7475  0.0938
 4231TIP3    H112699   3.819   2.507   3.040 -0.5178  0.3301 -0.0275
 4231TIP3    H212700   3.802   2.458   2.898  0.5423  1.0077 -0.3989
 4232TIP3   OH212701   4.367   1.540   0.252  0.8657  0.5714  0.0201
 4232TIP3    H112702   4.424   1.543   0.175 -0.4177  0.0043 -0.9912
 4232TIP3    H212703   4.322   1.625   0.252  0.7772  0.5250  0.0785
 4233TIP3   OH212704   1.870   1.399   2.488  0.3696 -0.4921 -0.6704
 4233TIP3    H112705   1.806   1.467   2.468  1.3430  0.0779 -2.0117
 4233TIP3    H212706   1.833   1.352   2.562  0.0400  2.0154  0.8587
 4234TIP3   OH212707   2.053   2.310   2.436  0.4003  0.0873 -0.5241
 4234TIP3    H112708   2.069   2.292   2.343  1.1578 -2.1272 -0.0145
 4234TIP3    H212709   2.088   2.398   2.449  1.5930 -0.1168 -2.0522
 4235TIP3   OH212710   2.395   0.577   1.995  0.7676  0.3543 -0.0959
 4235TIP3    H112711   2.300   0.562   1.994  0.5048  1.8805 -0.1334
 4235TIP3    H212712   2.428   0.515   2.059 -0.1667 -0.6477 -0.5362
 4236TIP3   OH212713   6.251   1.702   2.857 -0.0344 -0.0332 -0.1055
 4236TIP3    H112714   6.165   1.719   2.895 -0.8000 -0.5909 -1.5296
 4236TIP3    H212715   6.240   1.619   2.811  1.1480  0.1179 -0.6821
 4237TIP3   OH212716   1.744   3.147   1.922  0.2845  0.1566 -0.6369
 4237TIP3    H112717   1.709   3.134   2.010 -0.0338  0.0550 -0.7786
 4237TIP3    H212718   1.831   3.184   1.936 -0.2862  1.4130 -0.2968
 4238TIP3   OH212719   0.377   2.884   0.175 -0.1409  0.3646  0.4080
 4238TIP3    H112720   0.391   2.909   0.084 -1.6132 -2.4050 -0.7127
 4238TIP3    H212721   0.282   2.880   0.185 -0.1438 -3.6981  0.5463
 4239TIP3   OH212722   0.961   0.188   3.125 -0.1083 -0.2556  0.2078
 4239TIP3    H112723   0.886   0.240   3.155  1.1459  1.2794  0.8087
 4239TIP3    H212724   0.922   0.122   3.067 -1.9861  0.0922  0.9914
 4240TIP3   OH212725   4.558   4.478   0.049 -0.2873 -0.1031 -0.4064
 4240TIP3    H112726   4.475   4.507   0.012  0.1572 -1.7236 -2.9287
 4240TIP3    H212727   4.535   4.401   0.100 -0.3713 -0.4397 -0.9453
 4241TIP3   OH212728   6.207   4.137   2.726 -0.2457  0.2913  0.3843
 4241TIP3    H112729   6.268   4.192   2.777  0.7254 -0.3851 -0.0151
 4241TIP3    H212730   6.247   4.133   2.639 -1.0067  0.0431  0.0440
 4242TIP3   OH212731   3.120   5.083   0.461  0.2572 -0.0414  0.4552
 4242TIP3    H112732   3.090   5.172   0.476 -1.9515 -0.4390 -1.0845
 4242TIP3    H212733   3.083   5.033   0.535 -1.8445 -0.2702 -0.6634
 4243TIP3   OH212734   5.798   2.439   4.809  0.2694 -0.0442 -0.2062
 4243TIP3    H112735   5.801   2.506   4.741 -1.0926 -1.9683 -2.2782
 4243TIP3    H212736   5.889   2.420   4.829  0.6809  1.0733 -0.9360
 4244TIP3   OH212737   1.050   4.031   2.640 -0.0730 -0.5265  0.2508
 4244TIP3    H112738   1.067   3.988   2.556  1.4677  0.5138 -0.0004
 4244TIP3    H212739   1.073   3.964   2.705 -0.0695 -0.9139 -0.1384
 4245TIP3   OH212740   3.258   3.392   0.791  0.4240 -0.3387  0.1004
 4245TIP3    H112741   3.255   3.296   0.798  1.2297 -0.4328 -0.7248
 4245TIP3    H212742   3.332   3.410   0.734 -0.2951  0.7489 -0.5359
 4246TIP3   OH212743   2.190   0.143   2.808  0.8922 -0.0190  0.0734
 4246TIP3    H112744   2.120   0.136   2.743 -0.9167 -0.2718  1.9373
 4246TIP3    H212745   2.225   0.055   2.814 -0.4072 -0.5051  0.9417
 4247TIP3   OH212746   1.146   3.157   1.030  0.4839 -0.7511 -0.1128
 4247TIP3    H112747   1.195   3.194   0.956  1.6979 -1.4094  0.3497
 4247TIP3    H212748   1.149   3.063   1.016  0.7864 -0.8825  0.8239
 4248TIP3   OH212749   2.174   4.816   2.168  0.6437  0.0083  0.2816
 4248TIP3    H112750   2.100   4.856   2.214 -0.9173  0.7502 -2.6060
 4248TIP3    H212751   2.242   4.808   2.234 -1.1810  1.5546  2.5161
 4249TIP3   OH212752   2.177   3.785   5.052 -0.2158 -0.2143  0.0863
 4249TIP3    H112753   2.243   3.785   5.122  0.8807  0.2126 -0.9293
 4249TIP3    H212754   2.095   3.806   5.097  0.4111 -0.2541  1.2965
 4250TIP3   OH212755   5.440   3.056   2.997  0.2408  0.1871  0.0517
 4250TIP3    H112756   5.470   3.145   2.977  0.7381 -0.4324 -2.1899
 4250TIP3    H212757   5.410   3.021   2.913 -1.2969 -1.2948  1.1467
 4251TIP3   OH212758   1.493   0.323   3.145 -0.4038  0.2840 -0.0613
 4251TIP3    H112759   1.513   0.415   3.127 -1.6384  0.2895 -1.6438
 4251TIP3    H212760   1.546   0.302   3.222  1.2675  1.8015 -0.7139
 4252TIP3   OH212761   1.677   0.146   1.651 -0.0926 -0.0663  0.1034
 4252TIP3    H112762   1.763   0.106   1.636  0.1920  1.2098 -2.2392
 4252TIP3    H212763   1.695   0.225   1.700 -0.2231 -0.8474  1.4611
 4253TIP3   OH212764   5.023   0.607   1.469  1.0548  0.2518 -0.3049
 4253TIP3    H112765   5.106   0.650   1.448  0.6204  1.3119  0.0760
 4253TIP3    H212766   4.973   0.610   1.387  1.3348 -0.2845 -0.5030
 4254TIP3   OH212767   2.548   5.298   0.130 -0.3192 -0.0944 -0.4416
 4254TIP3    H112768   2.554   5.393   0.138  0.3505 -0.0425 -1.4069
 4254TIP3    H212769   2.506   5.269   0.212 -1.1764  1.0834 -0.4498
 4255TIP3   OH212770   0.166   0.919   0.630  0.0738 -0.3377  0.4516
 4255TIP3    H112771   0.175   0.867   0.710  0.2866  0.8980  1.2599
 4255TIP3    H212772   0.090   0.975   0.646  0.0316 -0.1768 -0.2700
 4256TIP3   OH212773   5.732   0.108   3.179  0.4615 -0.4689 -0.5196
 4256TIP3    H112774   5.809   0.120   3.125 -0.0408  0.2983 -1.0697
 4256TIP3    H212775   5.756   0.143   3.265  0.6882 -0.1555 -0.7151
 4257TIP3   OH212776   4.982   5.461   4.486 -0.1692  0.0975  0.0665
 4257TIP3    H112777   4.939   5.545   4.502  1.1901  0.6588  0.9531
 4257TIP3    H212778   4.929   5.397   4.535 -0.1578  0.7214  0.9053
 4258TIP3   OH212779   1.488   0.958   4.738  0.4263  0.0518 -0.7599
 4258TIP3    H112780   1.545   0.900   4.788 -2.8708 -0.9419  2.2568
 4258TIP3    H212781   1.481   1.037   4.790 -1.9792 -0.4305 -0.2292
 4259TIP3   OH212782   5.862   0.748   2.338  0.6280 -0.0630 -0.2736
 4259TIP3    H112783   5.870   0.669   2.285 -2.5017 -1.7874  1.5557
 4259TIP3    H212784   5.930   0.737   2.406  1.0328 -0.5365 -0.7419
 4260TIP3   OH212785   5.272   4.929   0.493 -0.0284  0.4537 -0.3767
 4260TIP3    H112786   5.187   4.890   0.513 -0.0527 -0.0896 -1.4796
 4260TIP3    H212787   5.319   4.927   0.576 -1.0431  0.6417  0.2155
 4261TIP3   OH212788   2.843   5.369   2.718  0.1197  0.7135 -0.3896
 4261TIP3    H112789   2.801   5.450   2.746 -1.1276  0.0182 -0.1996
 4261TIP3    H212790   2.892   5.340   2.794 -4.6414 -2.1216  2.0674
 4262TIP3   OH212791   1.107   4.377   3.073  0.7638 -0.0586  0.0325
 4262TIP3    H112792   1.110   4.392   3.168  0.4631 -1.9714  0.3744
 4262TIP3    H212793   1.156   4.297   3.060 -0.4777 -0.6471 -1.2422
 4263TIP3   OH212794   6.056   5.410   0.382  0.0198 -0.2821 -0.2725
 4263TIP3    H112795   6.027   5.320   0.373  1.9483 -0.9189 -0.7450
 4263TIP3    H212796   6.048   5.429   0.476 -0.3851 -0.9581 -0.1657
 4264TIP3   OH212797   0.489   0.341   2.174  0.1695 -0.2335  0.5012
 4264TIP3    H112798   0.556   0.400   2.210 -1.1160  0.9617  1.0056
 4264TIP3    H212799   0.498   0.261   2.226  0.9094  0.0637  0.8570
 4265TIP3   OH212800   1.246   4.223   2.610 -0.1578  0.3140 -0.4776
 4265TIP3    H112801   1.163   4.175   2.599  1.3047 -2.5150 -0.1685
 4265TIP3    H212802   1.301   4.191   2.538  0.5075  2.6270 -1.0638
 4266TIP3   OH212803   4.242   0.524   1.426 -0.4454  0.6138 -0.0223
 4266TIP3    H112804   4.178   0.456   1.444 -1.9170  1.6840 -0.9999
 4266TIP3    H212805   4.223   0.553   1.337  0.1462  2.2731  0.3449
 4267TIP3   OH212806   5.740   0.807   4.839  0.2044  0.2731  0.0950
 4267TIP3    H112807   5.781   0.766   4.763  1.3477 -2.3654  1.9550
 4267TIP3    H212808   5.656   0.762   4.849  0.7123 -0.4866  1.1807
 4268TIP3   OH212809   6.036   3.664   2.451  0.2357 -0.3565 -0.0096
 4268TIP3    H112810   6.045   3.644   2.544  0.4635 -0.5848 -0.0808
 4268TIP3    H212811   5.970   3.602   2.419  0.2763 -0.3876 -0.0338
 4269TIP3   OH212812   2.074   4.636   4.506  0.1685 -0.2523  0.5091
 4269TIP3    H112813   2.069   4.692   4.583  0.4567  1.2222 -0.5096
 4269TIP3    H212814   2.167   4.632   4.485 -0.0432  0.6514 -0.6679
 4270TIP3   OH212815   3.011   5.686   1.453 -0.4480 -0.1283  0.8221
 4270TIP3    H112816   3.052   5.768   1.479 -0.1861 -0.0556  0.2019
 4270TIP3    H212817   2.921   5.711   1.431  0.2566  0.4660 -1.6894
 4271TIP3   OH212818   6.073   2.225   5.171  0.2795  0.4361  0.0397
 4271TIP3    H112819   5.985   2.189   5.185  0.0939  0.6562 -0.5247
 4271TIP3    H212820   6.058   2.319   5.156  0.3457  0.1026 -2.5011
 4272TIP3   OH212821   6.128   4.100   4.043  0.3552 -0.2949 -0.4300
 4272TIP3    H112822   6.182   4.150   4.104  0.3487  0.1235 -0.7636
 4272TIP3    H212823   6.087   4.166   3.987  0.0171 -0.6470 -0.6082
 4273TIP3   OH212824   5.755   3.708   0.088 -0.1489 -0.0855  0.3119
 4273TIP3    H112825   5.823   3.641   0.094  0.1605 -0.0502 -1.9939
 4273TIP3    H212826   5.691   3.671   0.027 -0.0040  1.6676 -0.9654
 4274TIP3   OH212827   5.634   2.702   2.830  0.2246  0.3774  0.2647
 4274TIP3    H112828   5.612   2.736   2.917 -1.4889  0.4588 -0.1511
 4274TIP3    H212829   5.601   2.612   2.831 -0.9554  0.7643 -0.6641
 4275TIP3   OH212830   5.806   5.467   2.851 -0.6599  0.1720  0.1391
 4275TIP3    H112831   5.730   5.417   2.882 -1.5728  0.2714 -1.7960
 4275TIP3    H212832   5.880   5.407   2.860 -1.1211 -0.2722  1.1396
 4276TIP3   OH212833   0.110   1.521   3.455 -0.3849 -0.7530  0.6558
 4276TIP3    H112834   0.116   1.616   3.450  1.3196 -0.8622  0.0824
 4276TIP3    H212835   0.031   1.505   3.507 -2.3196  0.8938 -1.5692
 4277TIP3   OH212836   2.219   4.439   4.851 -0.3066 -0.1069 -0.6736
 4277TIP3    H112837   2.249   4.423   4.761  3.5346  2.7309 -0.1793
 4277TIP3    H212838   2.265   4.374   4.903 -1.3067 -0.7456 -0.5621
 4278TIP3   OH212839   1.733   3.023   2.952 -0.2611  0.2305 -0.8744
 4278TIP3    H112840   1.762   2.932   2.953 -0.8292  0.0056 -2.0980
 4278TIP3    H212841   1.770   3.062   3.031  0.1977 -0.9969 -0.4686
 4279TIP3   OH212842   2.137   0.769   3.811  0.0189  0.2631  0.2448
 4279TIP3    H112843   2.201   0.711   3.853  1.1972  0.5397 -1.0823
 4279TIP3    H212844   2.053   0.725   3.824  0.8064 -1.4772 -0.2496
 4280TIP3   OH212845   2.622   0.636   5.073 -0.1836  0.5221 -0.0303
 4280TIP3    H112846   2.680   0.560   5.068 -0.8489  0.0412 -0.9124
 4280TIP3    H212847   2.666   0.697   5.132  1.9250  0.7910 -1.7732
 4281TIP3   OH212848   0.055   5.275   0.368  0.4231 -1.1515 -0.2801
 4281TIP3    H112849   0.031   5.287   0.460  0.5425 -2.2901 -0.0784
 4281TIP3    H212850   0.011   5.347   0.322  1.5935  0.3315  0.8400
 4282TIP3   OH212851   3.469   3.828   3.534  0.2541  0.1847 -0.0382
 4282TIP3    H112852   3.463   3.924   3.530  1.5540  0.2656 -0.4575
 4282TIP3    H212853   3.436   3.806   3.621 -0.1787  1.0040  0.0144
 4283TIP3   OH212854   1.064   5.583   1.913 -0.1291 -0.1176  0.3448
 4283TIP3    H112855   1.070   5.657   1.852  0.5993 -0.2411  0.2664
 4283TIP3    H212856   1.099   5.509   1.865 -0.7629 -0.5061  0.4627
 4284TIP3   OH212857   1.679   0.643   2.043  0.1602 -0.1363  0.0049
 4284TIP3    H112858   1.596   0.690   2.053 -0.0710 -0.3875 -0.6943
 4284TIP3    H212859   1.673   0.570   2.104 -0.3944 -0.4995 -0.4707
 4285TIP3   OH212860   5.272   3.851   0.794 -0.1327 -0.1498  0.9491
 4285TIP3    H112861   5.249   3.933   0.839 -0.3276 -0.5456  1.5837
 4285TIP3    H212862   5.236   3.861   0.706 -0.5242  0.2813  1.1528
 4286TIP3   OH212863   5.882   3.007   4.602  0.1800 -0.1783  1.1395
 4286TIP3    H112864   5.793   2.975   4.584 -0.7398  1.5638  2.3550
 4286TIP3    H212865   5.902   3.064   4.528 -0.2550  0.4431  1.4908
 4287TIP3   OH212866   3.304   3.311   4.964 -0.8925 -0.3178 -0.0955
 4287TIP3    H112867   3.306   3.341   5.055  0.1224 -0.8294  0.0653
 4287TIP3    H212868   3.272   3.387   4.915  0.5538  0.6850  0.4437
 4288TIP3   OH212869   0.319   3.299   2.745  0.2991  0.0540 -0.1406
 4288TIP3    H112870   0.298   3.389   2.770 -1.9107 -0.4968  0.1694
 4288TIP3    H212871   0.258   3.279   2.674  0.2704 -1.4086  0.2681
 4289TIP3   OH212872   0.357   4.300   2.079 -0.5402 -0.1300  0.5176
 4289TIP3    H112873   0.449   4.318   2.059  0.6993 -3.1959  2.6710
 4289TIP3    H212874   0.308   4.346   2.010  2.4989  2.1343 -0.3705
 4290TIP3   OH212875   4.636   3.330   2.532 -0.3751  0.0775 -0.2599
 4290TIP3    H112876   4.676   3.272   2.468  0.0233 -0.4345  0.4356
 4290TIP3    H212877   4.645   3.284   2.615  1.0275  1.6447  0.5112
 4291TIP3   OH212878   5.865   0.849   1.386 -0.0737  0.3271 -0.0787
 4291TIP3    H112879   5.943   0.873   1.436  1.2314 -0.1916 -1.7708
 4291TIP3    H212880   5.842   0.928   1.337 -0.2101  0.2852 -0.0833
 4292TIP3   OH212881   5.715   2.708   3.336 -0.3872  0.1040 -0.7119
 4292TIP3    H112882   5.676   2.752   3.411  0.1202  2.5302 -1.7713
 4292TIP3    H212883   5.810   2.721   3.347 -0.2993  0.3428 -1.6537
 4293TIP3   OH212884   0.398   4.636   3.513  0.0812  0.0537 -0.3999
 4293TIP3    H112885   0.341   4.698   3.560  0.1539  1.9090 -2.5425
 4293TIP3    H212886   0.442   4.690   3.447  1.6408 -1.9929 -1.1458
 4294TIP3   OH212887   2.781   1.996   1.652 -0.5159  0.1176 -0.1225
 4294TIP3    H112888   2.795   2.061   1.721  0.2860  0.0904 -0.2508
 4294TIP3    H212889   2.760   2.048   1.575  0.2193  0.2374 -0.2483
 4295TIP3   OH212890   1.641   5.206   4.400 -0.0699  0.6923  0.7253
 4295TIP3    H112891   1.694   5.209   4.480  0.9447  0.0771  0.0984
 4295TIP3    H212892   1.598   5.292   4.397  2.1645  1.8687  0.4234
 4296TIP3   OH212893   1.784   4.964   2.318 -0.1863  0.3178  0.1891
 4296TIP3    H112894   1.692   4.937   2.314  0.0732 -0.4792 -0.8159
 4296TIP3    H212895   1.825   4.922   2.243  1.0384  0.5764  0.6823
 4297TIP3   OH212896   5.919   4.141   2.284 -0.1514  0.5142 -0.3479
 4297TIP3    H112897   5.930   4.214   2.346  0.7193 -0.2068  0.3694
 4297TIP3    H212898   5.927   4.063   2.338  0.0022 -0.1334 -1.2922
 4298TIP3   OH212899   0.166   2.707   4.286 -0.0662 -0.0935  0.1716
 4298TIP3    H112900   0.078   2.683   4.259  0.0982  0.0330 -0.4894
 4298TIP3    H212901   0.168   2.690   4.381 -0.8666  0.1373  0.2301
 4299TIP3   OH212902   4.911   3.519   4.749  0.2145  0.0772 -0.1383
 4299TIP3    H112903   4.955   3.566   4.819 -0.4516  1.0332 -0.3472
 4299TIP3    H212904   4.979   3.503   4.683  0.8789 -0.9638  0.7636
 4300TIP3   OH212905   1.861   0.240   3.880 -0.2769 -0.0916  0.0355
 4300TIP3    H112906   1.858   0.145   3.872 -0.8061 -0.0034 -0.9154
 4300TIP3    H212907   1.915   0.256   3.958 -1.0592 -1.1769  0.8198
 4301TIP3   OH212908   2.600   3.004   4.091 -0.0529 -0.3011 -0.1793
 4301TIP3    H112909   2.659   2.930   4.105 -1.2738 -1.7348 -2.1663
 4301TIP3    H212910   2.531   2.993   4.156  1.1135  0.6577  1.2926
 4302TIP3   OH212911   0.075   5.794   3.717 -0.3735  0.2929  0.2886
 4302TIP3    H112912   0.029   5.855   3.660  1.1145  0.7459 -0.4826
 4302TIP3    H212913   0.159   5.836   3.734 -0.4579 -0.1904  2.2011
 4303TIP3   OH212914   2.066   5.493   4.203 -0.1862 -0.0457  0.7107
 4303TIP3    H112915   2.068   5.428   4.272  2.6657 -0.1522  0.6334
 4303TIP3    H212916   2.073   5.577   4.248  1.9173 -0.1260  0.6135
 4304TIP3   OH212917   3.986   5.883   4.971 -0.6601  0.2604  0.0268
 4304TIP3    H112918   3.893   5.890   4.949 -0.6893  0.3783  0.1889
 4304TIP3    H212919   4.026   5.846   4.892 -0.9182 -0.2533  0.1296
 4305TIP3   OH212920   2.826   4.068   3.548 -0.0114 -0.1460  0.2854
 4305TIP3    H112921   2.796   3.995   3.602 -0.4313 -1.3389 -1.4635
 4305TIP3    H212922   2.749   4.123   3.537  0.3387  0.6595  1.7186
 4306TIP3   OH212923   5.597   0.511   1.529  0.9935  0.3629 -0.8166
 4306TIP3    H112924   5.595   0.462   1.447  0.4888 -0.6985 -0.1968
 4306TIP3    H212925   5.541   0.460   1.588 -0.4784  2.2629 -0.4542
 4307TIP3   OH212926   2.550   1.945   1.249 -0.1453 -0.2843 -0.5485
 4307TIP3    H112927   2.489   2.005   1.292  0.2373 -0.0625 -0.3115
 4307TIP3    H212928   2.591   1.897   1.321  0.7137  0.2952 -0.6342
 4308TIP3   OH212929   2.755   2.154   1.408  0.0592 -0.7293 -0.3179
 4308TIP3    H112930   2.850   2.162   1.424 -0.3741  2.3009  1.5055
 4308TIP3    H212931   2.740   2.203   1.328 -0.0531 -0.6592 -0.2534
 4309TIP3   OH212932   3.692   4.355   4.255  0.2725 -0.4508  0.6945
 4309TIP3    H112933   3.708   4.412   4.330  0.0945 -1.2145  1.3310
 4309TIP3    H212934   3.629   4.290   4.287  1.0528 -1.4668  0.2339
 4310TIP3   OH212935   2.116   2.714   1.335 -0.5654  0.5257 -0.1911
 4310TIP3    H112936   2.204   2.686   1.360 -0.9096 -0.0555  0.4034
 4310TIP3    H212937   2.066   2.633   1.327 -0.9604  0.8287 -0.8808
 4311TIP3   OH212938   6.232   3.954   2.172  0.0714  0.1353  0.2892
 4311TIP3    H112939   6.220   3.865   2.138 -0.6389  0.0009  0.8826
 4311TIP3    H212940   6.207   4.010   2.099  0.0208 -0.1487  0.0847
 4312TIP3   OH212941   0.809   5.584   3.790 -0.0683 -0.3616 -0.3653
 4312TIP3    H112942   0.743   5.634   3.741 -1.0820 -2.2707 -1.0908
 4312TIP3    H212943   0.773   5.495   3.793  1.7636 -1.1192  0.6185
 4313TIP3   OH212944   1.917  -0.001   4.465  0.2723  0.2464 -0.6338
 4313TIP3    H112945   1.898   0.093   4.475 -0.4521 -0.0989  2.0036
 4313TIP3    H212946   2.012  -0.005   4.452  0.3511  1.3104 -0.5143
 4314TIP3   OH212947   3.632   0.607   3.276  0.5454  0.9248  0.6705
 4314TIP3    H112948   3.626   0.654   3.193  1.3988  2.8087  1.6204
 4314TIP3    H212949   3.596   0.520   3.257 -1.0971  1.9251 -1.1775
 4315TIP3   OH212950   4.454   2.179   0.893 -0.7528 -0.1471 -0.3847
 4315TIP3    H112951   4.379   2.222   0.853  0.5101 -0.1170 -2.8801
 4315TIP3    H212952   4.506   2.251   0.930 -1.5047 -0.1074  0.6517
 4316TIP3   OH212953   3.115   1.650   4.352 -0.6052  0.4448 -0.3548
 4316TIP3    H112954   3.057   1.697   4.292  0.5404  1.2799 -0.8267
 4316TIP3    H212955   3.117   1.560   4.318 -1.6078  0.3976 -0.3227
 4317TIP3   OH212956   4.469   5.589   0.784  0.3187 -0.3855 -0.3972
 4317TIP3    H112957   4.458   5.578   0.879  1.6024  0.0048 -0.1883
 4317TIP3    H212958   4.445   5.503   0.748  0.1604 -0.6473  0.3044
 4318TIP3   OH212959   2.454   3.371   0.759  0.1726  0.3116 -0.0525
 4318TIP3    H112960   2.475   3.285   0.722  0.0723  0.7032 -1.0579
 4318TIP3    H212961   2.358   3.371   0.767  0.2184  0.0975  0.5583
 4319TIP3   OH212962   4.853   2.777   2.397  0.1110 -0.5375  0.1359
 4319TIP3    H112963   4.863   2.835   2.321 -0.0920 -0.6396  0.0326
 4319TIP3    H212964   4.904   2.699   2.374 -0.1448 -0.6674  0.0032
 4320TIP3   OH212965   2.673   4.485   4.262  0.5374 -0.2601  0.4663
 4320TIP3    H112966   2.690   4.413   4.201 -0.5040 -1.3008  1.3525
 4320TIP3    H212967   2.760   4.514   4.290  1.0019 -2.3069  1.3499
 4321TIP3   OH212968   1.934   3.296   2.053  0.2428 -0.4714  0.0681
 4321TIP3    H112969   2.030   3.293   2.050  0.2348 -1.5562  0.7301
 4321TIP3    H212970   1.913   3.327   2.141 -0.0245 -0.0929 -0.1237
 4322TIP3   OH212971   0.357   1.409   1.748  0.4306 -0.1068 -0.0048
 4322TIP3    H112972   0.422   1.339   1.734  0.7178  0.4367 -1.6314
 4322TIP3    H212973   0.400   1.488   1.717 -0.3434  0.5940  0.6663
 4323TIP3   OH212974   5.621   1.449   5.111 -0.3003 -0.1785 -0.0637
 4323TIP3    H112975   5.543   1.420   5.064  0.5345 -1.3951 -0.7753
 4323TIP3    H212976   5.687   1.383   5.090  1.4671  1.7824 -0.9849
 4324TIP3   OH212977   0.341   2.668   3.565 -0.1180 -0.5426 -0.3612
 4324TIP3    H112978   0.386   2.676   3.481  1.3467  0.3622  0.4597
 4324TIP3    H212979   0.263   2.616   3.546  0.4502 -0.8032 -2.1630
 4325TIP3   OH212980   0.246   0.548   1.033 -0.0811 -0.1168  0.1713
 4325TIP3    H112981   0.281   0.547   1.122  2.0792  0.1529 -0.6115
 4325TIP3    H212982   0.321   0.524   0.978 -0.9298  1.2735 -1.6982
 4326TIP3   OH212983   1.391   3.131   4.428 -0.0917 -0.0031 -0.3311
 4326TIP3    H112984   1.401   3.083   4.510 -0.0623  0.4363 -0.0738
 4326TIP3    H212985   1.479   3.161   4.407 -0.3546  1.3322  0.3781
 4327TIP3   OH212986   2.504   1.021   3.646  0.3077  0.5234  0.4477
 4327TIP3    H112987   2.469   0.978   3.568 -0.5761 -0.1983  1.2223
 4327TIP3    H212988   2.591   0.982   3.658 -0.5009 -1.1372  1.1691
 4328TIP3   OH212989   0.260   3.568   4.517 -0.3158 -0.4621 -0.0506
 4328TIP3    H112990   0.220   3.634   4.574 -0.5714  0.7220 -1.5465
 4328TIP3    H212991   0.187   3.514   4.488 -0.3548 -0.3549 -0.1539
 4329TIP3   OH212992   2.832   5.249   0.688 -0.1812  0.4788  0.3698
 4329TIP3    H112993   2.868   5.195   0.758  0.3246  0.0409 -0.2235
 4329TIP3    H212994   2.773   5.309   0.733 -2.3942 -1.8813  0.8767
 4330TIP3   OH212995   1.725   4.494   3.530  0.3905  0.2460 -0.0890
 4330TIP3    H112996   1.755   4.483   3.440 -0.5691  1.8678 -0.6432
 4330TIP3    H212997   1.795   4.455   3.583  1.4458  0.1543 -1.4763
 4331TIP3   OH212998   0.256   2.137   3.233 -0.4984 -0.0388  0.0136
 4331TIP3    H112999   0.328   2.176   3.183 -0.7183 -0.2343 -0.4692
 4331TIP3    H213000   0.181   2.192   3.215 -0.6808 -0.3601 -0.2275
 4332TIP3   OH213001   2.031   5.008   1.793  0.1837 -1.1650 -0.2680
 4332TIP3    H113002   2.096   4.939   1.778  0.4988 -0.8268 -0.4688
 4332TIP3    H213003   2.034   5.025   1.887  3.6978  2.0201 -0.7091
 4333TIP3   OH213004   5.472   2.019   0.617  0.2724  0.6466 -0.1897
 4333TIP3    H113005   5.464   1.925   0.608 -0.9262  0.8218 -1.1769
 4333TIP3    H213006   5.420   2.055   0.545  1.0662  2.0559 -0.1034
 4334TIP3   OH213007   5.100   3.247   3.712 -0.2401  0.1044  0.3002
 4334TIP3    H113008   5.107   3.156   3.740 -2.5376  0.3176  1.8138
 4334TIP3    H213009   5.035   3.247   3.642  0.9792  0.4125 -0.8833
 4335TIP3   OH213010   3.662   1.333   4.556 -0.2371  0.2561 -0.1433
 4335TIP3    H113011   3.641   1.280   4.479 -0.6177 -1.3791  1.0409
 4335TIP3    H213012   3.578   1.342   4.603  0.0662  0.8934  0.3011
 4336TIP3   OH213013   3.463   1.278   0.118 -0.1742  0.1822  0.2586
 4336TIP3    H113014   3.381   1.295   0.165 -1.0568 -0.1704 -1.0968
 4336TIP3    H213015   3.438   1.216   0.049  1.6687 -1.6345  1.1476
 4337TIP3   OH213016   2.144   5.731   4.284  0.1992  0.2961 -0.1846
 4337TIP3    H113017   2.113   5.807   4.234  0.1141  0.6674  0.4300
 4337TIP3    H213018   2.240   5.734   4.274  0.4403  2.0251  1.9784
 4338TIP3   OH213019   5.792   3.218   3.918 -0.5714  0.5140  0.2134
 4338TIP3    H113020   5.852   3.171   3.860 -0.5709 -0.2793  0.8374
 4338TIP3    H213021   5.708   3.218   3.872 -0.3391  0.7366 -0.2107
 4339TIP3   OH213022   4.125   3.315   2.728 -0.0686 -0.6166  0.1107
 4339TIP3    H113023   4.194   3.373   2.697 -0.6962 -1.0869 -2.4184
 4339TIP3    H213024   4.054   3.373   2.754  0.4985 -0.2032  0.7869
 4340TIP3   OH213025   3.693   5.953   1.859  0.1811  0.5733  0.5234
 4340TIP3    H113026   3.612   5.977   1.903  1.2922  0.4092  2.7987
 4340TIP3    H213027   3.686   5.859   1.845  0.4628  0.3356  1.8601
 4341TIP3   OH213028   0.185   0.823   3.598  0.4669  0.1790  0.1553
 4341TIP3    H113029   0.192   0.873   3.679  0.9878  0.7318 -0.2221
 4341TIP3    H213030   0.196   0.888   3.529  0.5825 -0.3723 -0.3519
 4342TIP3   OH213031   1.070   3.044   0.599  0.0939 -0.0370 -0.1575
 4342TIP3    H113032   1.066   2.975   0.532  1.3684  0.3591 -0.6821
 4342TIP3    H213033   1.124   3.112   0.559  1.8383 -0.2640  1.6863
 4343TIP3   OH213034   5.969   1.608   0.297 -1.0569 -0.0598 -0.3750
 4343TIP3    H113035   5.923   1.611   0.213  0.8318 -0.2150 -1.4887
 4343TIP3    H213036   6.060   1.630   0.275 -0.4112 -0.5774  1.5639
 4344TIP3   OH213037   4.122   5.169   4.851 -0.0384 -0.2323  0.0245
 4344TIP3    H113038   4.116   5.235   4.920  1.3911 -0.8476  0.7926
 4344TIP3    H213039   4.089   5.212   4.773  1.4118  1.6197  0.3734
 4345TIP3   OH213040   5.058   5.359   3.691  0.7911  0.2844  0.3540
 4345TIP3    H113041   5.000   5.318   3.756 -0.1871 -1.2961 -1.4174
 4345TIP3    H213042   5.017   5.444   3.673 -0.4912 -0.4176 -0.1801
 4346TIP3   OH213043   0.961   3.795   5.072  0.1797  0.4516 -0.0785
 4346TIP3    H113044   0.950   3.815   4.979 -3.8818  0.5906  0.2314
 4346TIP3    H213045   0.950   3.700   5.078 -0.7063  0.5611  0.2985
 4347TIP3   OH213046   2.811   3.868   4.113 -0.0733  0.2692 -0.1019
 4347TIP3    H113047   2.836   3.852   4.023 -0.8233  0.8646 -0.4288
 4347TIP3    H213048   2.888   3.909   4.153  0.6198 -0.9147 -0.1842
 4348TIP3   OH213049   3.304   1.005   2.448  0.3769  0.0268  0.2260
 4348TIP3    H113050   3.235   1.038   2.390  0.4021  0.0381  0.2023
 4348TIP3    H213051   3.266   1.010   2.535  0.3619  0.0703  0.2170
 4349TIP3   OH213052   5.838   1.703   3.638  0.9336 -0.2543  0.3895
 4349TIP3    H113053   5.788   1.648   3.578  1.7947 -1.1175  0.4541
 4349TIP3    H213054   5.771   1.744   3.694  0.1526  0.2164 -0.8390
 4350TIP3   OH213055   2.450   2.907   3.062  0.4348 -0.0676  0.2097
 4350TIP3    H113056   2.496   2.965   3.121  1.5985 -0.8667  0.1205
 4350TIP3    H213057   2.470   2.819   3.093 -1.0300 -0.4533  0.1547
 4351TIP3   OH213058   4.627   2.402   0.191 -0.4235 -0.6782 -0.0986
 4351TIP3    H113059   4.556   2.453   0.152 -1.8319 -0.7553  2.1572
 4351TIP3    H213060   4.693   2.467   0.215 -0.8087 -0.3049 -0.0454
 4352TIP3   OH213061   1.898   0.842   1.499  0.1785  0.5278 -0.2582
 4352TIP3    H113062   1.906   0.925   1.453 -0.0927  0.1971 -0.9080
 4352TIP3    H213063   1.880   0.778   1.431  2.5437 -0.4500 -0.0407
 4353TIP3   OH213064   2.551   1.420   3.436 -0.7796  0.1810 -0.9805
 4353TIP3    H113065   2.498   1.381   3.366 -0.6118  1.1694 -1.6917
 4353TIP3    H213066   2.631   1.449   3.391 -2.0130  3.8435 -1.1747
 4354TIP3   OH213067   0.063   5.518   3.613 -0.7449 -0.5437 -0.3503
 4354TIP3    H113068   0.102   5.606   3.614  2.0131 -1.5492 -2.6695
 4354TIP3    H213069   0.020   5.512   3.528 -1.2861 -1.2966 -0.0305
 4355TIP3   OH213070   4.468   0.685   0.839  0.1088 -0.4583  0.0827
 4355TIP3    H113071   4.453   0.779   0.839 -1.2649 -0.6156  2.2045
 4355TIP3    H213072   4.382   0.646   0.825 -0.0604 -1.3472  2.9119
 4356TIP3   OH213073   4.144   0.035   4.407  0.3967  0.3506 -0.3813
 4356TIP3    H113074   4.147   0.130   4.399  0.8602  0.4885  1.1666
 4356TIP3    H213075   4.219   0.013   4.463 -0.4850 -0.7892  0.3937
 4357TIP3   OH213076   1.240   3.938   0.839 -0.1248  0.3161  0.1617
 4357TIP3    H113077   1.250   3.843   0.843 -1.0074  0.1225 -1.3543
 4357TIP3    H213078   1.145   3.952   0.839 -0.0282  1.3248  2.1333
 4358TIP3   OH213079   4.452   0.540   4.916  0.2611  0.0107 -0.1254
 4358TIP3    H113080   4.458   0.628   4.954  0.3873 -1.0501  2.5577
 4358TIP3    H213081   4.542   0.519   4.892  0.4645  0.1003  0.5361
 4359TIP3   OH213082   5.131   3.556   3.209 -0.2801 -0.4843  0.7859
 4359TIP3    H113083   5.063   3.624   3.208  0.5992  0.5188 -2.0973
 4359TIP3    H213084   5.093   3.484   3.157  0.1562 -0.6606  0.7045
 4360TIP3   OH213085   3.246   4.241   3.375 -0.4504 -0.2994 -0.1142
 4360TIP3    H113086   3.228   4.307   3.442 -0.7439 -0.1469 -0.3386
 4360TIP3    H213087   3.160   4.201   3.358 -0.5231  0.1626 -0.9178
 4361TIP3   OH213088   0.788   4.321   4.565 -0.4631 -0.2738  0.0255
 4361TIP3    H113089   0.694   4.324   4.548 -0.5278  1.7628  0.4940
 4361TIP3    H213090   0.821   4.405   4.534  0.8285 -0.0682  1.7893
 4362TIP3   OH213091   2.789   0.776   4.872 -0.5939 -0.2128  0.0715
 4362TIP3    H113092   2.733   0.705   4.903 -0.7459 -0.6028 -1.0557
 4362TIP3    H213093   2.738   0.855   4.889 -2.3107 -0.6399 -2.4134
 4363TIP3   OH213094   0.946   4.798   2.768  0.5523  0.2727  0.3044
 4363TIP3    H113095   0.958   4.884   2.808 -0.2521  0.2415  0.6304
 4363TIP3    H213096   0.984   4.736   2.830 -1.9476  0.0890  1.7681
 4364TIP3   OH213097   4.615   0.255   0.750 -0.3580 -0.4340  0.0825
 4364TIP3    H113098   4.626   0.338   0.704 -2.0473 -0.3955 -0.2995
 4364TIP3    H213099   4.569   0.199   0.688 -1.5999 -0.7856  1.2856
 4365TIP3   OH213100   4.028   5.611   4.269  0.4519  0.2820  0.3687
 4365TIP3    H113101   4.012   5.586   4.178  0.4742 -1.3778  0.7798
 4365TIP3    H213102   4.109   5.566   4.293 -0.0360 -0.0603  1.4692
 4366TIP3   OH213103   1.025   2.259   3.363  0.2128  0.0725  0.0186
 4366TIP3    H113104   1.110   2.297   3.386 -0.2994  1.0205  0.4044
 4366TIP3    H213105   1.045   2.196   3.294  1.3252 -0.2611  0.6175
 4367TIP3   OH213106   2.724   1.111   1.816 -0.1630  0.0872  0.2697
 4367TIP3    H113107   2.775   1.031   1.827 -1.1449 -0.3214  2.4159
 4367TIP3    H213108   2.750   1.145   1.731  3.8165  0.0489  1.2956
 4368TIP3   OH213109   3.727   2.783   3.314  0.7502 -0.5091  0.1943
 4368TIP3    H113110   3.785   2.709   3.332  1.9074  0.3292 -0.0374
 4368TIP3    H213111   3.771   2.859   3.350 -0.0352  0.2028 -0.2936
 4369TIP3   OH213112   3.157   0.209   4.545 -0.2328  0.0676  0.1719
 4369TIP3    H113113   3.134   0.116   4.540 -0.4747  0.1875 -1.0773
 4369TIP3    H213114   3.117   0.239   4.627 -0.2594 -0.8932  0.5205
 4370TIP3   OH213115   1.828   5.907   3.536 -0.3462 -0.2914  0.2918
 4370TIP3    H113116   1.845   5.836   3.597  1.3672 -1.5362 -1.4917
 4370TIP3    H213117   1.810   5.863   3.452  0.0546  1.3417 -0.7069
 4371TIP3   OH213118   5.780   1.835   0.151  0.3449 -0.1080  0.2208
 4371TIP3    H113119   5.805   1.844   0.243 -0.6818 -1.0083  0.6100
 4371TIP3    H213120   5.717   1.764   0.151  1.0037 -0.7251 -1.3183
 4372TIP3   OH213121   3.019   2.070   4.350 -0.3865 -0.4729 -0.1591
 4372TIP3    H113122   3.049   2.061   4.440 -0.3972 -0.2063 -0.1296
 4372TIP3    H213123   3.079   2.015   4.299 -0.7469 -1.0997  0.0838
 4373TIP3   OH213124   0.980   4.512   1.129 -0.5731  0.3844  0.5337
 4373TIP3    H113125   0.916   4.478   1.191 -0.9994  0.0157 -0.0987
 4373TIP3    H213126   0.928   4.559   1.064 -0.6272 -2.6077 -1.8378
 4374TIP3   OH213127   1.520   3.939   2.076  0.1334 -0.8139 -0.3902
 4374TIP3    H113128   1.554   4.016   2.122 -0.2390 -1.0812  0.3332
 4374TIP3    H213129   1.526   3.963   1.983 -0.4318  0.2852 -0.1585
 4375TIP3   OH213130   5.387   3.703   3.139  0.1276  0.3337  0.3472
 4375TIP3    H113131   5.371   3.738   3.227 -0.7325 -3.1536  1.7297
 4375TIP3    H213132   5.300   3.679   3.106  0.6493 -0.3725 -0.5539
 4376TIP3   OH213133   4.023   5.522   2.793  0.7859  0.7620 -0.2605
 4376TIP3    H113134   3.979   5.439   2.811  1.9919 -0.3055 -2.0507
 4376TIP3    H213135   3.969   5.564   2.726  1.0353  0.7071 -0.4946
 4377TIP3   OH213136   1.160   4.067   2.146 -0.4034  0.6434  0.1777
 4377TIP3    H113137   1.093   4.010   2.109 -0.1916  0.7524 -0.3761
 4377TIP3    H213138   1.228   4.008   2.177 -0.0307  0.6081 -0.6963
 4378TIP3   OH213139   2.827   1.851   4.993  0.0848 -0.5413 -0.2915
 4378TIP3    H113140   2.895   1.784   5.001 -0.9780 -1.5580  0.6428
 4378TIP3    H213141   2.746   1.806   5.016 -0.7824  0.8833 -0.4094
 4379TIP3   OH213142   2.646   3.001   0.013  0.5912  0.0156  0.1469
 4379TIP3    H113143   2.625   3.014   0.105 -0.6939 -1.1697  0.0382
 4379TIP3    H213144   2.711   3.069  -0.006  2.2957 -0.8423  2.3904
 4380TIP3   OH213145   2.284   1.259   3.600  0.8939 -0.4786  0.2073
 4380TIP3    H113146   2.257   1.341   3.560 -0.3418 -0.9115  0.1119
 4380TIP3    H213147   2.203   1.219   3.631  1.2891 -2.2393 -0.8533
 4381TIP3   OH213148   1.264   5.570   0.403  0.1014  0.4198  0.0680
 4381TIP3    H113149   1.331   5.569   0.335 -0.5780 -0.6353 -0.6140
 4381TIP3    H213150   1.181   5.571   0.355 -0.3911  0.3964  0.8893
 4382TIP3   OH213151   0.680   4.848   2.314  0.0950  0.0241  0.0439
 4382TIP3    H113152   0.739   4.918   2.287  0.1722  0.2694  0.8119
 4382TIP3    H213153   0.604   4.856   2.257  0.4522  0.2210 -0.4056
 4383TIP3   OH213154   3.406   0.351   2.509  0.2254  0.4147  0.4054
 4383TIP3    H113155   3.404   0.270   2.458  0.2252  0.1269  0.8627
 4383TIP3    H213156   3.355   0.332   2.587 -1.3995  1.4378 -0.3260
 4384TIP3   OH213157   5.115   5.456   1.916  0.0849 -0.4386 -0.1476
 4384TIP3    H113158   5.184   5.523   1.912  0.5370 -0.7139  1.9299
 4384TIP3    H213159   5.154   5.384   1.966 -0.9479 -1.5936 -0.9422
 4385TIP3   OH213160   2.861   0.872   1.198 -0.3366  0.0751  0.3998
 4385TIP3    H113161   2.836   0.780   1.192  0.2821 -0.0537 -0.3245
 4385TIP3    H213162   2.779   0.920   1.189 -0.7087 -0.4039  1.1174
 4386TIP3   OH213163   5.812   4.368   1.443  0.7824  0.1830 -0.2702
 4386TIP3    H113164   5.740   4.307   1.425  0.2424  0.5622  0.5305
 4386TIP3    H213165   5.817   4.422   1.365  1.6988 -1.2742 -1.2714
 4387TIP3   OH213166   2.754   2.594   2.572 -0.0986  0.2831  0.0369
 4387TIP3    H113167   2.793   2.622   2.489 -0.9669  0.9392 -0.1651
 4387TIP3    H213168   2.711   2.511   2.552  1.2536 -0.5001  0.2876
 4388TIP3   OH213169   5.131   2.808   0.654 -0.5867 -0.3739  0.0021
 4388TIP3    H113170   5.177   2.743   0.708 -1.0795 -0.5855  0.1786
 4388TIP3    H213171   5.038   2.795   0.675 -0.8018 -0.5528 -0.9982
 4389TIP3   OH213172   1.625   3.734   1.110 -0.1481  0.2274  0.0272
 4389TIP3    H113173   1.617   3.828   1.094 -1.2782  0.0480 -0.5356
 4389TIP3    H213174   1.581   3.693   1.036 -1.2546 -0.7120  1.1628
 4390TIP3   OH213175   0.327   2.726   2.058 -1.1823 -0.5489  0.0663
 4390TIP3    H113176   0.267   2.781   2.009 -0.2705  0.6258  0.2194
 4390TIP3    H213177   0.285   2.714   2.143 -0.4295  1.7874  0.8337
 4391TIP3   OH213178   0.627   0.875   2.837 -0.1842 -0.6460  0.3912
 4391TIP3    H113179   0.555   0.937   2.839 -0.9094 -1.4933  0.6856
 4391TIP3    H213180   0.695   0.915   2.891 -1.3430 -0.9491  2.1546
 4392TIP3   OH213181   2.621   2.222   0.917  0.3908 -0.3929  0.0761
 4392TIP3    H113182   2.639   2.247   0.826 -0.8502  0.1095 -0.0428
 4392TIP3    H213183   2.623   2.126   0.915 -0.9313 -0.4225 -0.7712
 4393TIP3   OH213184   1.533   2.229   4.863 -0.6381  0.3992  0.1305
 4393TIP3    H113185   1.498   2.203   4.948 -0.7379  0.2071  0.0322
 4393TIP3    H213186   1.463   2.207   4.801 -0.1636 -0.4227 -0.1289
 4394TIP3   OH213187   5.747   1.060   2.070  0.6692 -0.5083 -0.6577
 4394TIP3    H113188   5.825   1.017   2.037  0.4793 -0.0300 -1.8076
 4394TIP3    H213189   5.681   1.044   2.002  0.5077  1.2704 -0.9700
 4395TIP3   OH213190   4.082   1.309   2.193 -0.2061 -0.1610 -0.4827
 4395TIP3    H113191   4.121   1.224   2.173  0.2621  0.4196 -2.1870
 4395TIP3    H213192   4.024   1.292   2.267  0.5724 -1.7661 -0.1949
 4396TIP3   OH213193   2.434   5.940   5.082 -0.1003 -1.2331  0.2507
 4396TIP3    H113194   2.457   6.010   5.020 -0.6857 -0.8566  0.4397
 4396TIP3    H213195   2.343   5.918   5.060 -0.2289 -1.2746  0.8065
 4397TIP3   OH213196   2.627   0.865   1.430  0.0346 -0.1823  0.0905
 4397TIP3    H113197   2.555   0.831   1.483 -0.0271 -1.1894 -0.6253
 4397TIP3    H213198   2.606   0.958   1.418 -0.8774 -0.3520  0.3112
 4398TIP3   OH213199   3.757   4.817   3.149  0.2063 -0.2734 -0.2235
 4398TIP3    H113200   3.797   4.884   3.204  0.4125 -0.3085 -0.3280
 4398TIP3    H213201   3.714   4.758   3.210  0.6977 -0.4852 -0.0790
 4399TIP3   OH213202   5.052   2.653   3.896  1.0927  0.2967 -0.0819
 4399TIP3    H113203   5.032   2.618   3.809 -0.3190  0.1251  0.2829
 4399TIP3    H213204   4.966   2.677   3.932  1.7500  1.3559  0.8493
 4400TIP3   OH213205   0.025   1.286   2.946  0.2504 -0.3512 -0.0373
 4400TIP3    H113206   0.111   1.299   2.987  0.2304  1.1548 -0.4131
 4400TIP3    H213207  -0.032   1.257   3.017  1.2427 -2.2375  0.0445
 4401TIP3   OH213208   3.592   1.111   0.806 -0.3041 -0.5928  0.4558
 4401TIP3    H113209   3.550   1.027   0.789 -1.5506 -0.0758  0.8525
 4401TIP3    H213210   3.525   1.176   0.785  0.2179  0.2592  1.3526
 4402TIP3   OH213211   2.109   3.183   1.788  0.0363  0.0771  0.1763
 4402TIP3    H113212   2.157   3.259   1.820 -0.6714  0.4862  0.2847
 4402TIP3    H213213   2.124   3.116   1.855 -0.3468  0.5135  0.7109
 4403TIP3   OH213214   1.838   4.336   1.102 -0.4576 -0.4004  0.0802
 4403TIP3    H113215   1.742   4.337   1.112 -0.4141  0.1281  0.4901
 4403TIP3    H213216   1.855   4.395   1.029 -0.4424 -0.4710  0.0269
 4404TIP3   OH213217   3.965   1.254   4.985  0.0164 -0.0641 -0.3284
 4404TIP3    H113218   4.054   1.226   4.965 -0.6734 -3.8423  1.0330
 4404TIP3    H213219   3.943   1.206   5.066 -2.5149  2.4835  0.6436
 4405TIP3   OH213220   2.769   5.869   0.437  0.6122 -0.0263 -0.2610
 4405TIP3    H113221   2.776   5.946   0.494  1.5994 -1.6234  1.9272
 4405TIP3    H213222   2.859   5.851   0.411  0.7432 -1.7615  1.2089
 4406TIP3   OH213223   5.951   1.694   0.683  0.1649  0.0386 -0.2378
 4406TIP3    H113224   5.861   1.725   0.684 -0.0424 -0.5631 -0.0260
 4406TIP3    H213225   5.967   1.666   0.593 -0.4922 -1.6573  0.1428
 4407TIP3   OH213226   6.164   5.351   1.187 -0.0403 -0.0085 -0.2302
 4407TIP3    H113227   6.088   5.294   1.184  0.7704 -1.0836 -2.3240
 4407TIP3    H213228   6.142   5.417   1.252 -1.9270 -1.4144  0.6581
 4408TIP3   OH213229   0.881   4.354   5.207 -0.0269 -0.6676  0.5677
 4408TIP3    H113230   0.930   4.304   5.142  1.2717 -2.9492  3.0832
 4408TIP3    H213231   0.856   4.434   5.162  2.1161 -1.4017 -2.2180
 4409TIP3   OH213232   1.863   2.503   3.047 -0.4776  0.6655  0.5039
 4409TIP3    H113233   1.846   2.415   3.081  0.0917  0.6880  0.8507
 4409TIP3    H213234   1.911   2.488   2.966 -3.2529  0.5379 -1.2753
 4410TIP3   OH213235   1.357   2.760   5.093 -0.2655  0.2876  0.0819
 4410TIP3    H113236   1.346   2.739   5.186  0.8236 -1.0586 -0.0524
 4410TIP3    H213237   1.414   2.837   5.093 -1.6697  1.3649  0.5377
 4411TIP3   OH213238   4.716   1.605   0.235 -0.3739  0.2682 -0.0859
 4411TIP3    H113239   4.671   1.580   0.155 -1.2958  0.8995  0.2274
 4411TIP3    H213240   4.736   1.522   0.279 -0.2881 -0.0540 -0.7260
 4412TIP3   OH213241   5.383   3.052   2.459 -0.1127  0.2571 -0.3670
 4412TIP3    H113242   5.367   3.109   2.384 -0.1160 -0.0928 -0.6359
 4412TIP3    H213243   5.305   2.998   2.464 -0.7762  1.2747  0.8042
 4413TIP3   OH213244   3.530   0.328   4.579 -0.0487  0.0563 -0.2056
 4413TIP3    H113245   3.464   0.385   4.538 -0.1746  0.7877  0.9803
 4413TIP3    H213246   3.500   0.239   4.561 -0.9007  0.3747 -0.4034
 4414TIP3   OH213247   2.912   3.827   3.813  0.2569 -0.0186 -0.1467
 4414TIP3    H113248   2.974   3.885   3.768  0.4623 -0.2452 -0.1580
 4414TIP3    H213249   2.890   3.761   3.747 -1.1403  0.8877 -0.6310
 4415TIP3   OH213250   1.084   5.616   3.381  0.1274 -0.5150 -0.2319
 4415TIP3    H113251   1.148   5.656   3.439 -0.0543  0.0470 -0.4163
 4415TIP3    H213252   1.000   5.656   3.406  0.1537  0.2719 -1.3657
 4416TIP3   OH213253   3.222   4.174   1.194  0.3122  0.3432  0.2050
 4416TIP3    H113254   3.312   4.182   1.164  1.2280  0.9003  2.8492
 4416TIP3    H213255   3.206   4.079   1.196  0.7435  0.2509 -0.4553
 4417TIP3   OH213256   3.458   5.552   2.988 -0.3648  0.4479 -0.4962
 4417TIP3    H113257   3.507   5.611   2.931  0.0154 -1.2434 -1.9959
 4417TIP3    H213258   3.380   5.529   2.938 -0.2005 -0.7896 -0.1991
 4418TIP3   OH213259   3.408   0.874   1.368 -0.9522  0.0579 -0.1812
 4418TIP3    H113260   3.420   0.807   1.436 -0.5452  0.0287 -0.2815
 4418TIP3    H213261   3.339   0.931   1.403 -1.2806 -0.3902 -0.0804
 4419TIP3   OH213262   2.194   2.561   2.715 -0.2125  0.5327 -0.0619
 4419TIP3    H113263   2.159   2.569   2.627 -1.0376  1.2107  0.3159
 4419TIP3    H213264   2.284   2.593   2.709 -0.0172 -0.1386 -0.8044
 4420TIP3   OH213265   5.703   4.217   1.883  0.1329  0.0884 -0.9267
 4420TIP3    H113266   5.631   4.218   1.947  1.8724  1.3604  1.1468
 4420TIP3    H213267   5.749   4.135   1.901  0.0140 -0.0639 -1.3064
 4421TIP3   OH213268   0.658   1.553   3.698 -0.1409  0.0953 -0.4079
 4421TIP3    H113269   0.643   1.647   3.687  0.3172  0.0247 -1.9510
 4421TIP3    H213270   0.735   1.535   3.644 -0.2799 -1.1793 -0.2111
 4422TIP3   OH213271   2.089   0.912   0.697  0.4475  0.0235 -0.3908
 4422TIP3    H113272   1.994   0.922   0.692  0.2953  0.8036  2.3286
 4422TIP3    H213273   2.123   0.971   0.630 -0.9419 -0.6073 -1.7293
 4423TIP3   OH213274   3.223   2.929   1.475  0.3285  0.4756  0.5152
 4423TIP3    H113275   3.268   2.978   1.406  0.9870 -1.5220 -0.5371
 4423TIP3    H213276   3.293   2.897   1.531 -0.0283  0.0147  0.6981
 4424TIP3   OH213277   2.896   4.204   2.935 -0.3517 -0.3121 -0.3128
 4424TIP3    H113278   2.904   4.201   2.839 -2.2030  0.5358 -0.5405
 4424TIP3    H213279   2.865   4.293   2.953 -0.3537 -0.5736  1.0596
 4425TIP3   OH213280   2.483   2.307   3.633 -0.1356 -0.0807  0.0867
 4425TIP3    H113281   2.415   2.374   3.629 -1.3949 -1.3167 -0.2377
 4425TIP3    H213282   2.437   2.228   3.660  1.5812 -0.5005  2.0054
 4426TIP3   OH213283   2.188   1.285   0.058 -0.2157 -0.0668  0.3332
 4426TIP3    H113284   2.264   1.312   0.109 -0.0360 -0.2169  0.1469
 4426TIP3    H213285   2.133   1.363   0.053  0.9003  0.6707 -1.3081
 4427TIP3   OH213286   3.997   2.231   3.708  0.4852 -0.1631  0.0403
 4427TIP3    H113287   4.082   2.203   3.674 -1.0775 -2.4979 -2.2664
 4427TIP3    H213288   3.957   2.151   3.743 -1.5088  0.4471 -0.6956
 4428TIP3   OH213289   0.509   1.095   3.434  0.0422 -0.1338 -0.0740
 4428TIP3    H113290   0.516   1.185   3.466 -0.8220 -0.0893 -0.0005
 4428TIP3    H213291   0.520   1.041   3.513 -1.0638 -0.0481  0.1488
 4429TIP3   OH213292   4.408   4.972   1.128  0.0863 -0.0692 -0.2411
 4429TIP3    H113293   4.474   5.029   1.169 -1.1925  0.4021  1.2297
 4429TIP3    H213294   4.363   5.030   1.066  1.6212 -0.6312 -1.9745
 4430TIP3   OH213295   2.756   0.475   0.000  0.7338 -0.1509  0.1377
 4430TIP3    H113296   2.673   0.444  -0.035  1.8286 -0.8984 -1.9565
 4430TIP3    H213297   2.733   0.517   0.083 -1.7287 -0.1533 -0.4772
 4431TIP3   OH213298   2.505   3.675   3.529  0.1497  0.5286 -0.1380
 4431TIP3    H113299   2.560   3.688   3.607  0.7661  0.2839 -0.5269
 4431TIP3    H213300   2.547   3.603   3.482 -0.4345  0.4269 -0.5078
 4432TIP3   OH213301   4.127   4.441   1.160  0.2004 -0.3249  0.4101
 4432TIP3    H113302   4.073   4.489   1.223  1.2278  0.7735  0.4847
 4432TIP3    H213303   4.210   4.427   1.206  1.3992  1.5055 -1.0548
 4433TIP3   OH213304   0.035   3.158   2.316  0.6986 -0.2120  0.0433
 4433TIP3    H113305   0.100   3.226   2.298 -1.1811  1.9133  0.9251
 4433TIP3    H213306  -0.020   3.156   2.237  0.8639 -0.8772 -0.0611
 4434TIP3   OH213307   5.904   4.123   4.407 -0.4041 -0.1219 -0.0290
 4434TIP3    H113308   5.915   4.054   4.342  0.8419 -1.1175  1.1780
 4434TIP3    H213309   5.970   4.104   4.474 -0.4947  1.8415  0.6907
 4435TIP3   OH213310   0.796   2.961   4.547  0.6084 -0.4213 -0.4040
 4435TIP3    H113311   0.872   2.963   4.489 -0.6442  0.9074 -2.1201
 4435TIP3    H213312   0.727   2.921   4.495 -0.4764  0.4869  0.2655
 4436TIP3   OH213313   6.066   3.676   4.516  0.3741 -0.1201  0.6389
 4436TIP3    H113314   6.028   3.638   4.437  0.4270 -1.4110  1.2063
 4436TIP3    H213315   6.008   3.648   4.587 -0.1371  1.7097  0.9872
 4437TIP3   OH213316   2.602   4.771   4.273  0.3024 -0.1197  0.4287
 4437TIP3    H113317   2.600   4.676   4.274  1.5339 -0.1539  1.2308
 4437TIP3    H213318   2.510   4.797   4.277 -0.0325 -1.2706  0.3985
 4438TIP3   OH213319   3.337   5.793   4.590 -0.3800 -0.2332  0.3461
 4438TIP3    H113320   3.342   5.756   4.502 -3.5398 -0.6860  0.2313
 4438TIP3    H213321   3.360   5.721   4.648  0.2741 -0.3567 -0.0575
 4439TIP3   OH213322   3.938   0.783   2.046 -0.0637 -0.1461  0.2536
 4439TIP3    H113323   3.898   0.706   2.086 -3.1170  1.1881  0.0041
 4439TIP3    H213324   3.912   0.856   2.101  0.6071  1.0293 -0.9248
 4440TIP3   OH213325   1.373   5.905   0.766 -1.0404 -0.0537 -0.1692
 4440TIP3    H113326   1.382   5.810   0.765  0.5833  0.0754 -1.4303
 4440TIP3    H213327   1.291   5.922   0.720 -2.0991 -0.8643  1.3386
 4441TIP3   OH213328   3.976   3.858   3.914 -0.0212  0.4913  0.4945
 4441TIP3    H113329   3.920   3.816   3.848  1.4135 -2.8957  1.2360
 4441TIP3    H213330   3.939   3.830   3.998  1.1841  0.4261  1.0261
 4442TIP3   OH213331   3.938   5.166   0.307 -0.2395 -0.3078  0.3658
 4442TIP3    H113332   3.928   5.224   0.232  0.2129 -0.4365  0.1993
 4442TIP3    H213333   3.934   5.224   0.383 -1.1515 -0.2366  0.2669
 4443TIP3   OH213334   4.181   1.327   2.856  0.3614  0.4030 -0.1884
 4443TIP3    H113335   4.174   1.278   2.774 -2.6692 -2.0076  1.3195
 4443TIP3    H213336   4.232   1.271   2.914 -0.6584  0.3618  0.6892
 4444TIP3   OH213337   0.106   3.005   4.126  0.4011  0.0448 -0.2011
 4444TIP3    H113338   0.186   2.987   4.174 -0.2055  0.5680  1.0417
 4444TIP3    H213339   0.069   2.918   4.109  1.2044 -0.1999 -0.7754
 4445TIP3   OH213340   4.143   0.722   2.253 -0.0329  0.2169 -0.0259
 4445TIP3    H113341   4.065   0.667   2.263  0.6874 -0.7386  0.4181
 4445TIP3    H213342   4.174   0.736   2.342 -0.7092  2.1303 -0.0390
 4446TIP3   OH213343   0.440   4.364   0.394  0.7338 -0.2565 -0.2100
 4446TIP3    H113344   0.531   4.340   0.383  0.3366 -1.7004 -0.4935
 4446TIP3    H213345   0.403   4.364   0.306  0.8902  2.2778 -0.3372
 4447TIP3   OH213346   5.267   4.505   1.368  0.1097  0.7611  0.2009
 4447TIP3    H113347   5.190   4.523   1.423  0.6405  0.1458  1.1582
 4447TIP3    H213348   5.342   4.518   1.426  0.7365  1.1987 -0.6843
 4448TIP3   OH213349   1.866   5.551   2.498  0.1962  0.1847 -0.2851
 4448TIP3    H113350   1.848   5.634   2.454  0.0170 -0.0671 -0.6957
 4448TIP3    H213351   1.910   5.498   2.432 -2.4419 -1.1746 -1.0988
 4449TIP3   OH213352   5.929   4.966   2.164 -0.2024 -0.4060 -0.4381
 4449TIP3    H113353   5.909   5.011   2.082 -0.5984 -1.6990 -1.0831
 4449TIP3    H213354   5.844   4.947   2.203 -0.0084  0.8309  0.6628
 4450TIP3   OH213355   3.944   4.298   2.225 -0.2682 -0.0880  0.3102
 4450TIP3    H113356   3.854   4.321   2.250  0.2916  1.4400  1.0252
 4450TIP3    H213357   3.982   4.263   2.305 -0.2788 -0.9515 -0.0535
 4451TIP3   OH213358   5.196   3.852   2.950 -0.5006 -0.1179 -0.0681
 4451TIP3    H113359   5.292   3.846   2.956 -0.5594  0.3168  2.7611
 4451TIP3    H213360   5.170   3.774   2.901  1.2559 -0.7151 -0.1163
 4452TIP3   OH213361   2.895   4.688   1.928  0.8476  0.2428 -0.7682
 4452TIP3    H113362   2.984   4.670   1.900  0.6821 -1.9722 -0.0205
 4452TIP3    H213363   2.905   4.748   2.002  1.8742 -1.2653  0.3840
 4453TIP3   OH213364   1.561   2.055   1.012 -0.0117 -0.2049  0.6955
 4453TIP3    H113365   1.561   2.052   0.916  0.5843 -0.3415  0.6910
 4453TIP3    H213366   1.484   2.005   1.037  0.0467 -0.5135  0.2867
 4454TIP3   OH213367   3.688   2.639   0.492  0.5571  0.1157 -0.0205
 4454TIP3    H113368   3.657   2.585   0.565  1.8515 -0.4501  0.1468
 4454TIP3    H213369   3.753   2.697   0.531  1.2787 -0.2104 -0.7041
 4455TIP3   OH213370   4.717   4.793   0.206  0.6439  0.1336  0.3444
 4455TIP3    H113371   4.664   4.850   0.151 -1.2204 -2.4759 -0.7527
 4455TIP3    H213372   4.795   4.846   0.227  0.3720  2.0759 -2.8736
 4456TIP3   OH213373   0.474   3.560   2.352 -0.8295 -0.2930 -0.3868
 4456TIP3    H113374   0.437   3.619   2.287  0.0055 -0.3925 -0.9517
 4456TIP3    H213375   0.485   3.614   2.430 -0.3423  0.2182 -0.8137
 4457TIP3   OH213376   1.208   0.448   5.014 -0.3224 -0.1713  1.0146
 4457TIP3    H113377   1.127   0.477   5.055  0.0086 -0.0287  1.5763
 4457TIP3    H213378   1.255   0.400   5.082  0.1583 -0.0823  0.7560
 4458TIP3   OH213379   2.743   0.490   2.341 -0.1581 -0.2104  0.2470
 4458TIP3    H113380   2.753   0.584   2.334 -1.0065 -0.1497 -0.2726
 4458TIP3    H213381   2.716   0.462   2.253 -0.3762 -0.8704  0.5178
 4459TIP3   OH213382   3.837   4.708   2.922 -0.3065  0.0559  0.4145
 4459TIP3    H113383   3.857   4.626   2.966  1.1354 -0.5175 -1.2221
 4459TIP3    H213384   3.815   4.768   2.993  0.5986 -1.1860  1.8078
 4460TIP3   OH213385   5.957   1.639   2.072  0.3309 -0.1676  0.0324
 4460TIP3    H113386   5.956   1.554   2.116  0.8382 -0.5442 -0.6629
 4460TIP3    H213387   5.979   1.618   1.981 -0.6764  0.5988 -0.4042
 4461TIP3   OH213388   0.675   4.813   5.023  0.1574 -0.2228  0.2958
 4461TIP3    H113389   0.643   4.865   5.097 -0.9753 -0.5931  0.0876
 4461TIP3    H213390   0.598   4.765   4.993  0.8825 -0.9824 -0.3769
 4462TIP3   OH213391   2.502   1.869   4.352  0.6919  0.7851  0.1174
 4462TIP3    H113392   2.595   1.850   4.339  0.3476 -0.8437 -0.1319
 4462TIP3    H213393   2.456   1.795   4.312 -0.6650  0.7036  1.7073
 4463TIP3   OH213394   3.592   3.953   0.302  0.4000 -0.6398 -0.2846
 4463TIP3    H113395   3.636   3.951   0.387 -0.0169  0.1315 -0.0469
 4463TIP3    H213396   3.525   4.020   0.311 -0.6712 -1.6075 -0.7181
 4464TIP3   OH213397   5.085   5.765   0.805  0.3296  0.4226 -0.1065
 4464TIP3    H113398   5.049   5.701   0.743 -0.1710  0.7324 -0.1327
 4464TIP3    H213399   5.173   5.731   0.825  0.0532 -0.2976 -0.0887
 4465TIP3   OH213400   3.854   3.580   2.310  0.5009 -0.0795  0.2950
 4465TIP3    H113401   3.859   3.524   2.387 -0.8246 -0.7810 -0.1122
 4465TIP3    H213402   3.874   3.668   2.344 -0.5927 -0.2813  1.5656
 4466TIP3   OH213403   6.096   0.293   2.617 -0.1689 -0.1020 -0.4587
 4466TIP3    H113404   6.135   0.341   2.690 -0.9749  0.5223 -0.4326
 4466TIP3    H213405   6.116   0.348   2.540 -0.7818  0.0967 -0.4766
 4467TIP3   OH213406   2.332   2.849   1.732  0.1912 -0.1175  0.4822
 4467TIP3    H113407   2.271   2.863   1.805  0.9256 -1.2337  1.3425
 4467TIP3    H213408   2.382   2.930   1.727  0.8967 -0.4213  1.9877
 4468TIP3   OH213409   2.142   4.152   3.657  0.3999  0.3046  0.2059
 4468TIP3    H113410   2.060   4.130   3.701  0.8287 -1.3574  0.2424
 4468TIP3    H213411   2.131   4.120   3.567  0.2870  1.8592 -0.3674
 4469TIP3   OH213412   3.398   1.555   0.695 -0.4763  1.0695  0.2581
 4469TIP3    H113413   3.384   1.646   0.670 -1.6772  0.8184 -0.0800
 4469TIP3    H213414   3.363   1.504   0.622  1.0855  0.3158 -0.0114
 4470TIP3   OH213415   1.633   4.314   2.708 -0.0736  0.1648  0.2570
 4470TIP3    H113416   1.637   4.218   2.710 -0.0632  0.1575 -0.0587
 4470TIP3    H213417   1.550   4.335   2.750  0.3214  0.0528  1.1129
 4471TIP3   OH213418   1.020   0.464   2.891  0.0198  0.0478  0.4490
 4471TIP3    H113419   0.932   0.493   2.869 -0.0780 -0.4265  0.2074
 4471TIP3    H213420   1.050   0.417   2.814  1.2221  1.8188 -0.2297
 4472TIP3   OH213421   0.194   3.542   3.470 -0.0724 -0.0948 -0.6191
 4472TIP3    H113422   0.100   3.539   3.487  0.1489 -0.9750  0.6117
 4472TIP3    H213423   0.220   3.450   3.463  1.2814 -0.1060  2.8380
 4473TIP3   OH213424   5.329   4.614   3.190 -0.1218  0.2092  0.2108
 4473TIP3    H113425   5.336   4.675   3.264 -1.8918  2.0092 -0.9879
 4473TIP3    H213426   5.252   4.561   3.210 -1.4355  1.6191 -0.8849
 4474TIP3   OH213427   5.736   1.836   0.438 -0.4456 -0.2709  0.3436
 4474TIP3    H113428   5.647   1.802   0.450 -1.2003  0.8225 -1.6285
 4474TIP3    H213429   5.723   1.928   0.413  1.1648 -0.3268 -0.8718
 4475TIP3   OH213430   6.279   5.556   0.393 -0.9651  0.0802  0.3805
 4475TIP3    H113431   6.195   5.528   0.356 -0.7840  1.3179 -1.0832
 4475TIP3    H213432   6.268   5.545   0.487 -1.9299 -1.9613  0.0995
 4476TIP3   OH213433   0.990   5.298   0.126 -0.2463 -0.4141 -0.0899
 4476TIP3    H113434   1.005   5.268   0.036 -0.2053  2.0556 -0.9629
 4476TIP3    H213435   1.077   5.324   0.157 -0.4566 -0.0486  0.1963
 4477TIP3   OH213436   3.022   2.354   0.473 -0.0869 -0.1085  0.4510
 4477TIP3    H113437   3.026   2.322   0.382  0.4794  0.6617  0.1887
 4477TIP3    H213438   2.999   2.446   0.464 -0.0745 -0.0432  1.0975
 4478TIP3   OH213439   4.272   3.223   1.660  0.1005 -0.4013 -0.0602
 4478TIP3    H113440   4.228   3.138   1.669  3.7404 -2.4413  0.6278
 4478TIP3    H213441   4.278   3.237   1.566 -0.0070 -1.2525 -0.2009
 4479TIP3   OH213442   2.577   2.833   4.539  0.4510  0.9687  0.2412
 4479TIP3    H113443   2.498   2.885   4.554 -0.6708 -1.2222  2.8477
 4479TIP3    H213444   2.547   2.756   4.491  1.6987  1.6128 -1.7044
 4480TIP3   OH213445   0.378   5.629   2.073 -0.0419  0.2270 -0.1955
 4480TIP3    H113446   0.384   5.547   2.024 -1.2339  0.8763 -1.4886
 4480TIP3    H213447   0.289   5.631   2.106  0.1945  0.6911  0.4393
 4481TIP3   OH213448   0.849   4.093   1.218 -0.3535  0.6869  0.3973
 4481TIP3    H113449   0.861   4.142   1.136 -1.9358 -0.3073 -0.4828
 4481TIP3    H213450   0.754   4.080   1.224 -0.2630  0.6612  2.3733
 4482TIP3   OH213451   2.470   5.628   1.132  0.5997  0.0859 -0.0513
 4482TIP3    H113452   2.419   5.586   1.062 -0.9035 -0.0785  1.0838
 4482TIP3    H213453   2.536   5.562   1.156 -0.3404 -0.7916  0.2176
 4483TIP3   OH213454   5.067   4.324   1.126 -0.2170 -0.3273 -0.9155
 4483TIP3    H113455   5.100   4.411   1.105 -2.2086  0.9881  0.9494
 4483TIP3    H213456   5.014   4.299   1.050 -0.8410  0.7865 -0.8741
 4484TIP3   OH213457   6.170   1.572   5.088 -0.5732  0.4920  0.3002
 4484TIP3    H113458   6.150   1.493   5.038  1.1686 -0.9702  1.7316
 4484TIP3    H213459   6.103   1.575   5.156 -0.2248 -0.2203  0.6910
 4485TIP3   OH213460   5.086   1.286   2.951 -0.4446  0.2019  0.2125
 4485TIP3    H113461   5.080   1.197   2.916 -0.8163  0.4219 -0.3013
 4485TIP3    H213462   5.144   1.332   2.891 -0.0497  0.2490  0.6182
 4486TIP3   OH213463   1.606   1.896   4.876  0.2441 -0.5615 -0.0462
 4486TIP3    H113464   1.544   1.857   4.813  0.2368 -0.3227 -0.1874
 4486TIP3    H213465   1.550   1.931   4.945  0.1852  0.0448 -0.3869
 4487TIP3   OH213466   5.835   0.507   4.949  0.2109 -0.3961 -0.1036
 4487TIP3    H113467   5.791   0.566   5.010 -1.1862  0.1248 -1.5504
 4487TIP3    H213468   5.789   0.423   4.959 -0.3537 -0.1748 -0.7672
 4488TIP3   OH213469   0.796   3.271   4.161 -0.5835  0.7488  0.5332
 4488TIP3    H113470   0.782   3.325   4.084  2.2797 -0.6635 -1.1642
 4488TIP3    H213471   0.849   3.197   4.129 -2.1024 -1.7237  3.2000
 4489TIP3   OH213472   4.500   2.495   4.641  0.4522  0.5106  0.2087
 4489TIP3    H113473   4.497   2.400   4.631 -0.0869  0.4587  0.7931
 4489TIP3    H213474   4.529   2.510   4.731  2.7203  0.9398 -0.5326
 4490TIP3   OH213475   3.460   4.337   4.044 -0.1924  0.4545 -0.1502
 4490TIP3    H113476   3.535   4.350   4.103  1.2228  0.8778 -1.9573
 4490TIP3    H213477   3.404   4.413   4.060  2.0995  2.7331 -2.0037
 4491TIP3   OH213478   3.416   1.447   0.444  0.0138  0.1357  0.3125
 4491TIP3    H113479   3.357   1.448   0.368  1.3634 -0.3692 -0.7891
 4491TIP3    H213480   3.458   1.361   0.439 -0.1831 -0.0754  1.9048
 4492TIP3   OH213481   0.548   3.502   0.317  0.0858 -0.0113  0.2640
 4492TIP3    H113482   0.631   3.508   0.364  0.3976  0.3882 -0.3213
 4492TIP3    H213483   0.486   3.549   0.373 -0.1591 -1.7640  1.5488
 4493TIP3   OH213484   0.046   0.021   4.902  0.6435 -0.3180  0.0989
 4493TIP3    H113485   0.128   0.059   4.934 -0.5369  1.1057  1.5626
 4493TIP3    H213486   0.009   0.089   4.846  0.1182 -0.7065 -0.0301
 4494TIP3   OH213487   3.032   5.787   0.303  0.1055  0.5216  0.2408
 4494TIP3    H113488   3.070   5.711   0.258  0.4983 -0.4654  2.1645
 4494TIP3    H213489   3.073   5.862   0.261 -1.0189 -0.2158 -2.3973
 4495TIP3   OH213490   6.018   2.474   0.551 -0.0563  0.2194  0.3456
 4495TIP3    H113491   6.102   2.428   0.543  0.1531  0.6357  0.1639
 4495TIP3    H213492   5.996   2.465   0.644  0.4819  0.6174  0.5171
 4496TIP3   OH213493   3.764   0.103   2.195  0.3748  0.3854  0.4751
 4496TIP3    H113494   3.674   0.073   2.180  0.3329  1.1662 -0.9014
 4496TIP3    H213495   3.762   0.139   2.284 -1.2421  2.3941 -0.3016
 4497TIP3   OH213496   3.360   4.147   2.810  0.1459 -0.3191 -0.6890
 4497TIP3    H113497   3.438   4.125   2.860  0.0004  0.5030 -0.0905
 4497TIP3    H213498   3.289   4.146   2.874  0.0721  1.5091 -0.6776
 4498TIP3   OH213499   3.525   1.184   3.544 -0.3143 -0.5052 -0.3543
 4498TIP3    H113500   3.485   1.190   3.631 -0.3655 -0.9762 -0.3430
 4498TIP3    H213501   3.554   1.273   3.525  0.0543 -0.4711  0.3188
 4499TIP3   OH213502   0.449   5.136   3.741  0.3860  0.0084 -0.4955
 4499TIP3    H113503   0.416   5.055   3.780 -0.5374  1.0932  1.0882
 4499TIP3    H213504   0.416   5.134   3.651 -1.5737 -0.3294  0.1830
 4500TIP3   OH213505   3.441   2.184   4.928 -0.4601 -0.3884 -0.1285
 4500TIP3    H113506   3.474   2.106   4.974 -0.4569 -0.3814 -0.1185
 4500TIP3    H213507   3.461   2.257   4.987  2.6687  0.0793 -1.5694
 4501TIP3   OH213508   1.504   2.324   3.308 -0.1745  0.3626  0.0384
 4501TIP3    H113509   1.561   2.399   3.326 -0.0638  0.4231 -0.5317
 4501TIP3    H213510   1.541   2.286   3.228 -0.6487  0.1129 -0.0611
 4502TIP3   OH213511   3.973   3.333   2.176 -0.0182 -0.1908  0.0390
 4502TIP3    H113512   3.988   3.420   2.214  0.2885 -0.2887  0.1474
 4502TIP3    H213513   3.924   3.286   2.243  0.4312 -0.3291  0.2732
 4503TIP3   OH213514   2.199   5.853   3.799  0.1234 -0.0234  0.1298
 4503TIP3    H113515   2.162   5.915   3.862  0.2943 -0.4628  0.6626
 4503TIP3    H213516   2.240   5.785   3.852 -1.1168 -1.2496 -0.4224
 4504TIP3   OH213517   0.742   5.736   0.784 -0.1822 -0.0937  0.9854
 4504TIP3    H113518   0.684   5.669   0.749  1.2869 -0.4220 -0.9697
 4504TIP3    H213519   0.692   5.817   0.778 -0.1979 -0.2185 -1.5316
 4505TIP3   OH213520   0.731   1.981   0.113  0.3090  0.6910 -0.1795
 4505TIP3    H113521   0.687   2.008   0.194  0.2713 -1.7799  0.7105
 4505TIP3    H213522   0.808   2.038   0.108  0.1635  1.0934  1.4755
 4506TIP3   OH213523   4.610   1.745   0.970  0.0862  0.1119  0.0124
 4506TIP3    H113524   4.545   1.801   0.928 -0.7535 -0.8341  0.0019
 4506TIP3    H213525   4.608   1.664   0.919  2.1605  0.4767 -0.7198
 4507TIP3   OH213526   1.155   1.160   1.243 -0.1592  0.0498 -0.2522
 4507TIP3    H113527   1.232   1.106   1.259 -0.2736  0.4300  1.8445
 4507TIP3    H213528   1.138   1.203   1.327 -1.3009  1.7491 -1.2877
 4508TIP3   OH213529   5.520   0.174   0.172  0.5089  0.4405 -0.3149
 4508TIP3    H113530   5.535   0.262   0.138  1.3348  1.8790  3.3341
 4508TIP3    H213531   5.607   0.145   0.200 -0.1006 -0.6293  0.4989
 4509TIP3   OH213532   4.375   2.440   2.621 -0.3121  0.3055  0.0523
 4509TIP3    H113533   4.382   2.535   2.611 -1.1379  0.5560  1.4937
 4509TIP3    H213534   4.421   2.421   2.703  0.4860 -0.6475 -0.6056
 4510TIP3   OH213535   3.295   4.375   4.770 -0.0911  0.2395 -0.0739
 4510TIP3    H113536   3.307   4.456   4.721  0.4483 -0.5191 -1.2339
 4510TIP3    H213537   3.224   4.329   4.726  0.3050 -0.3879 -0.0808
 4511TIP3   OH213538   5.083   5.786   2.034  0.6079 -0.3618 -0.0336
 4511TIP3    H113539   5.059   5.694   2.039 -0.0902 -0.1504  0.9303
 4511TIP3    H213540   5.174   5.790   2.064 -0.4381 -0.3587  3.7034
 4512TIP3   OH213541   1.541   5.023   4.762  0.3362 -0.5786 -0.3788
 4512TIP3    H113542   1.636   5.030   4.747  0.1377  1.8056 -0.8899
 4512TIP3    H213543   1.525   5.078   4.839 -0.5934 -1.2616 -0.0787
 4513TIP3   OH213544   2.922   1.498   3.701 -0.4972 -0.4604 -0.1978
 4513TIP3    H113545   2.987   1.502   3.631 -2.3140  1.0420 -1.9066
 4513TIP3    H213546   2.887   1.409   3.696  2.3105 -1.8198  1.7334
 4514TIP3   OH213547   1.719   2.280   1.994 -0.2394  0.5960 -0.0819
 4514TIP3    H113548   1.769   2.216   1.943  0.3268  1.3756 -0.5239
 4514TIP3    H213549   1.693   2.232   2.073  1.5809  0.2681  0.3816
 4515TIP3   OH213550   2.319   4.566   3.236  0.5011 -0.0030 -0.2152
 4515TIP3    H113551   2.234   4.541   3.200  0.8202 -0.2537 -0.8045
 4515TIP3    H213552   2.376   4.491   3.217  0.8733  0.1937  0.1146
 4516TIP3   OH213553   4.298   1.308   3.702 -0.2428  0.2157 -0.2589
 4516TIP3    H113554   4.369   1.247   3.723  0.1475  1.0181  0.8458
 4516TIP3    H213555   4.325   1.391   3.742 -0.4777  1.3117 -2.2153
 4517TIP3   OH213556   1.560   5.353   3.991  0.6531 -0.0301 -0.5977
 4517TIP3    H113557   1.600   5.419   3.935  1.1090 -0.2300 -0.5177
 4517TIP3    H213558   1.466   5.368   3.984  0.7662  0.9173 -0.2221
 4518TIP3   OH213559   3.449   4.929   4.857  0.2813  0.1075 -0.2470
 4518TIP3    H113560   3.485   4.878   4.930  0.3242  0.9912  0.3705
 4518TIP3    H213561   3.397   4.997   4.900  0.6188  0.8731 -1.0341
 4519TIP3   OH213562   3.845   0.187   1.753  0.2562 -0.0392  0.1439
 4519TIP3    H113563   3.760   0.231   1.755  0.6088  0.7563 -1.1905
 4519TIP3    H213564   3.850   0.149   1.665  1.3540  0.0717  0.1525
 4520TIP3   OH213565   0.335   2.892   0.910  0.1067  0.0026  0.1266
 4520TIP3    H113566   0.320   2.962   0.974 -1.4870 -0.2261  0.0317
 4520TIP3    H213567   0.376   2.822   0.961  0.9264  0.6590  0.4020
 4521TIP3   OH213568   0.846   0.620   4.978 -0.0660 -0.1302 -0.0818
 4521TIP3    H113569   0.859   0.682   5.050  2.3015 -1.5686  0.8503
 4521TIP3    H213570   0.792   0.550   5.016 -1.5872  0.6397 -0.7343
 4522TIP3   OH213571   3.122   5.347   0.519 -0.2677 -0.4124 -0.4246
 4522TIP3    H113572   3.062   5.371   0.449 -0.2176 -0.1982 -0.3957
 4522TIP3    H213573   3.102   5.409   0.590 -0.3933 -0.6975 -0.2101
 4523TIP3   OH213574   5.237   5.589   2.238 -0.2079 -0.2337 -0.3986
 4523TIP3    H113575   5.228   5.503   2.198 -0.3769 -1.5932  2.3879
 4523TIP3    H213576   5.270   5.645   2.167 -1.2977 -2.2450 -2.6211
 4524TIP3   OH213577   4.343   1.143   2.992 -0.5563  0.5213  0.4341
 4524TIP3    H113578   4.363   1.217   3.049 -1.8364  1.4355 -0.2344
 4524TIP3    H213579   4.344   1.067   3.050  1.8531  0.8679  0.9373
 4525TIP3   OH213580   0.544   0.626   1.776 -0.6546  0.3023 -0.3486
 4525TIP3    H113581   0.478   0.564   1.808 -0.7370  0.2194 -0.6734
 4525TIP3    H213582   0.505   0.665   1.699 -0.1634 -0.0424 -0.7793
 4526TIP3   OH213583   0.037   1.407   2.183 -0.3238  0.3175 -0.2724
 4526TIP3    H113584   0.117   1.365   2.151  0.3333  1.2272  0.1332
 4526TIP3    H213585   0.036   1.388   2.277  0.4557  1.8879  0.0989
 4527TIP3   OH213586   1.210   2.531   1.015  0.5070 -0.8751  0.0014
 4527TIP3    H113587   1.156   2.548   0.938  2.5027  0.4467 -1.2038
 4527TIP3    H213588   1.300   2.537   0.983  1.4159 -0.3333  2.4237
 4528TIP3   OH213589   1.255   1.836   4.910 -0.1770 -0.1570 -0.3250
 4528TIP3    H113590   1.164   1.854   4.885 -0.8807 -0.0407  2.0312
 4528TIP3    H213591   1.296   1.922   4.913  0.0902 -0.2229 -1.5506
 4529TIP3   OH213592   0.019   3.849   2.920  0.0919  0.3349 -0.3111
 4529TIP3    H113593   0.110   3.834   2.895  0.0730 -0.3919  0.0354
 4529TIP3    H213594  -0.027   3.857   2.837  0.3221 -0.2411 -0.5018
 4530TIP3   OH213595   5.710   4.067   1.628 -0.3146 -0.0868  0.4955
 4530TIP3    H113596   5.737   4.094   1.715  0.4731  2.7033 -0.5083
 4530TIP3    H213597   5.633   4.011   1.643  0.6535 -0.8989  2.9711
 4531TIP3   OH213598   1.117   2.361   2.248 -0.5475  0.4443 -0.3322
 4531TIP3    H113599   1.148   2.448   2.276 -3.4627  1.4388  0.0971
 4531TIP3    H213600   1.184   2.331   2.187  1.0820  2.5175  0.2965
 4532TIP3   OH213601   2.682   1.290   2.221 -0.0853 -0.0377 -0.4071
 4532TIP3    H113602   2.729   1.373   2.232 -2.6285  1.4292  0.2014
 4532TIP3    H213603   2.697   1.243   2.303  0.1698  0.4679 -0.1612
 4533TIP3   OH213604   0.374   2.901   1.236 -0.2210 -0.6326 -0.0059
 4533TIP3    H113605   0.345   2.981   1.192  0.6735  0.5852  1.5108
 4533TIP3    H213606   0.314   2.892   1.311 -1.0640 -2.0830 -0.8034
 4534TIP3   OH213607   0.675   2.521   4.829  0.1968  0.6426 -0.4796
 4534TIP3    H113608   0.649   2.607   4.797 -1.0977  0.5067  0.1265
 4534TIP3    H213609   0.620   2.507   4.906 -1.7096 -1.9182 -2.1791
 4535TIP3   OH213610   2.289   1.373   2.305 -0.4675 -0.0845  0.2619
 4535TIP3    H113611   2.219   1.419   2.259  0.7611  1.0504 -0.5601
 4535TIP3    H213612   2.351   1.349   2.236 -0.7562 -2.4949  0.7541
 4536TIP3   OH213613   4.209   2.374   4.674 -0.2638  0.4167 -0.0083
 4536TIP3    H113614   4.291   2.328   4.655  0.6614  1.9965  0.0142
 4536TIP3    H213615   4.182   2.410   4.589 -0.8329  0.0716  0.0249
 4537TIP3   OH213616   4.487   1.048   3.351 -0.1003 -0.3111  0.4015
 4537TIP3    H113617   4.542   1.103   3.406 -0.2098 -1.5229  1.7852
 4537TIP3    H213618   4.398   1.062   3.385 -0.1879 -0.9575  0.4535
 4538TIP3   OH213619   2.619   0.895   2.644 -0.6877  0.6006 -0.7037
 4538TIP3    H113620   2.675   0.971   2.660 -1.7938  1.3438 -0.2137
 4538TIP3    H213621   2.609   0.853   2.729  0.1206 -0.2654 -1.0169
 4539TIP3   OH213622   2.855   4.195   2.650  0.1851 -0.0937  0.4157
 4539TIP3    H113623   2.857   4.244   2.567  0.9001 -0.7900 -0.0007
 4539TIP3    H213624   2.765   4.165   2.658  0.1436 -0.1453 -0.1946
 4540TIP3   OH213625   4.148   4.691   2.627  0.7048  0.4155  0.2504
 4540TIP3    H113626   4.121   4.683   2.718  0.7201  1.1215  0.3196
 4540TIP3    H213627   4.067   4.678   2.577  0.7930 -0.5274  0.3322
 4541TIP3   OH213628   1.611   2.674   3.280  0.3484  0.2627 -0.3919
 4541TIP3    H113629   1.683   2.614   3.298  0.0865 -0.0855 -0.4794
 4541TIP3    H213630   1.638   2.757   3.319 -0.4872 -0.6238  2.3009
 4542TIP3   OH213631   6.208   2.721   0.614  0.3928  0.5738  0.1069
 4542TIP3    H113632   6.202   2.657   0.685 -1.7377  0.4625 -0.0810
 4542TIP3    H213633   6.265   2.790   0.647  0.9121 -0.3403  1.1911
 4543TIP3   OH213634   0.929   1.692   2.014  0.2831 -0.2989  0.2972
 4543TIP3    H113635   0.871   1.768   2.022  0.4860  0.0317 -1.0457
 4543TIP3    H213636   0.921   1.647   2.098 -0.6011  0.6665  0.7630
 4544TIP3   OH213637   2.122   4.819   0.681  0.3352  0.3013  0.2853
 4544TIP3    H113638   2.052   4.841   0.743 -1.5565 -0.6343 -1.4092
 4544TIP3    H213639   2.199   4.865   0.714 -1.2446  1.9806  1.8280
 4545TIP3   OH213640   3.420   4.463   3.136  0.3238 -0.6335 -0.0504
 4545TIP3    H113641   3.341   4.518   3.136  0.9454  0.2801 -0.5718
 4545TIP3    H213642   3.387   4.375   3.114 -0.7288 -0.5844  1.1556
 4546TIP3   OH213643   1.863   5.165   0.316 -0.3047  0.0653 -0.3988
 4546TIP3    H113644   1.956   5.169   0.341 -0.3627  2.1216 -0.3295
 4546TIP3    H213645   1.863   5.116   0.234  0.4408 -2.6224  1.0827
 4547TIP3   OH213646   6.186   1.984   4.632 -0.2661  0.2157 -0.2110
 4547TIP3    H113647   6.130   2.050   4.593  1.3186  2.7383  1.4717
 4547TIP3    H213648   6.145   1.964   4.716  0.7681  1.4253  0.6359
 4548TIP3   OH213649   0.791   3.368   0.846 -0.4670  0.1628 -0.2241
 4548TIP3    H113650   0.758   3.436   0.904 -0.1373  0.7569 -0.7218
 4548TIP3    H213651   0.726   3.297   0.853 -0.4897  0.2625  0.7712
 4549TIP3   OH213652   5.086   5.253   0.672 -0.0413  0.2324  0.0084
 4549TIP3    H113653   5.076   5.338   0.714 -1.9431 -0.6171  1.4011
 4549TIP3    H213654   5.052   5.265   0.583 -2.5934  0.4037  0.9324
 4550TIP3   OH213655   1.679   0.443   4.517  0.0788  0.8945  0.0604
 4550TIP3    H113656   1.692   0.436   4.612 -0.1723 -0.1818  0.0286
 4550TIP3    H213657   1.600   0.497   4.507  0.7284  1.9521  0.4173
 4551TIP3   OH213658   4.051   4.854   3.928  0.6475  0.0924  0.9604
 4551TIP3    H113659   4.126   4.879   3.874 -0.3033  2.2944  0.5290
 4551TIP3    H213660   4.080   4.869   4.018  1.4394 -1.2653  0.9520
 4552TIP3   OH213661   5.955   0.319   4.588  0.2553 -0.2272 -0.5197
 4552TIP3    H113662   6.035   0.289   4.633  1.1735 -0.5300 -2.2703
 4552TIP3    H213663   5.899   0.241   4.585 -0.0832 -0.0496  0.5905
 4553TIP3   OH213664   2.647   2.155   3.860 -0.1916 -0.6446 -0.3096
 4553TIP3    H113665   2.565   2.148   3.908  0.7043  1.1682  1.6606
 4553TIP3    H213666   2.705   2.091   3.902 -0.6588 -2.2688 -2.0107
 4554TIP3   OH213667   0.933   2.156   0.081  0.1322 -0.3360  0.3572
 4554TIP3    H113668   0.961   2.195  -0.002 -2.1352  0.1043 -0.2742
 4554TIP3    H213669   1.000   2.184   0.143  1.5338 -0.1005 -1.1690
 4555TIP3   OH213670   0.285   4.533   4.856  0.6006  0.1984 -0.0010
 4555TIP3    H113671   0.227   4.468   4.894  3.4002 -2.4617  0.0611
 4555TIP3    H213672   0.240   4.562   4.776 -0.6962 -1.9794 -0.1334
 4556TIP3   OH213673   6.030   0.149   4.174 -0.3408  0.4239  0.1986
 4556TIP3    H113674   5.955   0.116   4.124 -1.1091 -0.3355  1.7655
 4556TIP3    H213675   6.057   0.075   4.228 -1.9441  2.0866  3.6541
 4557TIP3   OH213676   2.014   3.067   3.713 -0.3919  0.4071 -0.0295
 4557TIP3    H113677   1.920   3.065   3.730 -0.2032  1.1090  1.2787
 4557TIP3    H213678   2.051   3.012   3.783  0.2668  1.3915  0.4147
 4558TIP3   OH213679   2.773   3.632   5.003 -0.7194  0.6110  0.2962
 4558TIP3    H113680   2.686   3.594   5.019 -0.0429 -1.1021  0.1052
 4558TIP3    H213681   2.790   3.616   4.911 -0.9809  2.7196 -0.1766
 4559TIP3   OH213682   2.458   3.575   1.814  0.5604 -0.2989 -0.3561
 4559TIP3    H113683   2.524   3.506   1.806  0.6840 -0.2411  0.1058
 4559TIP3    H213684   2.380   3.531   1.848  0.9773 -0.0398  1.0052
 4560TIP3   OH213685   0.681   0.454   3.886  0.0895 -0.3611  0.0008
 4560TIP3    H113686   0.653   0.415   3.804 -1.1432  0.7071 -0.1244
 4560TIP3    H213687   0.761   0.502   3.864 -0.1293 -0.2407 -0.5468
 4561TIP3   OH213688   5.255   5.337   2.156  0.4163  0.4808 -0.4256
 4561TIP3    H113689   5.207   5.263   2.194  0.3876  1.1126  0.8162
 4561TIP3    H213690   5.329   5.297   2.111  0.3875 -0.3130  0.2017
 4562TIP3   OH213691   0.120   1.510   3.987  0.3736  0.5829  0.1364
 4562TIP3    H113692   0.106   1.560   3.907  0.1904  2.2971  1.1872
 4562TIP3    H213693   0.039   1.461   4.000 -0.1083  1.3328 -0.0189
 4563TIP3   OH213694   3.601   0.666   4.277 -0.1253  0.3118  0.6822
 4563TIP3    H113695   3.659   0.655   4.352 -1.9623  0.3131  2.1724
 4563TIP3    H213696   3.606   0.759   4.256  0.5987  0.2615  0.6297
 4564TIP3   OH213697   1.584   2.782   2.374  0.4681 -0.2061  0.1931
 4564TIP3    H113698   1.514   2.719   2.394  0.3607  0.0809  0.7412
 4564TIP3    H213699   1.649   2.768   2.443  0.0485  0.8685  0.8233
 4565TIP3   OH213700   1.289   3.579   4.949 -0.8722  0.0649 -0.6483
 4565TIP3    H113701   1.268   3.611   5.037  1.9928  1.6497 -0.3988
 4565TIP3    H213702   1.247   3.641   4.890  0.4731  1.4516 -0.2373
 4566TIP3   OH213703   4.567   1.753   4.597 -0.3157 -0.7059 -0.2542
 4566TIP3    H113704   4.491   1.782   4.547  0.0530 -0.4905 -0.6925
 4566TIP3    H213705   4.616   1.834   4.615 -0.0166 -0.8839 -0.2654
 4567TIP3   OH213706   4.456   5.753   1.739 -0.1971  0.6108 -0.1145
 4567TIP3    H113707   4.526   5.762   1.674 -0.0284  0.9813  0.1159
 4567TIP3    H213708   4.501   5.732   1.820 -0.4336 -0.1989 -0.1840
 4568TIP3   OH213709   4.345   1.566   2.914 -0.0985 -0.0011  0.6846
 4568TIP3    H113710   4.257   1.545   2.884  0.7136 -0.7584 -1.3588
 4568TIP3    H213711   4.384   1.616   2.842  1.3203 -0.1480  1.3007
 4569TIP3   OH213712   1.008   1.150   5.050 -0.0160  0.0371 -0.0078
 4569TIP3    H113713   1.047   1.072   5.090  1.8281  1.3967  1.0063
 4569TIP3    H213714   0.948   1.184   5.117  0.5468  0.4675  0.2853
 4570TIP3   OH213715   2.243   5.867   3.515 -0.6542 -0.3816  0.0079
 4570TIP3    H113716   2.229   5.844   3.607  2.1884  0.7656  0.8239
 4570TIP3    H213717   2.203   5.954   3.506 -2.8936 -1.3936 -0.5183
 4571TIP3   OH213718   4.581   3.332   0.398 -0.6291 -0.6921  0.3106
 4571TIP3    H113719   4.548   3.247   0.427  1.0821 -1.3867  0.3892
 4571TIP3    H213720   4.626   3.367   0.475 -0.5143 -0.1513  0.0001
 4572TIP3   OH213721   0.381   1.574   3.405 -0.2573  0.8275  0.0368
 4572TIP3    H113722   0.399   1.615   3.490  1.3325  0.3096 -0.0156
 4572TIP3    H213723   0.299   1.526   3.418 -0.3450  1.2438  1.0968
 4573TIP3   OH213724   0.276   2.639   1.517 -0.1491 -0.1093 -0.0757
 4573TIP3    H113725   0.304   2.650   1.608 -1.2485 -0.2580  0.2969
 4573TIP3    H213726   0.192   2.686   1.512  0.6814  1.3033 -1.4522
 4574TIP3   OH213727   3.355   4.428   2.067 -0.4115 -0.4181 -0.1181
 4574TIP3    H113728   3.366   4.403   2.158 -2.3653 -1.9773 -0.2377
 4574TIP3    H213729   3.307   4.355   2.028 -0.6928  0.7565 -2.1027
 4575TIP3   OH213730   5.123   4.433   3.156  0.0974  0.1184 -0.2664
 4575TIP3    H113731   5.043   4.385   3.134 -0.5114  0.9996 -0.0044
 4575TIP3    H213732   5.165   4.450   3.072  0.5681 -1.2608 -0.3425
 4576TIP3   OH213733   5.021   4.644   4.493  0.1856 -0.2779 -1.1759
 4576TIP3    H113734   4.952   4.577   4.494  0.9261 -1.1009  1.0374
 4576TIP3    H213735   4.976   4.724   4.464 -2.3087 -0.2879  2.0125
 4577TIP3   OH213736   3.623   0.929   3.419  0.0068  0.3887 -0.1606
 4577TIP3    H113737   3.713   0.941   3.450  1.2523  0.1327 -3.2859
 4577TIP3    H213738   3.584   1.017   3.421  1.7267  1.2961 -2.4508
 4578TIP3   OH213739   5.315   1.972   3.586 -0.1327  0.1625 -0.3688
 4578TIP3    H113740   5.394   1.935   3.547 -0.1346  1.3170 -1.5641
 4578TIP3    H213741   5.333   2.066   3.591 -0.9638  0.2951  0.4957
 4579TIP3   OH213742   1.874   2.962   1.294 -0.1009  0.4544  0.1877
 4579TIP3    H113743   1.941   2.923   1.238 -0.4011 -0.1891  0.2655
 4579TIP3    H213744   1.892   2.926   1.381 -1.4682 -0.9769 -0.0700
 4580TIP3   OH213745   4.702   5.947   3.708 -0.3068  0.0138 -0.1423
 4580TIP3    H113746   4.686   5.948   3.803 -1.9305  0.0566 -0.3730
 4580TIP3    H213747   4.637   5.885   3.674  1.5521 -1.5117 -1.0486
 4581TIP3   OH213748   0.688   5.417   1.642  0.2858 -0.2384  0.2485
 4581TIP3    H113749   0.636   5.443   1.718  0.6136  2.0447 -0.2405
 4581TIP3    H213750   0.627   5.423   1.569  0.1292 -1.8472  0.2242
 4582TIP3   OH213751   4.398   0.803   4.030  0.1858 -0.1127 -0.1214
 4582TIP3    H113752   4.439   0.822   3.946  0.1141  1.7341  0.2392
 4582TIP3    H213753   4.409   0.882   4.081 -4.7162  1.0087 -0.3414
 4583TIP3   OH213754   6.282   3.722   1.381 -0.7397  0.1534  0.1717
 4583TIP3    H113755   6.309   3.648   1.325  0.8606  0.2545  0.7582
 4583TIP3    H213756   6.226   3.682   1.448 -0.1069 -0.5048  0.3274
 4584TIP3   OH213757   6.064   2.187   1.953 -0.4632 -0.3827  0.3618
 4584TIP3    H113758   6.064   2.091   1.945  0.4657 -0.5071  1.6287
 4584TIP3    H213759   6.096   2.204   2.042  0.2202  1.1319 -0.1398
 4585TIP3   OH213760   5.573   4.904   1.998 -0.1009  0.1376  0.2941
 4585TIP3    H113761   5.482   4.879   2.014  0.0266 -1.4076 -1.0380
 4585TIP3    H213762   5.618   4.885   2.080 -0.8214  0.0663  0.6844
 4586TIP3   OH213763   4.968   2.979   0.918  0.3419  0.2025 -0.4437
 4586TIP3    H113764   4.895   3.014   0.868  0.7523  2.5484  0.4713
 4586TIP3    H213765   5.046   3.020   0.879  0.9489 -0.3678  0.1314
 4587TIP3   OH213766   2.033   0.707   3.425  0.2348  0.3912 -0.0236
 4587TIP3    H113767   1.965   0.732   3.487 -1.2862  0.3903 -1.6243
 4587TIP3    H213768   2.073   0.791   3.400  0.3183  0.4658  0.3491
 4588TIP3   OH213769   1.513   3.475   5.065 -0.1495 -0.0519 -0.0151
 4588TIP3    H113770   1.423   3.502   5.050 -0.7385 -2.1053 -0.4741
 4588TIP3    H213771   1.544   3.446   4.979  1.3335  1.5767 -0.0928
 4589TIP3   OH213772   5.464   4.529   0.680  0.0278  1.1515  0.1169
 4589TIP3    H113773   5.409   4.496   0.751 -1.5857  1.4205 -0.9495
 4589TIP3    H213774   5.552   4.534   0.717 -0.3233 -0.9353  1.3866
 4590TIP3   OH213775   0.052   2.446   1.283 -0.0310  0.1260 -0.8466
 4590TIP3    H113776   0.117   2.377   1.296  1.5974  1.2911 -2.2716
 4590TIP3    H213777  -0.025   2.416   1.331  1.0959 -1.9621 -0.2096
 4591TIP3   OH213778   2.685   3.846   1.502  0.3004  0.3263 -0.5326
 4591TIP3    H113779   2.646   3.857   1.589 -0.7249  0.6889 -1.0231
 4591TIP3    H213780   2.620   3.795   1.453  0.5097  0.8060 -1.3187
 4592TIP3   OH213781   1.539   2.649   0.983 -0.2033  0.0990  0.2070
 4592TIP3    H113782   1.560   2.565   0.943 -1.5972 -0.7889  1.2375
 4592TIP3    H213783   1.613   2.667   1.041  0.7912  0.3299 -1.0859
 4593TIP3   OH213784   0.915   1.295   0.108  0.1726  0.0292  0.2337
 4593TIP3    H113785   0.841   1.288   0.169  1.0992  1.8836  1.6740
 4593TIP3    H213786   0.907   1.383   0.070  1.0673 -0.1384 -0.3859
 4594TIP3   OH213787   4.171   2.257   4.233 -0.1723 -0.2294 -0.2626
 4594TIP3    H113788   4.203   2.222   4.150 -0.9230 -1.6338  0.0195
 4594TIP3    H213789   4.112   2.189   4.267 -0.8688  0.8763  0.8059
 4595TIP3   OH213790   3.642   1.834   3.054 -0.8975 -0.0602 -0.3403
 4595TIP3    H113791   3.644   1.758   2.997 -0.5030 -0.7487  0.5701
 4595TIP3    H213792   3.719   1.886   3.029 -0.1024 -0.9082  0.2814
 4596TIP3   OH213793   1.421   3.668   1.744 -0.0351  0.0349 -0.2689
 4596TIP3    H113794   1.504   3.692   1.785 -0.0667 -0.9659  0.4209
 4596TIP3    H213795   1.435   3.684   1.651 -0.3347  3.4701  0.1561
 4597TIP3   OH213796   4.825   4.337   2.571  0.1769  0.6397  0.6952
 4597TIP3    H113797   4.888   4.273   2.536 -0.8094 -0.1394  0.2894
 4597TIP3    H213798   4.793   4.298   2.652 -0.7132  0.4145  0.2529
 4598TIP3   OH213799   0.376   3.750   0.235  0.1855 -0.1861  0.1967
 4598TIP3    H113800   0.455   3.790   0.198 -0.1789 -0.0797 -0.4769
 4598TIP3    H213801   0.367   3.793   0.320  0.4578  0.3215 -0.0206
 4599TIP3   OH213802   5.795   4.937   1.199 -0.0208 -0.3056 -0.2223
 4599TIP3    H113803   5.855   4.979   1.137  0.3365  0.7425  0.8018
 4599TIP3    H213804   5.850   4.915   1.274 -0.5631 -1.0347 -0.0308
 4600TIP3   OH213805   1.546   2.218   3.585 -0.1775 -0.4831  0.3364
 4600TIP3    H113806   1.500   2.253   3.508 -3.0341 -2.1748  1.0969
 4600TIP3    H213807   1.602   2.149   3.550  0.5421  0.4697 -0.4551
 4601TIP3   OH213808   4.381   3.379   5.064  0.2483 -0.2137 -0.0261
 4601TIP3    H113809   4.288   3.357   5.060  0.5131 -1.6094  0.7067
 4601TIP3    H213810   4.384   3.455   5.122 -0.3343 -1.0514  1.1624
 4602TIP3   OH213811   2.127   0.849   2.622 -0.0889  0.2830  0.0400
 4602TIP3    H113812   2.174   0.917   2.671 -1.5348 -0.0666  2.0547
 4602TIP3    H213813   2.041   0.887   2.606  0.1143  0.0960 -1.6880
 4603TIP3   OH213814   2.081   4.949   0.965  0.0591 -0.1451 -0.1931
 4603TIP3    H113815   2.100   5.043   0.963  0.8631 -0.3055 -0.2645
 4603TIP3    H213816   1.988   4.944   0.990 -0.1563  0.6847 -0.7960
 4604TIP3   OH213817   5.086   3.821   4.368  0.0729 -0.1838  0.4408
 4604TIP3    H113818   5.151   3.835   4.299 -1.5002  0.5005 -0.9815
 4604TIP3    H213819   5.099   3.895   4.428  0.3384  0.1646 -0.0377
 4605TIP3   OH213820   3.905   1.799   2.396 -1.0021 -0.0701  0.0115
 4605TIP3    H113821   3.883   1.843   2.314  1.6734  1.9489  0.2242
 4605TIP3    H213822   3.988   1.755   2.378 -1.6079 -1.6869  0.9920
 4606TIP3   OH213823   5.445   2.051   2.936  0.0824 -0.4181  0.4816
 4606TIP3    H113824   5.360   2.025   2.902  0.8981 -0.4296 -1.7076
 4606TIP3    H213825   5.484   1.969   2.967 -0.7426 -0.3783  1.7086
 4607TIP3   OH213826   6.050   0.520   3.653  0.1268  0.1740 -0.8407
 4607TIP3    H113827   6.053   0.615   3.641 -0.1773  0.1457 -1.1375
 4607TIP3    H213828   6.026   0.508   3.745 -0.7955  0.3789 -1.0534
 4608TIP3   OH213829   5.384   5.006   3.175 -0.1259 -0.2928  0.0596
 4608TIP3    H113830   5.332   4.950   3.119 -0.2957  0.1009 -0.1849
 4608TIP3    H213831   5.473   4.971   3.170 -0.6151 -1.8590  1.6297
 4609TIP3   OH213832   5.387   5.162   0.047  0.2762  0.0947  0.0965
 4609TIP3    H113833   5.396   5.090   0.110 -0.2737 -0.3573 -0.3257
 4609TIP3    H213834   5.312   5.213   0.080 -0.2808 -0.3805 -0.4018
 4610TIP3   OH213835   1.868   0.695   4.533 -0.5757  0.5827  0.3079
 4610TIP3    H113836   1.887   0.706   4.440 -0.5621  3.4726  0.5413
 4610TIP3    H213837   1.799   0.629   4.536  0.6706 -0.9044 -1.5713
 4611TIP3   OH213838   2.075   5.688   3.386 -0.1569 -0.2794  0.2623
 4611TIP3    H113839   2.106   5.760   3.441  0.9363 -0.9704  0.5779
 4611TIP3    H213840   2.119   5.703   3.302 -2.7118  1.4469 -0.9104
 4612TIP3   OH213841   3.886   3.505   0.353 -0.1406  0.0349  0.2271
 4612TIP3    H113842   3.836   3.580   0.384 -2.1036 -0.7401 -0.8750
 4612TIP3    H213843   3.923   3.534   0.269  1.3368  0.6034  1.0357
 4613TIP3   OH213844   1.269   2.025   1.402  0.1108  0.7878  0.3222
 4613TIP3    H113845   1.341   2.061   1.350  0.7191  0.3133  0.8216
 4613TIP3    H213846   1.236   2.100   1.452  2.1125  0.5170  2.2258
 4614TIP3   OH213847   1.803   0.014   1.003  0.2133 -0.4943 -0.5409
 4614TIP3    H113848   1.708   0.003   0.994  0.1493  0.1075 -0.6170
 4614TIP3    H213849   1.837   0.002   0.914  0.0348  0.9435 -0.8214
 4615TIP3   OH213850   5.464   1.046   4.387 -0.0614 -0.1154  0.3899
 4615TIP3    H113851   5.517   1.111   4.434  0.0961 -0.3449  0.5286
 4615TIP3    H213852   5.485   1.060   4.295 -0.5728  0.5212  0.3567
 4616TIP3   OH213853   2.983   0.036   2.504 -0.7953 -0.1883 -0.0023
 4616TIP3    H113854   2.987  -0.059   2.520  1.2273 -0.1966 -0.2282
 4616TIP3    H213855   2.944   0.044   2.418 -1.8204 -0.7489  0.3906
 4617TIP3   OH213856   4.073   4.587   4.891 -0.3082 -0.0137  0.6713
 4617TIP3    H113857   4.084   4.492   4.895 -1.8878 -0.3542 -1.4873
 4617TIP3    H213858   4.121   4.613   4.813 -0.8543  0.7784  0.5918
 4618TIP3   OH213859   4.328   5.931   2.273 -0.2405  0.0761  0.1343
 4618TIP3    H113860   4.261   5.999   2.275  0.1245  0.4177  1.0955
 4618TIP3    H213861   4.375   5.947   2.191  0.4708  1.6157  0.7979
 4619TIP3   OH213862   3.057   4.127   1.499  0.3469 -0.3331  0.2364
 4619TIP3    H113863   2.971   4.089   1.479  0.2789  0.2036 -0.5494
 4619TIP3    H213864   3.081   4.173   1.419  1.3744 -0.4806  0.4554
 4620TIP3   OH213865   0.367   4.262   1.566 -0.0374 -0.0880 -0.4802
 4620TIP3    H113866   0.403   4.182   1.529 -2.0159 -1.9636  1.3650
 4620TIP3    H213867   0.280   4.270   1.527 -0.4333  0.3289  0.4487
 4621TIP3   OH213868   2.041   2.863   2.465 -0.3657  0.9288 -0.3172
 4621TIP3    H113869   2.060   2.863   2.371 -1.1038  1.3846 -0.4678
 4621TIP3    H213870   2.113   2.912   2.504  0.3435  0.1049 -0.5552
 4622TIP3   OH213871   3.504   2.595   2.305  0.7135 -0.0929  0.0075
 4622TIP3    H113872   3.533   2.641   2.226  0.9746  0.4784  0.4358
 4622TIP3    H213873   3.493   2.504   2.276  0.8206  0.1073 -0.6843
 4623TIP3   OH213874   6.336   4.910   2.427  0.0507  0.0068 -0.0816
 4623TIP3    H113875   6.269   4.866   2.374 -1.1999  0.4088  1.1053
 4623TIP3    H213876   6.334   5.001   2.396 -1.2507  0.4276  1.1406
 4624TIP3   OH213877   3.717   4.260   3.123 -0.4688 -0.0487 -0.0768
 4624TIP3    H113878   3.711   4.320   3.197 -2.3115 -0.3661  0.0726
 4624TIP3    H213879   3.784   4.298   3.066 -0.4039  1.2318  0.8343
 4625TIP3   OH213880   1.400   4.305   0.828  0.0498 -0.1222  0.6118
 4625TIP3    H113881   1.417   4.210   0.826  0.2299 -0.0853 -0.1525
 4625TIP3    H213882   1.450   4.337   0.903 -0.8163 -0.7705  1.4932
 4626TIP3   OH213883   4.989   6.004   0.724 -0.4538 -0.1774 -0.5222
 4626TIP3    H113884   4.920   5.977   0.663 -2.3154  1.9218  0.5014
 4626TIP3    H213885   5.026   5.922   0.757 -2.5155 -1.3942 -1.0894
 4627TIP3   OH213886   0.142   1.262   4.697  0.3097 -0.0791 -0.0857
 4627TIP3    H113887   0.171   1.300   4.614  1.1758 -0.1638  0.1745
 4627TIP3    H213888   0.106   1.177   4.672 -0.2322  0.2514 -0.4746
 4628TIP3   OH213889   0.858   1.654   1.726 -0.2589 -0.1973  0.6865
 4628TIP3    H113890   0.900   1.595   1.663 -1.3810 -0.3358  0.0493
 4628TIP3    H213891   0.878   1.616   1.811  0.2394 -0.6978  0.3529
 4629TIP3   OH213892   1.191   0.640   1.479  0.2879 -0.4069  0.0119
 4629TIP3    H113893   1.256   0.595   1.425  0.5644  1.2537 -1.1141
 4629TIP3    H213894   1.152   0.571   1.533  0.3527 -2.0571 -1.9458
 4630TIP3   OH213895   5.182   5.475   2.485  0.1045 -0.2112  0.1521
 4630TIP3    H113896   5.123   5.399   2.485  1.3642 -1.2587 -1.5743
 4630TIP3    H213897   5.207   5.486   2.393  2.0188  0.6481  0.7288
 4631TIP3   OH213898   4.426   1.025   1.712  0.0673 -0.2252 -0.2801
 4631TIP3    H113899   4.379   1.060   1.787 -0.8332 -1.7494 -0.0828
 4631TIP3    H213900   4.371   0.954   1.680  2.3928 -2.4440  0.2640
 4632TIP3   OH213901   3.822   1.207   3.717  0.2561  0.1464  0.8457
 4632TIP3    H113902   3.759   1.246   3.657 -0.7869 -1.7699  0.6237
 4632TIP3    H213903   3.894   1.271   3.721 -0.2563  0.9478 -1.3613
 4633TIP3   OH213904   2.589   0.989   2.357  0.5429 -1.0776 -0.9347
 4633TIP3    H113905   2.601   1.076   2.395  1.5581 -0.9107 -1.6165
 4633TIP3    H213906   2.539   0.941   2.424 -1.2503  0.4109 -1.1152
 4634TIP3   OH213907   4.979   2.888   1.611  0.1055  0.3432  0.4725
 4634TIP3    H113908   4.909   2.894   1.545  1.1933  1.6790 -0.6322
 4634TIP3    H213909   4.935   2.907   1.694 -1.1086 -0.2937  0.0020
 4635TIP3   OH213910   4.778   1.076   1.110 -0.0303 -0.5460  0.4304
 4635TIP3    H113911   4.714   1.013   1.144 -1.0491  0.1645 -0.1016
 4635TIP3    H213912   4.850   1.022   1.077 -0.7927 -1.4253  0.1681
 4636TIP3   OH213913   3.914   4.430   0.459  0.4947 -0.1016  0.2522
 4636TIP3    H113914   3.860   4.486   0.404 -0.0004 -1.7289 -1.0077
 4636TIP3    H213915   3.988   4.405   0.403 -0.5357 -2.5981 -0.1064
 4637TIP3   OH213916   6.269   3.716   3.140 -0.1238  0.5294 -0.4773
 4637TIP3    H113917   6.179   3.685   3.125  0.3977 -0.2736 -2.1762
 4637TIP3    H213918   6.293   3.759   3.058  0.2358  2.8929  0.7820
 4638TIP3   OH213919   2.670   0.819   1.859  0.4761 -0.1075 -0.0470
 4638TIP3    H113920   2.657   0.736   1.905  1.8673 -1.7896 -2.4652
 4638TIP3    H213921   2.765   0.833   1.864  0.2577  1.3493  0.2910
 4639TIP3   OH213922   5.320   5.506   0.235 -0.4136  0.5298 -0.4007
 4639TIP3    H113923   5.391   5.566   0.256 -1.6078  1.4556  1.2349
 4639TIP3    H213924   5.342   5.425   0.282 -0.1441  0.5996 -0.4056
 4640TIP3   OH213925   2.478   3.582   0.445 -0.4703  0.0105  0.4813
 4640TIP3    H113926   2.548   3.573   0.510  0.1364  2.6246  0.2874
 4640TIP3    H213927   2.462   3.492   0.415  2.0171 -0.8020  1.3273
 4641TIP3   OH213928   5.012   2.628   1.250  0.1026 -0.3289  0.2180
 4641TIP3    H113929   5.084   2.679   1.286  0.1785  0.3621 -0.8443
 4641TIP3    H213930   4.967   2.689   1.192  0.2144 -1.4814 -1.1370
 4642TIP3   OH213931   2.433   1.968   4.797  0.1249 -0.2806  0.1298
 4642TIP3    H113932   2.397   2.039   4.850  1.1976  0.4598 -0.0940
 4642TIP3    H213933   2.388   1.976   4.712  0.4356  0.3221  0.0135
 4643TIP3   OH213934   3.945   4.755   1.877 -0.5458  0.2691  0.0971
 4643TIP3    H113935   3.943   4.847   1.905  0.5107  0.3385 -0.0151
 4643TIP3    H213936   3.967   4.706   1.956 -1.1107  0.1072  0.1567
 4644TIP3   OH213937   5.115   0.665   2.688 -0.3589 -0.8031 -0.2330
 4644TIP3    H113938   5.159   0.599   2.633  0.1742 -1.1372  0.5775
 4644TIP3    H213939   5.027   0.671   2.652  0.2188 -0.3901 -1.6743
 4645TIP3   OH213940   5.447   4.464   4.275 -0.4592 -0.0735  0.4518
 4645TIP3    H113941   5.493   4.547   4.269  1.1271 -0.8453  1.3501
 4645TIP3    H213942   5.419   4.446   4.185  0.1376  0.8974  0.0596
 4646TIP3   OH213943   2.102   5.315   4.602 -0.1609 -0.5667  0.2890
 4646TIP3    H113944   2.162   5.240   4.610  1.4111  0.6132 -0.0320
 4646TIP3    H213945   2.074   5.313   4.510 -0.8260 -1.2475  0.4915
 4647TIP3   OH213946   4.196   0.758   0.184  0.4575 -0.1807 -0.0016
 4647TIP3    H113947   4.125   0.731   0.242 -0.4147  0.5094 -0.7317
 4647TIP3    H213948   4.227   0.676   0.145 -0.0054 -0.4804  0.2483
 4648TIP3   OH213949   6.313   0.299   2.965  0.0804 -0.6824  0.2997
 4648TIP3    H113950   6.304   0.393   2.950 -1.8512 -0.8529  0.1010
 4648TIP3    H213951   6.313   0.289   3.060  0.5896 -0.4705  0.3244
 4649TIP3   OH213952   4.716   2.264   4.197 -0.1805 -0.2682 -0.0780
 4649TIP3    H113953   4.645   2.321   4.227 -1.0099 -1.1582 -0.3115
 4649TIP3    H213954   4.704   2.259   4.102 -0.8845 -1.8001  0.0632
 4650TIP3   OH213955   5.860   1.915   3.943 -0.3857  0.0877 -0.4287
 4650TIP3    H113956   5.940   1.933   3.894 -0.3040  0.0242 -0.3205
 4650TIP3    H213957   5.877   1.952   4.030 -0.2433 -0.4409 -0.2271
 4651TIP3   OH213958   2.870   1.637   4.145  0.5514  0.0268  0.0676
 4651TIP3    H113959   2.947   1.652   4.090  0.5339  1.3758  0.3733
 4651TIP3    H213960   2.798   1.677   4.096  0.2488 -0.1996  0.3215
 4652TIP3   OH213961   1.381   4.622   3.061  0.6672  0.4539  0.0952
 4652TIP3    H113962   1.449   4.686   3.081  1.9748 -1.0735  0.7283
 4652TIP3    H213963   1.312   4.639   3.126  1.2361  0.8527  0.6068
 4653TIP3   OH213964   1.226   4.491   1.018 -0.1222  0.2026  0.1062
 4653TIP3    H113965   1.147   4.506   1.070 -0.5378  0.6276 -0.6329
 4653TIP3    H213966   1.204   4.524   0.931  0.9381  0.5080 -0.0593
 4654TIP3   OH213967   0.820   0.393   4.109 -0.2985  0.0061  0.0231
 4654TIP3    H113968   0.744   0.407   4.052 -1.6017  0.0856  1.6877
 4654TIP3    H213969   0.853   0.306   4.085  0.2844  0.7357 -2.0014
 4655TIP3   OH213970   5.681   1.747   0.753 -0.0115 -0.0784  0.0787
 4655TIP3    H113971   5.593   1.714   0.736  0.2811 -2.0626  2.0095
 4655TIP3    H213972   5.667   1.835   0.790 -1.1788 -0.3396  0.2895
 4656TIP3   OH213973   5.781   4.793   4.023  0.2563  0.4470 -0.5264
 4656TIP3    H113974   5.708   4.797   3.961  1.8430  1.2492 -2.4880
 4656TIP3    H213975   5.786   4.881   4.060  0.7237  0.6370 -1.0307
 4657TIP3   OH213976   4.815   0.977   2.694 -0.2144  0.6115  0.4415
 4657TIP3    H113977   4.752   1.019   2.752 -1.0898  0.7407 -0.5696
 4657TIP3    H213978   4.901   1.002   2.729 -0.6994  0.3340  1.9089
 4658TIP3   OH213979   2.631   3.210   3.661  0.9456  0.0449 -0.0054
 4658TIP3    H113980   2.623   3.197   3.755 -0.1571 -0.3848 -0.1512
 4658TIP3    H213981   2.693   3.283   3.652  0.9834  0.1495  1.0447
 4659TIP3   OH213982   2.227   4.854   1.567 -0.1426  0.1967  0.3272
 4659TIP3    H113983   2.238   4.892   1.479 -0.1140 -1.3773 -0.3781
 4659TIP3    H213984   2.309   4.874   1.612  0.9166 -1.1866 -0.8913
 4660TIP3   OH213985   3.113   4.389   2.612 -0.2281 -0.1895  0.1704
 4660TIP3    H113986   3.156   4.308   2.582  1.3733  0.9048 -0.6120
 4660TIP3    H213987   3.055   4.413   2.540 -0.5954 -0.5405  0.3421
 4661TIP3   OH213988   4.520   0.608   3.084 -0.7077  0.0206  0.4790
 4661TIP3    H113989   4.591   0.669   3.065  0.7226 -1.9682 -0.9514
 4661TIP3    H213990   4.555   0.551   3.152 -1.7690  0.3642  1.3263
 4662TIP3   OH213991   3.093   3.291   3.076 -0.0790 -0.3881 -0.0325
 4662TIP3    H113992   3.034   3.366   3.082  1.1762  0.5735  0.9802
 4662TIP3    H213993   3.178   3.330   3.053  0.7846 -1.3718  1.3552
 4663TIP3   OH213994   4.993   1.248   2.660 -0.2882  0.1833  0.0227
 4663TIP3    H113995   4.984   1.189   2.735  1.2961 -0.6974 -0.4221
 4663TIP3    H213996   5.061   1.310   2.687 -0.7208  0.7393 -0.1600
 4664TIP3   OH213997   1.647   0.063   3.065 -0.1528 -0.6360  0.5964
 4664TIP3    H113998   1.696   0.034   2.989  0.1505  0.7350  0.2298
 4664TIP3    H213999   1.683   0.150   3.085 -1.1785 -0.3797  1.4445
 4665TIP3   OH214000   2.353   0.252   0.758 -0.5656 -0.5332 -0.5776
 4665TIP3    H114001   2.441   0.215   0.759 -0.5707 -0.8493  3.5247
 4665TIP3    H214002   2.317   0.227   0.673  2.3733 -2.6069 -1.3500
 4666TIP3   OH214003   0.541   1.994   3.113  0.5768 -0.0934  0.0607
 4666TIP3    H114004   0.586   2.067   3.155 -1.0802  0.1860  1.4643
 4666TIP3    H214005   0.503   1.944   3.185 -0.1402 -1.1167 -0.9880
 4667TIP3   OH214006   2.471   0.815   1.206  0.7122 -0.4249  0.0789
 4667TIP3    H114007   2.539   0.826   1.272  2.9012  0.6261 -2.2215
 4667TIP3    H214008   2.517   0.787   1.127 -1.1800  2.0338 -2.1085
 4668TIP3   OH214009   3.283   3.112   0.761  0.3922  0.5726 -0.4266
 4668TIP3    H114010   3.274   3.029   0.714  0.1737  0.9004 -0.9757
 4668TIP3    H214011   3.346   3.093   0.831  3.3654  0.8568 -2.7967
 4669TIP3   OH214012   3.976   1.361   1.017 -0.1003 -0.1281 -0.6401
 4669TIP3    H114013   3.978   1.405   0.932  1.0580 -1.5551 -1.3910
 4669TIP3    H214014   4.055   1.391   1.062 -1.3573  1.6468  0.5429
 4670TIP3   OH214015   3.878   5.219   2.231 -0.2549 -0.6403  0.1753
 4670TIP3    H114016   3.973   5.216   2.239 -0.1516 -1.5347 -1.0551
 4670TIP3    H214017   3.856   5.312   2.229  0.6071 -0.4310  0.3750
 4671TIP3   OH214018   4.525   0.420   4.176 -0.2071 -0.3837  0.2262
 4671TIP3    H114019   4.489   0.498   4.217  1.6088  0.1022  0.9801
 4671TIP3    H214020   4.519   0.438   4.082 -3.2254 -0.9752  0.1991
 4672TIP3   OH214021   2.772   0.527   3.793 -0.2065  0.2390  0.4062
 4672TIP3    H114022   2.766   0.583   3.871  0.5449  1.2669 -0.2501
 4672TIP3    H214023   2.686   0.533   3.752  0.1515  1.7681 -0.1998
 4673TIP3   OH214024   6.316   1.407   1.219 -0.1427 -0.2943 -0.1519
 4673TIP3    H114025   6.398   1.359   1.228  0.1837  0.0537 -1.0860
 4673TIP3    H214026   6.294   1.434   1.308  2.3011  2.1121 -0.1517
 4674TIP3   OH214027   4.612   4.942   1.499  0.8798  0.1495  0.0044
 4674TIP3    H114028   4.524   4.909   1.514  0.2870  0.5708 -2.2630
 4674TIP3    H214029   4.665   4.864   1.483  0.6057 -0.0100 -0.1201
 4675TIP3   OH214030   2.017   5.103   3.112 -0.3109  0.1328  0.0946
 4675TIP3    H114031   2.079   5.069   3.048 -1.4789  0.8858 -1.5024
 4675TIP3    H214032   2.047   5.067   3.196  2.2554  0.4731 -0.5903
 4676TIP3   OH214033   3.228   0.781   0.508 -0.0437  0.0245  0.2714
 4676TIP3    H114034   3.166   0.851   0.530 -0.2530 -0.0644 -0.0266
 4676TIP3    H214035   3.221   0.719   0.581 -0.5885 -0.1716  0.0627
 4677TIP3   OH214036   3.128   1.856   0.117 -0.0027 -0.1647 -0.1569
 4677TIP3    H114037   3.165   1.920   0.056 -0.4504  0.4687  0.2303
 4677TIP3    H214038   3.202   1.800   0.140  0.2298 -0.2518 -1.0689
 4678TIP3   OH214039   1.213   3.558   3.403  0.3216  0.4198 -0.4929
 4678TIP3    H114040   1.282   3.624   3.409  0.2640  0.3863  0.7551
 4678TIP3    H214041   1.134   3.601   3.435  0.5936 -0.6279  1.8249
 4679TIP3   OH214042   0.281   1.319   4.026  0.4424  0.3005 -0.0998
 4679TIP3    H114043   0.222   1.387   3.992 -0.2213  1.3182  2.7871
 4679TIP3    H214044   0.368   1.359   4.024  0.6060 -0.0713 -1.5213
 4680TIP3   OH214045   2.432   3.425   3.764 -0.0234 -0.1157 -0.0177
 4680TIP3    H114046   2.469   3.470   3.840 -1.1301  0.6234  0.1045
 4680TIP3    H214047   2.499   3.361   3.739 -0.2179 -1.4573  2.4988
 4681TIP3   OH214048   0.766   5.817   1.668 -0.3830 -0.2466  0.0343
 4681TIP3    H114049   0.738   5.909   1.674  0.8716  0.1385  0.1918
 4681TIP3    H214050   0.796   5.796   1.757  1.0153 -0.2469 -0.4266
 4682TIP3   OH214051   2.471   2.619   2.736 -0.6314  0.1636 -0.4992
 4682TIP3    H114052   2.489   2.710   2.712 -0.2250  0.1754 -0.1852
 4682TIP3    H214053   2.472   2.620   2.832 -0.6434 -0.1675 -0.4951
 4683TIP3   OH214054   4.930   2.155   3.184  0.2047 -0.4250  0.4346
 4683TIP3    H114055   4.864   2.112   3.239  0.4313  1.0290  1.9162
 4683TIP3    H214056   4.919   2.249   3.201  1.3884 -0.0263 -0.7700
 4684TIP3   OH214057   3.320   0.425   1.392 -0.3982  0.0902  0.5258
 4684TIP3    H114058   3.273   0.441   1.310 -1.0534  1.0486  1.0651
 4684TIP3    H214059   3.337   0.513   1.427  1.8219 -0.2105  0.3558
 4685TIP3   OH214060   0.218   1.009   3.384 -0.2752 -0.5619  0.6013
 4685TIP3    H114061   0.260   0.981   3.303 -0.4496 -1.6356  0.8641
 4685TIP3    H214062   0.264   1.089   3.408 -0.6158  0.1128 -0.8602
 4686TIP3   OH214063   1.341   4.778   2.545  0.4674  0.0736 -0.3018
 4686TIP3    H114064   1.386   4.862   2.557  5.0180 -2.1246  0.4095
 4686TIP3    H214065   1.323   4.747   2.633 -0.3493 -0.1396 -0.5317
 4687TIP3   OH214066   1.107   1.528   3.055 -0.9715  0.3531 -0.5462
 4687TIP3    H114067   1.119   1.550   2.963 -1.2486 -1.6563 -1.1224
 4687TIP3    H214068   1.149   1.442   3.065  2.2839  2.0239  2.0749
 4688TIP3   OH214069   3.146   2.666   3.946 -0.0160  0.3037  0.1407
 4688TIP3    H114070   3.127   2.751   3.986  1.0924  0.0026  1.3921
 4688TIP3    H214071   3.105   2.602   4.005  1.9806 -0.1708  1.1159
 4689TIP3   OH214072   4.635   3.645   2.262 -0.6936  0.3791 -0.3330
 4689TIP3    H114073   4.628   3.563   2.213 -1.4112  0.2555 -0.0404
 4689TIP3    H214074   4.665   3.709   2.198  1.2002 -0.3827 -0.2597
 4690TIP3   OH214075   3.364   0.510   3.506 -0.1301 -0.5422 -0.3388
 4690TIP3    H114076   3.406   0.595   3.494  0.1714 -0.4749  0.9588
 4690TIP3    H214077   3.386   0.485   3.596 -0.8119 -1.6643 -0.4561
 4691TIP3   OH214078   1.514   3.646   4.482 -0.6285 -0.2233  0.1262
 4691TIP3    H114079   1.594   3.610   4.520 -0.5539 -0.1653  0.0258
 4691TIP3    H214080   1.443   3.593   4.520 -0.5678 -0.0711  0.4527
 4692TIP3   OH214081   0.062   1.555   1.708 -0.2897  0.3229 -0.5536
 4692TIP3    H114082   0.136   1.575   1.651 -0.1919 -1.3476 -1.0892
 4692TIP3    H214083   0.090   1.583   1.795  1.0516 -0.4227 -0.7210
 4693TIP3   OH214084   5.245   4.107   2.173 -0.5481 -0.0882 -0.5576
 4693TIP3    H114085   5.271   4.161   2.248  0.0666 -0.1365 -0.7355
 4693TIP3    H214086   5.178   4.159   2.128 -0.9756 -0.0895  0.0635
 4694TIP3   OH214087   5.890   0.524   2.885  0.1946  0.1597  0.0840
 4694TIP3    H114088   5.838   0.588   2.934  1.1879  0.5567  0.6549
 4694TIP3    H214089   5.898   0.563   2.797 -2.2310 -0.9171 -0.6818
 4695TIP3   OH214090   2.708   4.501   2.019 -0.1170 -0.3491  0.2351
 4695TIP3    H114091   2.677   4.552   2.094  0.7666 -1.2509  1.2554
 4695TIP3    H214092   2.773   4.557   1.976  0.3417 -0.3357  0.9362
 4696TIP3   OH214093   3.651   3.036   1.321 -0.2891  0.1560  0.0980
 4696TIP3    H114094   3.712   3.108   1.336 -0.1592 -0.0215  0.4344
 4696TIP3    H214095   3.582   3.049   1.386 -0.7644  0.5196 -0.4676
 4697TIP3   OH214096   2.781   0.109   1.634  0.2409  0.6379  1.1304
 4697TIP3    H114097   2.743   0.150   1.712 -1.7371 -2.0331  1.6840
 4697TIP3    H214098   2.734   0.149   1.561 -2.2400 -0.9962  1.7001
 4698TIP3   OH214099   1.504   0.372   2.786  0.4924 -0.4108 -0.1695
 4698TIP3    H114100   1.582   0.317   2.779  2.4615  2.4136 -2.5887
 4698TIP3    H214101   1.526   0.438   2.851  0.2702  0.5625 -1.0577
 4699TIP3   OH214102   1.209   3.088   3.331  0.1317 -0.3351 -0.5245
 4699TIP3    H114103   1.146   3.037   3.382 -0.1230 -0.5033 -1.0066
 4699TIP3    H214104   1.159   3.120   3.256 -0.4458  2.7639  1.0018
 4700TIP3   OH214105   0.034   5.108   3.744 -0.5123  0.4279  0.3334
 4700TIP3    H114106  -0.049   5.092   3.788 -1.0439 -0.3808 -0.9229
 4700TIP3    H214107   0.076   5.022   3.740  0.2154  0.7588  0.5868
 4701TIP3   OH214108   4.565   3.973   1.570  0.1071 -0.3578  0.4929
 4701TIP3    H114109   4.647   3.988   1.521 -0.9313  2.2259 -0.6628
 4701TIP3    H214110   4.503   3.943   1.503 -1.0587  2.2188  0.3140
 4702TIP3   OH214111   1.642   3.295   3.397  0.4989  0.4389 -0.3784
 4702TIP3    H114112   1.612   3.357   3.464  0.5830 -0.3194  0.3818
 4702TIP3    H214113   1.563   3.249   3.369  0.3203  1.3908 -1.4874
 4703TIP3   OH214114   1.644   5.184   1.952 -0.1607  0.5968  0.3558
 4703TIP3    H114115   1.613   5.094   1.963  0.3510  0.2395 -0.9108
 4703TIP3    H214116   1.739   5.177   1.958 -0.1212  1.0466  0.2390
 4704TIP3   OH214117   4.222   2.551   1.240  0.5468 -0.0607  0.0152
 4704TIP3    H114118   4.176   2.471   1.215  0.1378  0.4413 -0.9227
 4704TIP3    H214119   4.167   2.590   1.309  0.7859 -0.6110  0.5249
 4705TIP3   OH214120   0.320   4.692   4.061 -0.0453 -0.3207  0.4505
 4705TIP3    H114121   0.240   4.695   4.114 -0.0756 -1.7107  0.5057
 4705TIP3    H214122   0.333   4.600   4.042  0.7269  0.0310 -0.8322
 4706TIP3   OH214123   6.064   2.198   4.471 -0.2568 -0.7266  0.1017
 4706TIP3    H114124   6.033   2.242   4.392 -0.7963 -0.4563  0.4605
 4706TIP3    H214125   6.159   2.195   4.462  0.1490  3.1030  1.3813
 4707TIP3   OH214126   4.190   2.397   2.121  0.0850  0.1463  0.4530
 4707TIP3    H114127   4.215   2.482   2.084 -0.8661  0.5909  0.8158
 4707TIP3    H214128   4.186   2.338   2.045 -0.0708  0.6222  0.0913
 4708TIP3   OH214129   4.656   5.866   4.463 -0.0393 -0.3580 -0.7373
 4708TIP3    H114130   4.564   5.838   4.468 -0.1868  0.2892  1.0450
 4708TIP3    H214131   4.652   5.951   4.420 -0.1018 -0.9325 -1.9044
 4709TIP3   OH214132   5.060   1.918   2.254  0.0018  0.4963 -0.0025
 4709TIP3    H114133   5.083   2.009   2.274 -0.2415  0.4904  0.3262
 4709TIP3    H214134   5.141   1.868   2.271  0.4688  0.7854 -1.2749
 4710TIP3   OH214135   5.248   3.234   1.738 -0.0444  0.2240 -0.5519
 4710TIP3    H114136   5.272   3.192   1.820 -0.6073 -2.1734 -1.5280
 4710TIP3    H214137   5.153   3.221   1.732  0.2147 -1.3045 -2.3784
 4711TIP3   OH214138   2.296   2.090   0.318 -0.2784  0.0978 -0.1219
 4711TIP3    H114139   2.368   2.062   0.261 -0.1236 -1.0562  0.5985
 4711TIP3    H214140   2.334   2.088   0.406 -0.9360  0.3831  0.1674
 4712TIP3   OH214141   3.267   4.031   2.163  0.6990 -0.1154  0.2469
 4712TIP3    H114142   3.266   4.041   2.259  0.7091  0.4376  0.1920
 4712TIP3    H214143   3.346   4.076   2.135 -0.2424  1.3752 -0.1823
 4713TIP3   OH214144   3.277   1.724   0.980 -0.3315  0.4824 -0.4968
 4713TIP3    H114145   3.206   1.712   1.043  0.7350  4.1071  1.6790
 4713TIP3    H214146   3.347   1.667   1.011 -0.1576  1.5333  1.1716
 4714TIP3   OH214147   0.032   3.277   3.143 -0.0901  0.2672  0.4494
 4714TIP3    H114148   0.002   3.350   3.197 -0.7917  0.8762 -0.7361
 4714TIP3    H214149   0.043   3.314   3.056  1.4451 -0.6006  0.2368
 4715TIP3   OH214150   1.549   0.145   4.843  0.0936 -0.1884  0.0184
 4715TIP3    H114151   1.547   0.114   4.752  1.1497 -0.9903  0.2576
 4715TIP3    H214152   1.458   0.138   4.872 -0.1475 -0.5037 -0.7748
 4716TIP3   OH214153   3.132   3.474   3.650  0.6690 -0.4717  0.7247
 4716TIP3    H114154   3.131   3.471   3.554  0.0132  0.5022  0.6836
 4716TIP3    H214155   3.198   3.410   3.675  2.3802  0.7212 -0.4601
 4717TIP3   OH214156   2.367   0.217   3.564 -0.9607  1.3907 -0.2207
 4717TIP3    H114157   2.293   0.176   3.520 -1.3646  1.7179  0.1514
 4717TIP3    H214158   2.444   0.183   3.517 -1.2735  0.1141  0.1480
 4718TIP3   OH214159   4.062   0.129   3.041 -0.0095 -0.3655 -0.3489
 4718TIP3    H114160   4.090   0.118   2.950 -2.8146  1.3211 -1.5348
 4718TIP3    H214161   4.031   0.219   3.046  0.6431 -0.2118  2.5071
 4719TIP3   OH214162   4.673   0.529   4.642 -0.3411 -0.0347  0.2524
 4719TIP3    H114163   4.595   0.541   4.588 -0.5951  1.7530  0.9608
 4719TIP3    H214164   4.738   0.588   4.604  0.6660 -1.4054 -0.2421
 4720TIP3   OH214165   0.573   3.560   0.692 -0.2922  0.1750 -0.6359
 4720TIP3    H114166   0.525   3.477   0.689  0.1805 -0.1037 -0.6479
 4720TIP3    H214167   0.629   3.557   0.614 -0.4904  0.6387 -0.7960
 4721TIP3   OH214168   0.255   0.709   2.246  0.4391  0.3400  0.5715
 4721TIP3    H114169   0.346   0.730   2.224 -0.1993  0.5447 -2.3650
 4721TIP3    H214170   0.203   0.777   2.202 -1.1900 -0.2221  1.5109
 4722TIP3   OH214171   2.225   1.407   3.273  0.1731  0.3118  0.5565
 4722TIP3    H114172   2.234   1.494   3.313  1.0054  0.5662 -0.1406
 4722TIP3    H214173   2.169   1.358   3.333  0.3364  1.0851  1.3565
 4723TIP3   OH214174   1.055   3.788   1.479 -0.6804  0.0156  0.5036
 4723TIP3    H114175   1.076   3.848   1.408 -0.4164  0.0982  0.6510
 4723TIP3    H214176   1.086   3.831   1.558 -0.3458 -0.3800  0.5932
 4724TIP3   OH214177   4.801   4.622   4.111 -0.0984 -0.7237  0.1497
 4724TIP3    H114178   4.755   4.646   4.191 -0.3086 -0.5158 -0.0304
 4724TIP3    H214179   4.804   4.703   4.060  2.1378 -0.2229  0.9632
 4725TIP3   OH214180   4.335   2.063   2.177 -0.3565  0.8156  0.5604
 4725TIP3    H114181   4.396   2.040   2.107  0.0374 -0.3921  1.2777
 4725TIP3    H214182   4.370   2.144   2.214  0.1843  0.7313  0.2358
 4726TIP3   OH214183   4.962   0.342   3.517 -0.3241 -0.1092  0.1858
 4726TIP3    H114184   4.999   0.327   3.604  0.9959 -0.8321 -0.4811
 4726TIP3    H214185   4.875   0.302   3.521 -1.9052  3.0846  2.3230
 4727TIP3   OH214186   3.990   3.587   1.936 -0.8398  0.5962  0.1599
 4727TIP3    H114187   3.898   3.601   1.958 -0.8574  0.7125  0.0161
 4727TIP3    H214188   4.027   3.675   1.933 -1.0146  0.6435 -1.0269
 4728TIP3   OH214189   2.799   3.156   1.670 -0.2077 -0.3893  0.1734
 4728TIP3    H114190   2.720   3.137   1.619  0.5407  0.9444 -1.5922
 4728TIP3    H214191   2.871   3.141   1.610  0.8941 -1.0613  1.5976
 4729TIP3   OH214192   5.274   5.227   0.903 -0.0581 -0.3328 -0.1269
 4729TIP3    H114193   5.267   5.236   0.998 -2.1320 -2.4782  0.0350
 4729TIP3    H214194   5.184   5.237   0.871  0.3403 -1.2597 -1.6822
 4730TIP3   OH214195   3.844   0.278   2.775 -0.0856 -0.2502  0.0537
 4730TIP3    H114196   3.880   0.200   2.733  0.5234  0.1754 -0.2267
 4730TIP3    H214197   3.831   0.340   2.703  0.2522  0.2151  0.3897
 4731TIP3   OH214198   3.875   4.418   1.035 -1.0081 -0.0190  0.2846
 4731TIP3    H114199   3.959   4.417   1.081 -1.3102 -1.0491  0.8506
 4731TIP3    H214200   3.832   4.338   1.064 -1.1892 -0.7333 -1.8434
 4732TIP3   OH214201   2.011   1.751   3.522 -0.0305  0.2423 -0.1945
 4732TIP3    H114202   1.963   1.680   3.480  0.9635 -0.9610  0.6169
 4732TIP3    H214203   1.998   1.737   3.616  1.8188 -0.1203  0.0589
 4733TIP3   OH214204   2.793   1.478   3.297  0.4327  0.2019 -1.1410
 4733TIP3    H114205   2.809   1.440   3.211  2.7115 -1.3196 -0.1706
 4733TIP3    H214206   2.831   1.415   3.358 -2.1271  0.6249  1.1154
 4734TIP3   OH214207   5.988   5.154   0.224  0.7633  0.0155  0.1965
 4734TIP3    H114208   6.013   5.061   0.229 -0.1665 -0.1927  3.1207
 4734TIP3    H214209   5.895   5.154   0.247  0.6946  1.6814  0.0100
 4735TIP3   OH214210   3.198   1.505   3.562 -0.1626  0.0372  0.0705
 4735TIP3    H114211   3.280   1.524   3.607  0.7015 -0.4213 -1.2429
 4735TIP3    H214212   3.170   1.589   3.527  0.3481  0.0131 -0.4176
 4736TIP3   OH214213   5.437   2.662   2.090  0.0654 -0.0232 -0.1914
 4736TIP3    H114214   5.459   2.735   2.033 -0.0854  0.7211  0.6784
 4736TIP3    H214215   5.467   2.584   2.043  1.0902  0.6681 -0.7085
 4737TIP3   OH214216   4.282   1.099   3.516 -0.0386  0.1369  0.1984
 4737TIP3    H114217   4.312   1.023   3.565  1.5880  1.1955  0.9424
 4737TIP3    H214218   4.274   1.168   3.583 -1.3898  0.6532 -0.4669
 4738TIP3   OH214219   4.255   4.494   3.344 -0.5370  0.1406  0.0631
 4738TIP3    H114220   4.184   4.430   3.357 -1.5376  1.1852 -0.0634
 4738TIP3    H214221   4.232   4.566   3.403  0.6535  0.3245  0.3159
 4739TIP3   OH214222   4.341   1.391   2.483  0.3045 -0.6759  0.0057
 4739TIP3    H114223   4.346   1.477   2.525  1.1834 -0.7327  0.0376
 4739TIP3    H214224   4.404   1.397   2.411  1.5083 -1.7975  0.9323
 4740TIP3   OH214225   6.316   5.286   2.068  0.9926  0.4055  0.0954
 4740TIP3    H114226   6.400   5.252   2.037  0.4761 -1.6306  0.7779
 4740TIP3    H214227   6.270   5.210   2.102 -1.5635  1.2698 -1.1459
 4741TIP3   OH214228   2.258   5.243   0.771  0.1550 -0.6511 -0.3475
 4741TIP3    H114229   2.187   5.248   0.835  0.9218  0.8556  0.4441
 4741TIP3    H214230   2.221   5.194   0.697 -2.1222  1.1174 -0.5014
 4742TIP3   OH214231   0.975   3.897   2.019  0.2946 -0.0353  0.2344
 4742TIP3    H114232   0.895   3.925   1.973  0.4212  0.2253  0.1725
 4742TIP3    H214233   0.953   3.811   2.055 -0.2668  0.3534  0.8410
 4743TIP3   OH214234   1.171   1.675   1.914  0.4878  0.0362 -0.6222
 4743TIP3    H114235   1.216   1.759   1.901  0.8759 -0.1038 -0.2222
 4743TIP3    H214236   1.080   1.699   1.929  0.9383  0.5689  1.6407
 4744TIP3   OH214237   3.021   2.486   4.825  0.6679  0.0852  0.2628
 4744TIP3    H114238   2.979   2.400   4.819  0.3280 -0.0008  2.6562
 4744TIP3    H214239   2.956   2.542   4.868  0.9656  1.5176 -1.0478
 4745TIP3   OH214240   3.453   4.031   1.412 -0.2578 -0.3141 -0.4567
 4745TIP3    H114241   3.394   4.072   1.348 -0.6466  0.9525  0.6662
 4745TIP3    H214242   3.395   4.001   1.482  0.1047 -2.2255 -0.9372
 4746TIP3   OH214243   3.478   4.147   2.009 -0.2241 -0.4341  0.9500
 4746TIP3    H114244   3.550   4.208   2.026  0.4268 -1.7389  3.2849
 4746TIP3    H214245   3.463   4.153   1.914  0.2745  2.7619  0.9815
 4747TIP3   OH214246   4.604   3.074   2.090 -1.0439 -0.6534  0.1150
 4747TIP3    H114247   4.558   3.062   2.007 -0.8599  0.2099 -0.1170
 4747TIP3    H214248   4.629   3.166   2.091 -0.9549 -0.6806  1.0873
 4748TIP3   OH214249   0.942   0.264   0.548 -0.0456 -0.0846  0.2383
 4748TIP3    H114250   0.927   0.182   0.594 -1.0535  0.3363  0.6878
 4748TIP3    H214251   0.972   0.238   0.461 -1.7333 -0.9596 -0.1209
 4749TIP3   OH214252   4.165   4.175   4.691  0.5842 -0.0555 -0.1746
 4749TIP3    H114253   4.154   4.224   4.773  2.1937 -1.9816  1.2888
 4749TIP3    H214254   4.256   4.148   4.691  0.0356 -2.1073 -1.4497
 4750TIP3   OH214255   3.139   2.864   3.701  0.1683 -0.2199 -0.3384
 4750TIP3    H114256   3.159   2.801   3.770 -1.3922 -2.2041 -1.5726
 4750TIP3    H214257   3.201   2.843   3.631  2.8756  2.8519  0.8594
 4751TIP3   OH214258   4.203   1.042   1.945  0.1022 -0.3807  0.2302
 4751TIP3    H114259   4.201   1.037   2.040 -1.8764  1.3347  0.3420
 4751TIP3    H214260   4.169   0.957   1.916 -1.2144 -0.1933  1.1340
 4752TIP3   OH214261   2.034   3.191   0.777  0.7012 -0.2243 -0.5785
 4752TIP3    H114262   1.960   3.223   0.726  0.1977 -1.6310 -0.7844
 4752TIP3    H214263   2.032   3.244   0.857  0.7457  1.1458 -1.4570
 4753TIP3   OH214264   1.885   0.273   4.537  0.3941  0.1089 -0.2327
 4753TIP3    H114265   1.807   0.321   4.510  0.0323 -0.8415 -0.9395
 4753TIP3    H214266   1.858   0.227   4.617  1.0985  1.9683  1.1293
 4754TIP3   OH214267   1.852   5.826   4.471 -0.3949  0.1727 -0.2521
 4754TIP3    H114268   1.891   5.912   4.485  2.8856 -1.2014 -0.1202
 4754TIP3    H214269   1.871   5.805   4.380  1.2845 -1.4325  0.3961
 4755TIP3   OH214270   6.369   3.110   4.969 -0.0758  0.3851 -0.5420
 4755TIP3    H114271   6.282   3.147   4.979 -0.1561  0.5359 -1.7047
 4755TIP3    H214272   6.358   3.037   4.908  0.7440  0.9454 -1.3863
 4756TIP3   OH214273   0.813   4.835   1.079  0.5706 -0.0619  0.3293
 4756TIP3    H114274   0.753   4.767   1.049  0.2211 -0.4390  1.8099
 4756TIP3    H214275   0.760   4.915   1.083  1.0622  0.4258 -1.7350
 4757TIP3   OH214276   2.111   0.806   1.032 -0.0810 -0.1879  0.4466
 4757TIP3    H114277   2.126   0.837   1.121  0.8863 -0.9653  0.5732
 4757TIP3    H214278   2.067   0.722   1.043 -0.5501  0.0215  0.1749
 4758TIP3   OH214279   6.287   4.097   2.462  0.2854  0.5447  0.5087
 4758TIP3    H114280   6.293   4.017   2.410  0.4543  0.6462  0.3700
 4758TIP3    H214281   6.263   4.165   2.400  0.4016  0.6498  0.5787
 4759TIP3   OH214282   0.244   5.619   1.431  0.8090  0.1109 -0.0849
 4759TIP3    H114283   0.188   5.696   1.442  0.6140 -0.3218  2.4605
 4759TIP3    H214284   0.184   5.546   1.427  1.1193 -0.2885  1.9207
 4760TIP3   OH214285   3.083   2.839   2.546 -0.0687  0.4317  0.3394
 4760TIP3    H114286   3.042   2.868   2.465 -0.9561 -1.8791 -0.0943
 4760TIP3    H214287   3.073   2.914   2.606 -0.8358  1.5791 -1.1513
 4761TIP3   OH214288   0.426   2.874   3.231 -0.8354  0.0906 -0.1935
 4761TIP3    H114289   0.340   2.906   3.257 -0.6891  0.3830 -0.0686
 4761TIP3    H214290   0.478   2.953   3.215 -0.5146 -0.0797 -0.0176
 4762TIP3   OH214291   0.631   3.731   1.313 -0.5457  0.1856  0.8070
 4762TIP3    H114292   0.686   3.777   1.376  0.6808 -0.9580  0.6152
 4762TIP3    H214293   0.592   3.801   1.260  1.2201  1.0277  0.5418
 4763TIP3   OH214294   5.085   2.137   4.089  0.5623  0.1259 -0.0065
 4763TIP3    H114295   5.068   2.112   4.179  1.0361  0.6939  0.2477
 4763TIP3    H214296   5.023   2.207   4.071 -0.2986 -0.7375 -0.4960
 4764TIP3   OH214297   3.805   1.504   4.053  0.7969  0.3061  0.0777
 4764TIP3    H114298   3.873   1.467   4.109 -0.0089 -0.8383  0.3289
 4764TIP3    H214299   3.850   1.522   3.970  1.1390 -1.7967 -0.2660
 4765TIP3   OH214300   4.932   4.147   0.907 -0.4751 -0.1704 -0.4171
 4765TIP3    H114301   4.960   4.060   0.878  1.9393  0.5509 -0.5209
 4765TIP3    H214302   4.885   4.185   0.833  0.4170 -0.5732 -1.1981
 4766TIP3   OH214303   3.406   5.395   3.413  0.3241  0.2359  0.2987
 4766TIP3    H114304   3.478   5.338   3.441 -0.7420 -1.3345  0.0089
 4766TIP3    H214305   3.333   5.371   3.470  0.0345  1.8854  0.6734
 4767TIP3   OH214306   3.415   1.197   2.160  0.0969 -0.4169  0.1285
 4767TIP3    H114307   3.464   1.183   2.241 -0.5000  0.4489  0.6604
 4767TIP3    H214308   3.353   1.267   2.181 -1.5966 -1.6836 -0.4146
 4768TIP3   OH214309   4.220   1.177   4.912 -0.4478 -0.0514  0.7360
 4768TIP3    H114310   4.189   1.193   4.823 -1.9012 -1.3427  0.9677
 4768TIP3    H214311   4.264   1.091   4.907  3.8764  1.9153  0.2905
 4769TIP3   OH214312   2.668   5.564   1.310 -0.6282 -0.0698 -0.1572
 4769TIP3    H114313   2.717   5.483   1.322 -1.2917 -0.2054  2.1768
 4769TIP3    H214314   2.679   5.611   1.393 -1.8430  1.3300 -0.7456
 4770TIP3   OH214315   0.714   0.046   3.904 -0.5496 -0.1253  1.0671
 4770TIP3    H114316   0.667   0.083   3.829 -0.3487 -1.1904  0.3881
 4770TIP3    H214317   0.648   0.040   3.973 -0.5106  1.7547  1.3114
 4771TIP3   OH214318   2.984   3.409   0.754  0.3100 -0.3218  0.2586
 4771TIP3    H114319   2.928   3.459   0.814  0.1032 -1.5691  1.1429
 4771TIP3    H214320   3.072   3.416   0.793  0.5003  0.3339 -0.2735
 4772TIP3   OH214321   5.941   4.843   4.981 -0.8464 -0.0191 -0.2273
 4772TIP3    H114322   5.884   4.769   4.956 -0.3272 -0.3976 -0.3123
 4772TIP3    H214323   5.973   4.820   5.069 -0.6241  0.0705 -0.2844
 4773TIP3   OH214324   4.432   4.736   2.773 -0.1703 -0.7084 -0.1306
 4773TIP3    H114325   4.419   4.646   2.744 -0.3261 -0.6613 -0.2052
 4773TIP3    H214326   4.344   4.767   2.795  0.0130 -0.9454  0.9789
 4774TIP3   OH214327   3.126   0.077   0.729  0.7091 -0.4396  0.0729
 4774TIP3    H114328   3.061   0.118   0.673  0.5021  0.1669  0.7408
 4774TIP3    H214329   3.190   0.040   0.668  0.1560 -0.3586 -0.5695
 4775TIP3   OH214330   1.173   5.326   1.811 -0.0041  0.2913  0.5319
 4775TIP3    H114331   1.188   5.267   1.737 -1.1318 -0.6251  1.0180
 4775TIP3    H214332   1.209   5.279   1.886  0.5788  0.9536  0.6745
 4776TIP3   OH214333   2.515   3.501   5.047  0.2965 -0.1515  0.0772
 4776TIP3    H114334   2.421   3.501   5.028  0.2227  1.8927  0.2456
 4776TIP3    H214335   2.521   3.514   5.142  0.7672 -0.6521  0.1259
 4777TIP3   OH214336   0.368   0.611   3.573 -0.5779  0.2342  0.0922
 4777TIP3    H114337   0.295   0.658   3.614 -1.7347 -1.2300 -0.1720
 4777TIP3    H214338   0.325   0.539   3.526  0.9318  0.3117 -1.4546
 4778TIP3   OH214339   2.342   2.089   3.738  0.1318  0.4976  0.1624
 4778TIP3    H114340   2.272   2.134   3.784  0.2205  0.1173  0.6752
 4778TIP3    H214341   2.307   2.074   3.650 -0.4749  0.2178  0.4465
 4779TIP3   OH214342   3.312   0.326   2.801  0.3903 -0.2173 -0.3340
 4779TIP3    H114343   3.401   0.328   2.835  0.4986  0.6880 -0.6411
 4779TIP3    H214344   3.289   0.233   2.798 -0.1128 -0.4004  3.4187
 4780TIP3   OH214345   0.414   0.940   4.018  0.0078 -0.4585  0.6217
 4780TIP3    H114346   0.481   1.005   3.996  0.7928 -0.9395  1.4985
 4780TIP3    H214347   0.414   0.879   3.944  0.6203 -0.5113  0.6640
 4781TIP3   OH214348   2.214   2.102   2.575 -0.5745 -0.3377  0.3818
 4781TIP3    H114349   2.182   2.022   2.534  2.0147 -1.8154  1.0154
 4781TIP3    H214350   2.144   2.166   2.561 -2.0042 -2.1982 -1.6807
 4782TIP3   OH214351   2.872   3.940   0.369  0.1191  0.3483 -0.2534
 4782TIP3    H114352   2.786   3.940   0.327  0.1425  0.7369 -0.3026
 4782TIP3    H214353   2.865   3.874   0.438 -0.3419  0.6563 -0.0070
 4783TIP3   OH214354   0.234   1.947   1.629 -0.8657 -0.4304  0.4081
 4783TIP3    H114355   0.167   2.010   1.602  0.0980  1.0646  1.3583
 4783TIP3    H214356   0.209   1.920   1.717 -0.7529 -0.6187  0.3839
 4784TIP3   OH214357   3.371   0.814   3.356  0.4137  0.4351 -0.3029
 4784TIP3    H114358   3.453   0.861   3.352 -0.2191  1.6183  0.1608
 4784TIP3    H214359   3.357   0.796   3.449  0.4336 -0.3030 -0.4305
 4785TIP3   OH214360   5.218   3.655   0.966  0.1447 -0.4679  0.2767
 4785TIP3    H114361   5.298   3.602   0.966  1.6320  1.6858  0.0763
 4785TIP3    H214362   5.236   3.726   0.904 -1.7244  0.3762  0.6443
 4786TIP3   OH214363   0.415   1.176   3.141 -0.0576 -0.8902 -0.0781
 4786TIP3    H114364   0.351   1.247   3.130 -1.8827 -2.4183  0.0437
 4786TIP3    H214365   0.488   1.217   3.187 -1.0460  0.9020  0.0146
 4787TIP3   OH214366   3.352   2.785   3.216  0.2613  0.1778 -0.2468
 4787TIP3    H114367   3.374   2.698   3.182 -1.7295  0.3160 -2.1176
 4787TIP3    H214368   3.414   2.844   3.174  0.1286 -0.0833 -0.8119
 4788TIP3   OH214369   3.966   4.749   3.396  0.4008 -0.3694 -0.5877
 4788TIP3    H114370   3.879   4.724   3.427 -0.0382  0.2747 -1.2799
 4788TIP3    H214371   4.026   4.716   3.464 -0.3933 -0.5898  0.0207
 4789TIP3   OH214372   4.804   3.070   0.105 -0.6433  0.5018 -0.1886
 4789TIP3    H114373   4.788   2.997   0.165 -1.2882  0.5846 -0.2528
 4789TIP3    H214374   4.898   3.065   0.086 -0.7975 -0.6952 -0.7025
 4790TIP3   OH214375   0.784   3.830   1.524 -0.6115 -0.1060 -0.4755
 4790TIP3    H114376   0.879   3.826   1.525 -0.6283 -0.7593 -0.9542
 4790TIP3    H214377   0.756   3.786   1.604 -0.4912  1.3577  0.4131
 4791TIP3   OH214378   0.672   1.854   3.756 -0.1783 -0.1163 -0.1904
 4791TIP3    H114379   0.650   1.845   3.848  0.9456 -0.9177  0.0225
 4791TIP3    H214380   0.638   1.940   3.731 -0.9196 -0.1007  0.8313
 4792TIP3   OH214381   5.191   4.387   0.575 -0.1290  0.0992  0.0877
 4792TIP3    H114382   5.222   4.448   0.508  0.1480 -0.1060  0.0258
 4792TIP3    H214383   5.203   4.434   0.658 -0.2908  0.2791  0.0099
 4793TIP3   OH214384   2.929   1.113   0.971 -0.0567 -0.0071  0.3475
 4793TIP3    H114385   2.933   1.020   0.949 -0.3662 -0.1838  1.0079
 4793TIP3    H214386   2.844   1.124   1.013 -0.3307  0.7285 -0.3684
 4794TIP3   OH214387   1.321   5.911   4.154 -0.4582 -0.4648 -0.3943
 4794TIP3    H114388   1.289   5.864   4.077 -0.3945 -0.5382 -0.3761
 4794TIP3    H214389   1.395   5.859   4.184 -0.2483 -0.2310 -0.5060
 4795TIP3   OH214390   1.941   1.075   4.394  0.7430 -0.5772  0.7160
 4795TIP3    H114391   2.008   1.099   4.329  0.7870 -1.4747  0.4166
 4795TIP3    H214392   1.860   1.110   4.358  0.9695  0.0809  0.8320
 4796TIP3   OH214393   1.791   2.255   1.684 -0.4504  0.5260  0.0554
 4796TIP3    H114394   1.722   2.193   1.705 -0.0796 -0.3187 -1.1243
 4796TIP3    H214395   1.864   2.229   1.741 -0.1947 -0.3394 -0.6424
 4797TIP3   OH214396   3.562   2.996   2.274 -0.3264 -1.0393  0.0742
 4797TIP3    H114397   3.475   2.962   2.252 -1.2657  1.3508 -0.2715
 4797TIP3    H214398   3.545   3.060   2.343  1.2615 -0.9193  0.3900
 4798TIP3   OH214399   1.340   4.853   3.524  0.8898  0.5593 -0.0437
 4798TIP3    H114400   1.381   4.926   3.477  0.4615  0.8406  0.0125
 4798TIP3    H214401   1.413   4.797   3.548  1.0189 -0.3606 -2.3094
 4799TIP3   OH214402   4.490   3.832   1.803 -0.4750  0.6005  0.1676
 4799TIP3    H114403   4.507   3.749   1.759 -1.0199 -0.7998  2.4229
 4799TIP3    H214404   4.499   3.898   1.734  0.2906 -1.2733 -1.6371
 4800TIP3   OH214405   4.087   4.156   1.107 -0.9901  0.0760 -0.2459
 4800TIP3    H114406   4.020   4.126   1.167 -0.8224  0.4700  0.1432
 4800TIP3    H214407   4.122   4.235   1.147 -0.5947  0.1176 -0.6589
 4801TIP3   OH214408   2.383   2.982   4.264 -0.6744  0.2784 -0.1076
 4801TIP3    H114409   2.373   3.048   4.333  0.3878 -0.9876  1.3407
 4801TIP3    H214410   2.351   2.901   4.304  1.6296 -0.8632 -0.3817
 4802TIP3   OH214411   5.253   4.192   4.705 -0.3597 -0.0554 -0.8974
 4802TIP3    H114412   5.211   4.276   4.684  2.4881  1.5096 -0.9626
 4802TIP3    H214413   5.317   4.214   4.773  0.3187 -2.2572 -0.7453
 4803TIP3   OH214414   4.353   0.285   0.097 -0.2631  0.6039  0.1457
 4803TIP3    H114415   4.366   0.379   0.090  0.2204  0.4730 -0.8329
 4803TIP3    H214416   4.297   0.263   0.023  0.2983 -0.0004 -0.1068
 4804TIP3   OH214417   5.950   3.943   4.199 -0.1595 -0.4578 -0.6334
 4804TIP3    H114418   5.953   3.870   4.137  0.3423 -1.2095  0.2645
 4804TIP3    H214419   6.012   4.006   4.164 -0.0465 -0.7799 -1.0203
 4805TIP3   OH214420   0.845   2.725   3.792 -0.1519  0.0422  0.0431
 4805TIP3    H114421   0.794   2.778   3.731 -0.5988 -2.3896 -1.8932
 4805TIP3    H214422   0.781   2.692   3.854 -0.5989 -1.1319 -0.9915
 4806TIP3   OH214423   1.550   4.638   0.939 -0.0704 -0.0777  0.1323
 4806TIP3    H114424   1.599   4.676   0.866  0.2252  0.4036  0.5707
 4806TIP3    H214425   1.460   4.665   0.923  0.0148  0.1488  0.0174
 4807TIP3   OH214426   2.112   2.832   0.513  0.0793  0.0425  0.0333
 4807TIP3    H114427   2.033   2.844   0.461 -0.8840  0.8783  1.5822
 4807TIP3    H214428   2.143   2.744   0.492 -0.0752  0.4726 -2.1270
 4808TIP3   OH214429   0.043   5.006   0.439 -0.2135  0.6170  0.1330
 4808TIP3    H114430   0.046   5.099   0.415 -2.4865  0.4904 -0.9019
 4808TIP3    H214431   0.038   4.960   0.355  2.8684 -0.6668  0.5155
 4809TIP3   OH214432   1.082   5.847   1.761 -0.8443 -0.1497  0.1319
 4809TIP3    H114433   1.009   5.908   1.748 -0.9280 -0.8165 -3.4006
 4809TIP3    H214434   1.135   5.856   1.683  1.0223 -2.1736  1.0635
 4810TIP3   OH214435   5.574   3.024   3.562  0.1003  0.3395 -0.0465
 4810TIP3    H114436   5.530   2.943   3.588  0.9959 -0.4700 -0.9995
 4810TIP3    H214437   5.506   3.073   3.514 -0.8437  0.7907  1.6704
 4811TIP3   OH214438   0.134   1.080   4.968 -0.3506  0.6169 -0.1214
 4811TIP3    H114439   0.175   0.994   4.964 -0.1241  0.6711  0.7003
 4811TIP3    H214440   0.132   1.111   4.878 -0.8063 -0.4155 -0.4750
 4812TIP3   OH214441   0.240   0.200   1.938 -0.1439 -0.1678  0.4114
 4812TIP3    H114442   0.274   0.150   2.011 -0.4076 -1.2154 -0.1560
 4812TIP3    H214443   0.146   0.206   1.955 -0.1502 -0.0893  0.3486
 4813TIP3   OH214444   1.668   4.677   3.251 -0.0599  0.2838  0.1762
 4813TIP3    H114445   1.632   4.692   3.338 -0.4985 -0.4761  0.1313
 4813TIP3    H214446   1.659   4.762   3.207  0.7876  0.8651  1.0778
 4814TIP3   OH214447   0.159   2.312   1.763  0.0043 -0.4160  0.0034
 4814TIP3    H114448   0.216   2.298   1.839 -0.9422 -3.2614  0.3128
 4814TIP3    H214449   0.070   2.311   1.800 -0.4234 -0.8160 -0.9941
 4815TIP3   OH214450   0.726   3.133   2.275 -0.5702  0.2461  0.4552
 4815TIP3    H114451   0.816   3.119   2.246 -1.0491  0.4218 -1.1964
 4815TIP3    H214452   0.721   3.226   2.296 -0.7250  0.5629 -0.8811
 4816TIP3   OH214453   2.434   5.261   2.906  0.2221 -0.0558 -0.7052
 4816TIP3    H114454   2.497   5.252   2.834  0.2015 -0.7472 -0.6401
 4816TIP3    H214455   2.350   5.236   2.868 -0.0568  1.0271 -0.8371
 4817TIP3   OH214456   0.464   1.767   4.324 -0.3659 -0.4552 -0.0307
 4817TIP3    H114457   0.425   1.707   4.260  1.6253  0.2358 -2.0242
 4817TIP3    H214458   0.469   1.716   4.404 -2.5492 -1.5162 -0.4966
 4818TIP3   OH214459   2.514   0.011   1.037  0.1926  0.0924 -0.1463
 4818TIP3    H114460   2.524  -0.072   1.083  0.6199  0.7167  0.9311
 4818TIP3    H214461   2.520   0.078   1.106  3.3074  1.2188 -1.3284
 4819TIP3   OH214462   4.421   1.549   0.536 -0.1851  0.6791  0.1249
 4819TIP3    H114463   4.405   1.552   0.442  0.1670  0.7372  0.0657
 4819TIP3    H214464   4.510   1.582   0.546 -0.3078  0.9087  0.4998
 4820TIP3   OH214465   0.281   3.699   1.741  0.1221  0.3274  0.7103
 4820TIP3    H114466   0.313   3.776   1.695 -0.9472  0.6237  0.4629
 4820TIP3    H214467   0.342   3.629   1.715  1.0005  1.0422  0.8214
 4821TIP3   OH214468   0.757   4.615   4.003 -0.4254  0.2914 -0.2844
 4821TIP3    H114469   0.833   4.670   3.983 -1.0545  1.7946  1.2309
 4821TIP3    H214470   0.724   4.589   3.917  1.6088 -0.1926 -0.9916
 4822TIP3   OH214471   5.066   5.739   4.039 -0.1325  0.2712  0.3040
 4822TIP3    H114472   5.065   5.777   4.126 -0.8114  1.9875 -0.4083
 4822TIP3    H214473   4.991   5.777   3.995 -0.6088 -1.6203 -0.6248
 4823TIP3   OH214474   6.096   1.946   1.566 -0.3308 -0.1908 -0.5974
 4823TIP3    H114475   6.014   1.913   1.603 -0.8403  0.1846 -1.3575
 4823TIP3    H214476   6.070   1.984   1.482  0.2111  2.2469  0.2661
 4824TIP3   OH214477   3.855   0.979   3.565 -0.4862 -0.0921  0.2372
 4824TIP3    H114478   3.858   1.034   3.643 -1.1902  0.8902 -0.4085
 4824TIP3    H214479   3.936   0.927   3.569 -0.7217 -0.3860  1.8290
 4825TIP3   OH214480   1.704   3.645   1.806  0.2829  0.1499 -0.4296
 4825TIP3    H114481   1.773   3.579   1.809 -0.0182 -0.1725  2.5211
 4825TIP3    H214482   1.737   3.712   1.747  2.8251 -0.3541  0.3079
 4826TIP3   OH214483   4.026   2.057   4.361 -0.5339  0.6575 -0.3886
 4826TIP3    H114484   3.937   2.026   4.374  0.0536 -2.1032 -2.1299
 4826TIP3    H214485   4.069   2.042   4.446 -1.8716  2.9532  0.7833
 4827TIP3   OH214486   6.103   0.941   1.488 -0.0584  0.2860  0.4246
 4827TIP3    H114487   6.100   0.911   1.578  1.9632 -1.3387  0.0394
 4827TIP3    H214488   6.140   1.029   1.493  0.4031  0.0577  1.1670
 4828TIP3   OH214489   3.739   5.051   4.134 -0.1578  0.0124  0.3451
 4828TIP3    H114490   3.802   5.108   4.090 -0.6424 -0.4811 -1.0589
 4828TIP3    H214491   3.759   5.060   4.227  0.1609  2.0001  0.1271
 4829TIP3   OH214492   0.171   4.095   1.269  0.0559 -0.1791 -0.5751
 4829TIP3    H114493   0.152   4.175   1.317  1.0929  0.1338 -0.6677
 4829TIP3    H214494   0.233   4.048   1.325  1.1354  0.1029 -1.4895
 4830TIP3   OH214495   5.541   3.888   2.442 -0.0248  0.0447  0.7401
 4830TIP3    H114496   5.455   3.849   2.455 -0.3473  0.6542  0.4862
 4830TIP3    H214497   5.601   3.814   2.441 -0.7456 -0.5667 -0.9545
 4831TIP3   OH214498   5.083   0.483   1.080  0.2092 -0.3811  0.4009
 4831TIP3    H114499   5.078   0.417   1.011 -0.7082  0.4626 -0.3678
 4831TIP3    H214500   5.177   0.491   1.098  0.5589  0.0458 -1.4184
 4832TIP3   OH214501   2.852   1.896   3.442 -0.3336 -0.1768 -0.3440
 4832TIP3    H114502   2.886   1.984   3.456  0.3541 -0.6792  1.4466
 4832TIP3    H214503   2.784   1.907   3.376 -2.6886  2.3421  2.2115
 4833TIP3   OH214504   0.579   4.055   1.243 -0.0375 -0.3260  0.2832
 4833TIP3    H114505   0.550   4.131   1.192  2.3800  0.1756 -0.4627
 4833TIP3    H214506   0.512   4.045   1.311 -1.5750  1.0816 -0.9276
 4834TIP3   OH214507   4.075   4.806   1.571 -0.6611  0.0457  0.3802
 4834TIP3    H114508   4.024   4.725   1.568 -1.8168  0.7296 -2.8290
 4834TIP3    H214509   4.009   4.876   1.575  0.1078  0.8813 -0.7430
 4835TIP3   OH214510   5.683   2.100   0.353  0.1608  0.4288  0.0650
 4835TIP3    H114511   5.725   2.148   0.281  0.0191  0.9917  0.3489
 4835TIP3    H214512   5.591   2.126   0.349 -0.0961 -0.4767 -0.2933
 4836TIP3   OH214513   5.455   5.510   1.099  0.0004  0.7266  0.1356
 4836TIP3    H114514   5.500   5.431   1.127  0.3827  0.1413 -1.9816
 4836TIP3    H214515   5.362   5.485   1.098  0.2905 -0.7128 -3.2231
 4837TIP3   OH214516   5.818   4.527   4.416  0.2194 -0.0240  0.0682
 4837TIP3    H114517   5.752   4.560   4.355  1.4927  0.4204 -1.1458
 4837TIP3    H214518   5.899   4.526   4.365  1.0821 -0.9324  1.3813
 4838TIP3   OH214519   4.765   0.724   4.488  0.2804  0.0616  0.1342
 4838TIP3    H114520   4.701   0.793   4.467  1.1771  0.8818  0.0010
 4838TIP3    H214521   4.846   0.772   4.507  0.7809 -0.9416  0.5860
 4839TIP3   OH214522   3.716   4.163   1.083  0.2026 -0.0716  0.1882
 4839TIP3    H114523   3.680   4.084   1.043 -0.2904 -0.2420  0.9413
 4839TIP3    H214524   3.763   4.131   1.160 -0.1661  0.3880  0.6036
 4840TIP3   OH214525   1.448   4.527   5.049 -0.1645 -0.6216  0.2161
 4840TIP3    H114526   1.457   4.615   5.013  0.4865 -0.6235  0.3609
 4840TIP3    H214527   1.390   4.481   4.988  0.3190 -0.4020 -0.4134
 4841TIP3   OH214528   3.746   0.663   1.614  0.3787 -0.4616 -0.0846
 4841TIP3    H114529   3.772   0.583   1.661  0.1286  0.3233  1.4539
 4841TIP3    H214530   3.677   0.701   1.668  0.6546  0.9161 -0.6658
 4842TIP3   OH214531   3.099   0.447   3.034  0.4216  0.0433  0.0056
 4842TIP3    H114532   3.156   0.382   3.076  0.4176 -0.3866 -0.6403
 4842TIP3    H214533   3.059   0.400   2.962 -0.7215  0.3647  0.4150
 4843TIP3   OH214534   5.838   4.604   1.918  0.1597  0.9761 -0.1894
 4843TIP3    H114535   5.894   4.680   1.905  0.2431  1.1708  1.1867
 4843TIP3    H214536   5.772   4.610   1.848  0.2703  2.2078 -0.2039
 4844TIP3   OH214537   5.896   2.564   0.834  0.1257 -0.0135 -0.3240
 4844TIP3    H114538   5.862   2.653   0.833  1.4591  0.5187 -1.0186
 4844TIP3    H214539   5.900   2.541   0.927  0.6312  0.9980 -0.0839
 4845TIP3   OH214540   5.865   5.902   2.806  0.0216 -0.0639  0.6397
 4845TIP3    H114541   5.921   5.851   2.747 -1.4964 -0.4806 -0.5376
 4845TIP3    H214542   5.816   5.836   2.855 -1.7718  0.1597 -0.7110
 4846TIP3   OH214543   5.331   2.726   4.470  0.0416 -0.6718 -0.3060
 4846TIP3    H114544   5.311   2.791   4.538  0.7679 -0.0838 -0.6398
 4846TIP3    H214545   5.246   2.703   4.432 -0.1844  0.3590 -0.4336
 4847TIP3   OH214546   5.232   1.266   3.385  0.0030  0.2157  0.2942
 4847TIP3    H114547   5.276   1.338   3.429  0.2923 -0.5417  1.2753
 4847TIP3    H214548   5.139   1.283   3.397  0.0348  1.0023 -0.4486
 4848TIP3   OH214549   4.945   2.945   5.092  0.3724  0.2674  0.4131
 4848TIP3    H114550   4.929   3.040   5.095 -0.1624  0.2012 -0.2067
 4848TIP3    H214551   4.974   2.924   5.181  1.9362  1.2530  0.1669
 4849TIP3   OH214552   0.077   5.355   3.848  0.6196  0.1158 -0.9713
 4849TIP3    H114553   0.084   5.275   3.795 -0.7068  0.2128 -1.3338
 4849TIP3    H214554   0.069   5.425   3.783 -0.0352  0.3433 -0.6500
 4850TIP3   OH214555   6.342   5.949  -0.023  0.1274  0.3656 -0.2831
 4850TIP3    H114556   6.380   6.014   0.036  0.8394 -0.6796  0.4306
 4850TIP3    H214557   6.248   5.950  -0.002  0.5569 -1.1724  2.1186
 4851TIP3   OH214558   1.469   2.981   1.379  0.0078  0.2396  0.6321
 4851TIP3    H114559   1.374   2.982   1.364 -0.3596  0.9740  2.5762
 4851TIP3    H214560   1.506   2.939   1.302 -1.8448  0.5483 -0.4805
 4852TIP3   OH214561   2.963   1.129   5.033  0.2631  0.2906 -0.7577
 4852TIP3    H114562   3.058   1.135   5.026  0.3104  0.2240 -0.2222
 4852TIP3    H214563   2.947   1.102   5.124 -0.2906  0.9986 -0.6361
 4853TIP3   OH214564   1.804   0.395   2.841 -0.2611  0.1644  0.1772
 4853TIP3    H114565   1.889   0.392   2.887 -0.3604  0.0877  0.3593
 4853TIP3    H214566   1.781   0.303   2.828  0.5957  0.1679 -1.5965
 4854TIP3   OH214567   5.148   5.891   3.763  0.6424 -0.4231  0.4126
 4854TIP3    H114568   5.206   5.851   3.827 -1.1415 -2.6511  0.7806
 4854TIP3    H214569   5.086   5.942   3.815 -0.0334 -1.2026  0.4010
 4855TIP3   OH214570   6.223   4.360   3.461 -0.2916  0.3072 -0.1048
 4855TIP3    H114571   6.289   4.291   3.466  1.0617  1.1961 -3.1946
 4855TIP3    H214572   6.146   4.317   3.422  0.5895  0.4724 -2.1425
 4856TIP3   OH214573   4.984   1.973   2.976  0.0621  0.2250  0.3581
 4856TIP3    H114574   4.954   2.034   3.044 -0.2814 -1.1407  1.4934
 4856TIP3    H214575   5.022   1.900   3.025  2.5491  0.5190 -1.0064
 4857TIP3   OH214576   5.492   0.813   0.884 -0.2735  0.8472 -0.4061
 4857TIP3    H114577   5.473   0.720   0.869  1.7137  0.2379  0.5442
 4857TIP3    H214578   5.465   0.828   0.975 -0.8051  1.2851 -0.6289
 4858TIP3   OH214579   1.414   3.252   0.401  0.2860 -0.2450  0.4733
 4858TIP3    H114580   1.471   3.329   0.400  1.0751 -0.7651  2.1302
 4858TIP3    H214581   1.333   3.281   0.357  1.1334  1.0427 -0.2926
 4859TIP3   OH214582   0.103   2.065   4.771  0.2536 -0.7255 -0.5402
 4859TIP3    H114583   0.055   2.120   4.833  2.4352  1.0487 -0.2814
 4859TIP3    H214584   0.050   2.067   4.692  0.1684  1.7774 -0.5167
 4860TIP3   OH214585   4.647   0.439   3.246 -0.0261 -0.0636 -0.2142
 4860TIP3    H114586   4.683   0.484   3.322 -1.5122 -0.8971  1.0611
 4860TIP3    H214587   4.641   0.348   3.273  0.7060 -0.6385 -1.8728
 4861TIP3   OH214588   0.053   4.796   0.915 -0.2310 -0.2245 -0.0283
 4861TIP3    H114589  -0.020   4.747   0.877 -1.2186 -0.0828  1.5897
 4861TIP3    H214590   0.019   4.884   0.927 -0.0229 -0.3068  1.3204
 4862TIP3   OH214591   1.040   5.941   4.390 -0.3279  0.1059 -0.2917
 4862TIP3    H114592   1.069   5.850   4.394 -1.1871 -0.1669 -0.1685
 4862TIP3    H214593   1.107   5.985   4.338  2.3497  0.2873  2.9770
 4863TIP3   OH214594   5.175   2.476   0.454  0.1103 -0.4858  0.2897
 4863TIP3    H114595   5.101   2.460   0.513 -0.2807  0.4509  0.0705
 4863TIP3    H214596   5.153   2.558   0.410 -0.6333 -2.1403 -2.7189
 4864TIP3   OH214597   1.933   5.936   4.088  0.6245  0.0358 -0.1097
 4864TIP3    H114598   2.026   5.960   4.092  1.0612 -1.7286  1.6641
 4864TIP3    H214599   1.933   5.844   4.063 -0.6060 -0.1879  0.6529
 4865TIP3   OH214600   3.340   3.698   3.346  0.1592 -0.3883  0.7652
 4865TIP3    H114601   3.400   3.652   3.287  0.1293 -1.1667  1.3262
 4865TIP3    H214602   3.397   3.733   3.415 -0.0296 -1.3687  1.4525
 4866TIP3   OH214603   0.218   3.102   2.528  0.6765 -0.1809 -0.1778
 4866TIP3    H114604   0.198   3.032   2.466 -1.7125  1.0778 -1.0032
 4866TIP3    H214605   0.298   3.142   2.494 -0.2088  0.0451 -2.1391
 4867TIP3   OH214606   0.418   0.446   0.615  0.1612 -0.6236  0.5808
 4867TIP3    H114607   0.464   0.383   0.560 -0.2882 -0.3772 -0.0860
 4867TIP3    H214608   0.427   0.529   0.569 -1.6312 -0.7036 -0.0083
 4868TIP3   OH214609   6.267   5.171   4.221 -0.1306  0.1812  0.3664
 4868TIP3    H114610   6.212   5.225   4.165 -0.4237 -0.9731 -0.4817
 4868TIP3    H214611   6.356   5.202   4.205 -0.1686 -0.3819 -1.0392
 4869TIP3   OH214612   3.312   0.148   3.935  0.1309 -0.0815 -0.3701
 4869TIP3    H114613   3.395   0.162   3.979  0.1970  0.3623 -0.6325
 4869TIP3    H214614   3.328   0.074   3.876 -0.3120 -1.5447  1.2626
 4870TIP3   OH214615   5.655   3.416   3.091 -0.2593 -0.2601 -0.1192
 4870TIP3    H114616   5.649   3.367   3.174  3.4406 -0.1866  0.3463
 4870TIP3    H214617   5.642   3.350   3.023 -0.8705 -0.7800  0.4862
 4871TIP3   OH214618   3.420   3.900   4.949 -0.5992  0.1209 -0.0687
 4871TIP3    H114619   3.409   3.893   5.043 -0.9911  1.3943  0.0030
 4871TIP3    H214620   3.331   3.893   4.914 -0.3431 -1.6200 -0.4685
 4872TIP3   OH214621   4.147   1.408   4.333 -0.1304  0.1443 -0.1190
 4872TIP3    H114622   4.131   1.472   4.403 -1.4573 -0.0684 -0.2040
 4872TIP3    H214623   4.152   1.461   4.253 -0.1124  0.2500 -0.0490
 4873TIP3   OH214624   6.227   0.455   0.506  0.0940 -0.1213 -0.4365
 4873TIP3    H114625   6.157   0.500   0.459  0.7468 -0.2678 -1.5903
 4873TIP3    H214626   6.295   0.522   0.517  1.0872 -0.7556 -2.2006
 4874TIP3   OH214627   4.676   0.317   1.053  0.0617  0.1951 -0.2092
 4874TIP3    H114628   4.692   0.396   1.001 -0.6923  0.7745  0.3888
 4874TIP3    H214629   4.585   0.293   1.032  0.0790 -0.1372  0.0887
 4875TIP3   OH214630   1.599   2.491   0.637 -0.4492 -0.4574 -0.0288
 4875TIP3    H114631   1.590   2.585   0.620 -0.1595 -0.3286  0.5138
 4875TIP3    H214632   1.658   2.486   0.712 -0.4673 -1.0744 -0.0552
 4876TIP3   OH214633   5.522   3.252   2.612 -0.5258 -0.0313  0.0762
 4876TIP3    H114634   5.498   3.166   2.577 -0.5245  1.3647 -3.7757
 4876TIP3    H214635   5.451   3.310   2.585  0.6785  1.6458  0.3277
 4877TIP3   OH214636   2.054   4.524   3.178  0.5227  0.8525 -0.6527
 4877TIP3    H114637   2.029   4.511   3.087 -1.2133 -0.1693 -0.0782
 4877TIP3    H214638   1.982   4.487   3.229  2.0681  0.1148  1.1468
 4878TIP3   OH214639   5.077   3.802   1.936 -0.0805 -0.0363 -0.4889
 4878TIP3    H114640   5.089   3.777   1.844  0.9441 -0.8233 -0.1661
 4878TIP3    H214641   5.152   3.858   1.956 -0.4027  0.2927 -0.1798
 4879TIP3   OH214642   3.371   1.837   0.420  0.4452 -0.1553 -0.7055
 4879TIP3    H114643   3.311   1.907   0.393  0.1072 -0.7234 -1.4766
 4879TIP3    H214644   3.375   1.845   0.515 -0.5370  0.1545 -0.6728
 4880TIP3   OH214645   0.618   5.245   2.610 -0.1119 -0.0683  0.4990
 4880TIP3    H114646   0.610   5.152   2.590  1.5773 -0.4736  1.4699
 4880TIP3    H214647   0.619   5.289   2.525  1.2422 -1.1639 -0.0932
 4881TIP3   OH214648   3.297   4.521   0.741 -0.0803 -0.1712 -0.0887
 4881TIP3    H114649   3.389   4.515   0.715 -0.3065 -1.4560 -0.6886
 4881TIP3    H214650   3.298   4.526   0.836  0.5733 -1.8504  0.0187
 4882TIP3   OH214651   3.879   3.483   0.074  0.0258 -0.3099  0.5198
 4882TIP3    H114652   3.927   3.406   0.102 -1.0142 -0.3382  2.4286
 4882TIP3    H214653   3.941   3.556   0.085 -0.4695 -0.2077  3.8439
 4883TIP3   OH214654   2.739   1.526   4.363 -0.0705  0.7117 -0.1052
 4883TIP3    H114655   2.782   1.575   4.292  0.2530  0.3314 -0.1772
 4883TIP3    H214656   2.646   1.533   4.343  0.0373  0.1699 -0.8729
 4884TIP3   OH214657   0.128   0.131   4.090 -0.0808 -0.0523  0.3520
 4884TIP3    H114658   0.087   0.217   4.082  0.5817  0.2764  0.4959
 4884TIP3    H214659   0.222   0.147   4.081 -0.0350 -0.9556 -1.2365
 4885TIP3   OH214660   4.549   2.675   5.004 -0.1372 -0.2679  0.2802
 4885TIP3    H114661   4.488   2.712   5.068  1.7266 -0.5176  2.3099
 4885TIP3    H214662   4.566   2.747   4.943 -0.8933  0.4198  0.8558
 4886TIP3   OH214663   2.680   4.731   4.715  0.0344  0.4538 -0.4362
 4886TIP3    H114664   2.711   4.644   4.739  1.2610  0.8498 -0.4602
 4886TIP3    H214665   2.588   4.733   4.740  0.7259  0.1685  2.4185
 4887TIP3   OH214666   5.267   0.566   3.827 -0.3050  0.8688 -0.1314
 4887TIP3    H114667   5.225   0.595   3.908  2.0187 -0.1400  1.5452
 4887TIP3    H214668   5.220   0.486   3.803 -1.6616  1.7021 -0.4297
 4888TIP3   OH214669   5.672   5.337   2.073  0.1643  0.2772 -0.0341
 4888TIP3    H114670   5.593   5.298   2.110  0.8202 -1.1739 -0.0644
 4888TIP3    H214671   5.703   5.272   2.009  1.4227  0.7747  0.0403
 4889TIP3   OH214672   3.056   2.421   3.789  0.3214 -0.8932  0.0454
 4889TIP3    H114673   3.097   2.491   3.840  1.1183 -2.2017  1.2427
 4889TIP3    H214674   3.094   2.431   3.701  2.3505 -1.2961  0.8071
 4890TIP3   OH214675   5.678   4.984   0.663  0.3218 -0.3340  0.0911
 4890TIP3    H114676   5.691   4.901   0.709  1.2482  0.4268  1.2613
 4890TIP3    H214677   5.584   5.002   0.671  0.5073 -0.0635  2.0092
 4891TIP3   OH214678   6.290   3.216   1.189  0.2443 -0.2752  0.3680
 4891TIP3    H114679   6.228   3.146   1.208 -0.1387  0.1310  0.6333
 4891TIP3    H214680   6.282   3.232   1.095  0.2385 -0.4921  0.3314
 4892TIP3   OH214681   3.771   1.892   4.677 -0.1892 -0.0002  0.1283
 4892TIP3    H114682   3.804   1.956   4.740 -0.8063 -0.3717  0.8619
 4892TIP3    H214683   3.681   1.874   4.707 -0.3604 -0.4757 -0.6401
 4893TIP3   OH214684   4.430   2.642   2.914 -0.2627  0.4539  0.0350
 4893TIP3    H114685   4.408   2.550   2.928 -0.9466  0.2142 -2.2019
 4893TIP3    H214686   4.525   2.646   2.921 -0.1458 -0.6190 -0.7713
 4894TIP3   OH214687   1.535   0.341   1.961  0.3144 -0.1035 -0.3085
 4894TIP3    H114688   1.601   0.374   1.900 -0.1132  0.4444 -0.4827
 4894TIP3    H214689   1.571   0.357   2.047  0.9461 -0.9265 -0.4051
 4895TIP3   OH214690   3.727   4.073   3.425 -0.1480  0.4510 -0.1664
 4895TIP3    H114691   3.746   4.167   3.427 -1.7320  0.7762  0.9319
 4895TIP3    H214692   3.638   4.066   3.457 -0.6206 -1.3239 -1.7209
 4896TIP3   OH214693   6.330   4.841   0.168 -0.4235 -0.0981 -0.2617
 4896TIP3    H114694   6.363   4.751   0.167 -1.0303 -0.3321 -1.0440
 4896TIP3    H214695   6.235   4.831   0.170 -0.5623  0.4758 -1.8652
 4897TIP3   OH214696   3.639   2.147   2.723 -0.0062  0.0214  0.4843
 4897TIP3    H114697   3.561   2.091   2.721  0.1363 -0.2530  1.6241
 4897TIP3    H214698   3.665   2.156   2.632  0.3723 -2.3692  0.3022
 4898TIP3   OH214699   2.996   4.532   1.525  0.4918  0.1366 -0.0268
 4898TIP3    H114700   2.930   4.524   1.456  0.8485 -0.0270 -0.3532
 4898TIP3    H214701   2.978   4.616   1.567 -0.6305 -0.4163  0.6344
 4899TIP3   OH214702   4.515   1.002   4.907 -0.6426  0.1754 -0.1459
 4899TIP3    H114703   4.561   0.931   4.864  0.1607 -0.1245  1.1554
 4899TIP3    H214704   4.519   1.075   4.845 -1.7480 -0.9697 -1.6275
 4900TIP3   OH214705   3.727   1.519   1.979 -0.4468  0.5185  0.2733
 4900TIP3    H114706   3.644   1.473   1.984  0.4504 -1.1476  0.5855
 4900TIP3    H214707   3.747   1.523   1.885 -0.3481 -0.1020  0.2637
 4901TIP3   OH214708   2.058   5.466   1.259  0.3887 -0.0252  0.4121
 4901TIP3    H114709   1.965   5.465   1.240  0.6362 -1.7496 -0.9880
 4901TIP3    H214710   2.064   5.497   1.349 -1.5092  0.2050  0.4984
 4902TIP3   OH214711   2.447   3.254   0.082 -0.0297  0.3637  0.1533
 4902TIP3    H114712   2.490   3.220   0.161 -0.9066 -0.7336  0.1717
 4902TIP3    H214713   2.408   3.337   0.110 -1.0690 -0.4263  1.1209
 4903TIP3   OH214714   5.532   1.760   5.114  0.0683  0.2615 -0.2514
 4903TIP3    H114715   5.528   1.679   5.062 -0.5811  0.9379 -1.2874
 4903TIP3    H214716   5.470   1.819   5.071  2.0651  2.0549 -0.7727
 4904TIP3   OH214717   3.879   2.751   2.774 -0.7487  0.6982 -0.1301
 4904TIP3    H114718   3.903   2.840   2.802  1.8431  0.2364 -0.6470
 4904TIP3    H214719   3.876   2.701   2.855 -1.3496  1.0400  0.0709
 4905TIP3   OH214720   3.637   5.135   0.955 -0.0559 -0.2135  0.2913
 4905TIP3    H114721   3.559   5.086   0.982 -0.1441 -0.5076 -0.4665
 4905TIP3    H214722   3.636   5.131   0.859 -1.0529  2.7943  0.0634
 4906TIP3   OH214723   5.022   3.771   3.763 -0.1715  0.2771  0.3109
 4906TIP3    H114724   4.972   3.851   3.778 -1.3764 -0.1940 -0.9285
 4906TIP3    H214725   5.011   3.720   3.843  0.9017  1.4759  1.2530
 4907TIP3   OH214726   2.572   5.878   2.922  0.2320 -0.1625  0.2699
 4907TIP3    H114727   2.530   5.819   2.986 -1.0040 -0.7943 -1.0734
 4907TIP3    H214728   2.581   5.825   2.843  1.5371  0.6769 -0.1832
 4908TIP3   OH214729   5.139   2.023  -0.008  0.2102  0.3149 -0.3249
 4908TIP3    H114730   5.147   2.013   0.086  0.4276 -3.0525 -0.5858
 4908TIP3    H214731   5.060   2.076  -0.021  0.3874  1.1432  1.7031
 4909TIP3   OH214732   1.390   1.797   4.676 -0.5144 -0.1621  0.2220
 4909TIP3    H114733   1.359   1.799   4.767  1.6109 -1.3705  1.0440
 4909TIP3    H214734   1.330   1.737   4.631 -1.9669  0.9237  0.6204
 4910TIP3   OH214735   3.297   0.043   3.643 -0.0837  0.3131 -0.1930
 4910TIP3    H114736   3.345  -0.012   3.581 -0.1099  1.8217 -1.6163
 4910TIP3    H214737   3.363   0.103   3.678 -0.2073 -0.0905  0.7515
 4911TIP3   OH214738   1.963   3.583   1.460 -0.0513  0.3601 -0.2635
 4911TIP3    H114739   1.896   3.599   1.394  0.6696  1.2286 -0.7985
 4911TIP3    H214740   1.923   3.520   1.520 -1.2342  0.6437 -0.7337
 4912TIP3   OH214741   3.738   5.801   0.241  0.0792  0.3616  0.4044
 4912TIP3    H114742   3.684   5.727   0.211 -1.3263  0.7654  1.8284
 4912TIP3    H214743   3.820   5.792   0.191 -1.4699  0.0677 -2.2758
 4913TIP3   OH214744   5.616   4.769   0.819 -0.5976 -0.0133  0.1855
 4913TIP3    H114745   5.525   4.792   0.838 -0.3701  1.0540  0.0394
 4913TIP3    H214746   5.644   4.717   0.894 -0.9892  0.6165  0.7837
 4914TIP3   OH214747   4.513   5.085   4.957  0.1540  0.1768 -0.0424
 4914TIP3    H114748   4.487   5.061   5.046  0.3513  2.2848  0.6582
 4914TIP3    H214749   4.596   5.040   4.944 -1.3932 -2.7801 -0.4787
 4915TIP3   OH214750   1.366   2.218   2.380 -0.9824  0.3829 -0.1502
 4915TIP3    H114751   1.273   2.219   2.401 -1.1870  1.3466 -0.9908
 4915TIP3    H214752   1.410   2.223   2.465 -1.7170  0.9164  0.2116
 4916TIP3   OH214753   3.882   4.918   0.869 -0.3012 -0.0134 -0.3942
 4916TIP3    H114754   3.886   5.000   0.821  2.7499  0.2207  0.0991
 4916TIP3    H214755   3.859   4.944   0.959 -2.2033 -0.0644 -0.8253
 4917TIP3   OH214756   4.767   1.068   0.481 -0.5295  0.4544  0.0253
 4917TIP3    H114757   4.729   1.042   0.397 -1.1962 -1.9027  0.9828
 4917TIP3    H214758   4.862   1.058   0.469 -0.6757 -0.7187 -0.2051
 4918TIP3   OH214759   0.057   3.582   1.618 -0.1250 -0.2966  0.4157
 4918TIP3    H114760   0.132   3.638   1.640 -1.1484  1.6425 -0.7201
 4918TIP3    H214761   0.092   3.494   1.616  2.7901  0.7273 -2.5703
 4919TIP3   OH214762   2.554   3.311   1.253  0.0071 -0.3933 -0.3294
 4919TIP3    H114763   2.523   3.316   1.343 -1.6319  1.2344 -0.9266
 4919TIP3    H214764   2.619   3.241   1.254 -0.5823 -0.9836  1.9217
 4920TIP3   OH214765   1.052   5.615   1.352  0.3357 -0.5033 -0.0981
 4920TIP3    H114766   0.971   5.619   1.403 -0.9184  2.3953 -2.0236
 4920TIP3    H214767   1.079   5.707   1.342  3.8247 -1.3481  0.2881
 4921TIP3   OH214768   5.030   0.550   4.429  0.7479  0.0193  0.1444
 4921TIP3    H114769   5.047   0.458   4.446  1.2744 -0.0978 -0.9229
 4921TIP3    H214770   4.947   0.552   4.383  0.8924  0.0556 -0.1134
 4922TIP3   OH214771   4.732   0.867   3.480  0.3035  0.4561 -0.9744
 4922TIP3    H114772   4.653   0.885   3.429 -0.7519 -0.9908  0.0873
 4922TIP3    H214773   4.802   0.861   3.414 -0.9495 -0.9462 -2.2623
 4923TIP3   OH214774   0.593   4.807   3.830 -0.0590  0.0490  0.3645
 4923TIP3    H114775   0.641   4.725   3.838 -0.1744  0.0026  0.6023
 4923TIP3    H214776   0.651   4.873   3.868  0.2573  0.1669 -0.3116
 4924TIP3   OH214777   2.929   1.151   1.489  0.1740  0.1256  0.4479
 4924TIP3    H114778   2.923   1.198   1.406  0.9469 -0.5436  0.0025
 4924TIP3    H214779   2.854   1.092   1.488  0.3107 -0.0428  0.1259
 4925TIP3   OH214780   1.868   0.093   5.057  0.1105  0.5274 -0.7168
 4925TIP3    H114781   1.851   0.131   4.972  0.9293  2.3898 -0.0928
 4925TIP3    H214782   1.961   0.068   5.055  0.9366  3.1771  0.5050
 4926TIP3   OH214783   2.176   5.131   3.529  0.3983  0.0148 -0.1448
 4926TIP3    H114784   2.146   5.046   3.562 -0.2542 -0.1392 -1.1126
 4926TIP3    H214785   2.207   5.176   3.607  0.8146 -1.1311  0.3832
 4927TIP3   OH214786   4.703   5.198   0.474  0.3554 -0.0438 -1.2593
 4927TIP3    H114787   4.716   5.108   0.504 -1.8690 -0.0061  0.0401
 4927TIP3    H214788   4.791   5.236   0.473  0.9892 -1.1114  1.9667
 4928TIP3   OH214789   0.813   1.287   4.783  0.2591 -0.6450 -0.5257
 4928TIP3    H114790   0.773   1.370   4.812 -1.1676 -0.6051 -2.4174
 4928TIP3    H214791   0.827   1.238   4.864  2.6625  2.0103  0.8763
 4929TIP3   OH214792   3.586   1.957   1.225 -0.0461  0.4862 -0.0815
 4929TIP3    H114793   3.532   1.891   1.269  1.9647 -0.2323  1.4769
 4929TIP3    H214794   3.618   2.013   1.295  0.1361  1.7249 -1.1180
 4930TIP3   OH214795   5.036   1.946   0.569  0.0512 -0.2815  0.1733
 4930TIP3    H114796   4.965   2.002   0.535  0.7247  0.3190 -0.2687
 4930TIP3    H214797   5.082   1.915   0.491 -0.7616 -2.0977  0.3692
 4931TIP3   OH214798   1.826   3.349   4.108  0.0406 -0.6552 -0.0603
 4931TIP3    H114799   1.848   3.403   4.184  0.0790 -1.8222  0.7751
 4931TIP3    H214800   1.737   3.319   4.125 -0.3461 -0.0799 -0.9947
 4932TIP3   OH214801   2.287   4.283   0.909  0.4496  0.3998  0.7762
 4932TIP3    H114802   2.217   4.219   0.895  0.2604  0.8177 -0.2633
 4932TIP3    H214803   2.246   4.367   0.888  0.7117  0.8680  2.0807
 4933TIP3   OH214804   0.250   2.068   0.515 -0.5255 -0.1274 -0.0181
 4933TIP3    H114805   0.174   2.072   0.572 -0.3553 -1.2598  0.3147
 4933TIP3    H214806   0.317   2.119   0.561 -0.5429 -0.6144  0.5502
 4934TIP3   OH214807   5.068   4.547   1.566  0.2544  0.1876 -0.1492
 4934TIP3    H114808   5.137   4.569   1.629 -0.1523  1.7323 -0.2020
 4934TIP3    H214809   5.001   4.615   1.579 -1.1247 -1.0999 -0.3176
 4935TIP3   OH214810   0.870   5.546   0.938 -0.4743  0.0321  0.5469
 4935TIP3    H114811   0.802   5.489   0.975 -0.6761  0.3570  0.6763
 4935TIP3    H214812   0.824   5.600   0.874 -0.1216 -0.5582 -0.2379
 4936TIP3   OH214813   2.193   2.500   3.002  0.2448 -0.4326 -0.0040
 4936TIP3    H114814   2.125   2.523   2.938 -0.4861 -0.4355  0.7533
 4936TIP3    H214815   2.170   2.412   3.030  0.0436 -0.1055  0.8957
 4937TIP3   OH214816   2.923   4.500   4.034  0.0516  0.3305 -0.2000
 4937TIP3    H114817   2.894   4.591   4.024  0.3437  0.3965 -0.4929
 4937TIP3    H214818   2.842   4.449   4.033 -0.0206  0.3680 -2.6161
 4938TIP3   OH214819   0.641   4.524   3.759  1.0144  0.3140  0.4480
 4938TIP3    H114820   0.610   4.515   3.669 -2.6618  2.2298  1.3080
 4938TIP3    H214821   0.616   4.441   3.801  2.3802 -0.4229 -0.1218
 4939TIP3   OH214822   2.687   5.746   3.280  0.4146  0.2238 -0.3722
 4939TIP3    H114823   2.648   5.820   3.327 -0.6548 -1.2678  1.1989
 4939TIP3    H214824   2.617   5.714   3.222  0.2621 -0.6134  0.2527
 4940TIP3   OH214825   3.387   4.215   0.892 -0.2377  0.3876 -0.2092
 4940TIP3    H114826   3.359   4.124   0.907 -3.2003  0.8253 -2.1774
 4940TIP3    H214827   3.397   4.251   0.980 -1.6354 -1.1554  0.6532
 4941TIP3   OH214828   3.482   4.810   0.605  0.0473 -0.1115 -0.3217
 4941TIP3    H114829   3.566   4.813   0.560 -1.4757  0.1480 -3.4175
 4941TIP3    H214830   3.458   4.717   0.603  0.0323 -0.1156  0.0809
 4942TIP3   OH214831   6.103   4.792   2.315  0.1830  0.8238 -0.1112
 4942TIP3    H114832   6.060   4.830   2.238 -1.3467  0.4068  0.4989
 4942TIP3    H214833   6.069   4.703   2.320 -1.3233  1.4333  2.1304
 4943TIP3   OH214834   4.395   0.569   0.091 -0.1517  0.2354  0.4773
 4943TIP3    H114835   4.439   0.632   0.148 -0.3098  0.7557  0.0330
 4943TIP3    H214836   4.431   0.586   0.003  0.4544 -0.8830  0.4828
 4944TIP3   OH214837   5.605   4.847   3.114 -1.2620 -0.3376  0.3067
 4944TIP3    H114838   5.564   4.760   3.109 -0.6701 -0.5807 -0.5037
 4944TIP3    H214839   5.679   4.842   3.054 -2.6694  1.5247 -1.7869
 4945TIP3   OH214840   4.759   5.332   4.576  0.0455 -0.2113 -0.0122
 4945TIP3    H114841   4.720   5.323   4.663  0.4706  0.9892  0.3204
 4945TIP3    H214842   4.694   5.380   4.525  1.1847  2.1832  0.6674
 4946TIP3   OH214843   6.289   0.528   1.983  0.1445  0.0142 -0.2479
 4946TIP3    H114844   6.280   0.614   2.024  1.7052 -0.1156  0.4412
 4946TIP3    H214845   6.206   0.484   2.002 -0.3614  1.0807  0.0807
 4947TIP3   OH214846   5.177   1.039   4.830 -0.2048  0.0710 -0.7135
 4947TIP3    H114847   5.150   0.948   4.813  0.3872  0.1898 -2.5481
 4947TIP3    H214848   5.267   1.031   4.862 -0.7548 -0.0514  0.9213
 4948TIP3   OH214849   5.637   3.023   3.184  0.4497  0.8400  0.1372
 4948TIP3    H114850   5.664   3.102   3.230  0.3195  0.5417  0.7530
 4948TIP3    H214851   5.541   3.029   3.181  0.0050 -1.1166  3.7958
 4949TIP3   OH214852   3.990   5.749   3.326  1.2287 -0.1148 -0.1715
 4949TIP3    H114853   4.013   5.680   3.264  0.7754  0.1860 -0.6806
 4949TIP3    H214854   3.900   5.772   3.304  1.5530  1.0182 -0.3842
 4950TIP3   OH214855   0.705   3.261   3.591  0.5452  0.0050 -0.0314
 4950TIP3    H114856   0.610   3.254   3.578  0.3773  2.4916 -0.5584
 4950TIP3    H214857   0.715   3.287   3.683  0.6612  0.7174 -0.2457
 4951TIP3   OH214858   3.868   2.240   1.442 -0.1177 -0.1796  0.4786
 4951TIP3    H114859   3.844   2.330   1.419  0.1656 -0.1839  0.1568
 4951TIP3    H214860   3.791   2.188   1.418  0.6025 -0.3589 -1.6635
 4952TIP3   OH214861   2.533   2.523   4.438 -0.4984 -0.2282  0.2999
 4952TIP3    H114862   2.598   2.476   4.386  0.4496  0.1122  1.1382
 4952TIP3    H214863   2.565   2.516   4.528 -0.3884  1.8819  0.4807
 4953TIP3   OH214864   1.801   5.458   1.193  0.3528 -0.0279  0.4410
 4953TIP3    H114865   1.759   5.382   1.154  0.1247  0.2035  0.2320
 4953TIP3    H214866   1.770   5.532   1.141 -0.0521  0.2956  1.1368
 4954TIP3   OH214867   5.499   4.344   3.148  0.0331  0.4973  0.3333
 4954TIP3    H114868   5.445   4.419   3.172 -0.5995  0.0362  0.3827
 4954TIP3    H214869   5.588   4.378   3.146 -0.0305  0.8459  2.1150
 4955TIP3   OH214870   5.127   0.770   4.306 -0.1974 -0.6421 -0.0269
 4955TIP3    H114871   5.120   0.833   4.378  0.1176  0.4398 -0.9051
 4955TIP3    H214872   5.109   0.685   4.346 -0.6378  0.0042  1.1974
 4956TIP3   OH214873   4.651   2.311   0.528  0.3002 -0.0332  0.1087
 4956TIP3    H114874   4.628   2.397   0.562  0.8556  0.2678 -0.2570
 4956TIP3    H214875   4.618   2.312   0.438  1.0090  0.0928 -0.1499
 4957TIP3   OH214876   3.214   5.047   4.961  0.0262  0.0371 -0.0123
 4957TIP3    H114877   3.158   5.123   4.976 -1.3831 -0.7225 -1.2056
 4957TIP3    H214878   3.223   5.006   5.047  0.6662  1.4093  0.6180
 4958TIP3   OH214879   5.111   5.788   4.981  0.2325  0.1719 -0.1585
 4958TIP3    H114880   5.038   5.728   4.996  1.1477 -0.6220  1.3644
 4958TIP3    H214881   5.072   5.875   4.983 -0.8057 -0.2782 -0.3629
 4959TIP3   OH214882   2.012   4.291   4.486  0.2509  0.7368 -0.3432
 4959TIP3    H114883   1.944   4.355   4.508  0.1916 -0.0706  2.1094
 4959TIP3    H214884   1.965   4.208   4.478  0.6366  0.5862 -1.1922
 4960TIP3   OH214885   0.921   1.940   1.631  0.1769  0.4135  0.4277
 4960TIP3    H114886   0.861   1.865   1.629 -0.7850  1.0977  1.9395
 4960TIP3    H214887   0.986   1.916   1.697  1.0541  0.0803 -0.5304
 4961TIP3   OH214888   1.723   2.782   4.395 -0.0459 -0.0954  0.4244
 4961TIP3    H114889   1.631   2.786   4.423 -0.7206 -2.3926 -1.1454
 4961TIP3    H214890   1.772   2.777   4.477 -1.2674  1.4863  1.3069
 4962TIP3   OH214891   2.038   5.075   2.289 -0.5284 -0.0724 -0.6764
 4962TIP3    H114892   1.961   5.052   2.341  1.4552 -1.3857  1.8764
 4962TIP3    H214893   2.073   5.154   2.331 -1.1497  1.3475 -2.6673
 4963TIP3   OH214894   2.003   2.797   1.074 -0.4170 -0.1540  0.0121
 4963TIP3    H114895   2.001   2.861   1.004  0.0428 -1.2914 -1.0725
 4963TIP3    H214896   2.090   2.806   1.113 -0.6741  0.4770  0.4689
 4964TIP3   OH214897   1.346   1.098   5.118  0.4461  0.3078 -0.1914
 4964TIP3    H114898   1.267   1.098   5.171  0.1566  0.7785 -0.6154
 4964TIP3    H214899   1.316   1.122   5.030  0.7913 -1.2175 -0.7598
 4965TIP3   OH214900   0.634   5.243   1.343 -0.1805 -0.2747  0.4533
 4965TIP3    H114901   0.705   5.278   1.397 -0.3000  0.7058 -0.0077
 4965TIP3    H214902   0.675   5.173   1.291  0.6772  0.8582 -0.4454
 4966TIP3   OH214903   2.420   5.363   1.711 -0.2265  0.3014 -0.2182
 4966TIP3    H114904   2.343   5.390   1.660 -0.9274  0.8319  1.0882
 4966TIP3    H214905   2.490   5.360   1.646 -0.6578  2.8491 -0.9517
 4967TIP3   OH214906   5.812   1.665   3.340 -0.4537 -0.0351  0.4050
 4967TIP3    H114907   5.804   1.759   3.327 -0.8632  0.0820  1.4574
 4967TIP3    H214908   5.903   1.651   3.365 -0.1794 -0.0285 -0.5510
 4968TIP3   OH214909   2.713   4.105   0.103 -0.7457 -0.5255 -0.3568
 4968TIP3    H114910   2.690   4.193   0.072 -1.1724 -0.9459 -1.2790
 4968TIP3    H214911   2.726   4.054   0.022  1.3969 -0.8426  0.1115
 4969TIP3   OH214912   3.727   5.089   4.451 -0.2591 -0.5531  0.0051
 4969TIP3    H114913   3.645   5.113   4.494 -0.5703 -1.6030  0.0309
 4969TIP3    H214914   3.734   4.994   4.465  1.3171 -0.3747  0.6261
 4970TIP3   OH214915   1.910   0.997   5.160 -0.3524  0.0658  0.2379
 4970TIP3    H114916   1.911   0.981   5.066 -0.3898 -1.2797  0.4545
 4970TIP3    H214917   1.846   1.068   5.172  1.0778  1.6346 -0.9312
 4971TIP3   OH214918   5.948   3.413   0.687 -0.0988 -0.5399 -0.2679
 4971TIP3    H114919   5.998   3.419   0.605  1.0937 -1.1275  0.3783
 4971TIP3    H214920   5.985   3.483   0.742 -0.1856 -0.8035  0.1268
 4972TIP3   OH214921   3.942   4.510   4.199 -0.1485 -0.2668 -0.3290
 4972TIP3    H114922   3.997   4.478   4.128  0.7979  1.0421 -0.2192
 4972TIP3    H214923   3.853   4.487   4.173  0.2236 -0.1379 -1.7594
 4973TIP3   OH214924   4.655   2.467   4.878 -0.5476 -0.5175  0.2283
 4973TIP3    H114925   4.654   2.395   4.942  0.3978 -0.0494  0.7977
 4973TIP3    H214926   4.621   2.542   4.927  0.4355 -0.0912  0.2870
 4974TIP3   OH214927   5.276   0.352   5.116  0.2678 -0.1899 -0.2345
 4974TIP3    H114928   5.298   0.434   5.071 -3.3651 -0.0479 -2.0932
 4974TIP3    H214929   5.300   0.284   5.053 -0.9122 -0.2346 -0.6599
 4975TIP3   OH214930   0.028   1.228   3.334  0.2197  0.5445 -0.0269
 4975TIP3    H114931   0.071   1.169   3.273 -0.5966 -0.5015  0.3941
 4975TIP3    H214932   0.051   1.195   3.421 -1.2110  0.0905  0.2096
 4976TIP3   OH214933   0.591   0.630   0.345  0.3471  0.4387 -0.0231
 4976TIP3    H114934   0.660   0.563   0.350  1.7408  1.7323 -1.1616
 4976TIP3    H214935   0.610   0.690   0.416 -0.2561  0.2465  0.3125
 4977TIP3   OH214936   0.858   3.780   2.911  0.4573 -0.0995  0.4611
 4977TIP3    H114937   0.762   3.775   2.916  0.5629 -1.9550  1.4834
 4977TIP3    H214938   0.879   3.751   2.822  0.0978 -0.0585  0.3605
 4978TIP3   OH214939   3.440   1.903   2.251  0.0093  0.0188 -0.1935
 4978TIP3    H114940   3.482   1.988   2.266  0.1141  0.4811 -2.5917
 4978TIP3    H214941   3.374   1.895   2.320  0.9937  1.3467  0.9598
 4979TIP3   OH214942   0.815   4.178   3.028  0.2538  0.1938 -0.3029
 4979TIP3    H114943   0.793   4.112   2.962  0.5713 -0.1905 -0.0329
 4979TIP3    H214944   0.890   4.140   3.075 -0.1363  0.3322  0.4470
 4980TIP3   OH214945   0.240   4.682   0.112 -0.1768 -0.2635  0.0184
 4980TIP3    H114946   0.232   4.679   0.207 -0.3727 -0.8243 -0.0092
 4980TIP3    H214947   0.334   4.683   0.095 -0.0936  2.5052  0.2678
 4981TIP3   OH214948   3.409   0.979   1.966  0.6304 -0.4003  0.0141
 4981TIP3    H114949   3.485   1.009   1.915 -0.6615  1.6040 -0.8614
 4981TIP3    H214950   3.405   1.038   2.041 -1.4318  1.2382 -1.2571
 4982TIP3   OH214951   1.955   4.526   4.936 -0.0762 -0.2703 -0.0634
 4982TIP3    H114952   1.928   4.437   4.961  0.4374 -0.4392 -0.1092
 4982TIP3    H214953   2.049   4.519   4.919  0.3106  0.6140  1.4969
 4983TIP3   OH214954   6.232   5.298   3.347 -0.0292 -0.0593  0.0843
 4983TIP3    H114955   6.268   5.270   3.264 -2.4656 -1.1870 -0.6894
 4983TIP3    H214956   6.298   5.273   3.412  0.5779 -2.0053 -1.1989
 4984TIP3   OH214957   5.919   4.806  -0.010  0.3113 -0.0732 -0.4214
 4984TIP3    H114958   6.009   4.791  -0.038  0.6903 -0.5231  0.9839
 4984TIP3    H214959   5.928   4.849   0.075 -0.7739 -2.1147  0.7937
 4985TIP3   OH214960   4.373   3.507   1.429  0.7107  0.4027 -0.3036
 4985TIP3    H114961   4.312   3.505   1.503  0.7929  0.7269 -0.2272
 4985TIP3    H214962   4.317   3.524   1.353  0.4039 -1.4201 -0.5508
 4986TIP3   OH214963   5.800   2.448   4.286 -0.1599 -0.3333  0.1083
 4986TIP3    H114964   5.861   2.515   4.253  0.5215 -0.6489  0.7237
 4986TIP3    H214965   5.730   2.446   4.220  0.5492 -0.0557 -0.6703
 4987TIP3   OH214966   1.809   2.866   3.273 -0.9852 -0.1811  0.9773
 4987TIP3    H114967   1.834   2.943   3.222  0.2045 -0.6063  0.8791
 4987TIP3    H214968   1.882   2.853   3.335 -0.3770 -2.1318 -0.0596
 4988TIP3   OH214969   3.506   5.395   0.032 -0.0312 -0.3442  0.6909
 4988TIP3    H114970   3.416   5.381   0.002  0.7962  1.5998 -3.3872
 4988TIP3    H214971   3.541   5.307   0.046 -1.8688 -1.2118  0.1164
 4989TIP3   OH214972   3.696   4.863   1.526 -0.5417 -0.0154  0.3130
 4989TIP3    H114973   3.773   4.918   1.547 -0.7153  0.8168 -1.1025
 4989TIP3    H214974   3.645   4.862   1.607  0.5389  0.1243  1.0186
 4990TIP3   OH214975   5.347   1.772   0.208  0.2370  0.0111  0.0403
 4990TIP3    H114976   5.397   1.854   0.205 -0.5465  0.4729 -1.4851
 4990TIP3    H214977   5.407   1.706   0.174  0.3658  0.2392 -0.1775
 4991TIP3   OH214978   4.631   1.769   4.969 -0.5892 -0.2839 -0.1304
 4991TIP3    H114979   4.622   1.676   4.949  0.0352 -0.3530 -0.1277
 4991TIP3    H214980   4.641   1.771   5.065  2.0864 -0.4821 -0.3305
 4992TIP3   OH214981   1.406   1.812   0.531  0.0280  0.0535 -0.2314
 4992TIP3    H114982   1.321   1.785   0.498  0.1730 -1.1857  0.3202
 4992TIP3    H214983   1.468   1.790   0.461 -0.0665  0.6273 -0.4938
 4993TIP3   OH214984   5.135   2.696   0.300 -0.0223  0.2917  0.0024
 4993TIP3    H114985   5.191   2.772   0.315  1.4515 -0.6403 -0.5413
 4993TIP3    H214986   5.120   2.695   0.205 -0.3233  0.1097  0.0510
 4994TIP3   OH214987   4.451   3.570   4.529  0.6094  0.6972  0.3472
 4994TIP3    H114988   4.500   3.593   4.608  1.2604  0.3955  0.0477
 4994TIP3    H214989   4.364   3.608   4.542  0.6223  0.4229  1.3222
 4995TIP3   OH214990   1.226   0.643   0.023  0.7060 -0.3745  0.5911
 4995TIP3    H114991   1.254   0.733   0.040 -0.4655 -0.1646  1.5637
 4995TIP3    H214992   1.144   0.653  -0.027  2.1375 -0.9646 -2.0743
 4996TIP3   OH214993   6.154   0.205   1.724 -0.2965 -0.1691  0.6801
 4996TIP3    H114994   6.187   0.249   1.646 -0.9941  0.7410  0.8855
 4996TIP3    H214995   6.223   0.144   1.748  0.3540  0.2557 -0.0703
 4997TIP3   OH214996   4.625   1.538   1.178 -0.0929 -0.3292 -0.7167
 4997TIP3    H114997   4.549   1.588   1.210  0.6274  0.2448  0.1322
 4997TIP3    H214998   4.637   1.568   1.088  0.4140  1.1744 -0.1854
 4998TIP3   OH214999   5.888   2.080   0.070  0.3471 -0.5379 -0.6784
 4998TIP3    H115000   5.864   1.988   0.082  1.3155 -0.7303 -0.0846
 4998TIP3    H215001   5.979   2.076   0.040  1.3902  0.2860  2.1097
 4999TIP3   OH215002   5.307   4.151   3.088 -0.2861  0.1976 -0.0383
 4999TIP3    H115003   5.352   4.180   3.009  0.7853 -1.3587 -0.0373
 4999TIP3    H215004   5.365   4.176   3.160 -0.2426 -0.2553  0.0907
 5000TIP3   OH215005   3.517   0.237   1.338  0.4278 -0.4217  0.0531
 5000TIP3    H115006   3.447   0.296   1.365  2.0691  0.4216  2.8964
 5000TIP3    H215007   3.485   0.149   1.360 -0.3638 -0.2163 -0.2531
 5001TIP3   OH215008   1.900   5.100   1.557 -0.4064  0.9545  0.3181
 5001TIP3    H115009   1.814   5.142   1.561 -0.1643  1.4521  0.3513
 5001TIP3    H215010   1.921   5.081   1.648 -0.7476  0.2806  0.2601
 5002TIP3   OH215011   6.241   3.670   2.257  0.0437  0.0688  0.6020
 5002TIP3    H115012   6.168   3.679   2.319 -0.7795  0.5935 -0.4154
 5002TIP3    H215013   6.311   3.722   2.295 -0.2351 -0.1176  1.3972
 5003TIP3   OH215014   3.768   1.995   4.411 -0.1815  0.1468  0.3399
 5003TIP3    H115015   3.685   2.041   4.416 -0.3923 -0.3241  1.9434
 5003TIP3    H215016   3.761   1.925   4.477  1.2174 -0.3233  0.0377
 5004TIP3   OH215017   1.785   0.777   3.838 -0.5015 -0.2342  0.4354
 5004TIP3    H115018   1.698   0.737   3.837 -0.6012 -0.0381 -0.6294
 5004TIP3    H215019   1.844   0.706   3.814 -0.1972 -0.6797  2.4051
 5005TIP3   OH215020   4.199   0.652   2.527  0.1736 -0.4491 -0.7069
 5005TIP3    H115021   4.125   0.708   2.550  0.4299 -1.0027  1.7283
 5005TIP3    H215022   4.277   0.702   2.552  0.4182 -1.6199  1.1218
 5006TIP3   OH215023   1.332   5.343   1.056 -0.4276  0.6106 -0.3063
 5006TIP3    H115024   1.245   5.383   1.045 -0.7978 -0.3755 -1.2265
 5006TIP3    H215025   1.322   5.255   1.018  0.8156  0.2704  0.1216
 5007TIP3   OH215026   0.572   1.040   0.945 -0.0292 -0.0889 -0.6848
 5007TIP3    H115027   0.621   1.087   1.012  2.4522 -0.4733 -2.1214
 5007TIP3    H215028   0.480   1.062   0.963  0.4112 -0.7008  3.1739
 5008TIP3   OH215029   0.673   5.230   4.247  0.4631 -0.3171  0.1712
 5008TIP3    H115030   0.686   5.196   4.335 -2.2391 -1.9396  0.0643
 5008TIP3    H215031   0.625   5.311   4.259  0.6767 -0.1918  0.1922
 5009TIP3   OH215032   5.117   0.977   3.494  0.0211  0.3457 -0.1723
 5009TIP3    H115033   5.065   0.956   3.416  0.8858  1.2704 -1.0182
 5009TIP3    H215034   5.073   1.053   3.531 -1.1747 -0.8657  1.0431
 5010TIP3   OH215035   3.098   2.674   2.289  0.5838 -0.6228  0.4832
 5010TIP3    H115036   3.090   2.703   2.198  0.9315 -0.9241  0.3509
 5010TIP3    H215037   3.189   2.693   2.312  0.4225 -0.3048  0.8545
 5011TIP3   OH215038   1.990   5.717   2.693 -0.1480 -0.0829  0.2589
 5011TIP3    H115039   2.053   5.683   2.757  0.5847  1.3917  0.3519
 5011TIP3    H215040   1.960   5.639   2.646  1.3127 -0.8831  0.5923
 5012TIP3   OH215041   5.354   4.505   3.762  0.0811  0.1251 -0.2126
 5012TIP3    H115042   5.354   4.431   3.702  2.5982 -0.5087  0.4178
 5012TIP3    H215043   5.415   4.568   3.723 -0.5890  1.0387  0.1793
 5013TIP3   OH215044   1.911   4.590   1.869 -0.1707  0.0915  0.2580
 5013TIP3    H115045   1.863   4.511   1.893 -1.1298  0.5596 -0.0653
 5013TIP3    H215046   2.002   4.569   1.888 -0.3661 -1.2048 -0.1012
 5014TIP3   OH215047   5.264   3.744   2.546 -0.1846 -0.2760  0.3572
 5014TIP3    H115048   5.174   3.737   2.578 -0.7098  1.1665 -0.6510
 5014TIP3    H215049   5.304   3.809   2.604 -0.5171  0.7935 -0.5705
 5015TIP3   OH215050   5.223   0.044   4.448  0.0481  0.6404 -0.3978
 5015TIP3    H115051   5.266   0.119   4.490  1.6563 -0.0751 -0.6654
 5015TIP3    H215052   5.296  -0.008   4.413 -1.0686 -0.6522 -0.8798
 5016TIP3   OH215053   1.819   4.475   3.978 -0.3016  0.7952  0.1315
 5016TIP3    H115054   1.909   4.496   4.002  0.6426 -0.7011 -1.8013
 5016TIP3    H215055   1.796   4.400   4.033  0.1714  0.2769 -0.3676
 5017TIP3   OH215056   5.909   5.269   4.980  0.0568 -0.2042  0.4314
 5017TIP3    H115057   5.903   5.191   4.925  1.1506  0.7446 -1.1135
 5017TIP3    H215058   5.898   5.237   5.069 -0.8826 -1.9194 -0.2744
 5018TIP3   OH215059   1.036   5.628   2.688  0.2806  0.5795 -0.3722
 5018TIP3    H115060   1.017   5.647   2.780 -0.0531 -0.5741 -0.1906
 5018TIP3    H215061   1.062   5.712   2.651  2.0759  0.7637  1.1764
 5019TIP3   OH215062   3.732   4.538   0.251  0.2057 -0.0944  0.4516
 5019TIP3    H115063   3.724   4.546   0.156  0.3419  1.2492  0.5298
 5019TIP3    H215064   3.697   4.451   0.271 -3.4886  1.0215 -0.4188
 5020TIP3   OH215065   0.261   1.818   0.915 -0.4803  0.0484  0.3857
 5020TIP3    H115066   0.354   1.822   0.893 -0.8557 -0.3843 -1.5335
 5020TIP3    H215067   0.249   1.730   0.952 -0.2003 -0.0529  0.2392
 5021TIP3   OH215068   1.707   0.839   2.982  0.1430 -0.1343  0.1478
 5021TIP3    H115069   1.644   0.907   3.006 -2.0371 -1.8180 -0.5058
 5021TIP3    H215070   1.792   0.876   3.005 -0.9432  2.7486 -0.0438
 5022TIP3   OH215071   6.319   0.704   3.418 -0.5848  0.2985 -0.0904
 5022TIP3    H115072   6.401   0.746   3.444 -0.4304  0.2018 -0.4201
 5022TIP3    H215073   6.263   0.709   3.496 -0.0116 -0.2795  0.3690
 5023TIP3   OH215074   3.902   3.001   4.340  0.5353  0.0479  0.6242
 5023TIP3    H115075   3.938   3.072   4.394 -0.6368  0.5076  0.8242
 5023TIP3    H215076   3.884   3.042   4.255 -0.3718  0.0733  0.8162
 5024TIP3   OH215077   0.828   5.306   4.047 -0.6648  0.6381  0.1605
 5024TIP3    H115078   0.762   5.303   3.977 -0.3641 -2.3900 -0.1305
 5024TIP3    H215079   0.783   5.268   4.123  0.5320 -0.9750  0.1019
 5025TIP3   OH215080   5.860   1.278   1.528  0.4723 -0.1167 -0.1979
 5025TIP3    H115081   5.810   1.272   1.446 -1.1002 -0.5875  0.7500
 5025TIP3    H215082   5.823   1.209   1.583  1.3229  0.3645  0.9996
 5026TIP3   OH215083   3.691   1.757   3.664  0.3479  0.0337  0.1771
 5026TIP3    H115084   3.618   1.694   3.667  0.2523  0.1462  0.2183
 5026TIP3    H215085   3.659   1.827   3.607  0.5493 -0.0743 -0.0710
 5027TIP3   OH215086   5.807   3.276   4.216  0.0584 -0.3409  0.1365
 5027TIP3    H115087   5.819   3.289   4.122  0.1337 -0.2607  0.1569
 5027TIP3    H215088   5.787   3.183   4.225 -0.6356 -0.2105 -0.0259
 5028TIP3   OH215089   1.543   0.945   3.930  0.9455  0.2215  0.6136
 5028TIP3    H115090   1.530   1.012   3.863  0.3920  0.2272  0.7192
 5028TIP3    H215091   1.524   0.862   3.885 -2.5959  0.3908  1.4663
 5029TIP3   OH215092   4.680   0.380   1.662 -0.3232 -0.0528  0.3109
 5029TIP3    H115093   4.687   0.285   1.670 -0.5789 -0.1803 -0.8236
 5029TIP3    H215094   4.587   0.397   1.651 -0.4017  0.4376  1.4945
 5030TIP3   OH215095   0.256   5.333   1.637  0.3412  0.1841 -0.4158
 5030TIP3    H115096   0.165   5.352   1.614 -0.2825 -1.4293  0.5237
 5030TIP3    H215097   0.289   5.414   1.674 -1.2942  0.3019  0.8871
 5031TIP3   OH215098   1.118   2.600   3.537  0.3273 -0.0607  0.2646
 5031TIP3    H115099   1.155   2.533   3.480 -1.3751 -1.1499  0.3676
 5031TIP3    H215100   1.075   2.551   3.607  1.1543  1.2118  1.7430
 5032TIP3   OH215101   3.522   4.743   1.154 -0.1576 -0.0677  0.1243
 5032TIP3    H115102   3.503   4.697   1.072 -0.5805  0.1971  0.0668
 5032TIP3    H215103   3.472   4.825   1.148  3.2172  2.1203 -1.3151
 5033TIP3   OH215104   0.753   4.391   2.304  0.1013 -0.1118 -0.3819
 5033TIP3    H115105   0.733   4.459   2.367 -1.1772 -2.0438  1.4392
 5033TIP3    H215106   0.848   4.396   2.291  0.5565 -0.1378  2.3661
 5034TIP3   OH215107   2.645   5.296   1.561  0.2115 -0.7331 -0.9418
 5034TIP3    H115108   2.679   5.235   1.497  0.5398 -1.4737 -0.0813
 5034TIP3    H215109   2.723   5.331   1.605 -0.0610 -1.8659  0.5160
 5035TIP3   OH215110   3.141   3.782   3.155  0.2611  0.6068  0.0138
 5035TIP3    H115111   3.231   3.752   3.169 -0.5879 -1.5616  1.5112
 5035TIP3    H215112   3.107   3.796   3.243 -1.6381 -1.3022 -0.3382
 5036TIP3   OH215113   6.082   1.703   4.034  0.5190  0.1314 -0.4379
 5036TIP3    H115114   6.002   1.679   3.987  1.3534 -0.1924 -1.7502
 5036TIP3    H215115   6.142   1.630   4.020  1.2731  0.6497 -0.0178
 5037TIP3   OH215116   4.511   4.871   4.130  0.0378 -0.1630 -0.2150
 5037TIP3    H115117   4.472   4.792   4.168 -0.6984  0.1197 -0.3740
 5037TIP3    H215118   4.472   4.943   4.179 -0.7033  0.1936 -1.2948
 5038TIP3   OH215119   4.751   4.106   1.115 -0.5396 -0.1558  0.5492
 5038TIP3    H115120   4.801   4.035   1.157 -0.3609 -1.1311 -1.2277
 5038TIP3    H215121   4.805   4.131   1.040 -1.8615  0.0699 -0.3369
 5039TIP3   OH215122   4.889   2.439   4.743 -0.0274  0.5069 -0.1905
 5039TIP3    H115123   4.854   2.381   4.675 -1.0086  2.8308 -1.8176
 5039TIP3    H215124   4.815   2.457   4.800 -0.3845  1.8823 -1.0303
 5040TIP3   OH215125   1.102   2.252   4.421 -0.1242 -0.0701  0.2918
 5040TIP3    H115126   1.120   2.311   4.494 -0.3862  0.2998  0.0618
 5040TIP3    H215127   1.188   2.220   4.394  0.0746  0.6584  0.0443
 5041TIP3   OH215128   1.410   4.380   2.886 -0.1757  0.6822  0.0743
 5041TIP3    H115129   1.409   4.443   2.958 -1.4591  3.4145 -2.0890
 5041TIP3    H215130   1.324   4.391   2.844 -0.8913 -3.3781  0.1311
 5042TIP3   OH215131   4.623   2.365   2.438  0.0670 -0.0425 -0.2611
 5042TIP3    H115132   4.600   2.458   2.444 -1.5410 -0.3521 -1.0208
 5042TIP3    H215133   4.558   2.320   2.492 -0.1865 -0.8446 -1.1925
 5043TIP3   OH215134   4.985   5.290   2.463  0.5599 -0.6574 -0.0645
 5043TIP3    H115135   4.942   5.247   2.389  1.3753 -0.6337 -0.5736
 5043TIP3    H215136   4.927   5.275   2.537 -0.7997  0.2204 -0.9190
 5044TIP3   OH215137   3.493   2.293   2.325  0.1824 -0.0494 -0.0827
 5044TIP3    H115138   3.545   2.214   2.338 -0.9565 -0.7645  0.2951
 5044TIP3    H215139   3.427   2.290   2.395  0.5307  1.5903  0.3606
 5045TIP3   OH215140   4.426   1.906   0.865 -0.1653 -0.0988 -0.4950
 5045TIP3    H115141   4.381   1.909   0.781 -2.4176  1.0475  0.6562
 5045TIP3    H215142   4.437   1.998   0.890  0.6341 -0.4120  0.3841
 5046TIP3   OH215143   3.589   3.590   0.106  0.1944  0.1595  0.3622
 5046TIP3    H115144   3.618   3.680   0.119 -0.5897  0.5791 -0.6196
 5046TIP3    H215145   3.495   3.592   0.125  0.1871 -0.4778  0.4189
 5047TIP3   OH215146   2.207   1.022   2.997  0.1429  0.3158 -0.1323
 5047TIP3    H115147   2.248   0.990   2.916  1.6015  0.4188  0.5300
 5047TIP3    H215148   2.119   0.985   2.995  1.1061 -2.2053 -0.3540
 5048TIP3   OH215149   1.575   1.386   0.496  0.5118 -0.5679  0.3233
 5048TIP3    H115150   1.589   1.299   0.535 -0.0246 -1.0083 -0.4470
 5048TIP3    H215151   1.482   1.388   0.474  0.3251  0.5417  1.1170
 5049TIP3   OH215152   5.456   1.241   2.078 -0.0437  0.4740 -0.4003
 5049TIP3    H115153   5.422   1.160   2.115  1.0692  0.4915  0.7401
 5049TIP3    H215154   5.531   1.215   2.026  0.8421  0.8236  0.6637
 5050TIP3   OH215155   3.041   4.035   2.007  0.0674 -0.1164  0.0143
 5050TIP3    H115156   3.055   4.127   1.985  0.9224 -0.4303 -0.8196
 5050TIP3    H215157   3.091   4.023   2.087 -1.3584  0.5209  1.0417
 5051TIP3   OH215158   4.136   3.209   2.986 -0.1815  0.9085  0.0293
 5051TIP3    H115159   4.162   3.283   3.041  0.7227  0.0897  0.7533
 5051TIP3    H215160   4.181   3.223   2.903  0.6112  0.7848  0.4299
 5052TIP3   OH215161   4.596   2.782   1.072  0.0910 -0.0143  0.2057
 5052TIP3    H115162   4.603   2.852   1.137  0.7749  0.4498 -0.3408
 5052TIP3    H215163   4.548   2.821   1.000 -2.6547 -1.1994  1.2637
 5053TIP3   OH215164   0.914   3.578   0.703  0.1710 -0.7039  0.0215
 5053TIP3    H115165   0.890   3.486   0.710  0.4542 -0.7806 -0.0119
 5053TIP3    H215166   0.848   3.624   0.754 -1.2165 -0.7168 -1.6932
 5054TIP3   OH215167   3.854   1.202   2.937  0.1400 -0.5864  0.0516
 5054TIP3    H115168   3.890   1.121   2.901 -1.1130 -0.5946 -1.2910
 5054TIP3    H215169   3.788   1.229   2.873 -2.2256 -0.5525  2.3396
 5055TIP3   OH215170   5.246   0.550   3.376 -0.6076  0.8812 -0.5467
 5055TIP3    H115171   5.190   0.498   3.434  0.6224  0.1886  0.0567
 5055TIP3    H215172   5.264   0.493   3.302  0.9282  0.2986  0.2214
 5056TIP3   OH215173   4.814   5.526   2.693  0.3079 -0.4188  0.1129
 5056TIP3    H115174   4.754   5.571   2.752  1.1280  0.2986  0.4274
 5056TIP3    H215175   4.850   5.595   2.638 -0.3267 -1.0566 -1.1562
 5057TIP3   OH215176   0.165   4.495   2.956  0.8692 -0.5996 -0.2416
 5057TIP3    H115177   0.117   4.578   2.959  1.2973 -0.2646 -1.9525
 5057TIP3    H215178   0.206   4.489   3.042 -2.3078 -0.9872  1.4117
 5058TIP3   OH215179   2.701   5.880   1.008  0.2275 -0.1291 -0.0095
 5058TIP3    H115180   2.607   5.861   1.006 -0.0139  0.8183  1.3030
 5058TIP3    H215181   2.743   5.796   1.023 -0.3645 -0.6390 -1.0968
 5059TIP3   OH215182   3.079   2.659   0.940  0.2390 -0.3620  0.4267
 5059TIP3    H115183   3.148   2.646   0.875  0.0972 -0.0723  0.2187
 5059TIP3    H215184   3.001   2.682   0.889 -0.0492 -0.8195  0.6491
 5060TIP3   OH215185   1.552   1.490   1.270 -0.6095  0.1143 -0.1158
 5060TIP3    H115186   1.613   1.563   1.262 -0.6132  0.0007 -1.5366
 5060TIP3    H215187   1.495   1.498   1.193 -0.5733 -1.3937 -0.3443
 5061TIP3   OH215188   0.445   2.597   4.288 -0.2547 -0.2832  0.7164
 5061TIP3    H115189   0.361   2.639   4.266  1.0411  2.3121  0.2670
 5061TIP3    H215190   0.451   2.523   4.228 -1.7372  0.1273 -0.0038
 5062TIP3   OH215191   5.566   1.911   3.547 -0.5848 -0.2091  0.6155
 5062TIP3    H115192   5.608   1.945   3.625 -1.1471 -1.8521  1.6878
 5062TIP3    H215193   5.618   1.945   3.474  0.5170  0.5741  1.7451
 5063TIP3   OH215194   3.963   0.404   2.993  0.5125  0.2082 -0.0807
 5063TIP3    H115195   3.920   0.489   3.002 -0.0918 -0.1968  1.1209
 5063TIP3    H215196   3.930   0.368   2.911  0.8620  1.1737 -0.6551
 5064TIP3   OH215197   0.248   4.077   4.583 -0.1557 -0.5712 -0.2985
 5064TIP3    H115198   0.270   4.165   4.613 -1.9346 -0.0574 -0.4227
 5064TIP3    H215199   0.269   4.020   4.657  0.5041  0.0046 -0.0269
 5065TIP3   OH215200   4.164   3.484   1.678 -0.2195 -0.1109 -0.1748
 5065TIP3    H115201   4.146   3.511   1.768  1.4782  3.5010 -0.7352
 5065TIP3    H215202   4.230   3.416   1.687  0.5948  0.8060  1.3419
 5066TIP3   OH215203   2.909   5.545   2.040  0.0189 -0.5247  0.1854
 5066TIP3    H115204   2.816   5.534   2.021  0.3388 -1.9199 -0.7517
 5066TIP3    H215205   2.940   5.456   2.056  1.0667 -0.0074  1.1405
 5067TIP3   OH215206   5.679   2.401   2.611  0.0964  0.0496 -0.5730
 5067TIP3    H115207   5.755   2.457   2.627  0.0683 -0.0344 -0.1374
 5067TIP3    H215208   5.679   2.387   2.516  0.7005 -0.0580 -0.5579
 5068TIP3   OH215209   0.381   0.164   4.303 -0.3422 -0.6080  0.6201
 5068TIP3    H115210   0.291   0.132   4.296 -0.6527  0.6428 -1.7177
 5068TIP3    H215211   0.373   0.250   4.344 -0.4152  0.2292 -1.0980
 5069TIP3   OH215212   2.201   5.375   0.146 -0.4621  0.2782  0.1999
 5069TIP3    H115213   2.293   5.389   0.125 -0.2974  1.0763  1.3506
 5069TIP3    H215214   2.170   5.313   0.080  0.8959 -0.0130 -0.1914
 5070TIP3   OH215215   4.356   1.026   0.613 -0.0717  0.0817 -0.3726
 5070TIP3    H115216   4.366   1.120   0.600 -0.5626  0.2020  0.0650
 5070TIP3    H215217   4.269   1.006   0.579  0.4785 -0.4248 -1.5164
 5071TIP3   OH215218   4.024   5.422   3.837 -0.0173  0.6549  0.1181
 5071TIP3    H115219   3.987   5.435   3.749  1.0536  1.0982 -0.2929
 5071TIP3    H215220   4.047   5.510   3.866 -2.6581  0.8542  1.9565
 5072TIP3   OH215221   0.816   4.173   4.267 -0.5539  0.0139 -0.1185
 5072TIP3    H115222   0.792   4.175   4.359  1.5610 -0.5546  0.4845
 5072TIP3    H215223   0.795   4.261   4.235  1.4134  1.2082  1.6721
 5073TIP3   OH215224   5.546   1.394   4.371  0.0829  0.4564  0.6845
 5073TIP3    H115225   5.539   1.405   4.466  0.0673 -1.7338  0.9831
 5073TIP3    H215226   5.626   1.441   4.348  1.1865 -0.6046  2.1225
 5074TIP3   OH215227   3.303   4.332   1.438 -0.2617 -0.3614  0.2358
 5074TIP3    H115228   3.383   4.340   1.386 -0.6419 -3.1499 -0.9646
 5074TIP3    H215229   3.234   4.367   1.383 -0.0752  1.0999  0.8693
 5075TIP3   OH215230   5.868   4.456   2.154 -0.0481  0.2306  0.2595
 5075TIP3    H115231   5.841   4.370   2.120  1.8464  0.2628 -1.5388
 5075TIP3    H215232   5.853   4.516   2.081  2.1929  0.6818  0.0990
 5076TIP3   OH215233   0.350   2.598   1.250 -0.0207 -0.3428  0.6800
 5076TIP3    H115234   0.313   2.612   1.337 -1.2998  1.2432 -0.0695
 5076TIP3    H215235   0.385   2.683   1.224  2.1215 -1.2411  0.3916
 5077TIP3   OH215236   5.203   1.047   4.494  0.0392  0.4714  0.6676
 5077TIP3    H115237   5.294   1.036   4.465  0.3325  0.2323  1.6384
 5077TIP3    H215238   5.195   1.140   4.512 -0.4124  0.7855 -0.9831
 5078TIP3   OH215239   5.599   0.827   2.367 -0.6014  0.4626  0.8722
 5078TIP3    H115240   5.638   0.913   2.353 -0.6619  0.0860 -2.3162
 5078TIP3    H215241   5.670   0.765   2.353 -0.7149 -0.0923  2.4950
 5079TIP3   OH215242   0.297   5.082   1.490  0.7229  0.0745 -0.3543
 5079TIP3    H115243   0.212   5.091   1.447 -0.6982 -1.6433  1.8246
 5079TIP3    H215244   0.303   5.158   1.548  0.5173  0.0330 -0.2774
 5080TIP3   OH215245   3.142   3.763   4.752  0.0200 -0.0874  0.7725
 5080TIP3    H115246   3.175   3.675   4.733  0.0536  0.2737 -0.9607
 5080TIP3    H215247   3.052   3.762   4.721  0.1709  0.6345  0.2988
 5081TIP3   OH215248   6.273   5.374   1.762 -0.4338 -0.8365 -0.1025
 5081TIP3    H115249   6.211   5.312   1.723 -0.9726 -0.0018 -0.5888
 5081TIP3    H215250   6.281   5.345   1.853 -2.0326 -0.5792  0.1354
 5082TIP3   OH215251   1.218   4.429   4.920 -0.4674  0.1336 -0.3453
 5082TIP3    H115252   1.188   4.509   4.877 -0.1777  0.7846  0.6323
 5082TIP3    H215253   1.146   4.367   4.909 -2.1510  1.5620  1.7058
 5083TIP3   OH215254   5.842   3.093   2.543 -0.3312 -0.4389 -0.0869
 5083TIP3    H115255   5.825   3.087   2.637 -0.6598  0.2744 -0.0994
 5083TIP3    H215256   5.917   3.151   2.535 -2.1194  1.9685 -0.4085
 5084TIP3   OH215257   5.999   4.100   1.998 -0.3535 -0.3419  0.2926
 5084TIP3    H115258   5.964   4.114   2.086 -1.9905 -1.4453 -0.1382
 5084TIP3    H215259   6.002   4.004   1.990 -1.3532 -0.2589 -1.2743
 5085TIP3   OH215260   0.158   2.501   3.379  0.1735  0.2823 -0.6565
 5085TIP3    H115261   0.085   2.513   3.440 -0.2009 -0.2347 -0.9925
 5085TIP3    H215262   0.154   2.579   3.322 -0.5322 -0.0568 -1.0906
 5086TIP3   OH215263   1.570   4.277   3.293  0.0418 -0.6531  0.5222
 5086TIP3    H115264   1.608   4.252   3.209 -0.7202  0.2713 -0.1135
 5086TIP3    H215265   1.610   4.217   3.356 -0.0672 -1.9780 -0.6275
 5087TIP3   OH215266   4.702   0.938   1.739 -1.0069  0.0557  0.2572
 5087TIP3    H115267   4.715   0.875   1.667  0.4372  1.9768 -1.2540
 5087TIP3    H215268   4.623   0.986   1.714 -1.6919 -0.6107  1.0522
 5088TIP3   OH215269   0.141   4.338   1.431  0.2827 -0.4488  0.4635
 5088TIP3    H115270   0.168   4.429   1.440  1.3968 -0.7808  0.6930
 5088TIP3    H215271   0.046   4.339   1.442  0.2113  0.7569 -0.1718
 5089TIP3   OH215272   3.108   0.820   0.909  0.0425  0.6642 -0.2334
 5089TIP3    H115273   3.125   0.797   1.000 -0.7771  0.7315 -0.0594
 5089TIP3    H215274   3.144   0.909   0.900 -0.0305  0.7234  0.0653
 5090TIP3   OH215275   4.956   5.457   0.066  0.5080  0.6416  0.8578
 5090TIP3    H115276   4.871   5.429   0.032  1.3810 -1.3772  0.1640
 5090TIP3    H215277   4.990   5.518   0.001 -1.4811  3.7143  2.4413
 5091TIP3   OH215278   3.394   0.905   3.616  0.0374 -0.4302  0.1710
 5091TIP3    H115279   3.471   0.940   3.571  1.2449 -1.6408  1.2222
 5091TIP3    H215280   3.408   0.925   3.708 -0.8144 -0.8607  0.4092
 5092TIP3   OH215281   0.128   0.750   3.132 -0.0898 -0.3466  0.0808
 5092TIP3    H115282   0.212   0.793   3.119 -0.2086 -0.1934 -0.1917
 5092TIP3    H215283   0.107   0.765   3.224  0.8909 -1.6746  0.5539
 5093TIP3   OH215284   5.409   1.625   4.291 -0.4678  0.0727  0.2497
 5093TIP3    H115285   5.325   1.600   4.254  0.9892 -2.5792 -1.5513
 5093TIP3    H215286   5.447   1.544   4.324  2.2481  0.7448 -0.9208
 5094TIP3   OH215287   2.712   1.030   4.941  0.0371 -0.4749  0.0398
 5094TIP3    H115288   2.807   1.039   4.945  0.3099 -0.9266 -2.9742
 5094TIP3    H215289   2.679   1.115   4.970  1.1420 -0.9994  3.3486
 5095TIP3   OH215290   2.106   3.383   3.265  0.3981 -0.3248  0.3014
 5095TIP3    H115291   2.066   3.399   3.179  0.4927  0.7435  0.4420
 5095TIP3    H215292   2.199   3.367   3.245  0.2579 -0.9406  0.1335
 5096TIP3   OH215293   5.776   0.106   0.211  0.7526  0.2072  0.1189
 5096TIP3    H115294   5.836   0.180   0.200 -0.0154  0.7269 -0.8133
 5096TIP3    H215295   5.832   0.033   0.236  2.1816  0.0693 -3.0004
 5097TIP3   OH215296   0.205   4.603   1.392 -0.0048  0.1248 -0.7217
 5097TIP3    H115297   0.283   4.651   1.365 -0.7062  1.7933  0.0580
 5097TIP3    H215298   0.134   4.642   1.340 -0.4884 -0.5998 -0.6211
 5098TIP3   OH215299   1.339   0.641   3.324 -0.5598  0.0545 -0.3549
 5098TIP3    H115300   1.430   0.642   3.353 -0.8588 -0.3552  0.6247
 5098TIP3    H215301   1.344   0.634   3.229  0.4680  2.7665 -0.5907
 5099TIP3   OH215302   4.060   4.308   3.243  0.1741 -0.1030 -0.1519
 5099TIP3    H115303   4.095   4.227   3.279  1.0467  0.9736  1.5181
 5099TIP3    H215304   3.976   4.321   3.287  0.0037 -0.1195 -0.4637
 5100TIP3   OH215305   2.019   1.159   2.286 -0.0441 -0.2975 -0.8851
 5100TIP3    H115306   2.090   1.138   2.226  1.2337  0.2786  0.3603
 5100TIP3    H215307   1.957   1.087   2.277 -0.1656  0.0351 -3.2430
 5101TIP3   OH215308   0.107   2.819   0.725 -0.1859 -0.7807 -0.7044
 5101TIP3    H115309   0.186   2.856   0.763 -0.2682  0.9370 -2.0968
 5101TIP3    H215310   0.037   2.848   0.783  0.1604 -2.2779  0.5116
 5102TIP3   OH215311   1.500   2.098   3.109  0.4609 -0.0252  0.2075
 5102TIP3    H115312   1.517   2.117   3.017  0.1198 -0.8725 -0.0470
 5102TIP3    H215313   1.424   2.152   3.131  0.4004  0.0083 -0.0779
 5103TIP3   OH215314   6.121   2.209   4.194  0.1794 -0.2969 -0.4853
 5103TIP3    H115315   6.198   2.220   4.250 -0.2303 -0.8840  0.2102
 5103TIP3    H215316   6.154   2.223   4.105  0.9575  0.0809 -0.1487
 5104TIP3   OH215317   3.784   0.635   0.038  0.2146 -0.0242  0.0458
 5104TIP3    H115318   3.722   0.632   0.110  1.2893  0.8353  1.0527
 5104TIP3    H215319   3.784   0.727   0.010  1.2862  0.0596  0.2978
 5105TIP3   OH215320   1.177   0.174   2.399  0.2137 -0.9028  0.5663
 5105TIP3    H115321   1.244   0.174   2.467 -1.0342 -0.8193  1.8548
 5105TIP3    H215322   1.159   0.082   2.383  0.7567 -0.9273  0.0902
 5106TIP3   OH215323   0.921   1.793   4.310 -0.3054 -0.5322  0.2432
 5106TIP3    H115324   0.989   1.803   4.377 -0.7421 -1.0396  0.7728
 5106TIP3    H215325   0.897   1.700   4.313 -0.2798 -0.5735 -0.6721
 5107TIP3   OH215326   3.803   2.630   1.015 -0.0605 -0.5540 -0.2044
 5107TIP3    H115327   3.746   2.556   1.037  0.4590 -0.5538  1.2013
 5107TIP3    H215328   3.760   2.706   1.054  0.4435 -0.4208  0.0986
 5108TIP3   OH215329   0.164   3.049   3.121  0.0731 -0.0331  0.2330
 5108TIP3    H115330   0.112   2.993   3.064 -2.1696  1.4966  0.6347
 5108TIP3    H215331   0.112   3.129   3.129  1.9256  1.0993  1.7209
 5109TIP3   OH215332   1.026   1.824   1.395 -0.0363 -0.1934  0.2281
 5109TIP3    H115333   0.991   1.907   1.428  0.6809 -0.0482  0.6318
 5109TIP3    H215334   1.085   1.850   1.324  1.6698 -0.2028  1.5883
 5110TIP3   OH215335   1.164   2.636   4.131 -0.4007 -0.0165 -0.2922
 5110TIP3    H115336   1.166   2.563   4.070  0.3033  1.3409 -2.0036
 5110TIP3    H215337   1.173   2.714   4.076 -0.1800  1.3248  1.5091
 5111TIP3   OH215338   1.495   3.605   0.246  0.3276  0.1085 -0.4552
 5111TIP3    H115339   1.410   3.568   0.271  0.0502 -0.2809 -1.8639
 5111TIP3    H215340   1.557   3.533   0.256  0.7162  0.6651  1.5480
 5112TIP3   OH215341   1.806   5.681   0.092  0.0055  0.4331  0.0430
 5112TIP3    H115342   1.725   5.702   0.139 -0.8515 -0.9196 -0.7428
 5112TIP3    H215343   1.868   5.655   0.160 -0.5997  0.3757  0.5759
 5113TIP3   OH215344   2.618   5.915   3.747 -0.3545 -0.6535 -0.1804
 5113TIP3    H115345   2.645   5.842   3.802 -1.8235  0.0425  1.5570
 5113TIP3    H215346   2.692   5.975   3.748  0.7354 -1.8990 -1.3498
 5114TIP3   OH215347   1.236   1.454   2.403 -0.0651  0.1502 -0.5682
 5114TIP3    H115348   1.200   1.403   2.330  0.2363 -0.8549 -0.0479
 5114TIP3    H215349   1.270   1.387   2.463  0.7187  0.9993 -0.0473
 5115TIP3   OH215350   1.602   0.167   0.330  0.2122 -0.3926  0.1539
 5115TIP3    H115351   1.681   0.219   0.342  0.4329 -0.4271 -1.0063
 5115TIP3    H215352   1.578   0.181   0.238 -0.5428 -1.1940  0.2173
 5116TIP3   OH215353   6.310   2.431   1.560  0.1244  0.2156  0.4801
 5116TIP3    H115354   6.387   2.475   1.598  0.7422 -0.7316  0.3510
 5116TIP3    H215355   6.246   2.431   1.630  0.6552 -0.0112  0.9730
 5117TIP3   OH215356   4.198   0.138   4.855 -0.3143 -0.4526 -0.1309
 5117TIP3    H115357   4.106   0.162   4.870 -0.3652 -1.4819  1.4658
 5117TIP3    H215358   4.246   0.220   4.864 -0.9130 -0.1777  0.7492
 5118TIP3   OH215359   5.979   0.574   0.424 -0.5100 -0.3848 -0.0457
 5118TIP3    H115360   5.919   0.569   0.350 -1.7178 -0.1222  0.8792
 5118TIP3    H215361   5.947   0.649   0.475 -1.3848 -2.1383  2.1351
 5119TIP3   OH215362   2.513   5.626   3.065 -0.1717  0.1567  0.4756
 5119TIP3    H115363   2.509   5.605   2.972 -0.8762 -0.5149  0.6456
 5119TIP3    H215364   2.435   5.585   3.102 -0.9783  2.0901  1.0418
 5120TIP3   OH215365   0.650   5.693   4.881  0.5895  0.7288  0.2646
 5120TIP3    H115366   0.668   5.702   4.788 -2.2019 -1.3188 -0.6366
 5120TIP3    H215367   0.641   5.598   4.895  0.5912  1.0010  2.5363
 5121TIP3   OH215368   4.404   4.485   4.722  0.1428  0.7874 -0.1168
 5121TIP3    H115369   4.451   4.412   4.683  0.0257  0.3772  0.5037
 5121TIP3    H215370   4.419   4.476   4.816 -0.0074  1.4670 -0.0255
 5122TIP3   OH215371   1.643   2.372   0.390  0.2859 -0.3344  0.1472
 5122TIP3    H115372   1.704   2.302   0.367  1.1667  0.4678  0.0178
 5122TIP3    H215373   1.664   2.394   0.481 -0.9699 -1.2085  0.6915
 5123TIP3   OH215374   1.140   1.140   0.173 -0.5310 -0.0414 -0.2966
 5123TIP3    H115375   1.058   1.187   0.158  0.8126  2.9495  0.7562
 5123TIP3    H215376   1.123   1.085   0.250 -1.7098  0.0864 -0.4517
 5124TIP3   OH215377   2.512   2.258   3.171  0.0958  0.5006 -0.6029
 5124TIP3    H115378   2.435   2.203   3.183 -0.0721  0.7114 -0.7067
 5124TIP3    H215379   2.494   2.307   3.091  1.0816 -0.7066 -1.6193
 5125TIP3   OH215380   3.962   0.933   4.725  0.6428  0.1774  0.0871
 5125TIP3    H115381   3.993   0.858   4.776  2.6100 -1.3912 -3.0588
 5125TIP3    H215382   4.037   0.992   4.722 -0.0838  1.1420  0.5155
 5126TIP3   OH215383   4.817   3.325   1.984 -0.2638  0.4390  0.1164
 5126TIP3    H115384   4.804   3.384   1.910  1.3565 -0.1132 -0.6411
 5126TIP3    H215385   4.906   3.344   2.015 -0.2287 -0.6399  0.7327
 5127TIP3   OH215386   4.954   0.685   2.088  0.6351 -0.3220  0.0275
 5127TIP3    H115387   4.925   0.755   2.029  1.3618 -0.4044 -0.4406
 5127TIP3    H215388   5.007   0.730   2.154 -0.5590 -0.1654  0.9049
 5128TIP3   OH215389   1.675   3.678   4.108 -0.4351  0.0901  0.8062
 5128TIP3    H115390   1.630   3.606   4.152 -0.1332 -1.1809 -0.8757
 5128TIP3    H215391   1.624   3.692   4.028  0.5391  0.5227  0.2455
 5129TIP3   OH215392   0.381   5.359   2.441 -0.6421 -0.1782 -0.2227
 5129TIP3    H115393   0.337   5.444   2.440 -2.8909 -1.2645 -1.8934
 5129TIP3    H215394   0.339   5.311   2.512 -0.5752 -0.4660 -0.3765
 5130TIP3   OH215395   5.350   2.852   0.330  0.0821  0.5348 -0.1746
 5130TIP3    H115396   5.416   2.825   0.267 -0.2094 -0.1391 -0.1985
 5130TIP3    H215397   5.395   2.849   0.415 -0.6422 -2.8830  0.2414
 5131TIP3   OH215398   1.706   2.322   4.665  0.1065 -0.3820  0.4575
 5131TIP3    H115399   1.766   2.255   4.633 -0.5780 -0.2029 -1.3484
 5131TIP3    H215400   1.639   2.273   4.713 -0.5231 -1.0767 -1.0496
 5132TIP3   OH215401   0.311   5.206   0.299 -0.2134  0.2316  0.2163
 5132TIP3    H115402   0.228   5.243   0.329  0.7837  1.8404  1.1157
 5132TIP3    H215403   0.335   5.142   0.366 -1.0247 -0.7578 -0.3983
 5133TIP3   OH215404   4.661   2.798   4.777  0.6871 -0.9842 -0.4544
 5133TIP3    H115405   4.734   2.859   4.787  0.8437 -1.3105  0.4764
 5133TIP3    H215406   4.589   2.852   4.743  1.1510 -0.5231 -0.7199
 5134TIP3   OH215407   4.438   3.025   3.543  0.0403 -0.3949 -0.6363
 5134TIP3    H115408   4.454   3.078   3.622  2.1177 -0.6814 -0.7912
 5134TIP3    H215409   4.471   3.080   3.471 -2.5363  0.1969 -1.4750
 5135TIP3   OH215410   5.600   0.063   0.544  0.0705 -0.1843 -0.1264
 5135TIP3    H115411   5.693   0.041   0.540 -0.0679 -0.6447 -1.0936
 5135TIP3    H215412   5.557  -0.004   0.492 -0.7171  0.5329 -0.4273
 5136TIP3   OH215413   2.312   2.502   2.034 -0.0965 -0.1348  0.1894
 5136TIP3    H115414   2.308   2.431   1.970 -1.6887  0.8063 -0.8112
 5136TIP3    H215415   2.406   2.513   2.051  0.2512 -1.5885 -0.6271
 5137TIP3   OH215416   3.124   2.932   4.726  0.2598 -0.4638  0.3442
 5137TIP3    H115417   3.101   2.846   4.693  0.7097 -1.0976  1.6403
 5137TIP3    H215418   3.190   2.916   4.793  0.0651  0.8531  0.8882
 5138TIP3   OH215419   4.017   4.900   1.257  0.0594  0.0249  0.0582
 5138TIP3    H115420   3.970   4.972   1.215 -0.6744 -0.4504  0.0518
 5138TIP3    H215421   3.948   4.840   1.286  0.4568  0.7948  2.8718
 5139TIP3   OH215422   4.964   1.575   0.550 -0.2156  0.2543  0.0530
 5139TIP3    H115423   5.031   1.616   0.496 -0.0965 -0.0488 -0.0329
 5139TIP3    H215424   4.898   1.643   0.563  0.8065  1.0587  1.3776
 5140TIP3   OH215425   3.312   1.642   4.560 -0.2193 -0.1177 -0.7797
 5140TIP3    H115426   3.268   1.697   4.625  0.4002  0.2883 -0.6999
 5140TIP3    H215427   3.249   1.637   4.487  0.5921  2.6131 -1.7888
 5141TIP3   OH215428   3.877   0.468   3.390 -0.1092 -0.4188 -0.0991
 5141TIP3    H115429   3.844   0.379   3.404 -2.8463  0.6666  1.1400
 5141TIP3    H215430   3.800   0.517   3.361  1.2314  1.6324 -0.3465
 5142TIP3   OH215431   2.088   2.643   3.800 -0.0358  0.3370 -0.0743
 5142TIP3    H115432   2.016   2.703   3.784  0.2042  0.9159  0.9098
 5142TIP3    H215433   2.153   2.695   3.847  1.1714 -0.0862 -1.1946
 5143TIP3   OH215434   5.852   5.353   0.999 -0.5579 -0.0926 -0.9430
 5143TIP3    H115435   5.891   5.439   0.980 -0.3096 -0.3550 -1.6671
 5143TIP3    H215436   5.775   5.349   0.944 -2.1440  0.7538  1.0750
 5144TIP3   OH215437   0.388   1.316   0.904  0.2123 -0.3808  0.5607
 5144TIP3    H115438   0.356   1.227   0.921  0.4640 -0.5488  0.1454
 5144TIP3    H215439   0.374   1.330   0.811 -1.4093  0.6450  0.9096
 5145TIP3   OH215440   2.665   4.036   4.341 -0.0858 -0.4997 -0.5332
 5145TIP3    H115441   2.596   3.989   4.294  0.0174 -0.4813 -0.7040
 5145TIP3    H215442   2.631   4.125   4.351 -0.3027 -0.6214 -0.1661
 5146TIP3   OH215443   2.571   1.140   1.354  0.1091 -0.1186 -0.0762
 5146TIP3    H115444   2.510   1.121   1.425  1.7788 -0.7511  1.2588
 5146TIP3    H215445   2.615   1.220   1.381 -0.4106  0.5779 -1.2341
 5147TIP3   OH215446   2.748   5.661   4.590 -0.3461 -0.2995 -0.3849
 5147TIP3    H115447   2.711   5.681   4.676  0.7316 -0.5130  0.1369
 5147TIP3    H215448   2.771   5.747   4.554  0.3199 -0.2910  0.0539
 5148TIP3   OH215449   4.955   1.129   1.767 -0.1671 -0.8776  0.0827
 5148TIP3    H115450   5.018   1.192   1.802 -1.5569  0.3195  0.5302
 5148TIP3    H215451   4.872   1.177   1.764 -0.5643 -1.5145 -3.0317
 5149TIP3   OH215452   1.422   5.558   0.169 -0.3980 -0.5408  0.2828
 5149TIP3    H115453   1.447   5.466   0.174 -0.3246 -0.5607 -0.3539
 5149TIP3    H215454   1.399   5.571   0.077 -1.6947 -0.2647  0.6257
 5150TIP3   OH215455   1.826   4.187   1.433  0.1576  0.4303  0.5117
 5150TIP3    H115456   1.799   4.263   1.382 -1.7706 -0.9186 -0.6506
 5150TIP3    H215457   1.823   4.216   1.524 -0.9192  1.6338  0.1208
 5151TIP3   OH215458   0.392   1.364   2.845  0.2873  0.3348  0.1669
 5151TIP3    H115459   0.458   1.392   2.909  1.4924  1.8809 -1.6539
 5151TIP3    H215460   0.327   1.435   2.847 -0.6907 -0.5502  1.0058
 5152TIP3   OH215461   5.157   2.171   0.659  0.5907 -0.3521  0.2637
 5152TIP3    H115462   5.209   2.194   0.582 -1.0997  0.3314 -0.7514
 5152TIP3    H215463   5.119   2.086   0.637  0.5013 -0.3828  0.5388
 5153TIP3   OH215464   1.578   5.865   2.651 -0.1256 -0.2888  0.0835
 5153TIP3    H115465   1.523   5.887   2.576  1.0793 -0.0581 -0.7644
 5153TIP3    H215466   1.587   5.770   2.648  0.7449 -0.1966 -0.6903
 5154TIP3   OH215467   5.352   0.842   1.760 -0.0209 -0.1465  0.6367
 5154TIP3    H115468   5.259   0.861   1.742  0.2659 -0.2144 -1.1373
 5154TIP3    H215469   5.352   0.753   1.794 -0.4957 -0.8543 -1.0913
 5155TIP3   OH215470   3.375   1.782   5.171 -0.6084 -0.1801  0.6231
 5155TIP3    H115471   3.406   1.776   5.080 -3.0832  0.1239 -0.3082
 5155TIP3    H215472   3.425   1.715   5.217  1.5007  0.3810 -0.6829
 5156TIP3   OH215473   2.573   0.050   3.474  0.1189 -0.3744 -0.4462
 5156TIP3    H115474   2.661   0.074   3.503  0.2562 -1.9549  0.5554
 5156TIP3    H215475   2.580  -0.042   3.447 -0.9889 -0.2049 -1.4025
 5157TIP3   OH215476   0.568   1.784   1.312  0.4967 -0.0021 -0.0105
 5157TIP3    H115477   0.533   1.835   1.385  0.4893 -0.2450  0.1558
 5157TIP3    H215478   0.645   1.833   1.284  0.7358 -0.1256  0.4270
 5158TIP3   OH215479   0.970   4.464   1.891 -0.3270 -0.1297  0.0302
 5158TIP3    H115480   1.008   4.386   1.852  1.4067  1.4864 -1.6994
 5158TIP3    H215481   1.030   4.486   1.963  0.6865  1.0161 -1.1245
 5159TIP3   OH215482   5.769   2.053   1.962 -0.2546 -0.0842  0.0319
 5159TIP3    H115483   5.827   1.977   1.951  0.8395  0.7784 -0.3521
 5159TIP3    H215484   5.800   2.116   1.897 -1.8029  0.3227 -0.3550
 5160TIP3   OH215485   6.128   0.069   3.613  0.4680 -0.4289  0.2144
 5160TIP3    H115486   6.167   0.154   3.632  1.0123 -0.6476  0.0772
 5160TIP3    H215487   6.199   0.017   3.577  0.2507 -1.1029  0.7527
 5161TIP3   OH215488   0.968   4.838   1.300 -0.4008  0.0577 -0.0641
 5161TIP3    H115489   0.887   4.842   1.350  0.0410 -1.9703  0.9120
 5161TIP3    H215490   0.939   4.818   1.211 -1.0198 -0.1714  0.1760
 5162TIP3   OH215491   2.341   1.642   0.925 -0.5579 -0.6214  0.0567
 5162TIP3    H115492   2.262   1.589   0.915 -1.7156  1.0959 -0.4206
 5162TIP3    H215493   2.401   1.609   0.858 -0.8887 -1.8799  0.3512
 5163TIP3   OH215494   5.543   2.265   3.785  0.1065  0.2307 -0.1342
 5163TIP3    H115495   5.608   2.332   3.762 -0.5977  0.0760 -2.9636
 5163TIP3    H215496   5.588   2.182   3.768 -0.1325  0.0818 -0.0429
 5164TIP3   OH215497   3.987   5.024   3.017  0.3840  0.1781  0.1573
 5164TIP3    H115498   3.957   5.096   3.072 -0.9691 -0.3005  0.0953
 5164TIP3    H215499   4.038   4.969   3.076  0.5692  0.6650  0.4555
 5165TIP3   OH215500   3.162   4.597   1.925 -0.6333 -0.0362  0.2578
 5165TIP3    H115501   3.233   4.555   1.973 -0.1026  1.0292  0.4431
 5165TIP3    H215502   3.203   4.632   1.846 -1.2365 -0.6152 -0.3239
 5166TIP3   OH215503   2.274   3.740   1.093 -0.3586  0.0490 -0.1083
 5166TIP3    H115504   2.270   3.646   1.108 -2.7785 -0.6596 -3.7761
 5166TIP3    H215505   2.343   3.752   1.029 -0.6958  0.6303 -0.3745
 5167TIP3   OH215506   0.306   3.734   2.825  0.3103  0.2389 -0.2680
 5167TIP3    H115507   0.287   3.828   2.819 -1.3584 -0.1282 -1.3371
 5167TIP3    H215508   0.348   3.724   2.910  0.8264  2.0025 -0.2816
 5168TIP3   OH215509   0.590   1.334   4.625  0.5071  0.6506 -0.0462
 5168TIP3    H115510   0.580   1.248   4.665 -0.4821  1.2347  1.0342
 5168TIP3    H215511   0.672   1.369   4.661 -0.1159  0.9606  1.0949
 5169TIP3   OH215512   3.053   4.525   4.678 -0.1832 -0.1250 -0.0580
 5169TIP3    H115513   2.972   4.479   4.702 -1.3766  1.7685 -0.2614
 5169TIP3    H215514   3.093   4.549   4.762 -0.5024  0.0481  0.0457
 5170TIP3   OH215515   0.772   1.357   3.968 -0.6001  0.3394  0.1279
 5170TIP3    H115516   0.718   1.430   4.001  0.2658  0.2320  1.9106
 5170TIP3    H215517   0.834   1.399   3.908  0.1004  1.1677  1.3789
 5171TIP3   OH215518   6.040   0.435   2.359  0.0829  0.7782 -0.1963
 5171TIP3    H115519   5.983   0.433   2.282 -0.7314  0.6166  0.3987
 5171TIP3    H215520   6.114   0.489   2.333 -0.4545  1.1808 -0.9118
 5172TIP3   OH215521   1.007   1.573   2.570  0.0034 -0.2764  0.0371
 5172TIP3    H115522   1.047   1.523   2.499  0.1950 -0.7474  0.4684
 5172TIP3    H215523   1.070   1.566   2.642 -0.2069  0.1603  0.2658
 5173TIP3   OH215524   1.750   3.836   1.590 -0.4276 -0.4830 -0.3602
 5173TIP3    H115525   1.673   3.893   1.595  1.6922  3.0150 -3.0126
 5173TIP3    H215526   1.749   3.803   1.500  0.6136 -1.2499 -0.0992
 5174TIP3   OH215527   1.648   3.099   4.829 -0.1503 -0.3401 -0.4266
 5174TIP3    H115528   1.667   3.055   4.912 -1.5416 -1.3687 -0.6226
 5174TIP3    H215529   1.660   3.192   4.848  0.9649 -0.6478  0.5169
 5175TIP3   OH215530   2.918   1.553   1.538 -0.2854  0.1345 -0.4332
 5175TIP3    H115531   2.887   1.493   1.606 -1.4892 -0.7589 -1.6972
 5175TIP3    H215532   2.934   1.635   1.584  0.8412 -0.9677  1.2556
 5176TIP3   OH215533   5.441   4.674   2.929  0.3094  0.4541 -0.3142
 5176TIP3    H115534   5.375   4.628   2.980  0.6254 -1.2502 -1.3562
 5176TIP3    H215535   5.476   4.608   2.869  0.6295  2.1083 -2.0647
 5177TIP3   OH215536   4.126   0.355   2.335 -0.0795  0.4106 -0.1292
 5177TIP3    H115537   4.084   0.440   2.329 -1.0728 -0.0942 -0.5685
 5177TIP3    H215538   4.219   0.375   2.348 -0.4672  1.5433  1.0458
 5178TIP3   OH215539   5.989   4.200   1.561 -0.1690  0.1443  0.5540
 5178TIP3    H115540   5.944   4.272   1.518  0.1993  0.8371  1.2991
 5178TIP3    H215541   5.985   4.221   1.654  0.2287 -0.6348  0.7590
 5179TIP3   OH215542   3.412   1.830   0.691  0.2059  0.0832  0.3586
 5179TIP3    H115543   3.449   1.916   0.710 -1.6098  0.9910  0.0755
 5179TIP3    H215544   3.322   1.835   0.724 -0.1033 -1.5193 -0.1583
 5180TIP3   OH215545   1.160   4.567   1.447  0.4412  0.2844 -0.2271
 5180TIP3    H115546   1.083   4.583   1.392 -0.6362  1.9106  1.6085
 5180TIP3    H215547   1.130   4.587   1.536  2.4816 -0.9144  0.7936
 5181TIP3   OH215548   2.320   4.359   3.681 -0.2723 -0.3860 -0.2029
 5181TIP3    H115549   2.291   4.426   3.620  0.5639 -1.6679 -2.1004
 5181TIP3    H215550   2.245   4.300   3.689 -0.0681 -0.7316 -0.7714
 5182TIP3   OH215551   0.007   0.912   5.154  0.5217 -0.1010  0.2184
 5182TIP3    H115552  -0.016   0.859   5.077  1.5362  1.6071 -1.3526
 5182TIP3    H215553   0.062   0.983   5.119  0.2824  1.2633  2.3927
 5183TIP3   OH215554   2.964   1.309   0.290  0.1004 -0.0217  0.2203
 5183TIP3    H115555   2.879   1.324   0.333 -0.2485 -1.6443  0.1422
 5183TIP3    H215556   2.973   1.214   0.286  0.9168  0.0889 -1.7552
 5184TIP3   OH215557   3.410   5.115   4.454 -0.5000 -0.1346 -0.4254
 5184TIP3    H115558   3.335   5.162   4.417 -1.6344 -0.3918  1.3969
 5184TIP3    H215559   3.371   5.050   4.513  1.0424 -2.6901 -2.0116
 5185TIP3   OH215560   4.148   0.330   4.477 -0.2769 -0.5045  0.6760
 5185TIP3    H115561   4.175   0.346   4.567  1.2883  0.0125  0.1565
 5185TIP3    H215562   4.077   0.392   4.462 -0.5846 -0.6275  1.5465
 5186TIP3   OH215563   2.501   4.601   0.068 -0.4053  0.1698 -0.4256
 5186TIP3    H115564   2.548   4.617   0.150  0.4442 -2.2801 -0.3632
 5186TIP3    H215565   2.431   4.539   0.093  0.3822 -1.2732 -1.6566
 5187TIP3   OH215566   2.743   0.775   2.278 -0.1807  0.1431  0.1379
 5187TIP3    H115567   2.676   0.839   2.303 -0.2529 -0.3666  1.3244
 5187TIP3    H215568   2.817   0.795   2.335  0.2289 -0.0866 -0.3068
 5188TIP3   OH215569   4.767   0.710   4.124 -0.4688 -0.3187  0.0096
 5188TIP3    H115570   4.777   0.709   4.219 -0.4950 -1.2148  0.0144
 5188TIP3    H215571   4.717   0.789   4.106 -0.7546 -0.3130  0.7781
 5189TIP3   OH215572   3.954   5.850   1.267 -0.6439 -0.0684  0.2618
 5189TIP3    H115573   3.943   5.855   1.172 -1.8800 -1.2517  0.3105
 5189TIP3    H215574   3.968   5.941   1.294  0.0157  0.2449 -1.0675
 5190TIP3   OH215575   4.407   4.728   2.457 -0.3662 -0.3761  0.5727
 5190TIP3    H115576   4.381   4.805   2.506  1.1190  0.6256 -0.1524
 5190TIP3    H215577   4.446   4.669   2.522 -1.4905 -0.5303  1.1223
 5191TIP3   OH215578   2.302   3.066   0.822 -0.1476  0.0239 -0.0366
 5191TIP3    H115579   2.249   3.085   0.744  0.8463 -0.2181 -0.7960
 5191TIP3    H215580   2.285   3.139   0.881 -0.1810  0.7295 -0.8876
 5192TIP3   OH215581   0.943   3.637   4.744 -0.2874 -0.4048  0.0123
 5192TIP3    H115582   1.022   3.691   4.753 -0.2539 -0.3944 -0.3199
 5192TIP3    H215583   0.939   3.587   4.825  0.0030 -0.3263  0.0777
 5193TIP3   OH215584   5.146   4.690   4.847  0.0416 -0.8732  0.0935
 5193TIP3    H115585   5.210   4.696   4.918 -0.6489  2.7331  0.5828
 5193TIP3    H215586   5.199   4.690   4.767  0.8223  1.7167  0.5049
 5194TIP3   OH215587   1.116   3.008   4.161  0.5362  0.1651  0.4256
 5194TIP3    H115588   1.113   3.098   4.130 -1.7112  0.1247  0.3972
 5194TIP3    H215589   1.154   2.959   4.088 -0.7557  0.7067 -0.6434
 5195TIP3   OH215590   0.565   0.801   3.533  0.1946  0.1325  0.1694
 5195TIP3    H115591   0.603   0.819   3.619  0.9753  0.4841 -0.2349
 5195TIP3    H215592   0.492   0.742   3.550  0.0132  0.6194  1.1302
 5196TIP3   OH215593   1.548   3.827   3.130 -0.0291  0.2266  0.1222
 5196TIP3    H115594   1.590   3.908   3.156  0.9579  0.1570 -1.1705
 5196TIP3    H215595   1.609   3.758   3.156  0.1806  0.0582 -0.7650
 5197TIP3   OH215596   6.198   0.653   0.262  0.0786 -0.1683 -0.3134
 5197TIP3    H115597   6.146   0.705   0.323 -0.0375  0.0002 -0.5551
 5197TIP3    H215598   6.154   0.568   0.260 -0.3807  0.0749 -0.7626
 5198TIP3   OH215599   1.647   4.897   0.182  0.3134  0.0207  0.5956
 5198TIP3    H115600   1.575   4.837   0.201  0.9643 -1.1406 -0.4591
 5198TIP3    H215601   1.622   4.939   0.099  1.1829 -0.9811 -0.2017
 5199TIP3   OH215602   2.844   2.377   2.997  0.1006  0.1073 -0.9159
 5199TIP3    H115603   2.846   2.459   2.947  0.1334  0.4700 -0.3351
 5199TIP3    H215604   2.832   2.405   3.088  1.4208 -0.4562 -0.5471
 5200TIP3   OH215605   1.037   3.570   2.681 -0.4161 -0.3568  0.7131
 5200TIP3    H115606   1.121   3.593   2.643  0.1287  2.0765  3.0701
 5200TIP3    H215607   0.973   3.624   2.633 -0.1163  0.5175  1.2726
 5201TIP3   OH215608   0.912   0.151   4.550 -0.0385  0.3052  0.2009
 5201TIP3    H115609   0.878   0.154   4.460 -1.3021  0.1321  0.6503
 5201TIP3    H215610   0.834   0.140   4.604  0.7036  0.4893  1.3324
 5202TIP3   OH215611   5.690   4.347   3.514 -0.9196  0.1208 -0.9604
 5202TIP3    H115612   5.738   4.372   3.593 -0.9442  0.6290 -1.1080
 5202TIP3    H215613   5.600   4.335   3.543 -0.4512 -2.4750 -0.3271
 5203TIP3   OH215614   2.064   0.017   0.790 -0.3257  0.2103  0.2601
 5203TIP3    H115615   2.142   0.054   0.832 -1.3105 -1.6471  4.1132
 5203TIP3    H215616   2.098  -0.035   0.717  2.4188 -2.3319  3.0990
 5204TIP3   OH215617   4.088   2.447   0.683  0.9623  0.0357  0.5229
 5204TIP3    H115618   4.009   2.437   0.629  0.4485  0.9620  1.0850
 5204TIP3    H215619   4.081   2.535   0.719  2.4443  0.2635  0.2953
 5205TIP3   OH215620   1.415   3.021   0.637  0.1351  0.5495 -0.0459
 5205TIP3    H115621   1.387   2.929   0.632  2.9485 -0.3683 -0.4024
 5205TIP3    H215622   1.450   3.031   0.726  1.6255  0.6970 -0.6342
 5206TIP3   OH215623   5.856   2.176   2.206 -0.1960 -0.2499 -0.1208
 5206TIP3    H115624   5.829   2.198   2.116 -2.6791 -0.5834  0.4826
 5206TIP3    H215625   5.886   2.086   2.200 -1.2739 -0.6006 -0.4618
 5207TIP3   OH215626   0.229   0.426   2.266 -0.1096 -0.0625 -0.3023
 5207TIP3    H115627   0.228   0.519   2.244  0.7119  0.0631  0.1662
 5207TIP3    H215628   0.298   0.390   2.210  0.4894 -0.1402  0.4838
 5208TIP3   OH215629   4.246   3.689   3.277  0.2007 -0.5069 -0.1910
 5208TIP3    H115630   4.243   3.653   3.366  0.9658 -0.0951  0.0137
 5208TIP3    H215631   4.323   3.746   3.277 -0.9330  1.0837 -0.5312
 5209TIP3   OH215632   0.515   2.743   1.071 -0.5221 -0.1736  0.1211
 5209TIP3    H115633   0.480   2.809   1.131 -0.3230 -2.4664  2.9387
 5209TIP3    H215634   0.609   2.758   1.070 -0.6421  0.6402 -0.6865
 5210TIP3   OH215635   4.333   1.282   4.527  0.0437 -0.3355  0.1637
 5210TIP3    H115636   4.426   1.262   4.515  0.6154  2.6136 -1.2697
 5210TIP3    H215637   4.308   1.328   4.447 -2.6177 -0.8821  0.6139
 5211TIP3   OH215638   1.740   1.033   1.020 -0.0987 -0.8208  0.5439
 5211TIP3    H115639   1.697   0.963   0.970  1.0348 -0.7757 -0.5617
 5211TIP3    H215640   1.680   1.108   1.012 -1.1830 -1.5491  1.4930
 5212TIP3   OH215641   2.840   3.610   1.954  0.1591 -0.4346  0.3218
 5212TIP3    H115642   2.826   3.528   1.906 -1.2820 -0.6088  0.9993
 5212TIP3    H215643   2.911   3.590   2.015  1.7252 -0.3362 -1.3795
 5213TIP3   OH215644   1.838   1.044   3.737  0.0270  0.3682  0.2127
 5213TIP3    H115645   1.810   0.965   3.783 -0.9275 -1.3794 -3.0402
 5213TIP3    H215646   1.758   1.097   3.730  0.2783  0.8531  0.9280
 5214TIP3   OH215647   2.054   1.247   4.867 -0.1244  0.2971  0.5388
 5214TIP3    H115648   2.100   1.329   4.886  2.6210 -0.9358 -0.2611
 5214TIP3    H215649   1.964   1.274   4.845  0.8768  3.1770 -0.4651
 5215TIP3   OH215650   4.949   0.740   5.137 -0.3955 -0.1477 -0.5520
 5215TIP3    H115651   4.980   0.771   5.051  0.1202  0.2645 -0.2256
 5215TIP3    H215652   4.959   0.645   5.133 -1.4468 -0.2489 -1.3559
 5216TIP3   OH215653   3.145   1.274   4.674 -0.3940  0.3089  0.0371
 5216TIP3    H115654   3.099   1.221   4.609  0.9485 -2.8002  1.4407
 5216TIP3    H215655   3.214   1.317   4.625 -0.6449 -0.3618 -0.9401
 5217TIP3   OH215656   6.158   4.947   0.641 -0.2392  0.0524 -0.0580
 5217TIP3    H115657   6.221   4.964   0.571 -1.6488 -2.7182 -2.1783
 5217TIP3    H215658   6.200   4.880   0.695 -0.5127 -0.2636 -0.2356
 5218TIP3   OH215659   0.494   1.380   4.357  0.3057  0.4148  1.0316
 5218TIP3    H115660   0.561   1.354   4.420  0.0213  1.6203  1.8638
 5218TIP3    H215661   0.543   1.399   4.277  1.0855  1.9823  1.8343
 5219TIP3   OH215662   2.828   3.947   3.249 -0.2121 -0.5630 -0.1773
 5219TIP3    H115663   2.736   3.951   3.221 -0.0915  0.8245 -0.4572
 5219TIP3    H215664   2.826   3.972   3.342 -0.0633  0.1397 -0.3552
 5220TIP3   OH215665   1.136   2.257   1.108 -0.0124  0.3470 -0.1113
 5220TIP3    H115666   1.159   2.270   1.200  1.4074 -0.5391 -0.3077
 5220TIP3    H215667   1.216   2.279   1.061 -0.0741 -1.1836 -0.9776
 5221TIP3   OH215668   1.708   2.375   3.764 -0.1994 -0.0754  0.0374
 5221TIP3    H115669   1.629   2.395   3.814 -0.2962 -0.0174 -0.1365
 5221TIP3    H215670   1.687   2.293   3.719 -0.8038  0.7925 -1.3472
 5222TIP3   OH215671   5.851   0.862   3.442  0.0577  0.0119  0.0387
 5222TIP3    H115672   5.923   0.919   3.416  1.3442 -0.3005  2.6280
 5222TIP3    H215673   5.872   0.778   3.402  1.2495 -0.1184  0.8890
 5223TIP3   OH215674   3.924   0.081   1.465  0.2885  0.2345 -0.0600
 5223TIP3    H115675   3.937  -0.012   1.445 -0.0198 -0.2897  1.9282
 5223TIP3    H215676   3.901   0.120   1.381 -1.4658 -1.8555 -0.6705
 5224TIP3   OH215677   2.606   3.225   3.930  0.5693 -0.0470  0.2152
 5224TIP3    H115678   2.551   3.278   3.987  0.6864  1.7160 -1.2155
 5224TIP3    H215679   2.644   3.158   3.988 -1.1217  0.2114  1.6962
 5225TIP3   OH215680   0.535   2.278   3.184  0.2806  0.3013  0.3624
 5225TIP3    H115681   0.480   2.347   3.148 -0.7017  0.4420  2.0383
 5225TIP3    H215682   0.622   2.317   3.188  0.3168  0.4735 -1.2288
 5226TIP3   OH215683   4.207   0.757   1.955  0.2090  0.2719 -0.9550
 5226TIP3    H115684   4.127   0.760   2.007 -0.2982 -3.2222 -1.2608
 5226TIP3    H215685   4.266   0.699   2.004  1.3692  0.3673 -2.1614
 5227TIP3   OH215686   3.472   3.778   1.572 -0.3191  0.2602  0.2345
 5227TIP3    H115687   3.386   3.819   1.579 -1.3406 -1.7746  0.3100
 5227TIP3    H215688   3.479   3.723   1.651  1.8586  1.7476  1.1750
 5228TIP3   OH215689   0.960   4.731   3.458  0.4861  0.7918 -0.2350
 5228TIP3    H115690   0.907   4.784   3.517  2.8287  2.2681  0.7058
 5228TIP3    H215691   0.966   4.646   3.501 -0.6555  0.7608 -0.1100
 5229TIP3   OH215692   4.970   4.357   3.516  0.3320  0.3545 -0.6836
 5229TIP3    H115693   4.979   4.452   3.509 -0.1956  0.2997 -3.0193
 5229TIP3    H215694   4.921   4.332   3.438  0.2356 -1.8243  0.0125
 5230TIP3   OH215695   4.429   2.973   4.745  0.0548  0.2772  0.2143
 5230TIP3    H115696   4.422   2.928   4.661 -0.7435  0.2104  0.3064
 5230TIP3    H215697   4.388   3.058   4.731  2.4016  1.4051 -0.2212
 5231TIP3   OH215698   1.608   5.553   1.690 -0.2060  0.0165  0.4241
 5231TIP3    H115699   1.681   5.543   1.751  1.3273 -2.1221 -1.6056
 5231TIP3    H215700   1.548   5.482   1.712  0.4209 -0.8534 -0.5358
 5232TIP3   OH215701   4.684   1.618   0.615  0.0575 -0.0596  0.1503
 5232TIP3    H115702   4.652   1.571   0.692 -0.8132  1.0099  0.4702
 5232TIP3    H215703   4.718   1.701   0.649 -0.6294  0.5646 -0.6376
 5233TIP3   OH215704   5.446   5.592   1.427  0.2136  0.3069  0.2392
 5233TIP3    H115705   5.449   5.674   1.477  0.4480  1.1323 -1.0700
 5233TIP3    H215706   5.439   5.620   1.336  1.5746 -1.0955 -0.3493
 5234TIP3   OH215707   2.481   0.617   4.401 -0.2204 -0.4530 -0.1231
 5234TIP3    H115708   2.394   0.652   4.382  0.4393  0.2418 -2.0545
 5234TIP3    H215709   2.535   0.694   4.419 -0.3706 -0.9651  3.0630
 5235TIP3   OH215710   4.284   3.199   0.724  0.3878 -0.0044 -0.2761
 5235TIP3    H115711   4.215   3.150   0.679  2.2536 -0.4808 -2.8751
 5235TIP3    H215712   4.346   3.132   0.753 -0.2530  0.3979  2.1852
 5236TIP3   OH215713   3.948   4.998   3.283  0.3302  0.2497  0.0541
 5236TIP3    H115714   3.999   4.919   3.302  1.4935  1.2876  1.5510
 5236TIP3    H215715   3.875   4.996   3.345 -0.9263 -0.7048 -1.3847
 5237TIP3   OH215716   3.306   3.740   2.203  0.2395  0.3096 -0.2699
 5237TIP3    H115717   3.244   3.670   2.223  0.3408 -0.0738 -1.2459
 5237TIP3    H215718   3.267   3.819   2.242 -0.4923 -0.0620 -0.2444
 5238TIP3   OH215719   1.435   1.676   3.606 -0.4042 -0.1961 -0.0241
 5238TIP3    H115720   1.405   1.739   3.672 -1.1433 -0.6133  0.0532
 5238TIP3    H215721   1.530   1.684   3.606 -0.2735 -1.0716  2.0011
 5239TIP3   OH215722   0.268   0.076   5.057 -0.2583  0.5161  0.2340
 5239TIP3    H115723   0.294   0.136   5.128  0.7439 -0.8819  1.0970
 5239TIP3    H215724   0.345   0.021   5.043 -1.2652 -0.8078 -0.2817
 5240TIP3   OH215725   2.404   1.208   3.897  0.4877  0.6270 -0.0711
 5240TIP3    H115726   2.413   1.292   3.942 -0.6004  0.7737 -0.0831
 5240TIP3    H215727   2.369   1.149   3.964  1.5737  0.0725  0.0337
 5241TIP3   OH215728   1.949   3.684   4.061 -0.1616  0.2862  0.0222
 5241TIP3    H115729   1.856   3.681   4.081 -0.5429  1.0919 -1.4280
 5241TIP3    H215730   1.953   3.666   3.967  0.8825  2.7630 -0.4714
 5242TIP3   OH215731   2.733   1.670   4.644  0.0208 -0.6778 -0.1463
 5242TIP3    H115732   2.653   1.659   4.593  0.2321  0.4683 -0.7625
 5242TIP3    H215733   2.711   1.636   4.731 -1.5502  0.8008  0.0786
 5243TIP3   OH215734   2.942   4.687   3.407  0.4808 -0.5462 -0.6084
 5243TIP3    H115735   2.927   4.701   3.313 -0.8409 -1.7391 -0.6071
 5243TIP3    H215736   3.026   4.642   3.411 -0.0100 -1.5838 -1.3375
 5244TIP3   OH215737   4.852   3.871   1.194  0.0600 -0.1178  0.3409
 5244TIP3    H115738   4.874   3.919   1.274 -1.0249 -0.5642  0.9357
 5244TIP3    H215739   4.924   3.809   1.183  0.5134  0.3506  0.6429
 5245TIP3   OH215740   4.444   3.396   3.053  0.3541 -0.4443 -0.0992
 5245TIP3    H115741   4.437   3.348   3.136  0.5540 -3.0068 -1.4514
 5245TIP3    H215742   4.537   3.392   3.031  0.2777  0.0630 -0.5229
 5246TIP3   OH215743   2.657   4.737   1.254 -0.0386  0.0886 -0.1651
 5246TIP3    H115744   2.592   4.739   1.184  0.5586  0.7385 -0.7220
 5246TIP3    H215745   2.716   4.810   1.234 -0.2180  0.7047  1.3734
 5247TIP3   OH215746   2.939   3.100   5.040 -0.1332  0.3993  0.6454
 5247TIP3    H115747   2.962   3.141   4.957  0.2824  0.1267  0.6210
 5247TIP3    H215748   2.885   3.025   5.015  0.7954 -0.2483  0.5506
 5248TIP3   OH215749   4.935   4.076   1.960 -0.4441  0.4688  0.6721
 5248TIP3    H115750   4.959   4.039   1.875  0.3663 -0.7230  1.3908
 5248TIP3    H215751   4.979   4.020   2.024  1.6978  3.2414  1.8469
 5249TIP3   OH215752   1.432   3.478   2.791  0.4658  0.0990 -0.2699
 5249TIP3    H115753   1.498   3.468   2.722  1.3925  1.3294  0.4087
 5249TIP3    H215754   1.430   3.572   2.809 -1.7062  0.1483 -0.4657
 5250TIP3   OH215755   0.688   3.829   0.430  0.1076 -0.0156  0.2228
 5250TIP3    H115756   0.600   3.850   0.461 -0.4722  0.2084 -1.4835
 5250TIP3    H215757   0.687   3.849   0.336  1.9259 -0.1831  0.1145
 5251TIP3   OH215758   4.862   2.112   1.442  0.7284 -0.4470 -0.0532
 5251TIP3    H115759   4.845   2.148   1.529  4.7134  3.1609 -0.4223
 5251TIP3    H215760   4.798   2.156   1.385  0.9805  0.6932  0.5142
 5252TIP3   OH215761   6.258   4.246   4.255  0.1507 -0.5341 -0.1193
 5252TIP3    H115762   6.334   4.305   4.255 -0.4702  0.3618  2.2210
 5252TIP3    H215763   6.285   4.172   4.308 -0.3097 -0.6325 -0.0215
 5253TIP3   OH215764   4.384   5.756   3.831  0.6814 -0.2658  0.0706
 5253TIP3    H115765   4.333   5.691   3.782  0.0533 -1.3671  2.0711
 5253TIP3    H215766   4.399   5.827   3.768 -3.8113  0.4348 -0.5419
 5254TIP3   OH215767   5.352   2.721   4.023  0.4029 -0.6281 -0.3860
 5254TIP3    H115768   5.345   2.812   3.994 -0.7917 -1.2946 -2.3800
 5254TIP3    H215769   5.271   2.705   4.073  1.3633 -0.1793  1.4111
 5255TIP3   OH215770   0.365   2.260   0.857  0.1542  0.0989  0.2042
 5255TIP3    H115771   0.427   2.332   0.871  0.4769 -0.2190  0.4214
 5255TIP3    H215772   0.303   2.294   0.792  1.5942 -0.1948 -1.4191
 5256TIP3   OH215773   3.009   5.582   3.989  0.0328  0.0826  0.3585
 5256TIP3    H115774   2.998   5.664   3.940 -2.4967 -0.1010  0.4763
 5256TIP3    H215775   3.078   5.535   3.942  0.7702  1.7959 -0.3574
 5257TIP3   OH215776   1.711   2.695  -0.009 -0.1094 -0.3608 -0.8192
 5257TIP3    H115777   1.651   2.699   0.065 -2.4195  1.2796 -2.6225
 5257TIP3    H215778   1.772   2.767   0.007 -1.6817  1.1523 -1.2753
 5258TIP3   OH215779   1.247   0.465   4.492  0.1130 -0.0213  0.1600
 5258TIP3    H115780   1.174   0.478   4.432  0.9428 -1.3207 -1.1964
 5258TIP3    H215781   1.218   0.395   4.550  1.0541 -2.1621 -1.8261
 5259TIP3   OH215782   0.076   3.103   2.751  0.4627  0.1333 -0.3307
 5259TIP3    H115783   0.040   3.189   2.729  1.5791  0.7300  0.1153
 5259TIP3    H215784   0.119   3.074   2.670  1.2172  0.5948 -0.1069
 5260TIP3   OH215785   3.045   1.256   1.926 -0.8133 -0.2586 -0.0677
 5260TIP3    H115786   3.092   1.173   1.935 -1.8025 -1.0494 -1.6688
 5260TIP3    H215787   3.027   1.284   2.015  2.7042  0.1340  0.6541
 5261TIP3   OH215788   4.687   3.676   5.011 -0.3781  0.2970 -0.4047
 5261TIP3    H115789   4.757   3.737   4.987  1.7811 -1.6370  0.5872
 5261TIP3    H215790   4.727   3.589   5.003 -2.2395 -0.8455  1.5384
 5262TIP3   OH215791   1.153   3.341   1.844  0.0458 -0.4339  0.2785
 5262TIP3    H115792   1.148   3.250   1.815  2.0844  0.0855 -2.0816
 5262TIP3    H215793   1.244   3.366   1.829 -0.2758  1.8144  1.5678
 5263TIP3   OH215794   5.336   0.800   3.403  0.2761 -0.0886  0.6541
 5263TIP3    H115795   5.296   0.713   3.403 -1.6867  0.6994 -1.2533
 5263TIP3    H215796   5.275   0.854   3.453 -1.2765  1.1191 -2.2428
 5264TIP3   OH215797   5.958   3.469   2.743  0.4325 -0.1256  0.2289
 5264TIP3    H115798   5.930   3.457   2.834 -1.0263 -0.1896 -0.1956
 5264TIP3    H215799   6.016   3.545   2.745  2.1902 -1.4298  1.5240
 5265TIP3   OH215800   0.036   5.756   1.214  0.2926  0.2749 -0.0316
 5265TIP3    H115801   0.046   5.816   1.287  1.8429  2.1456 -1.6686
 5265TIP3    H215802  -0.059   5.750   1.200  0.0407  0.8895  1.2979
 5266TIP3   OH215803   2.258   1.801   0.608  0.0219 -0.1208  0.1177
 5266TIP3    H115804   2.191   1.737   0.632 -1.4355  0.8448 -1.1961
 5266TIP3    H215805   2.341   1.753   0.616 -0.8175 -1.3941  1.5949
 5267TIP3   OH215806   5.193   3.119   0.785  0.4529 -0.3312  0.1551
 5267TIP3    H115807   5.143   3.137   0.706  1.0157 -1.1621 -0.4157
 5267TIP3    H215808   5.238   3.201   0.804 -1.0397  0.3924  0.6308
 5268TIP3   OH215809   1.097   1.128   1.780 -0.3885  0.0547 -0.4882
 5268TIP3    H115810   1.069   1.047   1.823 -0.0163  1.1916  2.0957
 5268TIP3    H215811   1.127   1.184   1.852 -1.3825  2.8186 -2.0589
 5269TIP3   OH215812   4.571   5.664   3.262  0.1124 -0.3816  0.5303
 5269TIP3    H115813   4.641   5.722   3.292 -0.5972  0.2665  0.9328
 5269TIP3    H215814   4.601   5.635   3.175 -0.5437  2.3785 -0.7245
 5270TIP3   OH215815   5.892   4.081   2.978 -0.0021 -0.8667  0.0541
 5270TIP3    H115816   5.926   4.025   3.048  0.9932 -0.4469 -0.0677
 5270TIP3    H215817   5.937   4.165   2.992  0.1876 -0.7720 -1.0666
 5271TIP3   OH215818   2.646   2.993   1.459 -0.5261 -0.3456 -0.1466
 5271TIP3    H115819   2.730   2.969   1.498 -0.3385  3.1290  1.9501
 5271TIP3    H215820   2.668   3.025   1.372  0.2018 -0.2199  0.0769
 5272TIP3   OH215821   1.498   5.203   2.800  0.2614 -0.3921 -0.2175
 5272TIP3    H115822   1.534   5.264   2.736  0.9552 -0.1966  0.3507
 5272TIP3    H215823   1.426   5.252   2.841 -0.6008 -0.7393 -1.2594
 5273TIP3   OH215824   6.258   3.777   0.028  0.6977  0.6439 -0.3130
 5273TIP3    H115825   6.329   3.764  -0.036  0.7059  0.2557 -0.2266
 5273TIP3    H215826   6.246   3.691   0.068 -1.1224  0.2093 -1.6613
 5274TIP3   OH215827   6.049   3.284   3.138 -0.0503  0.3331  0.7051
 5274TIP3    H115828   6.056   3.194   3.170 -0.1147 -0.0122 -0.2158
 5274TIP3    H215829   6.133   3.324   3.160 -0.2633  0.2593  1.7147
 5275TIP3   OH215830   2.530   5.658   5.116 -0.0378  0.1486  0.0366
 5275TIP3    H115831   2.517   5.753   5.109 -0.9004  0.2671  2.2008
 5275TIP3    H215832   2.443   5.624   5.138  0.3689 -1.0737 -0.2110
 5276TIP3   OH215833   1.395   0.516   1.312 -0.2329  0.3274 -0.5611
 5276TIP3    H115834   1.485   0.539   1.289  0.6383 -1.7130  0.4855
 5276TIP3    H215835   1.357   0.483   1.231  0.4729 -0.2060 -0.6854
 5277TIP3   OH215836   0.483   0.917   1.698 -0.1620  0.0475 -0.4545
 5277TIP3    H115837   0.396   0.898   1.662  0.6630 -0.6540 -2.1656
 5277TIP3    H215838   0.478   0.887   1.789 -1.4174 -0.9081 -0.8025
 5278TIP3   OH215839   0.403   3.196   3.905  0.2635  0.0165  0.6000
 5278TIP3    H115840   0.401   3.283   3.947 -3.4648  0.1435  0.4802
 5278TIP3    H215841   0.442   3.139   3.971  1.6613  1.5266  1.1562
 5279TIP3   OH215842   1.673   4.018   2.746 -0.6785  0.1689  0.2291
 5279TIP3    H115843   1.585   4.029   2.782 -0.3352 -0.9519  1.4735
 5279TIP3    H215844   1.685   3.924   2.739  0.7276  0.2726  0.9001
 5280TIP3   OH215845   4.659   5.324   0.751 -0.4097  0.4775  0.0907
 5280TIP3    H115846   4.647   5.277   0.668 -1.3365 -0.7790  0.9071
 5280TIP3    H215847   4.662   5.255   0.817 -0.6454  1.5131  1.2060
 5281TIP3   OH215848   3.407   1.099   4.540  0.3128 -0.1922  0.1816
 5281TIP3    H115849   3.423   1.193   4.545  1.1027 -0.3376  0.5696
 5281TIP3    H215850   3.393   1.073   4.631 -1.8228 -0.1544 -0.0730
 5282TIP3   OH215851   2.083   3.567   2.211 -0.4845 -0.1127  0.3499
 5282TIP3    H115852   2.099   3.559   2.117  1.2775 -2.4423  0.7586
 5282TIP3    H215853   2.138   3.640   2.238 -0.6368  0.2644 -0.3221
 5283TIP3   OH215854   5.661   4.939   4.711  0.4282  0.2737 -0.0384
 5283TIP3    H115855   5.591   5.003   4.697 -0.9120 -0.7744  1.4501
 5283TIP3    H215856   5.742   4.991   4.711 -0.5594  1.8859  0.4869
 5284TIP3   OH215857   5.114   2.298   2.709 -0.3137  0.1498  0.0950
 5284TIP3    H115858   5.123   2.208   2.740 -1.5240  0.1904  0.6055
 5284TIP3    H215859   5.049   2.293   2.638  0.3240  0.4860 -0.5306
 5285TIP3   OH215860   0.398   3.682   3.633  0.2731  0.4607 -0.3295
 5285TIP3    H115861   0.338   3.653   3.564 -0.2273 -1.1354  0.7183
 5285TIP3    H215862   0.434   3.601   3.669  1.3702  1.3088  0.5442
 5286TIP3   OH215863   0.667   2.602   3.572  0.2017 -0.3405  0.3700
 5286TIP3    H115864   0.760   2.597   3.548  0.8933  1.6588  2.3358
 5286TIP3    H215865   0.621   2.604   3.488  2.1109  0.8958 -0.7186
 5287TIP3   OH215866   2.678   5.681   2.575 -0.1890 -0.2004 -0.9087
 5287TIP3    H115867   2.598   5.725   2.547  0.1156 -0.2985 -1.9738
 5287TIP3    H215868   2.686   5.605   2.517  0.0585 -0.8493 -0.0422
 5288TIP3   OH215869   1.374   3.331   0.749 -0.0495  0.9687  0.4293
 5288TIP3    H115870   1.279   3.336   0.760 -0.0069  1.7344  0.4891
 5288TIP3    H215871   1.394   3.238   0.760 -0.9901  0.5154 -1.3245
 5289TIP3   OH215872   6.117   2.049   3.930 -0.4657 -0.0567  0.2270
 5289TIP3    H115873   6.171   2.125   3.908 -0.1239 -0.6190 -0.9502
 5289TIP3    H215874   6.173   1.994   3.985  0.7103 -1.2551 -2.0195
 5290TIP3   OH215875   4.432   2.048   2.665 -0.0519  0.1268  0.1414
 5290TIP3    H115876   4.522   2.042   2.696 -0.3559  0.2541  1.0858
 5290TIP3    H215877   4.379   2.023   2.741 -0.8054 -0.1443 -0.4589
 5291TIP3   OH215878   1.690   3.392   0.311  0.0664  0.4759 -0.2215
 5291TIP3    H115879   1.721   3.321   0.367  0.9741  0.4393 -0.7470
 5291TIP3    H215880   1.757   3.460   0.320 -0.9118  1.3864  0.4741
 5292TIP3   OH215881   0.016   2.655   4.800 -0.1156 -0.1666  0.0675
 5292TIP3    H115882   0.082   2.587   4.810 -0.4934 -0.5884 -0.3078
 5292TIP3    H215883  -0.053   2.631   4.862  0.5108  0.8152  1.1979
 5293TIP3   OH215884   3.822   0.340   4.624  0.2083  0.6660 -0.4570
 5293TIP3    H115885   3.848   0.411   4.682 -0.6621  1.0779 -0.5593
 5293TIP3    H215886   3.733   0.362   4.597 -0.0347 -0.3998 -0.5843
 5294TIP3   OH215887   2.616   1.227   0.117 -0.0603  0.6723  0.4390
 5294TIP3    H115888   2.619   1.292   0.047 -2.2390  0.1002 -0.2766
 5294TIP3    H215889   2.647   1.146   0.076 -0.7673  0.4750  0.2728
 5295TIP3   OH215890   4.864   2.618   4.425  0.0715 -0.1678  1.3906
 5295TIP3    H115891   4.926   2.645   4.493 -0.0672  1.0005  1.0753
 5295TIP3    H215892   4.901   2.537   4.391  1.0024  0.0766  1.7660
 5296TIP3   OH215893   6.266   3.378   2.875 -0.2725  0.2784 -0.0284
 5296TIP3    H115894   6.329   3.446   2.851  0.9652 -1.2073 -1.0945
 5296TIP3    H215895   6.223   3.355   2.793 -0.7061 -0.2237  0.3358
 5297TIP3   OH215896   2.783   0.147   0.164  0.0453  0.1438 -0.1560
 5297TIP3    H115897   2.790   0.081   0.233  1.8957  0.4713  0.0066
 5297TIP3    H215898   2.689   0.155   0.148 -0.3965 -0.2960  1.9795
 5298TIP3   OH215899   5.834   5.751   3.933 -0.1767 -0.4084 -0.3053
 5298TIP3    H115900   5.836   5.767   3.838  0.1280  2.0859  0.0622
 5298TIP3    H215901   5.741   5.758   3.956 -0.0012  1.6813 -0.0707
 5299TIP3   OH215902   2.304   5.128   4.980  0.4164 -0.3894  0.3116
 5299TIP3    H115903   2.222   5.174   4.961  0.8082 -0.5590 -2.0691
 5299TIP3    H215904   2.279   5.059   5.041 -0.9857  0.2694  0.5322
 5300TIP3   OH215905   2.781   2.948   3.765 -0.3309  0.5483 -0.2254
 5300TIP3    H115906   2.820   2.954   3.852  0.5985 -0.2039 -0.5751
 5300TIP3    H215907   2.834   3.007   3.711  0.8174 -0.9870 -0.8546
 5301TIP3   OH215908   4.769   3.497   3.631  0.4023 -0.2266  0.0914
 5301TIP3    H115909   4.811   3.447   3.561 -1.1408 -0.4018 -0.7435
 5301TIP3    H215910   4.801   3.456   3.711  0.0060 -1.8895 -0.5547
 5302TIP3   OH215911   0.872   1.375   2.254  0.0768 -0.0510 -0.0616
 5302TIP3    H115912   0.945   1.314   2.244 -0.5608 -0.8267 -0.0417
 5302TIP3    H215913   0.914   1.460   2.270  0.9814 -0.7366  1.4801
 5303TIP3   OH215914   5.942   5.065   0.997  0.0433  0.2442  0.3549
 5303TIP3    H115915   6.015   5.089   0.940  0.2810 -0.1961  0.4644
 5303TIP3    H215916   5.921   5.145   1.044  0.9721  0.1848  0.8907
 5304TIP3   OH215917   4.809   3.134   1.157  0.2876 -0.3577 -0.1806
 5304TIP3    H115918   4.844   3.217   1.125 -1.3009  0.6174  0.4558
 5304TIP3    H215919   4.881   3.072   1.149  0.8816  0.5466 -2.7107
 5305TIP3   OH215920   4.801   2.887   1.401 -0.2085 -0.2808 -0.1605
 5305TIP3    H115921   4.742   2.814   1.418 -1.4555  0.6884 -0.1884
 5305TIP3    H215922   4.805   2.893   1.306  0.9496 -1.1010 -0.1961
 5306TIP3   OH215923   1.312   5.320   2.237 -0.6023  0.4776 -0.0255
 5306TIP3    H115924   1.366   5.246   2.263 -1.6057 -0.5281 -0.7396
 5306TIP3    H215925   1.321   5.325   2.142 -0.7366  1.1282 -0.0114
 5307TIP3   OH215926   4.710   3.589   2.508  0.1404  0.2640  0.3753
 5307TIP3    H115927   4.668   3.502   2.515 -2.1424  1.2288 -0.3111
 5307TIP3    H215928   4.675   3.625   2.427  1.3795  1.6824  0.4444
 5308TIP3   OH215929   5.167   1.516   4.995  0.7912 -0.9486 -0.1984
 5308TIP3    H115930   5.259   1.539   4.990  0.8746 -1.3850 -0.9828
 5308TIP3    H215931   5.126   1.563   4.922  0.3118 -0.3995  0.4204
 5309TIP3   OH215932   0.450   0.425   2.538 -0.2020 -0.4928 -0.2597
 5309TIP3    H115933   0.473   0.503   2.589 -1.0216 -0.7527  0.5185
 5309TIP3    H215934   0.512   0.426   2.464 -0.3648  1.0223 -0.4039
 5310TIP3   OH215935   4.157   2.647   2.014  0.2431  0.6638 -0.5089
 5310TIP3    H115936   4.130   2.713   2.078 -1.2647 -0.4519  0.0549
 5310TIP3    H215937   4.116   2.674   1.932 -1.9332 -0.5097  0.1319
 5311TIP3   OH215938   1.913   2.693   1.706 -0.0138  0.1371  0.3194
 5311TIP3    H115939   1.986   2.710   1.765 -0.5918 -0.3826  1.2245
 5311TIP3    H215940   1.836   2.722   1.755 -0.4713  0.0932 -0.3614
 5312TIP3   OH215941   5.693   0.644   3.596  0.4483  0.1176  0.5481
 5312TIP3    H115942   5.723   0.708   3.530 -0.1732  0.2425  0.3825
 5312TIP3    H215943   5.742   0.565   3.575  0.6581  0.3143  0.2749
 5313TIP3   OH215944   0.849   0.250   0.126  0.2216 -0.1259 -0.1602
 5313TIP3    H115945   0.825   0.173   0.177 -0.3447  0.9135  1.2127
 5313TIP3    H215946   0.862   0.217   0.037 -1.7078 -1.5355  0.0023
 5314TIP3   OH215947   4.954   1.183   2.193  0.2164 -0.3192 -0.5530
 5314TIP3    H115948   4.912   1.257   2.149  1.2031 -0.9067 -2.5977
 5314TIP3    H215949   4.881   1.125   2.216 -0.3994  0.3769 -0.6810
 5315TIP3   OH215950   3.852   3.718   4.422 -0.1993 -0.0661 -0.1449
 5315TIP3    H115951   3.852   3.786   4.354  0.6202  1.1192  0.9976
 5315TIP3    H215952   3.923   3.659   4.397 -0.0840  0.2030 -0.4624
 5316TIP3   OH215953   1.665   5.557   3.856 -0.2090 -0.4660  0.0148
 5316TIP3    H115954   1.759   5.570   3.865 -0.3655  0.4282  0.4971
 5316TIP3    H215955   1.654   5.512   3.772  0.7631 -2.1891  0.7813
 5317TIP3   OH215956   2.902   4.873   1.379  0.2693 -0.6404 -0.1657
 5317TIP3    H115957   2.996   4.853   1.374  0.4965  0.1851  0.5283
 5317TIP3    H215958   2.874   4.833   1.461  0.3364  0.3099  0.3368
 5318TIP3   OH215959   5.497   1.400   2.962  0.2880 -0.4930 -0.0565
 5318TIP3    H115960   5.520   1.423   3.052 -1.8898 -0.1941  0.4779
 5318TIP3    H215961   5.493   1.304   2.961 -1.0828 -0.4700  0.5962
 5319TIP3   OH215962   4.108   3.383   1.212 -0.0207  0.8023 -0.0660
 5319TIP3    H115963   4.029   3.437   1.201 -1.0331 -0.5013  0.4517
 5319TIP3    H215964   4.123   3.345   1.126  0.2925  1.3703 -0.2659
 5320TIP3   OH215965   5.901   5.046   4.804  0.3244 -0.6556 -0.4298
 5320TIP3    H115966   5.928   4.974   4.861  1.6133  0.5599  0.5717
 5320TIP3    H215967   5.975   5.058   4.744  0.1944 -0.0560 -0.4739
 5321TIP3   OH215968   0.231   5.138   5.019  0.3667  0.0671  0.2395
 5321TIP3    H115969   0.185   5.058   5.044  1.1825 -0.3628  0.3866
 5321TIP3    H215970   0.320   5.109   4.999  0.1409  0.5965 -1.7950
 5322TIP3   OH215971   6.016   1.085   2.411  0.2328 -0.0554  0.4587
 5322TIP3    H115972   6.052   1.006   2.371 -0.6714 -0.4049  0.3067
 5322TIP3    H215973   5.993   1.058   2.500  2.4698  0.7851  1.3562
 5323TIP3   OH215974   5.068   1.229   3.923  0.0731  0.0864 -0.1951
 5323TIP3    H115975   5.081   1.240   4.017  0.7524 -0.7857 -0.1708
 5323TIP3    H215976   5.154   1.200   3.891 -0.0429  0.7733 -1.1447
 5324TIP3   OH215977   2.395   0.992   2.152 -0.2643 -1.0732 -0.5297
 5324TIP3    H115978   2.441   1.044   2.087 -0.1340  0.6795  0.8823
 5324TIP3    H215979   2.463   0.965   2.214 -0.3628 -2.8270 -1.1375
 5325TIP3   OH215980   5.511   1.793   0.979  0.0638 -0.4107  0.1137
 5325TIP3    H115981   5.476   1.829   1.060  0.0108  1.0997 -0.5493
 5325TIP3    H215982   5.530   1.701   1.000 -1.7348 -0.5697  1.2637
 5326TIP3   OH215983   6.125   0.726   3.207 -0.6070  0.6324  0.3109
 5326TIP3    H115984   6.052   0.673   3.240  0.5776 -0.7153  0.8520
 5326TIP3    H215985   6.163   0.766   3.285  1.1185 -1.1702  0.4815
 5327TIP3   OH215986   4.835   0.915   1.963  0.0751 -0.2845 -0.0512
 5327TIP3    H115987   4.874   1.001   1.944 -1.4305  0.4305 -0.0098
 5327TIP3    H215988   4.779   0.896   1.889 -1.4242 -0.1167  0.9945
 5328TIP3   OH215989   2.044   5.179   1.296 -0.2862  0.2294 -0.3136
 5328TIP3    H115990   2.010   5.141   1.377  0.7214 -0.0289 -0.0002
 5328TIP3    H215991   2.012   5.269   1.296  0.0256  0.3490  0.5680
 5329TIP3   OH215992   6.086   5.767   1.202 -0.2549 -0.0283  0.4531
 5329TIP3    H115993   6.057   5.858   1.196  0.1515  0.0489 -0.5407
 5329TIP3    H215994   6.037   5.731   1.276 -0.7419  0.8758  0.5874
 5330TIP3   OH215995   0.538   0.685   2.151 -0.0040  0.2938  0.4485
 5330TIP3    H115996   0.629   0.708   2.168  0.4403 -0.3460 -0.9397
 5330TIP3    H215997   0.543   0.612   2.089 -1.4421 -0.6066  1.3371
 5331TIP3   OH215998   0.794   5.167   4.795 -0.3161 -0.4291 -0.5925
 5331TIP3    H115999   0.872   5.197   4.843  0.1667 -1.7881 -0.4693
 5331TIP3    H216000   0.792   5.072   4.810 -2.5959 -0.3155  0.2826
 5332TIP3   OH216001   3.455   2.130   0.739  0.0803  0.0538  0.0650
 5332TIP3    H116002   3.498   2.170   0.815 -0.3836 -2.1926  1.5945
 5332TIP3    H216003   3.370   2.175   0.734  0.3360  0.6093  0.5134
 5333TIP3   OH216004   4.138   1.208   3.997 -0.6091  0.2136 -0.8757
 5333TIP3    H116005   4.092   1.125   4.009  0.1708  0.1246  2.4274
 5333TIP3    H216006   4.068   1.273   3.986 -1.2615 -0.6245 -1.9475
 5334TIP3   OH216007   5.671   2.871   4.477 -0.2997  0.1884 -0.4365
 5334TIP3    H116008   5.615   2.948   4.468 -0.0743  0.3622 -0.3470
 5334TIP3    H216009   5.610   2.797   4.480 -0.4561  0.1952 -2.3815
 5335TIP3   OH216010   5.146   3.045   2.245 -0.3811  0.6222 -0.4762
 5335TIP3    H116011   5.214   3.113   2.241  0.0695  0.2420  0.4622
 5335TIP3    H216012   5.159   2.994   2.165  0.8880  0.1527 -0.0119
 5336TIP3   OH216013   2.348   5.271   3.170 -1.1521  0.2408  0.0757
 5336TIP3    H116014   2.372   5.281   3.078  1.7569 -0.1064  0.6811
 5336TIP3    H216015   2.279   5.335   3.184 -2.0830 -0.1150 -2.4576
 5337TIP3   OH216016   1.217   3.307   2.687 -0.0814  0.5428  0.1135
 5337TIP3    H116017   1.265   3.387   2.709 -1.0459  1.1303  0.1618
 5337TIP3    H216018   1.242   3.288   2.596  0.8497  0.3755  0.3972
 5338TIP3   OH216019   1.420   0.890   4.483 -0.6270 -0.0987  0.8300
 5338TIP3    H116020   1.464   0.911   4.566 -0.3441 -0.4500  0.7746
 5338TIP3    H216021   1.334   0.858   4.509 -1.3814  1.8563  0.8786
 5339TIP3   OH216022   1.875   1.990   3.718  0.3994  0.0854  1.4283
 5339TIP3    H116023   1.812   2.022   3.654  0.1265 -1.4129  0.8989
 5339TIP3    H216024   1.842   2.021   3.802 -0.7269 -0.1596  1.0894
 5340TIP3   OH216025   5.418   5.835   2.924 -1.1739  0.4921  0.2603
 5340TIP3    H116026   5.403   5.878   2.840 -0.9121 -0.0926 -0.0892
 5340TIP3    H216027   5.491   5.883   2.962 -1.8724  1.3349  0.5630
 5341TIP3   OH216028   2.011   3.916   1.673 -0.0255 -0.7539  0.1521
 5341TIP3    H116029   1.921   3.889   1.656  0.5216 -1.3317 -2.0038
 5341TIP3    H216030   2.052   3.840   1.714 -0.0638 -1.0802 -0.4201
 5342TIP3   OH216031   3.427   1.994   4.131  0.1767 -0.0238  0.0462
 5342TIP3    H116032   3.385   2.072   4.094  0.9495 -0.3002 -1.4744
 5342TIP3    H216033   3.487   1.964   4.063 -0.0859 -1.9524  0.6048
 5343TIP3   OH216034   1.441   4.434   2.110 -0.1168 -0.1961  0.4396
 5343TIP3    H116035   1.401   4.403   2.191 -0.0363 -1.2535  0.0908
 5343TIP3    H216036   1.374   4.421   2.043 -0.2733  0.8983  0.3577
 5344TIP3   OH216037   4.850   1.416   2.078 -0.4308 -0.2577 -0.0512
 5344TIP3    H116038   4.792   1.477   2.123 -0.3854 -0.4907  0.3298
 5344TIP3    H216039   4.868   1.457   1.994 -3.6536 -1.5532 -1.5630
 5345TIP3   OH216040   0.676   1.712   3.120  0.0642 -0.8561  0.1908
 5345TIP3    H116041   0.754   1.691   3.171  0.0724  0.1843  0.6388
 5345TIP3    H216042   0.634   1.783   3.169 -0.7670 -0.8954 -0.4373
 5346TIP3   OH216043   6.088   4.109   4.629 -0.6575 -0.4251  0.4648
 5346TIP3    H116044   6.028   4.183   4.635  0.7450  0.7874  0.1730
 5346TIP3    H216045   6.131   4.105   4.714  0.8276  0.5155 -0.1974
 5347TIP3   OH216046   3.998   2.713   0.735 -0.1130 -0.0041  0.5704
 5347TIP3    H116047   4.004   2.727   0.830 -0.9248 -0.0167  0.6324
 5347TIP3    H216048   3.910   2.741   0.712  0.3101  0.6603 -0.3134
 5348TIP3   OH216049   2.643   1.024   1.115 -0.6302  0.0068 -0.1945
 5348TIP3    H116050   2.593   1.038   1.034 -2.4178 -2.5605  0.3597
 5348TIP3    H216051   2.591   1.068   1.183 -1.5898 -1.6500  0.1949
 5349TIP3   OH216052   3.894   1.025   4.470 -0.0394  0.5348  0.6366
 5349TIP3    H116053   3.890   1.112   4.511  0.2238  1.1029 -0.4910
 5349TIP3    H216054   3.926   0.967   4.539  3.2404  1.9647  0.5055
 5350TIP3   OH216055   2.305   0.112   0.430  0.3097  0.1828 -0.0465
 5350TIP3    H116056   2.280   0.199   0.400 -0.8760 -0.6405 -1.6096
 5350TIP3    H216057   2.225   0.060   0.422  1.0228 -1.0850  0.7286
 5351TIP3   OH216058   2.708  -0.020   1.970 -0.0414  0.2116 -0.7814
 5351TIP3    H116059   2.622  -0.036   1.932 -0.5120  0.7297  0.0552
 5351TIP3    H216060   2.722   0.074   1.960  0.2758  0.1858 -0.6054
 5352TIP3   OH216061   4.189   2.834   1.077  0.4982 -0.4808  0.0069
 5352TIP3    H116062   4.119   2.900   1.078  0.0041 -1.0006  0.9700
 5352TIP3    H216063   4.210   2.820   1.170  0.0663 -2.2329 -0.1357
 5353TIP3   OH216064   3.143   0.626   2.546  0.0740 -0.0424  0.2825
 5353TIP3    H116065   3.121   0.545   2.499 -0.5633  1.1361 -1.5655
 5353TIP3    H216066   3.178   0.596   2.630 -0.1456 -2.2287 -0.3351
 5354TIP3   OH216067   2.845   4.939   0.218 -0.5098 -0.4773 -0.1316
 5354TIP3    H116068   2.857   4.998   0.292  2.3560 -0.0974 -0.7803
 5354TIP3    H216069   2.769   4.974   0.172 -0.6855  0.9106  1.1298
 5355TIP3   OH216070   1.510   5.292   0.175 -0.0530 -0.5214  0.5439
 5355TIP3    H116071   1.422   5.269   0.206  0.0456 -0.1336  1.1237
 5355TIP3    H216072   1.564   5.294   0.254  0.0358  1.2701  0.4906
 5356TIP3   OH216073   0.421   3.492   4.846  0.6884 -0.1681  0.1620
 5356TIP3    H116074   0.450   3.403   4.865 -0.6254 -0.3349  1.6347
 5356TIP3    H216075   0.481   3.523   4.778  2.0977 -1.6373  0.6640
 5357TIP3   OH216076   5.327   3.256   2.272  0.4447  0.2906 -0.1978
 5357TIP3    H116077   5.405   3.260   2.215  0.8658 -1.2129  0.2302
 5357TIP3    H216078   5.312   3.347   2.297  0.5582  0.9461 -2.2821
 5358TIP3   OH216079   3.292   4.952   0.310  0.3734 -0.1730  0.0063
 5358TIP3    H116080   3.380   4.973   0.341  0.1545  1.6124 -0.4814
 5358TIP3    H216081   3.234   5.011   0.359 -0.5458 -1.2124  0.2059
 5359TIP3   OH216082   3.313   1.669   4.009  0.2792 -0.4080  0.1657
 5359TIP3    H116083   3.407   1.661   3.989  0.9762  0.3610  2.7099
 5359TIP3    H216084   3.289   1.755   3.973  0.1577 -1.1783 -1.6877
 5360TIP3   OH216085   4.378   0.805   5.056  0.3786  0.0276 -0.0322
 5360TIP3    H116086   4.464   0.765   5.070  0.3976 -2.0804 -4.4775
 5360TIP3    H216087   4.397   0.893   5.025  0.6077  1.2130  3.1475
 5361TIP3   OH216088   3.676   3.937   0.942 -0.2437 -0.3674 -0.4732
 5361TIP3    H116089   3.617   3.968   0.873  1.9242 -3.0056 -3.8034
 5361TIP3    H216090   3.646   3.848   0.961 -0.2713  0.0143  1.5229
 5362TIP3   OH216091   1.685   4.159   4.886 -0.2581  0.6413  0.1729
 5362TIP3    H116092   1.597   4.175   4.849 -0.6558  0.9643  1.2241
 5362TIP3    H216093   1.709   4.073   4.853 -0.9319  0.5866 -0.2092
 5363TIP3   OH216094   1.547   3.066   2.420  0.1041 -0.4363  0.3292
 5363TIP3    H116095   1.513   2.980   2.446  2.0940 -1.0662  0.9833
 5363TIP3    H216096   1.603   3.093   2.492  0.3746  0.9357 -0.3599
 5364TIP3   OH216097   1.701   1.225   1.782  0.1358 -0.1197 -0.1095
 5364TIP3    H116098   1.617   1.210   1.826 -0.0375 -1.4765 -0.8736
 5364TIP3    H216099   1.683   1.296   1.720 -0.0992  0.4861  0.6331
 5365TIP3   OH216100   2.949   5.358   0.241  0.5681  0.2448 -0.4438
 5365TIP3    H116101   2.884   5.376   0.309  0.5282 -0.2158 -0.3593
 5365TIP3    H216102   2.964   5.264   0.247  0.6806  0.2291 -0.9710
 5366TIP3   OH216103   0.887   4.254   3.515  0.0045 -0.5535 -0.2731
 5366TIP3    H116104   0.903   4.186   3.450 -1.3064 -1.2092  0.0547
 5366TIP3    H216105   0.791   4.259   3.522  0.0640  1.1870 -0.1428
 5367TIP3   OH216106   0.387   5.785   2.962  0.0201 -0.6122  0.5598
 5367TIP3    H116107   0.404   5.698   2.999  0.6562 -0.0619  1.6060
 5367TIP3    H216108   0.449   5.843   3.006 -1.5792  0.6886  1.2246
 5368TIP3   OH216109   4.544   2.998   0.108 -0.0107 -0.2551  0.4626
 5368TIP3    H116110   4.636   3.019   0.093 -0.2326 -0.7224 -2.0398
 5368TIP3    H216111   4.501   3.018   0.025 -2.0141 -0.9631  1.2606
 5369TIP3   OH216112   2.631   3.743   3.777  0.2629  0.3180  0.0511
 5369TIP3    H116113   2.695   3.694   3.828 -0.4535 -0.3007  0.3772
 5369TIP3    H216114   2.654   3.835   3.790 -0.6898  0.2714  2.6020
 5370TIP3   OH216115   2.067   4.322   3.431 -0.1013 -0.1720 -0.0328
 5370TIP3    H116116   2.091   4.408   3.396 -0.5627  0.1992  0.5432
 5370TIP3    H216117   1.972   4.325   3.440 -0.0112 -0.3181  1.0691
 5371TIP3   OH216118   0.904   3.091   5.103 -0.0366  0.4980 -0.2039
 5371TIP3    H116119   0.826   3.116   5.054  1.2039 -0.2512 -2.7906
 5371TIP3    H216120   0.905   2.995   5.098  2.4076  0.5092 -2.8152
 5372TIP3   OH216121   3.939   5.008   0.531  0.2447  0.0247 -0.0297
 5372TIP3    H116122   3.936   5.084   0.590  1.3377 -0.4505  0.6805
 5372TIP3    H216123   3.928   5.045   0.443  0.5654  0.9900  0.3256
 5373TIP3   OH216124   6.133   2.763   1.060  0.1096  0.1826  0.3023
 5373TIP3    H116125   6.208   2.739   1.114 -0.1024  2.0101  1.4936
 5373TIP3    H216126   6.061   2.711   1.094  0.2150  0.5387  1.0982
 5374TIP3   OH216127   2.543   4.435   1.305 -0.8769  0.5157 -0.0597
 5374TIP3    H116128   2.452   4.464   1.295 -1.5446 -0.9284  1.3877
 5374TIP3    H216129   2.553   4.419   1.399  0.9121  0.7328 -0.1851
 5375TIP3   OH216130   3.609   3.908   2.773 -0.1088  0.0366 -0.3048
 5375TIP3    H116131   3.678   3.945   2.719  0.1306 -0.2340 -0.1878
 5375TIP3    H216132   3.609   3.962   2.852  3.0042 -2.5521  1.7200
 5376TIP3   OH216133   0.513   3.877   4.802  0.5350  0.5970 -0.5519
 5376TIP3    H116134   0.549   3.946   4.746  1.0435  0.0121 -0.9623
 5376TIP3    H216135   0.484   3.809   4.741  0.4202  0.2701 -0.1363
 5377TIP3   OH216136   3.758   3.615   3.855 -0.4648 -0.6340 -0.4938
 5377TIP3    H116137   3.746   3.533   3.807  1.3358 -0.4939 -1.2843
 5377TIP3    H216138   3.750   3.683   3.789  1.3801 -0.4019 -0.5475
 5378TIP3   OH216139   1.610   1.176   1.261  0.1800  0.5969  0.5397
 5378TIP3    H116140   1.538   1.114   1.260 -0.1167  0.8866  1.9848
 5378TIP3    H216141   1.598   1.226   1.342  1.8294  0.8529  0.6622
 5379TIP3   OH216142   3.264   2.950   1.204  0.1638 -0.2033 -0.1305
 5379TIP3    H116143   3.176   2.922   1.182  0.0175 -0.1172  0.3283
 5379TIP3    H216144   3.312   2.869   1.220 -0.3407 -0.2246  1.5075
 5380TIP3   OH216145   4.125   4.097   0.309  0.0201  0.0462  0.2874
 5380TIP3    H116146   4.182   4.099   0.232 -2.2317 -1.6987 -1.5648
 5380TIP3    H216147   4.159   4.026   0.362  0.2631 -0.2170 -0.2145
 5381TIP3   OH216148   3.915   5.676   0.054  0.1211 -0.2286 -0.7777
 5381TIP3    H116149   3.974   5.625   0.109 -2.0686 -0.8938  1.0780
 5381TIP3    H216150   3.938   5.650  -0.036  1.9575 -1.1896 -0.0750
 5382TIP3   OH216151   0.607   1.977   4.589 -0.0650  0.1388 -0.1576
 5382TIP3    H116152   0.652   1.899   4.555  2.2761 -0.0997  3.0608
 5382TIP3    H216153   0.673   2.046   4.587 -1.2208  1.2979 -0.2019
 5383TIP3   OH216154   3.905   1.725   1.957  0.0341 -0.2134  0.1125
 5383TIP3    H116155   3.960   1.667   1.906 -2.9089 -1.1625 -2.2574
 5383TIP3    H216156   3.839   1.668   1.996 -0.4099  1.0781  1.3623
 5384TIP3   OH216157   5.337   5.404   4.046 -0.2828 -0.4321  0.0332
 5384TIP3    H116158   5.386   5.465   4.101 -0.1325  0.7668 -1.3631
 5384TIP3    H216159   5.403   5.362   3.992 -0.6123 -0.0381 -0.6880
 5385TIP3   OH216160   5.002   0.900   1.286  0.1294  0.2044  0.2085
 5385TIP3    H116161   4.999   0.939   1.373 -1.4850  2.9545 -0.9444
 5385TIP3    H216162   4.914   0.911   1.251  0.4194 -1.8875 -1.3915
 5386TIP3   OH216163   2.600   1.751   0.456 -0.0824  0.1965  0.0210
 5386TIP3    H116164   2.642   1.707   0.383 -0.7775  0.4785 -0.5655
 5386TIP3    H216165   2.625   1.843   0.446  1.4226 -0.0337  1.2794
 5387TIP3   OH216166   2.735   0.995   0.075  0.0147  0.0547  0.6805
 5387TIP3    H116167   2.756   0.951   0.157  0.9488 -1.9274 -0.5461
 5387TIP3    H216168   2.820   1.008   0.032 -0.5434 -0.0680 -0.5043
 5388TIP3   OH216169   2.758   2.883   3.307 -0.4554 -0.4292 -0.5333
 5388TIP3    H116170   2.853   2.881   3.305 -0.3014 -5.0207  0.5250
 5388TIP3    H216171   2.731   2.818   3.242 -2.9163  0.5678 -0.6418
 5389TIP3   OH216172   0.550   3.617   2.639  0.1636 -0.1438 -0.1445
 5389TIP3    H116173   0.456   3.609   2.654  0.2906  0.4573  1.1310
 5389TIP3    H216174   0.587   3.629   2.726  1.2673  1.0988 -0.7486
 5390TIP3   OH216175   0.418   5.459   2.712  0.0016 -0.2275 -0.0891
 5390TIP3    H116176   0.465   5.424   2.636  1.2044 -1.1406  1.0384
 5390TIP3    H216177   0.487   5.480   2.775 -1.0617 -3.0770  2.2451
 5391TIP3   OH216178   3.197   2.500   3.553 -0.5445  0.2432 -0.4630
 5391TIP3    H116179   3.183   2.555   3.476 -0.6582  0.2424 -0.4431
 5391TIP3    H216180   3.278   2.532   3.591 -0.1308 -0.1931 -0.9628
 5392TIP3   OH216181   5.758   5.838   1.282  0.0038  0.0009 -0.0423
 5392TIP3    H116182   5.765   5.926   1.320  1.3340 -0.7065  1.4610
 5392TIP3    H216183   5.669   5.834   1.248  0.1577  2.1961 -0.8602
 5393TIP3   OH216184   0.790   3.944   2.420  0.2178  0.0291 -0.2352
 5393TIP3    H116185   0.739   4.024   2.404  1.1583  0.7918  0.5016
 5393TIP3    H216186   0.877   3.964   2.388  0.2824 -0.9790 -0.7166
 5394TIP3   OH216187   3.136   5.745   0.645 -0.0550  0.0132  0.1690
 5394TIP3    H116188   3.136   5.758   0.550  1.3156  0.8193  0.2519
 5394TIP3    H216189   3.223   5.773   0.673 -0.6148  0.2745  1.7370
 5395TIP3   OH216190   2.586   4.795   0.812  0.0496 -0.0953 -0.1416
 5395TIP3    H116191   2.541   4.762   0.734  2.5784  2.1626 -2.8121
 5395TIP3    H216192   2.640   4.722   0.841  1.0430 -0.2672 -2.2135
 5396TIP3   OH216193   5.526   0.960   3.569 -0.1204  0.6310  0.3226
 5396TIP3    H116194   5.516   0.942   3.476  1.4418 -0.3764  0.3092
 5396TIP3    H216195   5.470   0.895   3.612  0.2523  0.1524  0.1023
 5397TIP3   OH216196   2.547   3.764   4.117 -0.2003  0.4807 -0.8672
 5397TIP3    H116197   2.493   3.838   4.089 -0.6347  0.4196 -0.2126
 5397TIP3    H216198   2.634   3.801   4.130  0.0139  0.5198 -2.2289
 5398TIP3   OH216199   1.561   5.457   3.588 -0.3474  0.5711  0.2556
 5398TIP3    H116200   1.472   5.488   3.603 -0.4562 -0.0010  0.8154
 5398TIP3    H216201   1.593   5.511   3.515 -1.0777  0.9085  0.1762
 5399TIP3   OH216202   1.884   3.891   4.947 -0.1609  0.4650  0.8571
 5399TIP3    H116203   1.858   3.886   5.039 -0.1165  2.3695  1.0257
 5399TIP3    H216204   1.927   3.976   4.939 -1.1348  0.8353 -1.1620
 5400TIP3   OH216205   4.607   5.695   1.963  0.2171  0.0561  0.0934
 5400TIP3    H116206   4.652   5.778   1.976 -0.5332  0.3967  0.5576
 5400TIP3    H216207   4.639   5.639   2.033 -1.0466  0.7159  1.2251
 5401TIP3   OH216208   4.141   3.106   3.340  0.2557  0.7892 -0.1263
 5401TIP3    H116209   4.196   3.183   3.359  1.3899  0.2502 -1.1063
 5401TIP3    H216210   4.203   3.033   3.337 -0.2212  0.4016 -2.9104
 5402TIP3   OH216211   3.695   1.033   1.927 -0.3394 -0.2886 -0.7456
 5402TIP3    H116212   3.739   1.022   2.011 -1.5569 -0.4404 -0.0905
 5402TIP3    H216213   3.728   1.116   1.893  1.0392 -0.7893 -0.6866
 5403TIP3   OH216214   1.738   4.266   4.152  0.4053 -0.4270  0.0687
 5403TIP3    H116215   1.706   4.322   4.223 -0.1589  1.2744 -1.4457
 5403TIP3    H216216   1.665   4.207   4.133 -1.0978  1.7941 -1.7009
 5404TIP3   OH216217   1.907   0.369   0.145 -0.5476  0.4131 -0.1050
 5404TIP3    H116218   1.904   0.390   0.238 -1.5706  0.9108 -0.2407
 5404TIP3    H216219   1.850   0.434   0.103 -2.0788 -1.2940 -0.8037
 5405TIP3   OH216220   5.420   3.910   1.035  0.3532 -0.1238  0.0356
 5405TIP3    H116221   5.492   3.969   1.056 -0.4301  0.7910  0.1954
 5405TIP3    H216222   5.361   3.961   0.979  0.0862 -1.0272 -0.5315
 5406TIP3   OH216223   3.206   2.198   2.786  0.6340 -0.3544  0.5004
 5406TIP3    H116224   3.192   2.116   2.738  0.9888  0.0943 -0.3903
 5406TIP3    H216225   3.293   2.189   2.824 -0.0177 -1.1042  1.8953
 5407TIP3   OH216226   1.347   5.192   4.388  0.2445  0.6168 -0.2523
 5407TIP3    H116227   1.431   5.153   4.364  1.1641  2.0264  0.5425
 5407TIP3    H216228   1.368   5.283   4.411 -1.2205  0.5487  1.6175
 5408TIP3   OH216229   1.477   0.752   0.752 -0.2269 -0.5646  0.0735
 5408TIP3    H116230   1.431   0.719   0.830 -0.4867  0.3591  0.3277
 5408TIP3    H216231   1.441   0.701   0.680 -2.9532  1.2310  0.0238
 5409TIP3   OH216232   5.299   1.124   3.784  0.5341  0.8436 -0.0800
 5409TIP3    H116233   5.272   1.037   3.755  0.0673 -0.4128  3.5731
 5409TIP3    H216234   5.394   1.124   3.777  0.5760 -0.1804  0.3974
 5410TIP3   OH216235   1.509   2.752   2.826  0.2692 -0.3186 -0.4534
 5410TIP3    H116236   1.445   2.759   2.897 -1.8142  0.1542 -2.2921
 5410TIP3    H216237   1.594   2.759   2.870 -0.9169 -0.3544  2.0085
 5411TIP3   OH216238   4.121   0.798   3.901  0.6250 -0.0102  0.4135
 5411TIP3    H116239   4.175   0.857   3.954 -0.0983  0.5265  0.5674
 5411TIP3    H216240   4.101   0.725   3.960 -1.4622  1.3155  1.4398
 5412TIP3   OH216241   4.866   2.528   5.198 -0.0232  0.3900 -0.1082
 5412TIP3    H116242   4.790   2.472   5.212 -0.3951  0.7854 -0.5152
 5412TIP3    H216243   4.853   2.564   5.110  1.1269 -0.2994 -0.5892
 5413TIP3   OH216244   0.757   5.169   0.619 -0.6510 -0.3782 -0.0782
 5413TIP3    H116245   0.811   5.159   0.540 -0.2387 -0.8446  0.2515
 5413TIP3    H216246   0.787   5.250   0.659  0.1211 -0.8519  0.3293
 5414TIP3   OH216247   0.414   0.424   1.931  0.3165 -0.4932  0.2039
 5414TIP3    H116248   0.419   0.414   2.026  0.5557 -2.8351 -0.0199
 5414TIP3    H216249   0.341   0.369   1.904 -0.5174  1.0695 -0.8847
 5415TIP3   OH216250   0.230   3.044   4.623 -0.5695 -0.5978  0.5308
 5415TIP3    H116251   0.208   2.987   4.696 -1.0851  0.9360  1.6335
 5415TIP3    H216252   0.274   3.119   4.664  1.2722 -0.7577 -0.9906
 5416TIP3   OH216253   3.482   5.756   2.821  0.5429  0.0948 -0.1450
 5416TIP3    H116254   3.496   5.724   2.732 -0.7523  1.0951 -0.7447
 5416TIP3    H216255   3.555   5.816   2.836 -0.2296  1.3670 -1.2754
 5417TIP3   OH216256   5.569   5.805   4.000 -0.4647  0.4718  0.0275
 5417TIP3    H116257   5.482   5.787   3.965 -1.2805 -0.8399  2.4458
 5417TIP3    H216258   5.553   5.830   4.091  1.6208  1.7487  0.1207
 5418TIP3   OH216259   3.619   1.147   5.056 -0.0500  0.1215  0.2609
 5418TIP3    H116260   3.553   1.105   5.111  0.6641  0.3133  1.2899
 5418TIP3    H216261   3.590   1.238   5.049  0.1815  0.2427  0.8400
 5419TIP3   OH216262   5.530   4.617   3.588  0.3037  0.3275  0.2801
 5419TIP3    H116263   5.465   4.660   3.532 -1.1775  1.1341  2.4654
 5419TIP3    H216264   5.612   4.622   3.539 -0.7475  1.6528 -1.4532
 5420TIP3   OH216265   3.109   5.228   0.831 -0.1692  0.2377  0.4050
 5420TIP3    H116266   3.156   5.168   0.773  2.0941  2.6976 -0.4989
 5420TIP3    H216267   3.084   5.301   0.775  0.4150  1.8423  2.1363
 5421TIP3   OH216268   2.919   5.390   1.353 -0.3361  0.0334  0.4703
 5421TIP3    H116269   2.911   5.299   1.380  1.8122 -0.1859  0.5276
 5421TIP3    H216270   2.973   5.431   1.421 -1.2788  1.3801  0.4657
 5422TIP3   OH216271   1.610   4.680   1.212  0.4632  0.1887  0.0507
 5422TIP3    H116272   1.615   4.658   1.119  0.9150  2.0118 -0.3928
 5422TIP3    H216273   1.518   4.665   1.235  0.1604  0.4942 -0.8995
 5423TIP3   OH216274   2.050   0.805   0.308  0.4842 -0.2032 -0.2283
 5423TIP3    H116275   2.056   0.867   0.235  1.4489  0.3622  0.3064
 5423TIP3    H216276   2.082   0.722   0.272 -0.5240 -0.3393 -0.8637
 5424TIP3   OH216277   3.189   2.398   4.444 -0.3206 -0.1763  0.3179
 5424TIP3    H116278   3.212   2.384   4.352 -0.0250  0.1812  0.3332
 5424TIP3    H216279   3.269   2.375   4.492 -0.5074 -0.4595  0.4925
 5425TIP3   OH216280   3.057   5.594   1.136 -0.9895  0.4721  0.1256
 5425TIP3    H116281   3.044   5.679   1.177 -1.6122  1.3924 -1.8259
 5425TIP3    H216282   3.032   5.531   1.203  0.2436  1.7635  1.8941
 5426TIP3   OH216283   3.799   2.172   3.225  0.2543 -1.1072 -0.1134
 5426TIP3    H116284   3.865   2.147   3.161  0.5794 -1.4322  0.3369
 5426TIP3    H216285   3.801   2.102   3.290  0.4830 -0.3958  0.6612
 5427TIP3   OH216286   4.821   1.859   2.512  0.0537 -0.2278  0.6968
 5427TIP3    H116287   4.908   1.824   2.531 -1.2882 -3.1871  1.9927
 5427TIP3    H216288   4.807   1.842   2.419  1.1815  1.1512  0.2500
 5428TIP3   OH216289   3.340   3.333   4.577  0.1353  0.0476  0.5356
 5428TIP3    H116290   3.390   3.299   4.651 -1.1627 -2.0337  0.5559
 5428TIP3    H216291   3.285   3.259   4.549  0.5503  0.7254 -2.5076
 5429TIP3   OH216292   3.489   1.272   4.766 -0.0987 -0.1189 -0.3113
 5429TIP3    H116293   3.460   1.184   4.789 -1.1505  0.1496 -0.5383
 5429TIP3    H216294   3.584   1.270   4.775 -0.2268 -0.8783  1.0663
 5430TIP3   OH216295   1.965   4.816   1.503 -0.0135 -0.0289  0.1242
 5430TIP3    H116296   2.060   4.818   1.513  0.1650  0.7468 -1.4565
 5430TIP3    H216297   1.937   4.906   1.519 -0.2898  0.0975 -1.0252
 5431TIP3   OH216298   3.365   1.976   3.045 -0.0326 -0.6595  0.2421
 5431TIP3    H116299   3.385   2.068   3.030  0.1139 -0.9817 -1.9025
 5431TIP3    H216300   3.269   1.971   3.043 -0.0241 -0.7313 -1.2153
 5432TIP3   OH216301   2.562   5.159   3.551 -0.1462  0.2067 -0.1490
 5432TIP3    H116302   2.500   5.208   3.496 -1.3654  0.7010  1.5982
 5432TIP3    H216303   2.608   5.102   3.489 -1.9033  0.2804 -1.6128
 5433TIP3   OH216304   5.120   0.113   3.238 -0.5332  0.1517  0.1574
 5433TIP3    H116305   5.040   0.086   3.283  0.8814 -1.9586  1.5818
 5433TIP3    H216306   5.130   0.050   3.167 -0.5203  0.9221 -0.5504
 5434TIP3   OH216307   2.965   4.850   2.146  0.1565  0.2993 -0.6043
 5434TIP3    H116308   3.047   4.808   2.119  0.1246  0.0575 -0.3278
 5434TIP3    H216309   2.951   4.820   2.235 -0.6451 -0.2723 -0.9200
 5435TIP3   OH216310   4.672   2.243   3.550 -0.0271 -0.2137 -0.1887
 5435TIP3    H116311   4.735   2.282   3.610 -0.1198 -0.1195 -0.1528
 5435TIP3    H216312   4.615   2.315   3.524 -1.6329 -0.7410  1.6658
 5436TIP3   OH216313   5.530   2.157   0.845  0.2904  0.3999  0.2395
 5436TIP3    H116314   5.606   2.211   0.824  2.1346 -1.5162  1.5060
 5436TIP3    H216315   5.509   2.111   0.763  0.7221  0.6886 -0.0327
 5437TIP3   OH216316   5.795   1.264   3.895 -0.2864 -0.0009  0.3369
 5437TIP3    H116317   5.741   1.215   3.832  0.2104  1.2209 -1.1075
 5437TIP3    H216318   5.758   1.353   3.893 -0.0218  0.1468  1.5243
 5438TIP3   OH216319   1.815   3.214   1.342  0.2767 -0.5655 -0.4040
 5438TIP3    H116320   1.846   3.126   1.323  1.1147 -0.5685  0.8488
 5438TIP3    H216321   1.885   3.271   1.311  1.2300 -0.5297  1.6346
 5439TIP3   OH216322   1.360   4.978   5.020 -0.4414 -0.8229 -0.3066
 5439TIP3    H116323   1.404   5.062   5.029  0.0861 -0.8064 -2.5262
 5439TIP3    H216324   1.287   4.982   5.082  0.1239  0.8731  0.3053
 5440TIP3   OH216325   2.008   4.472   1.338  0.3462  0.0398  0.6795
 5440TIP3    H116326   1.937   4.484   1.401 -0.8554 -0.2294 -0.5738
 5440TIP3    H216327   1.998   4.381   1.307  0.0689  0.5483 -0.8382
 5441TIP3   OH216328   5.030   4.728   2.828 -0.1029  0.3567  0.0247
 5441TIP3    H116329   5.008   4.638   2.802  0.2960  0.9131 -2.5416
 5441TIP3    H216330   4.945   4.770   2.843 -0.4479  0.2305 -1.4369
 5442TIP3   OH216331   0.760   5.551   0.473 -0.0190  0.1353  0.4130
 5442TIP3    H116332   0.733   5.618   0.411  0.4524  0.4004  0.4886
 5442TIP3    H216333   0.775   5.473   0.420  0.5022  0.3952  0.1701
 5443TIP3   OH216334   5.931   5.569   4.599 -0.3319  0.7519 -0.1433
 5443TIP3    H116335   6.022   5.540   4.598 -0.5235  0.1345 -0.7452
 5443TIP3    H216336   5.930   5.646   4.542 -0.1707  0.8052 -0.0733
 5444TIP3   OH216337   3.113   3.102   2.010  0.5112  0.1225  0.5870
 5444TIP3    H116338   3.170   3.070   2.081 -1.1365 -0.1060  1.8574
 5444TIP3    H216339   3.136   3.047   1.935  3.0763  1.0880  0.5496
 5445TIP3   OH216340   1.230   4.157   1.742 -0.3322  1.0043 -0.1958
 5445TIP3    H116341   1.307   4.200   1.778  1.3000 -1.4166 -0.6083
 5445TIP3    H216342   1.202   4.215   1.671  1.2970  1.7885 -0.2479
 5446TIP3   OH216343   5.761   5.947   0.963 -0.6412 -0.2057 -0.1443
 5446TIP3    H116344   5.728   5.901   0.886 -1.4967  0.8798 -0.4479
 5446TIP3    H216345   5.706   5.916   1.035 -0.0892 -0.9334 -0.0244
 5447TIP3   OH216346   2.893   4.157   4.227  0.2530  0.1838  0.0704
 5447TIP3    H116347   2.828   4.092   4.255  0.4225  0.4475  1.1273
 5447TIP3    H216348   2.849   4.208   4.159 -0.3104 -0.2512  0.1054
 5448TIP3   OH216349   5.693   4.388   0.563  0.0380  0.2003  0.3078
 5448TIP3    H116350   5.753   4.368   0.635 -0.0129  0.8858  0.5474
 5448TIP3    H216351   5.745   4.439   0.501  0.1012 -0.4523 -0.1821
 5449TIP3   OH216352   3.833   1.197   2.343  0.3133  0.3055  0.9761
 5449TIP3    H116353   3.839   1.288   2.316  2.7592  0.5428  2.0390
 5449TIP3    H216354   3.739   1.180   2.351 -0.2738  2.0794 -1.1979
 5450TIP3   OH216355   1.961  -0.021   2.594 -0.1998  0.1584  0.1212
 5450TIP3    H116356   1.975   0.065   2.633 -1.7259 -0.0163  1.1726
 5450TIP3    H216357   1.900  -0.004   2.522 -0.1331  0.0218  0.0337
 5451TIP3   OH216358   5.380   3.939   2.711  0.3546  0.2279  0.1586
 5451TIP3    H116359   5.427   3.901   2.785 -0.5915  1.2840  1.3595
 5451TIP3    H216360   5.446   3.990   2.664  0.6040  1.0879  1.3828
 5452TIP3   OH216361   1.547   2.100   1.728 -0.5378 -0.2586 -0.3315
 5452TIP3    H116362   1.475   2.151   1.764  0.0141  0.8812 -0.8038
 5452TIP3    H216363   1.532   2.101   1.634  0.4581  0.5862 -0.4977
 5453TIP3   OH216364   4.921   1.437   1.006  0.1989 -0.5591 -0.1859
 5453TIP3    H116365   4.916   1.420   0.912  1.7039 -0.5646 -0.2904
 5453TIP3    H216366   5.001   1.393   1.035 -0.5526 -1.0776  1.2280
 5454TIP3   OH216367   1.020   0.368   3.461  0.6607 -0.0156  0.5345
 5454TIP3    H116368   0.985   0.282   3.484  0.8570 -0.8206 -1.9531
 5454TIP3    H216369   1.112   0.364   3.485  0.4748 -0.1665  1.2416
 5455TIP3   OH216370   4.717   2.611   0.880 -0.3072 -0.6298 -0.0038
 5455TIP3    H116371   4.660   2.542   0.848  0.5890 -0.4149 -2.2732
 5455TIP3    H216372   4.660   2.668   0.932 -1.8007 -1.2481 -0.9106
 5456TIP3   OH216373   5.918   1.488   4.853 -0.2757  0.1581 -1.1572
 5456TIP3    H116374   5.990   1.445   4.806 -1.2322 -0.8142 -1.7894
 5456TIP3    H216375   5.904   1.570   4.805  0.3714  0.3227 -1.0655
 5457TIP3   OH216376   4.044   0.179   3.646  0.3056  0.1450 -0.2943
 5457TIP3    H116377   3.972   0.199   3.705  0.2076 -1.0881  0.0341
 5457TIP3    H216378   4.015   0.102   3.597  0.7689  0.5814 -1.2885
 5458TIP3   OH216379   4.908   0.504   0.628 -0.0442  0.2741 -0.1103
 5458TIP3    H116380   4.964   0.432   0.599 -2.4918 -1.1601 -1.5917
 5458TIP3    H216381   4.837   0.507   0.564 -3.1530  0.1731  3.0199
 5459TIP3   OH216382   0.393   2.401   3.000  0.1279 -0.8719 -0.1774
 5459TIP3    H116383   0.332   2.458   2.951 -0.1820 -0.5226  0.5947
 5459TIP3    H216384   0.370   2.313   2.972 -0.1992 -0.6923 -0.4956
 5460TIP3   OH216385   3.283   3.507   2.869 -0.8910  0.2010 -0.1275
 5460TIP3    H116386   3.364   3.456   2.866 -0.9074  0.0877  0.9049
 5460TIP3    H216387   3.313   3.598   2.873 -0.8452  0.2294 -0.9233
 5461TIP3   OH216388   5.481   2.437   3.414 -0.7873  0.1060 -0.5737
 5461TIP3    H116389   5.526   2.370   3.362  1.6724  0.5240  0.8456
 5461TIP3    H216390   5.550   2.499   3.437 -1.1431 -1.0065  4.7495
 5462TIP3   OH216391   4.130   0.309   2.030  0.2506  0.5855  0.0889
 5462TIP3    H116392   4.167   0.298   2.118 -0.6594  0.0036  0.4175
 5462TIP3    H216393   4.037   0.289   2.041  0.2762 -0.3364 -1.1724
 5463TIP3   OH216394   2.255   5.747   0.578  0.6707  0.0850 -0.4519
 5463TIP3    H116395   2.327   5.729   0.638  0.4620 -1.5007 -0.6365
 5463TIP3    H216396   2.178   5.758   0.635  0.8235  0.5595 -0.3306
 5464TIP3   OH216397   3.485   4.796   4.389  0.3009  0.3537  0.6779
 5464TIP3    H116398   3.416   4.838   4.439 -0.4960  0.0749 -0.1680
 5464TIP3    H216399   3.552   4.775   4.454 -0.5329  0.3562  1.5601
 5465TIP3   OH216400   3.070   0.122   1.718  0.0382 -0.4106  0.3827
 5465TIP3    H116401   3.129   0.121   1.643  0.2104  0.8128  0.4815
 5465TIP3    H216402   2.989   0.159   1.684  0.8318  2.3766  1.2432
 5466TIP3   OH216403   2.350   3.414   3.428  0.0033 -0.6864 -0.1000
 5466TIP3    H116404   2.320   3.503   3.447 -3.3677 -0.6774 -4.0829
 5466TIP3    H216405   2.288   3.358   3.475  0.2995 -0.8748  0.0631
 5467TIP3   OH216406   4.108   4.419   4.002  0.3592 -0.3725 -0.5210
 5467TIP3    H116407   4.198   4.444   4.024  0.2480 -0.3629 -0.0609
 5467TIP3    H216408   4.116   4.330   3.967  0.5438 -0.3885 -0.4409
 5468TIP3   OH216409   0.599   1.808   1.728 -0.6220  0.6895 -0.4342
 5468TIP3    H116410   0.679   1.758   1.750 -2.1686 -2.0244 -0.5245
 5468TIP3    H216411   0.564   1.834   1.813 -0.7242  0.0228 -0.2628
 5469TIP3   OH216412   3.432   5.110   1.668 -0.6218  0.5952 -0.1094
 5469TIP3    H116413   3.483   5.183   1.704 -1.6963  1.3637 -0.0858
 5469TIP3    H216414   3.489   5.034   1.677 -0.3678  0.9867  2.0670
 5470TIP3   OH216415   4.432   3.793   3.698 -0.0714  0.2342 -0.2271
 5470TIP3    H116416   4.450   3.831   3.784  2.6037  0.4912 -0.8383
 5470TIP3    H216417   4.462   3.702   3.705 -0.6598  0.0020 -0.6407
 5471TIP3   OH216418   5.714   2.299   0.150  0.0831  0.2613  0.1818
 5471TIP3    H116419   5.775   2.240   0.105 -1.6025 -1.0663 -0.5108
 5471TIP3    H216420   5.765   2.337   0.221  1.3283 -1.9305  0.5669
 5472TIP3   OH216421   0.038   2.717   1.202  0.0437 -0.3498 -0.1010
 5472TIP3    H116422   0.047   2.754   1.290 -2.7279  0.3300 -0.0022
 5472TIP3    H216423   0.070   2.627   1.210  0.5338 -0.0768  1.3889
 5473TIP3   OH216424   2.293   5.964   1.817  0.1631  0.7252  0.2723
 5473TIP3    H116425   2.206   5.998   1.835 -0.2225 -0.7035  1.2161
 5473TIP3    H216426   2.286   5.923   1.730  0.0305  1.0323  0.1377
 5474TIP3   OH216427   3.789   1.730   1.240  0.0882 -0.2071  0.2527
 5474TIP3    H116428   3.803   1.690   1.155  0.7145 -0.0474  0.2722
 5474TIP3    H216429   3.739   1.809   1.222 -0.3072 -0.4898  0.1051
 5475TIP3   OH216430   1.564   0.840   3.428 -0.1279 -0.0266 -0.1194
 5475TIP3    H116431   1.492   0.823   3.487 -1.1483 -0.7488 -1.5155
 5475TIP3    H216432   1.568   0.936   3.420 -1.6186 -0.0030 -0.8158
 5476TIP3   OH216433   3.054   5.271   3.895 -0.1471 -0.3348 -0.3690
 5476TIP3    H116434   3.013   5.232   3.819 -0.0506  1.0190 -1.1462
 5476TIP3    H216435   3.120   5.331   3.859  1.8180 -1.6659  0.8156
 5477TIP3   OH216436   1.812   2.337   1.424 -0.4365 -0.5160  0.1349
 5477TIP3    H116437   1.784   2.331   1.515 -1.3134 -1.6987 -0.1882
 5477TIP3    H216438   1.731   2.351   1.375 -0.0072 -0.1788 -0.4826
 5478TIP3   OH216439   0.198   5.233   1.889 -0.4354  0.1102 -0.0913
 5478TIP3    H116440   0.258   5.256   1.960  1.6932 -0.8430 -1.4884
 5478TIP3    H216441   0.233   5.278   1.812 -1.6909 -0.2514 -0.8979
 5479TIP3   OH216442   0.512   4.435   4.583  0.1985 -0.0945 -0.0018
 5479TIP3    H116443   0.554   4.476   4.659  1.1505  0.2783 -0.7119
 5479TIP3    H216444   0.471   4.508   4.536  0.6367 -0.1603 -0.4863
 5480TIP3   OH216445   2.431   3.629   4.341  0.2396 -0.4468 -0.4760
 5480TIP3    H116446   2.473   3.682   4.273  0.0020  1.2067  0.6103
 5480TIP3    H216447   2.353   3.593   4.299 -0.7597  1.8297 -0.6947
 5481TIP3   OH216448   3.578   2.708   5.180  0.3079 -0.4505  0.9083
 5481TIP3    H116449   3.509   2.774   5.185 -2.4136 -3.0084 -0.0256
 5481TIP3    H216450   3.613   2.717   5.091  0.4376  0.1332  1.0127
 5482TIP3   OH216451   4.789   4.866   2.964 -0.0326  0.3363 -0.5421
 5482TIP3    H116452   4.713   4.871   3.022 -0.2405  0.1612 -0.8002
 5482TIP3    H216453   4.753   4.873   2.876  0.1726 -0.4746 -0.6937
 5483TIP3   OH216454   2.545   1.486   2.468 -0.1780  0.1049 -0.1907
 5483TIP3    H116455   2.521   1.576   2.445 -1.3540  0.5817  2.5544
 5483TIP3    H216456   2.465   1.436   2.455  0.1334 -0.3174 -0.5222
 5484TIP3   OH216457   4.622   5.604   2.232  0.6892  0.2150  0.2890
 5484TIP3    H116458   4.561   5.668   2.269 -0.5358  0.4095 -1.9220
 5484TIP3    H216459   4.706   5.649   2.233  0.1456  1.2847  0.1985
 5485TIP3   OH216460   3.430   4.791   3.059 -0.4019 -0.0247 -0.0317
 5485TIP3    H116461   3.476   4.771   2.977 -1.2528  2.2145 -1.1513
 5485TIP3    H216462   3.345   4.749   3.050 -0.1007 -0.6883  0.1925
 5486TIP3   OH216463   2.922   2.438   2.198  0.1372 -0.0830  0.0118
 5486TIP3    H116464   2.911   2.495   2.275  1.9184  2.3713 -1.3752
 5486TIP3    H216465   3.000   2.386   2.218 -1.5275 -2.2642  1.3075
 5487TIP3   OH216466   3.661   5.364   3.213  0.1357 -0.7955  0.5338
 5487TIP3    H116467   3.668   5.414   3.294 -2.7062  0.5204  0.0587
 5487TIP3    H216468   3.574   5.324   3.216  0.3353 -1.5126 -1.4344
 5488TIP3   OH216469   3.963   1.713   4.753  0.3618  0.3247  0.2662
 5488TIP3    H116470   3.911   1.640   4.787  0.5890  0.2798  0.5190
 5488TIP3    H216471   3.900   1.784   4.741  0.2428  0.2717  0.5792
 5489TIP3   OH216472   1.460   0.803   2.084 -0.1592 -0.0364  0.8363
 5489TIP3    H116473   1.373   0.769   2.102 -0.7243  0.4310 -0.7926
 5489TIP3    H216474   1.489   0.842   2.166 -1.7909  0.4530  1.2071
 5490TIP3   OH216475   5.333   1.266   4.239  0.5438  0.3616 -0.1160
 5490TIP3    H116476   5.425   1.273   4.265  1.0117  0.4539 -1.6554
 5490TIP3    H216477   5.324   1.330   4.168 -0.6044  0.0563 -0.2619
 5491TIP3   OH216478   5.149   0.451   2.137  0.2592 -0.2446 -0.3412
 5491TIP3    H116479   5.067   0.496   2.117  0.3419  0.5343  0.9655
 5491TIP3    H216480   5.211   0.521   2.158  1.0558 -0.8640 -0.5646
 5492TIP3   OH216481   4.964   5.126   4.168  0.2917  0.2565 -0.5298
 5492TIP3    H116482   5.039   5.110   4.226  0.8536 -1.0541 -1.5607
 5492TIP3    H216483   4.894   5.073   4.205  0.3753  0.1638 -0.5022
 5493TIP3   OH216484   1.433   1.513   0.772  0.2996  0.7061  0.3303
 5493TIP3    H116485   1.520   1.552   0.770  1.0319 -0.8571 -0.0946
 5493TIP3    H216486   1.378   1.573   0.721  1.6460  0.5608 -1.3832
 5494TIP3   OH216487   1.762   4.774   0.424 -0.2273 -0.5818  0.0970
 5494TIP3    H116488   1.700   4.800   0.356 -0.3498 -1.4748 -0.1489
 5494TIP3    H216489   1.737   4.684   0.445 -0.3700 -0.2165  1.5399
 5495TIP3   OH216490   3.962   0.783   2.514 -0.6658  0.2972  0.0057
 5495TIP3    H116491   3.881   0.775   2.463 -0.7503  2.2155 -0.2161
 5495TIP3    H216492   3.956   0.868   2.556  1.3797  0.6174 -0.2498
 5496TIP3   OH216493   4.303   1.100   1.025  0.4459 -0.0680  0.6780
 5496TIP3    H116494   4.307   1.090   1.120 -0.1528 -0.3682  0.6779
 5496TIP3    H216495   4.345   1.184   1.008 -2.9619  2.0128  1.6109
 5497TIP3   OH216496   6.345   1.270   2.428  0.8464  0.1353 -0.2595
 5497TIP3    H116497   6.324   1.287   2.520 -0.8973  1.3029 -0.8305
 5497TIP3    H216498   6.331   1.176   2.417 -2.8499  0.5361 -0.1824
 5498TIP3   OH216499   6.007   4.868   0.257  0.2557  0.1923 -0.0678
 5498TIP3    H116500   6.033   4.776   0.257  1.5023  0.4472  2.4532
 5498TIP3    H216501   5.971   4.883   0.345  1.9275  2.5282  0.3077
 5499TIP3   OH216502   6.186   5.298   5.014  0.4191 -0.3377  0.4681
 5499TIP3    H116503   6.197   5.319   5.107  0.9178  0.3946  0.2561
 5499TIP3    H216504   6.099   5.331   4.992 -0.1289 -1.4337  0.9048
 5500TIP3   OH216505   1.211   4.556   2.401 -0.2976  0.0719  0.5289
 5500TIP3    H116506   1.259   4.635   2.425 -1.2998  0.5530  1.0209
 5500TIP3    H216507   1.129   4.563   2.449 -0.7575 -0.8504 -0.1017
 5501TIP3   OH216508   5.953   1.117   3.567 -0.3561  0.2735  0.3109
 5501TIP3    H116509   5.928   1.202   3.533  0.3433  0.2021 -0.3921
 5501TIP3    H216510   6.000   1.074   3.496 -1.3319 -1.0056  0.3871
 5502TIP3   OH216511   3.494   2.337   5.142  0.2409 -0.4439 -0.0558
 5502TIP3    H116512   3.539   2.261   5.179 -0.6768 -1.9098 -1.7777
 5502TIP3    H216513   3.402   2.324   5.166  0.3605  1.5136  1.7848
 5503TIP3   OH216514   1.269   4.749   0.827 -0.4064 -0.3078 -0.5451
 5503TIP3    H116515   1.241   4.818   0.887  0.0430  0.1015 -0.7973
 5503TIP3    H216516   1.237   4.778   0.742  0.1310 -0.1959 -0.7175
 5504TIP3   OH216517   2.884   2.000   3.970 -0.0162  0.2044 -0.3179
 5504TIP3    H116518   2.907   2.041   3.886  1.0155  2.1008  0.7912
 5504TIP3    H216519   2.953   2.031   4.029 -1.3033 -0.2357  1.4534
 5505TIP3   OH216520   3.309   2.944   2.206 -0.7306  0.3010 -0.2710
 5505TIP3    H116521   3.317   2.850   2.187 -0.5229 -0.0044  1.2299
 5505TIP3    H216522   3.229   2.951   2.258  0.6811  0.5259  2.0054
 5506TIP3   OH216523   1.146   4.137   1.051 -0.0459  0.0015 -0.2339
 5506TIP3    H116524   1.079   4.200   1.026 -0.8594 -0.1101  1.5826
 5506TIP3    H216525   1.148   4.074   0.978 -1.8159  0.0778 -0.3807
 5507TIP3   OH216526   0.242   2.055   0.241 -0.2496  0.6586 -0.0237
 5507TIP3    H116527   0.266   2.071   0.332 -1.7240  1.0450  0.3177
 5507TIP3    H216528   0.317   2.086   0.190  0.1428  1.4282  1.0000
 5508TIP3   OH216529   0.727   0.716   0.668 -0.5076  0.2257 -0.4244
 5508TIP3    H116530   0.737   0.621   0.663 -0.3302  0.1453  1.0338
 5508TIP3    H216531   0.797   0.750   0.613  0.2722 -0.4796  0.1075
 5509TIP3   OH216532   0.821   1.238   1.928  0.2720 -0.0442  0.1479
 5509TIP3    H116533   0.874   1.309   1.965  0.9527  0.6877 -2.0940
 5509TIP3    H216534   0.870   1.159   1.948  0.3890  0.2642  1.1539
 5510TIP3   OH216535   6.070   1.255   1.824 -0.5366 -0.3175 -0.1919
 5510TIP3    H116536   6.015   1.331   1.847  1.0001  1.2973 -1.5641
 5510TIP3    H216537   6.008   1.184   1.809 -2.0674  0.7675  0.6883
 5511TIP3   OH216538   1.889   5.127   3.413  0.2290 -1.0976 -0.0974
 5511TIP3    H116539   1.841   5.158   3.490  0.0039 -2.2713  0.2566
 5511TIP3    H216540   1.981   5.129   3.439  0.3374  0.4156 -0.5090
 5512TIP3   OH216541   4.675   2.674   1.504 -0.6596 -0.5476  0.4388
 5512TIP3    H116542   4.720   2.600   1.544 -2.6419 -1.8887  0.3320
 5512TIP3    H216543   4.641   2.639   1.421 -1.7908  0.4019  0.4743
 5513TIP3   OH216544   6.160   1.892   0.006  0.1366 -0.3812  0.4859
 5513TIP3    H116545   6.254   1.899  -0.014 -0.0930 -0.1947 -0.6229
 5513TIP3    H216546   6.150   1.934   0.091  0.9633  0.2278  0.2993
 5514TIP3   OH216547   5.758   1.687   1.253  0.4741  0.0756  0.1420
 5514TIP3    H116548   5.681   1.635   1.230  0.0763  0.7288 -0.0293
 5514TIP3    H216549   5.831   1.641   1.212  0.0475  0.0129 -0.5650
 5515TIP3   OH216550   3.803   3.917   3.714  0.0157 -0.1595 -0.0115
 5515TIP3    H116551   3.808   3.934   3.620  2.7610 -0.9976 -0.1138
 5515TIP3    H216552   3.863   3.980   3.753  0.8211 -1.4276  0.8808
 5516TIP3   OH216553   4.788   5.430   1.726 -0.0318 -0.2134  0.3750
 5516TIP3    H116554   4.727   5.418   1.799 -0.0598 -0.5071  0.3080
 5516TIP3    H216555   4.811   5.523   1.728 -1.0836  0.0719 -0.0630
 5517TIP3   OH216556   2.671   0.798   3.685  0.0229 -0.5034 -0.1496
 5517TIP3    H116557   2.675   0.716   3.635  1.4103  0.7736 -2.2634
 5517TIP3    H216558   2.757   0.805   3.727  0.2685  0.2894 -0.7515
 5518TIP3   OH216559   2.418   1.662   3.540  0.8218  0.5353  0.2319
 5518TIP3    H116560   2.455   1.575   3.525  1.4819  0.6488  1.1237
 5518TIP3    H216561   2.478   1.703   3.602  1.7005  2.4167 -1.7417
 5519TIP3   OH216562   2.226   2.288   2.785 -0.1809 -0.3201 -0.4444
 5519TIP3    H116563   2.243   2.370   2.739 -0.9808 -0.7347 -1.5133
 5519TIP3    H216564   2.245   2.219   2.721 -0.8471 -0.9296 -0.0068
 5520TIP3   OH216565   4.946   4.857   3.650  0.0851  0.0336 -0.4256
 5520TIP3    H116566   4.984   4.904   3.576  0.8665 -0.7996 -0.5764
 5520TIP3    H216567   4.906   4.925   3.705 -0.6484  0.6412 -1.6861
 5521TIP3   OH216568   0.915   0.115   3.547 -0.3326 -0.2944 -0.7420
 5521TIP3    H116569   0.821   0.098   3.539 -0.7722  1.7081 -0.4059
 5521TIP3    H216570   0.943   0.060   3.621 -1.2082 -0.9948 -0.9160
 5522TIP3   OH216571  -0.001   0.929   4.127  0.6735  0.6123 -0.0634
 5522TIP3    H116572   0.001   0.873   4.205  0.1634  1.8496  0.8762
 5522TIP3    H216573   0.064   0.997   4.145  0.7755  0.7399 -0.8724
 5523TIP3   OH216574   4.218   1.085   4.285 -0.0519  0.5641 -0.2471
 5523TIP3    H116575   4.155   1.150   4.255 -0.2622 -0.5088 -2.3209
 5523TIP3    H216576   4.168   1.004   4.292  0.4975  0.2985  0.9597
 5524TIP3   OH216577   2.891   3.864   4.433  0.0101 -0.5497  0.5797
 5524TIP3    H116578   2.830   3.937   4.434  1.4532  0.9750 -3.2707
 5524TIP3    H216579   2.835   3.786   4.436 -1.9308  0.7523  0.1597
 5525TIP3   OH216580   5.711   0.123   4.742  0.1188  0.2735 -0.3379
 5525TIP3    H116581   5.780   0.095   4.681 -0.6876  1.0885 -1.6751
 5525TIP3    H216582   5.630   0.112   4.693 -0.6703 -0.0471  0.9851
 5526TIP3   OH216583   4.263   2.453   5.134 -0.1077 -0.6243 -0.3884
 5526TIP3    H116584   4.291   2.518   5.199 -0.6156 -0.9721  0.1924
 5526TIP3    H216585   4.256   2.502   5.052 -1.4376  0.3068  0.2287
 5527TIP3   OH216586   5.858   4.874   3.595 -0.3288 -0.1825 -0.2753
 5527TIP3    H116587   5.894   4.794   3.557  0.1490 -0.8708  1.5503
 5527TIP3    H216588   5.929   4.938   3.588 -0.2987 -0.2530 -0.6549
 5528TIP3   OH216589   0.306   4.195   2.571  0.0057 -0.2628  0.1796
 5528TIP3    H116590   0.274   4.283   2.594  1.4402  1.0762 -2.4784
 5528TIP3    H216591   0.295   4.190   2.476  2.3193 -1.9750 -0.0644
 5529TIP3   OH216592   0.816   4.395   1.298  0.0117  0.0535  0.5427
 5529TIP3    H116593   0.768   4.316   1.276 -0.6827  0.7714 -0.6264
 5529TIP3    H216594   0.841   4.383   1.390 -2.3757 -0.3798  1.2038
 5530TIP3   OH216595   6.254   0.131   4.463 -0.2773  0.4802 -0.3373
 5530TIP3    H116596   6.191   0.202   4.447 -1.5823 -0.5411  0.0802
 5530TIP3    H216597   6.264   0.089   4.377  0.4717  1.1284 -0.5775
 5531TIP3   OH216598   1.963   1.176   1.083  0.4398 -0.3239  0.0689
 5531TIP3    H116599   1.883   1.129   1.063  0.5225 -0.5931  0.3612
 5531TIP3    H216600   1.937   1.268   1.088  0.4568 -0.2106 -1.4991
 5532TIP3   OH216601   4.602   2.567   3.960  0.0425 -0.3772  0.0063
 5532TIP3    H116602   4.692   2.600   3.961  0.3400 -1.1148  1.9962
 5532TIP3    H216603   4.612   2.474   3.940 -0.2631 -0.4663  0.2622
 5533TIP3   OH216604   1.243   3.581   3.095  0.4138  0.0603  0.0001
 5533TIP3    H116605   1.193   3.589   3.177 -1.8744 -1.8262 -1.0905
 5533TIP3    H216606   1.184   3.534   3.036  2.1522  0.9789 -2.6264
 5534TIP3   OH216607   4.650   3.379   2.191  0.3118  0.8866  0.2800
 5534TIP3    H116608   4.710   3.334   2.250 -0.5764 -2.1634 -0.9372
 5534TIP3    H216609   4.693   3.377   2.106 -1.2227 -1.0937 -0.5501
 5535TIP3   OH216610   0.557   4.126   2.673  0.2544  0.1086  0.1925
 5535TIP3    H116611   0.642   4.169   2.679  0.0537  0.3504  1.5003
 5535TIP3    H216612   0.515   4.167   2.597 -0.1707  2.6950  1.7198
 5536TIP3   OH216613   0.845   0.087   2.375 -0.1354 -0.2171  0.1250
 5536TIP3    H116614   0.841   0.106   2.281 -0.1606  0.1998  0.2062
 5536TIP3    H216615   0.866   0.172   2.416  0.5165 -0.5249  0.4456
 5537TIP3   OH216616   4.521   5.647   5.037 -0.2538  0.2575  0.3119
 5537TIP3    H116617   4.428   5.670   5.039 -0.6995 -1.4726  1.3506
 5537TIP3    H216618   4.535   5.610   4.950 -1.3489 -2.3983  1.1844
 5538TIP3   OH216619   5.748   2.826   2.088  0.4157 -0.4663 -0.2804
 5538TIP3    H116620   5.840   2.817   2.110  0.7369  0.8867 -1.0075
 5538TIP3    H216621   5.707   2.859   2.168  0.8288  0.3430 -0.3953
 5539TIP3   OH216622   4.292   4.344   2.520 -0.5383 -0.4958 -0.0240
 5539TIP3    H116623   4.306   4.428   2.563 -1.8095 -0.8627  1.1896
 5539TIP3    H216624   4.273   4.366   2.429 -1.1647  0.5641  0.3479
 5540TIP3   OH216625   3.284   0.343   4.785  0.0126  0.1458 -0.5287
 5540TIP3    H116626   3.235   0.261   4.792  1.9178 -0.9906  0.3748
 5540TIP3    H216627   3.374   0.315   4.767  1.2277  1.8512  2.1863
 5541TIP3   OH216628   1.391   2.877   1.649  0.1269  0.1541  0.4030
 5541TIP3    H116629   1.451   2.900   1.579 -0.2604  1.0574  0.3632
 5541TIP3    H216630   1.317   2.837   1.605  0.1452  0.1794  0.3489
 5542TIP3   OH216631   1.348   2.840   0.037 -0.4919 -0.5121  0.2350
 5542TIP3    H116632   1.344   2.777  -0.035 -0.0051 -0.1831 -0.0812
 5542TIP3    H216633   1.259   2.876   0.042  0.3927  2.7771 -3.1931
 5543TIP3   OH216634   1.103   3.569   4.103  0.3000 -0.2091 -0.2571
 5543TIP3    H116635   1.058   3.568   4.188 -1.2851 -0.4288 -1.0549
 5543TIP3    H216636   1.126   3.661   4.089 -1.2858  0.1852 -0.4859
 5544TIP3   OH216637   4.788   5.898   2.039  0.4428  0.5462 -0.3922
 5544TIP3    H116638   4.874   5.858   2.049  0.1035 -0.0718  0.1336
 5544TIP3    H216639   4.806   5.988   2.014  1.2243 -0.0482 -2.1642
 5545TIP3   OH216640   1.568   3.245   2.983  0.1592 -0.3252  0.6186
 5545TIP3    H116641   1.563   3.335   3.015  0.1468  0.1775 -0.7052
 5545TIP3    H216642   1.498   3.198   3.029 -1.7977  1.0545 -0.7942
 5546TIP3   OH216643   3.337   2.903   0.951 -0.5883 -0.1283 -0.3251
 5546TIP3    H116644   3.246   2.877   0.940 -0.5275 -1.1700  1.2357
 5546TIP3    H216645   3.341   2.938   1.040  0.6059 -0.5303 -0.2037
 5547TIP3   OH216646   1.869   0.989   4.880 -0.4802  0.4835  0.1177
 5547TIP3    H116647   1.906   0.963   4.796 -0.5095 -2.3264  0.8750
 5547TIP3    H216648   1.850   1.083   4.870  2.6882  1.0786 -1.7885
 5548TIP3   OH216649   4.836   0.567   3.907  0.8188  0.0531 -0.2155
 5548TIP3    H116650   4.822   0.610   3.991  2.7516  0.6275 -0.1367
 5548TIP3    H216651   4.822   0.636   3.842  1.3797  0.1562 -0.2331
 5549TIP3   OH216652   1.485   3.043   3.342  0.1030 -0.3225  0.0133
 5549TIP3    H116653   1.390   3.047   3.358 -0.2519 -2.3381 -1.1368
 5549TIP3    H216654   1.492   3.023   3.249  1.5718 -1.9651  0.4344
 5550TIP3   OH216655   5.923   0.754   1.062  0.1157 -0.3249  0.2981
 5550TIP3    H116656   5.871   0.718   0.990  2.0060 -1.1681 -0.6912
 5550TIP3    H216657   5.906   0.848   1.059 -0.5576 -0.4615 -0.6473
 5551TIP3   OH216658   4.202   4.106   4.323 -0.3066  0.5791  0.0381
 5551TIP3    H116659   4.127   4.074   4.372 -1.1578  0.8059 -1.0850
 5551TIP3    H216660   4.270   4.041   4.338 -0.6919  0.3919  1.0993
 5552TIP3   OH216661   0.319   5.710   4.270 -0.0393  0.0589 -0.0037
 5552TIP3    H116662   0.228   5.683   4.257  0.1850 -1.9517  1.8815
 5552TIP3    H216663   0.316   5.769   4.345  0.3777 -2.0330  1.7702
 5553TIP3   OH216664   1.346   1.003   1.919  0.6240 -0.5428  0.2068
 5553TIP3    H116665   1.322   0.916   1.888  3.1642 -0.8280 -1.2562
 5553TIP3    H216666   1.425   0.990   1.971  3.0908  1.0639 -2.7765
 5554TIP3   OH216667   4.206   5.562   4.543 -0.4737  0.6267  0.2813
 5554TIP3    H116668   4.285   5.513   4.520 -0.1318  2.0269 -1.7642
 5554TIP3    H216669   4.238   5.642   4.585 -0.7660  1.3746 -0.8995
 5555TIP3   OH216670   1.103   3.302   0.438 -0.0138 -0.0407  0.5711
 5555TIP3    H116671   1.099   3.236   0.368 -0.8632  0.9767 -0.3614
 5555TIP3    H216672   1.012   3.313   0.465 -0.1230  1.9086 -0.4244
 5556TIP3   OH216673   1.585   4.580   0.426  0.1378  0.0567 -0.4981
 5556TIP3    H116674   1.515   4.557   0.365 -0.3227 -2.1225  0.7789
 5556TIP3    H216675   1.608   4.498   0.469 -0.6108  1.6623  3.3689
 5557TIP3   OH216676   5.046   5.151   3.499 -0.1380 -0.1398  0.4072
 5557TIP3    H116677   5.136   5.133   3.471 -0.2792 -0.3975  0.1235
 5557TIP3    H216678   5.056   5.218   3.567  0.2455  0.0435  0.1733
 5558TIP3   OH216679   1.119   3.835   3.992 -0.7110 -0.4529 -0.5270
 5558TIP3    H116680   1.190   3.871   4.046 -0.0212 -0.8616 -1.1387
 5558TIP3    H216681   1.039   3.867   4.034 -0.2024 -0.8365  0.7934
 5559TIP3   OH216682   5.398   4.009   4.580 -0.0089 -0.0048  0.1908
 5559TIP3    H116683   5.344   4.068   4.632  0.3111 -0.7093  1.3797
 5559TIP3    H216684   5.405   3.930   4.634  5.6746  1.4575  2.1963
 5560TIP3   OH216685   5.195   1.455   2.685  0.3583 -0.3836 -0.7594
 5560TIP3    H116686   5.285   1.474   2.660 -0.3675  1.0345 -2.4634
 5560TIP3    H216687   5.159   1.539   2.713 -0.2058 -1.0957  0.7857
 5561TIP3   OH216688   1.336   1.869   1.045 -0.1572  0.7071  0.2932
 5561TIP3    H116689   1.245   1.841   1.042  0.2023 -0.4393 -1.5776
 5561TIP3    H216690   1.375   1.816   1.114 -0.1633 -1.4073 -1.2440
 5562TIP3   OH216691   1.366   5.997   1.687 -0.1792 -0.1908  0.0327
 5562TIP3    H116692   1.352   5.907   1.658 -1.7092 -0.2770  0.9198
 5562TIP3    H216693   1.441   5.991   1.747 -1.2209 -1.1800  1.2918
 5563TIP3   OH216694   0.861   3.649   2.120  0.3902  0.5505  0.5375
 5563TIP3    H116695   0.915   3.632   2.197  0.3460 -0.7286  0.3080
 5563TIP3    H216696   0.799   3.577   2.118  1.8322 -0.7793 -1.9502
 5564TIP3   OH216697   3.174   5.088   4.298 -0.2088  0.3294 -0.0824
 5564TIP3    H116698   3.196   5.019   4.235 -1.2490  1.0565 -1.2960
 5564TIP3    H216699   3.091   5.060   4.337  0.5823 -0.2695  1.2456
 5565TIP3   OH216700   4.188  -0.009   0.661  0.3379 -0.3593 -0.1642
 5565TIP3    H116701   4.249   0.031   0.723  1.3264 -0.4137 -1.0722
 5565TIP3    H216702   4.220   0.018   0.575 -2.3557  1.6742 -0.6527
 5566TIP3   OH216703   4.698   0.027   4.707  0.1628  0.4046  0.3727
 5566TIP3    H116704   4.636  -0.046   4.712  0.9415 -0.2719  0.5374
 5566TIP3    H216705   4.683   0.066   4.621 -0.2552  0.0368  0.2768
 5567TIP3   OH216706   2.031   3.898   1.073  0.0824  0.4385  0.3385
 5567TIP3    H116707   2.001   3.951   1.147 -1.4738  0.9451 -0.6035
 5567TIP3    H216708   2.121   3.874   1.095 -0.9156 -0.9963  3.2468
 5568TIP3   OH216709   5.552   2.655   4.702 -0.0644  0.0795 -0.3300
 5568TIP3    H116710   5.624   2.623   4.647  0.2471 -1.9988  1.1612
 5568TIP3    H216711   5.474   2.645   4.647  0.5106  0.4916 -1.2660
 5569TIP3   OH216712   3.978   5.480   2.101  0.1131 -0.0340 -0.1348
 5569TIP3    H116713   4.036   5.520   2.166  1.2790 -1.1964 -0.4158
 5569TIP3    H216714   4.037   5.433   2.042 -1.0787 -0.7818 -0.7727
 5570TIP3   OH216715   5.749   1.055   2.337  0.2579 -0.0758  0.2326
 5570TIP3    H116716   5.843   1.056   2.357  0.6104 -0.3033 -1.2254
 5570TIP3    H216717   5.746   1.070   2.242 -1.2360  0.8390  0.4025
 5571TIP3   OH216718   3.304   2.219   3.628 -0.0333  0.0359 -0.0676
 5571TIP3    H116719   3.308   2.310   3.599  0.1416 -0.5053 -1.8860
 5571TIP3    H216720   3.303   2.168   3.547  1.7858 -1.6655  0.8758
 5572TIP3   OH216721   3.179   0.995   1.826  0.1322 -0.0371 -0.0301
 5572TIP3    H116722   3.202   0.977   1.735 -0.4691  0.8325 -0.3631
 5572TIP3    H216723   3.262   0.989   1.873  0.4068 -0.7308 -0.5930
 5573TIP3   OH216724   0.422   2.196   4.004  0.1279 -0.2628 -0.2600
 5573TIP3    H116725   0.335   2.197   4.044  0.5640  1.6879  0.7783
 5573TIP3    H216726   0.483   2.203   4.078  1.0062  1.8201 -1.0833
 5574TIP3   OH216727   3.575   2.507   4.077 -0.6315  0.6598  0.2876
 5574TIP3    H116728   3.611   2.516   4.165 -2.1962  0.6328  0.9599
 5574TIP3    H216729   3.557   2.413   4.067 -1.2037  0.7675  0.2583
 5575TIP3   OH216730   5.076   5.428   2.762  0.0514 -0.3657 -0.5952
 5575TIP3    H116731   4.984   5.455   2.768  0.7764  2.2182 -0.0028
 5575TIP3    H216732   5.104   5.457   2.675  0.6156 -0.0158 -0.3027
 5576TIP3   OH216733   3.869   3.320   3.278  0.2653 -0.2721 -0.4830
 5576TIP3    H116734   3.818   3.317   3.197  0.0318  0.0189 -0.3451
 5576TIP3    H216735   3.921   3.239   3.276 -0.2162 -0.5806 -0.6133
 5577TIP3   OH216736   1.833   1.489   1.409  0.3176 -0.4308 -0.5479
 5577TIP3    H116737   1.771   1.539   1.463  1.3516 -0.7509  1.0243
 5577TIP3    H216738   1.916   1.536   1.418  0.5241 -0.4905 -1.9183
 5578TIP3   OH216739   0.035   1.927   1.050 -0.2877  0.2788 -0.4868
 5578TIP3    H116740   0.073   1.882   1.125 -0.2009  0.0589 -0.6614
 5578TIP3    H216741   0.088   1.899   0.976 -0.5712  0.2427 -0.6799
 5579TIP3   OH216742   3.324   0.253   0.999 -0.4377 -0.1632 -0.1063
 5579TIP3    H116743   3.399   0.193   1.003 -0.3429 -0.0375  0.0201
 5579TIP3    H216744   3.363   0.340   0.988 -0.6156 -0.2542 -1.7216
 5580TIP3   OH216745   3.550   5.601   3.724 -0.3242 -0.3804  0.3478
 5580TIP3    H116746   3.518   5.511   3.714 -0.4262 -0.1922 -1.4250
 5580TIP3    H216747   3.472   5.652   3.744 -0.5330 -0.4645 -0.2394
 5581TIP3   OH216748   2.975   1.767   1.685  0.3077  0.2318  0.1536
 5581TIP3    H116749   2.996   1.767   1.778  1.5853 -0.4807 -0.1055
 5581TIP3    H216750   2.978   1.860   1.660 -0.6316  0.4811  0.9265
 5582TIP3   OH216751   1.583   5.380   3.185 -0.4948 -0.3410  0.0552
 5582TIP3    H116752   1.676   5.366   3.166 -0.8871 -0.4285 -2.0500
 5582TIP3    H216753   1.582   5.423   3.270  1.5189  0.1349 -0.1169
 5583TIP3   OH216754   2.153   5.001   2.892  0.4625  0.5145  0.3178
 5583TIP3    H116755   2.121   4.915   2.866  0.6837 -0.6041  3.2911
 5583TIP3    H216756   2.180   5.043   2.810 -2.2558 -1.0858 -1.5585
 5584TIP3   OH216757   3.625   4.833   5.081 -0.2267  0.3971  0.0451
 5584TIP3    H116758   3.681   4.794   5.014  0.3138 -1.9081  1.7213
 5584TIP3    H216759   3.683   4.850   5.155 -1.3724 -0.4103  1.1842
 5585TIP3   OH216760   5.484   0.739   3.931  0.6905  0.2564  0.1013
 5585TIP3    H116761   5.538   0.699   3.999 -0.4124 -0.7021  0.4568
 5585TIP3    H216762   5.396   0.738   3.967  0.5904  3.0395  0.1013
 5586TIP3   OH216763   1.393   4.305   4.546  0.0665 -0.1958 -0.1730
 5586TIP3    H116764   1.311   4.347   4.519  0.2254  1.4402  1.6657
 5586TIP3    H216765   1.447   4.377   4.579  1.3073 -1.5503  0.8760
 5587TIP3   OH216766   1.176   5.481   4.880  0.4639 -0.3729  0.9108
 5587TIP3    H116767   1.219   5.564   4.857 -0.7433 -0.3731 -1.7354
 5587TIP3    H216768   1.151   5.492   4.971  2.5924  1.1201  1.4043
 5588TIP3   OH216769   1.813   0.658   2.682  0.2754 -0.1978 -0.0939
 5588TIP3    H116770   1.825   0.735   2.738  1.0562 -0.4786  0.1455
 5588TIP3    H216771   1.861   0.588   2.727  0.3823 -0.5881 -0.7921
 5589TIP3   OH216772   1.946   1.738   4.719  0.7494  0.4666  0.2406
 5589TIP3    H116773   1.911   1.720   4.807 -0.7306 -2.3153 -0.8062
 5589TIP3    H216774   1.899   1.815   4.690 -1.0837 -0.4190  0.7259
 5590TIP3   OH216775   4.871   5.713   2.253  0.4436  0.3486 -0.2213
 5590TIP3    H116776   4.945   5.763   2.289 -0.2061  0.0711  1.5996
 5590TIP3    H216777   4.908   5.668   2.177  2.2911 -0.0771  0.8454
 5591TIP3   OH216778   1.109   1.394   1.935  0.2418 -0.3648  0.1107
 5591TIP3    H116779   1.117   1.488   1.948 -0.0269 -0.3826  0.3965
 5591TIP3    H216780   1.141   1.355   2.017 -0.5260 -0.4970  0.3505
 5592TIP3   OH216781   5.975   2.736   0.473 -0.6026  0.4084  0.4316
 5592TIP3    H116782   6.066   2.762   0.487 -0.6108  1.0080 -0.5205
 5592TIP3    H216783   5.973   2.642   0.491  0.0990  0.4775  0.9003
 5593TIP3   OH216784   0.125   3.902   1.596 -0.0177  0.2999 -0.2528
 5593TIP3    H116785   0.214   3.901   1.561 -0.4809 -0.5584 -1.4809
 5593TIP3    H216786   0.071   3.870   1.524 -1.3181  0.7511  0.4939
 5594TIP3   OH216787   1.859   3.480   2.350  0.2632 -0.1666  0.1859
 5594TIP3    H116788   1.932   3.532   2.318  0.3915  0.1327  0.9345
 5594TIP3    H216789   1.896   3.393   2.364  0.0879 -0.4358 -0.9092
 5595TIP3   OH216790   2.275   1.650   3.893 -0.2258  0.0967  0.4087
 5595TIP3    H116791   2.218   1.670   3.968 -0.4906  0.2231  0.1730
 5595TIP3    H216792   2.215   1.635   3.820  0.0645  2.0209 -0.2975
 5596TIP3   OH216793   0.994   2.588   4.479 -0.1985  0.1363  0.1696
 5596TIP3    H116794   1.057   2.659   4.475 -0.1310  0.0506 -0.3276
 5596TIP3    H216795   0.949   2.590   4.395 -1.8027  1.0366  0.9962
 5597TIP3   OH216796   6.027   5.412   2.016  0.6710 -0.2886  0.1764
 5597TIP3    H116797   5.975   5.466   2.076  0.9365  0.6245 -0.3977
 5597TIP3    H216798   6.117   5.438   2.032  0.9056 -1.3594  0.6584
 5598TIP3   OH216799   0.155   2.362   2.199  0.2657 -0.0284  0.1911
 5598TIP3    H116800   0.204   2.363   2.118  0.5569 -0.5405  0.3548
 5598TIP3    H216801   0.202   2.422   2.257  0.6166 -0.3992  0.2964
 5599TIP3   OH216802   4.703   5.630   4.215  0.4218  0.2528  0.1352
 5599TIP3    H116803   4.750   5.546   4.216 -0.7866 -0.4681 -0.7527
 5599TIP3    H216804   4.659   5.633   4.300  0.2037 -0.1751  0.0400
 5600TIP3   OH216805   3.849   3.506   4.104  0.5130 -0.0624  0.3138
 5600TIP3    H116806   3.831   3.549   4.020  0.7151  0.3268  0.4719
 5600TIP3    H216807   3.893   3.572   4.157  2.2478 -0.9254  0.0223
 5601TIP3   OH216808   1.316   5.256   3.201 -0.0918  0.0741  0.4693
 5601TIP3    H116809   1.323   5.295   3.289 -0.9340  0.2632  0.4646
 5601TIP3    H216810   1.384   5.300   3.150 -0.8606  1.3816  0.5279
 5602TIP3   OH216811   1.020   2.975   4.421 -0.0643 -0.2892  0.3778
 5602TIP3    H116812   1.053   3.056   4.460 -0.1315  0.0751 -0.3106
 5602TIP3    H216813   1.029   2.988   4.327 -0.4161 -0.9398  0.2493
 5603TIP3   OH216814   5.546   2.404   4.910 -0.2986  0.3700 -0.6989
 5603TIP3    H116815   5.640   2.421   4.899  0.1358 -1.5853 -0.2601
 5603TIP3    H216816   5.514   2.390   4.820 -0.0744  0.5640 -0.8108
 5604TIP3   OH216817   1.019   2.345   4.165  0.0662  0.0454 -0.0761
 5604TIP3    H116818   0.926   2.369   4.170  0.5275  2.0178 -0.0539
 5604TIP3    H216819   1.038   2.309   4.251 -1.2413 -2.8664 -0.8851
 5605TIP3   OH216820   0.766   1.424   1.321  0.2702  0.0118 -0.3062
 5605TIP3    H116821   0.729   1.379   1.398  0.9410 -1.7918 -0.9683
 5605TIP3    H216822   0.855   1.447   1.347  0.0958  0.5232 -0.1446
 5606TIP3   OH216823   3.022   3.318   4.064  0.1012 -0.1679 -0.3449
 5606TIP3    H116824   3.113   3.290   4.065  0.7651  1.8326 -0.7698
 5606TIP3    H216825   2.990   3.300   4.153  1.7297  1.5403  0.6450
 5607TIP3   OH216826   5.422   5.009   1.133  0.2365 -0.1927 -0.2156
 5607TIP3    H116827   5.472   5.043   1.059  1.1267 -0.4855  0.2478
 5607TIP3    H216828   5.487   4.969   1.191 -0.7269 -2.3476 -0.5406
 5608TIP3   OH216829   6.209   2.199   4.887 -0.1594  0.3691 -0.5533
 5608TIP3    H116830   6.154   2.246   4.949  0.3813 -0.3016  0.4639
 5608TIP3    H216831   6.220   2.112   4.925  0.1052 -0.0916 -1.6419
 5609TIP3   OH216832   3.212   2.593   5.139 -0.2463  0.1284  0.2824
 5609TIP3    H116833   3.286   2.643   5.174 -0.7220  1.0302  0.0423
 5609TIP3    H216834   3.198   2.523   5.203  0.6309  0.1202  0.4751
 5610TIP3   OH216835   1.212   1.491   1.640 -0.9468 -0.2403  0.0230
 5610TIP3    H116836   1.188   1.462   1.728  0.7363 -0.1127  0.5412
 5610TIP3    H216837   1.295   1.537   1.650 -1.2288  0.6849 -1.4878
 5611TIP3   OH216838   2.156   0.978   0.112  0.0227 -0.3365  0.0979
 5611TIP3    H116839   2.146   1.072   0.094  0.3166 -0.3300 -0.0445
 5611TIP3    H216840   2.138   0.936   0.029 -0.5662 -0.4396  0.2742
 5612TIP3   OH216841   4.751   1.197   3.692 -0.7375 -0.0292 -0.1289
 5612TIP3    H116842   4.795   1.282   3.697 -1.2560  0.2340  0.0855
 5612TIP3    H216843   4.750   1.176   3.599 -0.5198  0.1579 -0.1729
 5613TIP3   OH216844   1.209   1.629   0.480 -0.0359  0.1869  0.0358
 5613TIP3    H116845   1.154   1.591   0.548 -1.2140 -2.0910 -2.0082
 5613TIP3    H216846   1.280   1.565   0.467  0.8976  1.2030 -0.0247
 5614TIP3   OH216847   4.115   1.161   4.645 -0.5243 -0.6283  0.6006
 5614TIP3    H116848   4.043   1.215   4.614  0.4173  0.0030 -0.5746
 5614TIP3    H216849   4.192   1.195   4.599  0.0740 -3.1741 -0.4180
 5615TIP3   OH216850   1.199   4.856   2.261  0.1089 -0.7784  0.4968
 5615TIP3    H116851   1.104   4.843   2.262  0.0623 -0.4888  0.1396
 5615TIP3    H216852   1.233   4.787   2.205  0.0939 -0.7934  0.5062
 5616TIP3   OH216853   3.120   2.919   5.145 -0.5352 -0.1201 -0.1262
 5616TIP3    H116854   3.056   2.974   5.099  0.2859  1.3580  0.4138
 5616TIP3    H216855   3.182   2.893   5.077 -1.7412 -1.6942 -0.6851
 5617TIP3   OH216856   0.857   0.979   3.988  0.1303 -0.0401  0.1765
 5617TIP3    H116857   0.824   0.952   4.073 -0.6723 -1.5673 -0.5665
 5617TIP3    H216858   0.949   1.001   4.003 -0.7088  2.7185  1.9736
 5618TIP3   OH216859   5.279   4.699   4.040  0.1229 -0.2012 -0.3490
 5618TIP3    H116860   5.217   4.627   4.034  0.6199 -0.8063  1.2697
 5618TIP3    H216861   5.303   4.703   4.133  0.1070  2.0493 -0.3733
 5619TIP3   OH216862   3.503   5.047   3.850 -0.1576 -0.9789 -0.0070
 5619TIP3    H116863   3.483   5.035   3.943 -0.2097 -1.4170 -0.0724
 5619TIP3    H216864   3.598   5.037   3.845 -0.2600 -1.9684 -0.1448
 5620TIP3   OH216865   2.707   5.698   3.903 -0.2927 -0.2345  0.2089
 5620TIP3    H116866   2.799   5.718   3.886 -0.2202 -0.2000  0.6425
 5620TIP3    H216867   2.686   5.628   3.840 -0.4406  0.9004 -1.0424
 5621TIP3   OH216868   1.318   5.685   4.540  0.1448  0.0947  0.1736
 5621TIP3    H116869   1.238   5.681   4.487  0.0555 -0.6768  0.3524
 5621TIP3    H216870   1.288   5.670   4.630  0.5699 -0.9154  0.1565
 5622TIP3   OH216871   2.059   0.388   3.637 -0.2775 -0.6006 -0.0182
 5622TIP3    H116872   2.005   0.391   3.558 -0.2894 -0.8473 -0.0231
 5622TIP3    H216873   2.149   0.389   3.604 -0.2278 -3.5234 -0.2287
 5623TIP3   OH216874   5.212   0.992   5.147 -0.0532  0.3580  0.0345
 5623TIP3    H116875   5.245   0.929   5.083  1.3617  0.3642  0.7105
 5623TIP3    H216876   5.216   0.945   5.231 -2.7477  0.0234  0.0664
 5624TIP3   OH216877   5.594   1.629   0.132  0.0737 -0.0005 -0.1023
 5624TIP3    H116878   5.593   1.539   0.165  0.3973  0.2361  0.5783
 5624TIP3    H216879   5.609   1.620   0.038  0.8025 -0.6400  0.0633
 5625TIP3   OH216880   1.134   1.596   3.628  0.1289 -1.0091  0.2855
 5625TIP3    H116881   1.156   1.581   3.720  0.7864 -0.9895  0.1380
 5625TIP3    H216882   1.151   1.689   3.614  2.7512 -1.5354 -0.5472
 5626TIP3   OH216883   0.196   5.714   4.807  0.0989 -0.2268  0.2262
 5626TIP3    H116884   0.188   5.807   4.783 -0.3965 -0.2739  0.2023
 5626TIP3    H216885   0.109   5.677   4.789  0.3356 -0.7296  0.0929
 5627TIP3   OH216886   3.656   5.083   4.751 -0.1545 -0.4141  0.2815
 5627TIP3    H116887   3.585   5.024   4.776 -1.1372  0.0994 -1.1223
 5627TIP3    H216888   3.672   5.136   4.829 -1.3181 -0.5626  0.6449
 5628TIP3   OH216889   4.575   0.762   0.244  0.6112 -0.6888 -0.1029
 5628TIP3    H116890   4.618   0.842   0.212 -0.3950 -1.2754 -3.2280
 5628TIP3    H216891   4.500   0.793   0.293  0.2923  0.3340 -1.1907
 5629TIP3   OH216892   5.746   0.053   5.108  0.1582 -0.3887  0.1939
 5629TIP3    H116893   5.778   0.004   5.033 -0.1986  0.7331 -0.7250
 5629TIP3    H216894   5.667   0.008   5.135 -0.8718  0.3678 -1.4377
 5630TIP3   OH216895   4.234   5.605   1.531  0.1866  0.5625 -0.2486
 5630TIP3    H116896   4.294   5.582   1.460 -0.3725 -0.7304 -0.3134
 5630TIP3    H216897   4.285   5.590   1.611 -0.3505 -1.6442 -0.2542
 5631TIP3   OH216898   2.832   5.055   3.422  0.5828 -0.2185 -0.0146
 5631TIP3    H116899   2.803   5.016   3.340  2.2163  1.7469 -1.6381
 5631TIP3    H216900   2.920   5.088   3.403  1.0780  0.1497  2.5954
 5632TIP3   OH216901   2.210   1.458   4.920 -0.0549 -0.4591 -0.4278
 5632TIP3    H116902   2.286   1.412   4.955  0.6501  0.9728  0.0049
 5632TIP3    H216903   2.242   1.545   4.899 -1.2519 -0.2555 -1.5940
 5633TIP3   OH216904   5.876   3.701   2.100 -0.1865 -0.0464 -0.2572
 5633TIP3    H116905   5.932   3.776   2.076  1.1540 -0.4976  1.3154
 5633TIP3    H216906   5.893   3.636   2.032 -1.9695  1.2876 -2.1085
 5634TIP3   OH216907   6.286   4.086   3.516  0.4969 -0.2581 -0.1628
 5634TIP3    H116908   6.274   4.041   3.433  1.1527  0.4216 -0.6381
 5634TIP3    H216909   6.263   4.021   3.582 -2.6797 -0.0494 -0.8808
 5635TIP3   OH216910   3.549   2.905   4.718  0.5925  0.0651  0.5096
 5635TIP3    H116911   3.516   2.995   4.712 -0.1183 -0.1435  1.1104
 5635TIP3    H216912   3.562   2.878   4.627  1.1424  0.8886  0.3366
 5636TIP3   OH216913   4.224   1.954   1.797  0.0348  0.1337  0.0640
 5636TIP3    H116914   4.188   1.918   1.716  0.0879  0.8899 -0.3057
 5636TIP3    H216915   4.221   1.882   1.859 -2.4054  0.2357  0.1492
 5637TIP3   OH216916   4.783   5.378   1.428  0.6133  0.0643 -0.0689
 5637TIP3    H116917   4.820   5.410   1.510 -0.2648  0.8958  0.0155
 5637TIP3    H216918   4.740   5.295   1.452  0.5133  0.2144  0.2783
 5638TIP3   OH216919   0.958   5.362   0.725 -0.4360  1.0034 -0.3764
 5638TIP3    H116920   0.936   5.361   0.632 -0.8588 -1.9304 -0.3241
 5638TIP3    H216921   0.985   5.453   0.742  0.3254  1.4704 -3.4832
 5639TIP3   OH216922   3.610   4.442   2.810 -0.0592 -0.1023 -0.4391
 5639TIP3    H116923   3.594   4.465   2.901  0.6069 -0.2349 -0.2770
 5639TIP3    H216924   3.706   4.438   2.803 -0.0707 -2.9313 -0.4015
 5640TIP3   OH216925   5.425   2.048   3.241  0.2853  0.1667 -0.0421
 5640TIP3    H116926   5.411   2.119   3.177  0.4972 -1.3378 -1.8267
 5640TIP3    H216927   5.514   2.062   3.273 -0.2776  1.7099  0.9869
 5641TIP3   OH216928   1.672   3.694   2.341 -0.5215  0.9518  0.1425
 5641TIP3    H116929   1.721   3.612   2.347  1.2064  1.9966  1.6112
 5641TIP3    H216930   1.613   3.682   2.267  0.6783 -1.0824 -0.5620
 5642TIP3   OH216931   4.621   5.230   3.054 -0.0738  0.5793  0.2831
 5642TIP3    H116932   4.682   5.293   3.091  0.8004  0.6050 -1.1426
 5642TIP3    H216933   4.543   5.238   3.109  0.4266  2.0759  0.8326
 5643TIP3   OH216934   3.456   2.242   2.927 -0.4624  0.0495 -0.1733
 5643TIP3    H116935   3.428   2.333   2.914  0.1029 -0.1865 -4.1572
 5643TIP3    H216936   3.549   2.249   2.948  0.0163  0.4238 -2.2173
 5644TIP3   OH216937   4.122   3.008   1.726  0.0009  0.0109  0.3975
 5644TIP3    H116938   4.084   2.920   1.719 -2.5218  1.1208 -1.2473
 5644TIP3    H216939   4.065   3.053   1.788  1.8631  0.3068  2.0103
 5645TIP3   OH216940   5.446   2.611   3.793  0.3727  0.1264  0.3666
 5645TIP3    H116941   5.419   2.653   3.875 -0.7164  1.4658 -0.6239
 5645TIP3    H216942   5.389   2.536   3.783 -0.2784  0.6189  0.2996
 5646TIP3   OH216943   4.562   0.293   2.441 -0.7457  0.2449 -0.2770
 5646TIP3    H116944   4.651   0.307   2.411 -0.3187  0.0129  0.8402
 5646TIP3    H216945   4.566   0.304   2.536 -1.6578 -0.9415 -0.0686
 5647TIP3   OH216946   5.960   3.429   3.997 -0.4765 -0.3175 -0.2400
 5647TIP3    H116947   5.915   3.349   3.969 -1.6156  0.2852 -0.1604
 5647TIP3    H216948   6.053   3.408   3.986 -0.7938 -1.1115 -1.6737
 5648TIP3   OH216949   5.019   2.015   4.569 -0.1812  0.1369 -0.0319
 5648TIP3    H116950   5.095   2.019   4.626 -1.6246  1.5555  1.9227
 5648TIP3    H216951   5.046   2.063   4.490  0.7532  1.2288  0.9121
 5649TIP3   OH216952   4.489   1.115   5.168 -0.1599 -0.0929 -0.1550
 5649TIP3    H116953   4.477   1.100   5.075 -0.6508 -1.0567  0.0555
 5649TIP3    H216954   4.579   1.086   5.186 -0.6437 -1.5731 -0.0115
 5650TIP3   OH216955   1.534   3.493   3.638 -0.2397 -0.0785  0.2069
 5650TIP3    H116956   1.440   3.479   3.636 -0.4360  1.1472 -0.2353
 5650TIP3    H216957   1.552   3.523   3.727 -0.4282  0.6238  0.0143
 5651TIP3   OH216958   2.488   1.129   1.909 -0.1036  0.0670 -0.4056
 5651TIP3    H116959   2.451   1.084   1.833  0.4002 -0.0984 -0.5575
 5651TIP3    H216960   2.583   1.117   1.900 -0.0548 -0.3095  0.4580
 5652TIP3   OH216961   5.313   1.261   1.506 -0.6630  0.4245 -0.0383
 5652TIP3    H116962   5.303   1.199   1.578  0.0931 -0.0946 -0.3715
 5652TIP3    H216963   5.291   1.346   1.544 -0.1140  0.1759  0.8582
 5653TIP3   OH216964   5.195   0.619   0.588  0.0430  0.1917  0.2609
 5653TIP3    H116965   5.165   0.530   0.566  1.6237  0.4871 -3.9704
 5653TIP3    H216966   5.134   0.677   0.543  1.6434  1.0619 -0.8608
 5654TIP3   OH216967   6.311   4.598   1.750 -0.4724 -0.2165 -0.1016
 5654TIP3    H116968   6.407   4.595   1.740 -0.2457  1.1564  1.3497
 5654TIP3    H216969   6.286   4.682   1.711 -0.8952  0.1035  0.8393
 5655TIP3   OH216970   5.497   0.409   3.369 -0.1289 -0.2227 -0.0005
 5655TIP3    H116971   5.421   0.415   3.312 -0.9084 -1.8489  0.8110
 5655TIP3    H216972   5.519   0.316   3.371  0.2413 -0.1377  1.8616
 5656TIP3   OH216973   5.628   5.645   2.330  0.2957  0.6006  0.2247
 5656TIP3    H116974   5.564   5.662   2.398  0.6216  1.1851  0.3918
 5656TIP3    H216975   5.591   5.684   2.251 -0.0794 -0.0715  0.0595
 5657TIP3   OH216976   6.293   3.492   3.312 -1.0474  0.2264  0.2750
 5657TIP3    H116977   6.300   3.585   3.294 -0.0349  0.2271  0.5811
 5657TIP3    H216978   6.240   3.486   3.391  1.0820  0.7479  1.8283
 5658TIP3   OH216979   1.864   5.288   4.064 -0.0847 -0.3840 -0.2122
 5658TIP3    H116980   1.919   5.312   3.989  0.3851  0.2333  0.3145
 5658TIP3    H216981   1.895   5.345   4.135 -0.5336 -0.9498  0.4446
 5659TIP3   OH216982   1.800   4.000   0.926  0.0251 -0.2449  0.0349
 5659TIP3    H116983   1.872   3.957   0.970  1.0305  1.4954  0.1867
 5659TIP3    H216984   1.727   3.996   0.988 -0.6361 -3.5360 -0.7884
 5660TIP3   OH216985   0.362   5.687   5.041 -0.1842 -0.2595 -0.3184
 5660TIP3    H116986   0.303   5.715   4.971  0.0167 -0.2076 -0.4684
 5660TIP3    H216987   0.435   5.747   5.036 -0.0495 -0.4156 -0.2280
 5661TIP3   OH216988   3.415   4.527   0.384  0.1474  0.6556  0.1433
 5661TIP3    H116989   3.492   4.481   0.351  0.4560  1.1646  0.1411
 5661TIP3    H216990   3.426   4.527   0.479 -1.3258 -1.8505  0.4188
 5662TIP3   OH216991   5.529   3.622   3.442  0.1950 -0.2146 -0.2759
 5662TIP3    H116992   5.622   3.615   3.424  0.6398 -1.4023  2.0131
 5662TIP3    H216993   5.512   3.716   3.449  0.9629  0.0542 -1.7342
 5663TIP3   OH216994   4.494   2.485   2.039 -0.2894 -0.2763 -0.5304
 5663TIP3    H116995   4.433   2.510   1.969 -0.9321  1.0839  0.4820
 5663TIP3    H216996   4.540   2.566   2.061  0.0154 -0.7249  0.5231
 5664TIP3   OH216997   1.310   0.683   3.982  0.0325  0.7209  0.1264
 5664TIP3    H116998   1.280   0.769   4.010  0.6249  0.4886  1.5593
 5664TIP3    H216999   1.345   0.643   4.062 -0.4263 -0.9272 -0.4594
 5665TIP3   OH217000   3.512   1.161   2.743 -0.0458 -0.2700  0.1395
 5665TIP3    H117001   3.436   1.182   2.690  0.4534  0.0443 -0.4610
 5665TIP3    H217002   3.477   1.148   2.831 -0.9509 -1.2513 -0.3371
 5666TIP3   OH217003   4.029   4.606   2.088  0.5719  0.4128  0.1293
 5666TIP3    H117004   4.063   4.631   2.174  1.2512  3.8621 -1.0079
 5666TIP3    H217005   4.103   4.563   2.045  0.5018 -0.5301  0.9170
 5667TIP3   OH217006   0.888   5.384   1.217  0.0495 -0.2114 -0.3038
 5667TIP3    H117007   0.957   5.436   1.261  2.0282 -0.9480 -2.3628
 5667TIP3    H217008   0.824   5.450   1.188  0.9323  0.7531 -0.1428
 5668TIP3   OH217009   5.705   2.321   1.208 -0.6127  0.6606 -0.2876
 5668TIP3    H117010   5.628   2.267   1.187 -0.1674  0.3522 -1.1608
 5668TIP3    H217011   5.767   2.302   1.138  0.0789  1.2782  0.1515
 5669TIP3   OH217012   1.984   2.002   2.282 -0.0780 -0.0361  0.5450
 5669TIP3    H117013   1.983   2.098   2.277 -1.5246  0.0740  2.0203
 5669TIP3    H217014   1.894   1.977   2.266  0.7866 -1.4409 -2.9570
 5670TIP3   OH217015   5.432   5.671   3.146  0.0589  0.2904 -0.5689
 5670TIP3    H117016   5.437   5.742   3.082  0.9053  0.7247 -0.0402
 5670TIP3    H217017   5.504   5.612   3.123  0.3746  0.4563 -0.0235
 5671TIP3   OH217018   4.252   2.121   1.427 -0.1290  0.3616 -0.1234
 5671TIP3    H117019   4.312   2.179   1.380  0.8209 -0.6244 -0.1824
 5671TIP3    H217020   4.264   2.144   1.520 -1.1135  1.4857 -0.2556
 5672TIP3   OH217021   0.817   2.791   2.622 -0.5321 -0.5325  0.5158
 5672TIP3    H117022   0.728   2.775   2.653  0.3302 -1.4860  2.7229
 5672TIP3    H217023   0.870   2.726   2.668  1.3612  0.2197 -0.5039
 5673TIP3   OH217024   0.454   4.774   0.667 -0.4500  0.0253  0.2655
 5673TIP3    H117025   0.415   4.856   0.637  1.3607  1.0900  0.6483
 5673TIP3    H217026   0.500   4.740   0.590 -0.3347 -0.0750  0.3770
 5674TIP3   OH217027   3.170   4.885   2.484  0.3169 -0.3110 -0.2410
 5674TIP3    H117028   3.197   4.877   2.576 -0.3691 -2.6343 -0.1764
 5674TIP3    H217029   3.175   4.979   2.466  1.0534  0.1466  1.9830
 5675TIP3   OH217030   0.508   2.634   3.333  0.3178 -0.1128  0.6929
 5675TIP3    H117031   0.509   2.728   3.313 -0.5597 -0.0591  0.8668
 5675TIP3    H217032   0.547   2.592   3.257 -0.3260  0.3095  0.1243
 5676TIP3   OH217033   4.845   5.723   5.060  0.6064 -0.3244  0.1368
 5676TIP3    H117034   4.806   5.669   5.129  1.4037 -0.2214  0.6749
 5676TIP3    H217035   4.800   5.807   5.066  0.0433 -0.6095 -0.0634
 5677TIP3   OH217036   4.799   0.504   0.875 -0.2716  0.3106 -0.1017
 5677TIP3    H117037   4.840   0.501   0.788  1.5019  0.4784  0.6845
 5677TIP3    H217038   4.779   0.597   0.888  0.3516  0.4254  0.0539
 5678TIP3   OH217039   0.789   0.806   2.227 -0.2734 -0.0625  0.0981
 5678TIP3    H117040   0.791   0.898   2.201 -0.2441  0.1713  0.9033
 5678TIP3    H217041   0.871   0.793   2.275 -0.0311 -0.6501 -0.4536
 5679TIP3   OH217042   0.913   3.941   4.151  0.3852  0.4299  0.0436
 5679TIP3    H117043   0.892   4.024   4.193 -0.8448 -0.3904  1.1189
 5679TIP3    H217044   0.836   3.886   4.168  2.4586 -2.0318  2.2202
 5680TIP3   OH217045   1.105   2.327   1.678 -0.5989 -0.3279 -0.4551
 5680TIP3    H117046   1.181   2.303   1.731 -1.3502 -3.3121 -0.5088
 5680TIP3    H217047   1.030   2.310   1.735 -1.2997  0.4850 -1.1052
 5681TIP3   OH217048   5.881   2.203   1.757 -0.8168 -0.1760 -0.0336
 5681TIP3    H117049   5.966   2.219   1.798 -0.8457  0.5279 -0.2415
 5681TIP3    H217050   5.886   2.247   1.672 -1.6902  0.6155  0.3033
 5682TIP3   OH217051   3.044   2.427   1.615 -0.2912 -0.1131  0.1344
 5682TIP3    H117052   2.955   2.460   1.622 -0.0405  0.6476 -0.1566
 5682TIP3    H217053   3.090   2.492   1.563  1.0178  0.7647  2.2453
 5683TIP3   OH217054   4.453   4.363   2.132 -0.6194 -0.1966  0.4308
 5683TIP3    H117055   4.524   4.331   2.188 -1.0580  2.0298  2.4039
 5683TIP3    H217056   4.416   4.283   2.094  1.0209 -1.6611  1.7095
 5684TIP3   OH217057   3.984   4.173   5.138  0.7665  0.0378  0.1158
 5684TIP3    H117058   4.043   4.205   5.206 -0.0906  1.0834  0.3923
 5684TIP3    H217059   3.896   4.195   5.170  0.2677 -0.8251 -0.6254
 5685TIP3   OH217060   5.735   3.459   4.389  0.7543 -0.2293 -0.4070
 5685TIP3    H117061   5.797   3.530   4.372  2.2258 -1.1903  0.7702
 5685TIP3    H217062   5.770   3.384   4.342  0.2845 -0.7018 -0.0169
 5686TIP3   OH217063   5.093   2.381   4.960 -0.0922  0.3767 -0.3999
 5686TIP3    H117064   5.135   2.467   4.969  0.1746  0.1928  0.1219
 5686TIP3    H217065   5.040   2.389   4.881  0.0492  0.9758 -0.4398
 5687TIP3   OH217066   0.470   0.411   4.313 -0.1277 -0.6935 -0.2919
 5687TIP3    H117067   0.460   0.488   4.369 -2.5908 -1.8178  0.9884
 5687TIP3    H217068   0.467   0.446   4.223 -0.4572  0.7608  0.2516
 5688TIP3   OH217069   2.579   2.477   2.209  0.1967 -0.0394 -0.0215
 5688TIP3    H117070   2.634   2.551   2.184  1.8339 -0.8144  1.1617
 5688TIP3    H217071   2.583   2.475   2.305 -0.2955 -1.3188 -0.0056
 5689TIP3   OH217072   6.116   4.048   4.892  0.0203  0.2254 -0.2232
 5689TIP3    H117073   6.081   3.964   4.920  0.9936 -0.0251  0.2699
 5689TIP3    H217074   6.198   4.058   4.941  0.5772  0.8591 -1.2414
 5690TIP3   OH217075   4.383   2.575   2.347  0.2735  0.4660 -0.2885
 5690TIP3    H117076   4.469   2.608   2.371 -0.2135  2.1786 -0.7292
 5690TIP3    H217077   4.322   2.628   2.398 -0.5307 -0.5638 -0.1501
 5691TIP3   OH217078   6.109   2.354   3.619 -0.4238  0.3914  0.3466
 5691TIP3    H117079   6.070   2.436   3.591 -0.7130 -0.0847 -0.6524
 5691TIP3    H217080   6.082   2.344   3.711  0.2163  1.7586  0.7037
 5692TIP3   OH217081   0.230   4.674   2.018 -0.1192  0.3811  0.1626
 5692TIP3    H117082   0.249   4.580   2.008  1.7143  0.7880 -0.5786
 5692TIP3    H217083   0.139   4.677   2.047 -0.9194 -1.5575 -1.8482
 5693TIP3   OH217084   0.800   3.636   1.801 -0.3615 -0.0150  0.1557
 5693TIP3    H117085   0.845   3.706   1.848  1.3038 -1.0609  0.2072
 5693TIP3    H217086   0.725   3.614   1.857 -1.1438  1.9255 -0.0427
 5694TIP3   OH217087   1.181   5.513   3.126 -0.1008  0.4976  0.0689
 5694TIP3    H117088   1.155   5.578   3.191  0.8567  0.1911  0.7865
 5694TIP3    H217089   1.212   5.439   3.178 -1.1249 -0.5277 -0.7239
 5695TIP3   OH217090   6.252   0.966   3.080 -0.4025 -0.9725  0.7379
 5695TIP3    H117091   6.199   0.966   3.000  0.3620  3.1714 -0.0140
 5695TIP3    H217092   6.324   0.906   3.061 -0.5661 -0.5463 -1.4829
 5696TIP3   OH217093   1.232   5.097   0.726 -0.2668 -0.1005  0.0273
 5696TIP3    H117094   1.259   5.168   0.668 -0.8661 -0.5666 -0.8504
 5696TIP3    H217095   1.314   5.058   0.758  0.0703  1.3052  0.9507
 5697TIP3   OH217096   3.391   5.453   0.515  0.4182  0.7184  0.5022
 5697TIP3    H117097   3.306   5.408   0.515  1.6777 -1.9080 -0.6539
 5697TIP3    H217098   3.395   5.497   0.599 -1.0735 -1.1860  1.6674
 5698TIP3   OH217099   4.448   2.214   4.685 -0.1992 -0.4133  0.5022
 5698TIP3    H117100   4.480   2.155   4.754 -0.4303  1.3012  2.1799
 5698TIP3    H217101   4.462   2.167   4.604  1.6190 -1.8769  1.6004
 5699TIP3   OH217102   4.377   5.796   4.458 -0.0468  0.3904  0.2248
 5699TIP3    H117103   4.317   5.802   4.384  0.5159 -0.0659 -0.2765
 5699TIP3    H217104   4.408   5.706   4.458 -0.2343  0.3110  1.1800
 5700TIP3   OH217105   1.486   3.904   4.413 -0.5740 -0.0806 -0.4503
 5700TIP3    H117106   1.552   3.914   4.344 -0.0601  1.7099  0.2259
 5700TIP3    H217107   1.483   3.810   4.431  1.7417 -0.2469 -0.5873
 5701TIP3   OH217108   4.535   1.455   0.056 -0.0386 -0.2013 -0.4634
 5701TIP3    H117109   4.456   1.448   0.002 -2.6763  2.5979  2.6067
 5701TIP3    H217110   4.538   1.372   0.105 -2.0163  0.1812  0.4046
 5702TIP3   OH217111   2.876   5.678   0.919 -0.2000  0.1036  0.0821
 5702TIP3    H117112   2.901   5.770   0.915 -1.0707  0.3788  0.7351
 5702TIP3    H217113   2.937   5.640   0.982  0.5422  0.0944 -0.6272
 5703TIP3   OH217114   3.864   3.317   1.919 -0.7543  0.1069 -0.0420
 5703TIP3    H117115   3.913   3.236   1.911 -0.1213  0.6140 -1.9902
 5703TIP3    H217116   3.893   3.355   2.002  1.5185 -0.0545 -0.6990
 5704TIP3   OH217117   3.025   0.083   3.943 -0.0306 -0.3214 -0.1863
 5704TIP3    H117118   3.106   0.126   3.970  0.2553 -0.0422 -1.4188
 5704TIP3    H217119   2.960   0.153   3.940 -0.3422 -0.5482  0.8180
 5705TIP3   OH217120   1.104   1.112   4.220 -0.1863  0.4344  0.0899
 5705TIP3    H117121   1.091   1.202   4.192  0.6417  0.8094  0.8594
 5705TIP3    H217122   1.191   1.111   4.261 -0.8817 -0.2925  1.6569
 5706TIP3   OH217123   5.738   2.426   2.333  0.1358 -0.2204 -0.4442
 5706TIP3    H117124   5.714   2.448   2.243 -0.4802 -2.1568 -0.8057
 5706TIP3    H217125   5.819   2.376   2.324 -0.8549 -1.9484 -0.1304
 5707TIP3   OH217126   0.547   2.478   0.948  0.0353  0.5542  0.5325
 5707TIP3    H117127   0.580   2.508   1.033  2.2914  1.4712 -0.5717
 5707TIP3    H217128   0.487   2.546   0.920  0.4125  0.9809  0.7525
 5708TIP3   OH217129   2.573   1.779   2.377  0.2774 -0.2097  0.1996
 5708TIP3    H117130   2.513   1.851   2.360  0.2068  0.1210  1.7207
 5708TIP3    H217131   2.600   1.749   2.290 -1.1336  0.4181 -0.4892
 5709TIP3   OH217132   3.754   3.253   2.327 -0.1283 -0.0706  0.1517
 5709TIP3    H117133   3.723   3.327   2.274 -1.6755 -0.3895  0.5737
 5709TIP3    H217134   3.717   3.268   2.414  0.4302 -0.7937  0.5263
 5710TIP3   OH217135   3.089   2.888   3.221 -0.0956 -0.5127 -0.5072
 5710TIP3    H117136   3.175   2.847   3.211 -0.2526 -1.2676  1.0452
 5710TIP3    H217137   3.109   2.973   3.260  0.0819  0.2472 -2.1392
 5711TIP3   OH217138   2.230   4.956   4.508 -0.2324  0.2808  0.4311
 5711TIP3    H117139   2.260   5.047   4.512 -2.2926  0.9763  3.4075
 5711TIP3    H217140   2.141   4.962   4.475  0.2397 -0.9249 -1.1466
 5712TIP3   OH217141   0.923   2.213   0.936 -0.7154  0.1682  0.2091
 5712TIP3    H117142   0.997   2.223   0.996 -0.1204 -0.3237 -0.4291
 5712TIP3    H217143   0.851   2.259   0.979 -1.5507 -3.5864  3.4114
 5713TIP3   OH217144   3.345   5.872   0.785  0.1155  1.0858  0.3312
 5713TIP3    H117145   3.364   5.831   0.870  2.0862 -0.2148 -0.6576
 5713TIP3    H217146   3.346   5.966   0.802  0.1043  0.8399  1.8031
 5714TIP3   OH217147   3.003   1.011   3.624 -0.3918 -0.7606 -0.5029
 5714TIP3    H117148   2.987   0.951   3.696 -1.4436  0.0874  0.0056
 5714TIP3    H217149   3.089   1.048   3.642 -0.9721  0.0517  0.8161
 5715TIP3   OH217150   2.382   4.122   4.545  0.3845 -0.0468  0.7397
 5715TIP3    H117151   2.464   4.170   4.561  0.8439 -1.1608  2.0229
 5715TIP3    H217152   2.315   4.190   4.540  1.1884  0.8110  1.1689
 5716TIP3   OH217153   2.480   0.488   3.706  0.1328 -0.7558  0.3346
 5716TIP3    H117154   2.427   0.565   3.684 -0.1791 -0.9798  0.2977
 5716TIP3    H217155   2.446   0.418   3.650  0.7486 -0.7997  0.0069
 5717TIP3   OH217156   0.437   2.996   0.548  0.6288  0.5386 -0.3103
 5717TIP3    H117157   0.375   3.038   0.607 -1.1750 -0.9057 -1.0702
 5717TIP3    H217158   0.433   3.047   0.468  0.4756  0.5003 -0.3274
 5718TIP3   OH217159   0.738   2.984   0.558 -0.2186  0.1223  0.9570
 5718TIP3    H117160   0.760   2.928   0.632  0.5486  0.6759  1.1657
 5718TIP3    H217161   0.655   3.026   0.584 -2.1750 -2.6815 -0.2299
 5719TIP3   OH217162   0.187   3.457   2.222 -0.5296 -0.7430  0.1989
 5719TIP3    H117163   0.248   3.406   2.168 -1.6580 -1.3438 -0.5369
 5719TIP3    H217164   0.147   3.518   2.161 -0.4509 -0.1346  0.7429
 5720TIP3   OH217165   2.397   1.575   0.505 -0.0774  0.6877  0.1516
 5720TIP3    H117166   2.458   1.636   0.463 -1.5277  0.8395 -1.8928
 5720TIP3    H217167   2.451   1.501   0.531  1.2505  1.6011  0.0922
 5721TIP3   OH217168   3.637   1.823   0.368  0.1433  0.2898 -0.4657
 5721TIP3    H117169   3.546   1.840   0.392 -0.1053 -0.2485 -1.0224
 5721TIP3    H217170   3.642   1.846   0.275  0.2219 -1.0464 -0.7995
 5722TIP3   OH217171   3.715   2.780   2.202  0.0653  0.7377 -0.5793
 5722TIP3    H117172   3.792   2.797   2.257 -0.2571 -0.3647  0.2424
 5722TIP3    H217173   3.646   2.835   2.240 -0.5690 -1.1093  1.1372
 5723TIP3   OH217174   4.063   2.477   3.121 -0.4852  0.1542 -0.2171
 5723TIP3    H117175   4.098   2.476   3.032  2.5786 -0.7768  0.8858
 5723TIP3    H217176   4.072   2.387   3.151 -0.8137  0.6092  1.3021
 5724TIP3   OH217177   3.560   0.127   0.945 -0.0683 -0.3767  0.5111
 5724TIP3    H117178   3.557   0.041   0.902  1.3589  0.1250 -0.6608
 5724TIP3    H217179   3.612   0.112   1.024 -2.5602 -1.2632  2.1166
 5725TIP3   OH217180   0.029   4.390   0.207  0.0692 -0.3025  0.0857
 5725TIP3    H117181   0.119   4.370   0.181 -0.5498 -1.4091 -1.3191
 5725TIP3    H217182  -0.013   4.305   0.215 -0.7513  0.1838  1.1935
 5726TIP3   OH217183   2.973   2.688   4.625  0.8472  0.1298 -0.1222
 5726TIP3    H117184   3.045   2.681   4.563 -0.3301  0.6449 -1.6048
 5726TIP3    H217185   2.967   2.601   4.665  1.3995 -0.3274 -1.0032
 5727TIP3   OH217186   1.700   4.436   1.337 -0.3499 -0.6659  0.0228
 5727TIP3    H117187   1.618   4.460   1.379 -0.4058  0.4378 -0.6710
 5727TIP3    H217188   1.709   4.498   1.264  1.2378 -0.5633  0.2713
 5728TIP3   OH217189   5.814   1.625   0.980 -0.3168 -0.2406 -0.3169
 5728TIP3    H117190   5.817   1.683   0.904  1.5261  1.1694  0.7316
 5728TIP3    H217191   5.903   1.590   0.986 -0.4615 -0.4081  1.1167
 5729TIP3   OH217192   2.927   5.070   4.051  0.0726  0.5014 -0.6530
 5729TIP3    H117193   3.001   5.011   4.060  0.9513  1.8736  2.2313
 5729TIP3    H217194   2.962   5.146   4.003  0.3925  0.8543  0.1186
 5730TIP3   OH217195   3.922   5.026   1.618 -0.0441  0.2635 -0.4856
 5730TIP3    H117196   3.888   5.086   1.551 -0.3057 -1.5125 -2.0278
 5730TIP3    H217197   3.994   5.075   1.659  0.6828  1.1442 -2.6414
 5731TIP3   OH217198   0.245   1.264   1.993  0.2149  0.4697 -0.0010
 5731TIP3    H117199   0.174   1.228   1.940  0.7802  0.2578 -0.6284
 5731TIP3    H217200   0.289   1.326   1.935  0.5048  0.6449  0.4021
 5732TIP3   OH217201   1.327   4.753   4.257 -0.4684  0.1649  0.3471
 5732TIP3    H117202   1.363   4.668   4.232 -0.8681 -0.3251  1.3838
 5732TIP3    H217203   1.344   4.759   4.351  2.7566  2.8028 -0.2040
 5733TIP3   OH217204   2.005   2.886   0.772  0.1926  0.0331  0.1319
 5733TIP3    H117205   2.057   2.945   0.718 -0.8509  0.1820 -0.7534
 5733TIP3    H217206   1.923   2.933   0.787  0.8364  0.4856  2.8520
 5734TIP3   OH217207   3.330   0.725   1.963  0.8666 -0.4778 -0.1417
 5734TIP3    H117208   3.362   0.815   1.960  0.0853 -0.2238 -1.2063
 5734TIP3    H217209   3.242   0.732   2.000  0.0356 -0.5564 -2.0345
 5735TIP3   OH217210   0.189   3.119   1.714 -0.8679  0.4246  0.0701
 5735TIP3    H117211   0.266   3.071   1.683 -0.2765  0.1114  1.8923
 5735TIP3    H217212   0.206   3.210   1.688  0.5501  0.5055  1.1225
 5736TIP3   OH217213   4.642   1.088   3.125 -0.3816 -0.0836  0.8001
 5736TIP3    H117214   4.580   1.098   3.198  0.0429 -0.8814  1.2670
 5736TIP3    H217215   4.629   0.999   3.094 -1.8649  0.7608 -1.3167
 5737TIP3   OH217216   0.089   0.377   1.787 -0.0550  0.2291  0.1707
 5737TIP3    H117217   0.153   0.311   1.812  0.6549  1.0997  0.6853
 5737TIP3    H217218   0.037   0.391   1.866 -0.1818  0.3074  0.0746
 5738TIP3   OH217219   2.423   1.839   3.180 -0.7970 -0.3064  0.0126
 5738TIP3    H117220   2.516   1.836   3.205 -1.3141  0.4183  2.2608
 5738TIP3    H217221   2.416   1.777   3.108  1.1897 -1.3513  0.6417
 5739TIP3   OH217222   3.844   2.260   0.773 -0.6599 -0.3849 -0.0911
 5739TIP3    H117223   3.937   2.245   0.758 -0.9799 -1.9328 -0.7710
 5739TIP3    H217224   3.822   2.205   0.848 -0.5395  1.9563  1.7824
 5740TIP3   OH217225   5.792   3.411   0.385 -0.0691 -0.1834  0.1610
 5740TIP3    H117226   5.827   3.427   0.473  0.6721  0.0733 -0.1678
 5740TIP3    H217227   5.868   3.421   0.327 -0.7010  0.4291 -0.5893
 5741TIP3   OH217228   2.812   1.022   4.075 -0.4099 -0.6290  0.0715
 5741TIP3    H117229   2.866   1.100   4.071  0.9179 -1.5730 -1.2337
 5741TIP3    H217230   2.726   1.054   4.105  0.8253  0.8783  2.3017
 5742TIP3   OH217231   2.186   0.477   3.336  0.2486 -0.5613 -0.3926
 5742TIP3    H117232   2.153   0.557   3.376  0.1259 -0.0665 -1.4614
 5742TIP3    H217233   2.177   0.491   3.242  0.1122 -1.8817 -0.5972
 5743TIP3   OH217234   0.252   2.443   0.568  0.4858  0.6105  0.4924
 5743TIP3    H117235   0.270   2.509   0.635 -0.9494 -0.2398  1.7929
 5743TIP3    H217236   0.159   2.454   0.549  0.1756 -1.1245  0.8791
 5744TIP3   OH217237   3.189   1.793   4.766  0.2644  0.1396  0.4209
 5744TIP3    H117238   3.166   1.815   4.856  1.9408  3.3579  0.2113
 5744TIP3    H217239   3.109   1.808   4.716  0.3334  2.4063  0.8841
 5745TIP3   OH217240   0.512   3.073   4.841 -0.0462  0.4159 -0.1974
 5745TIP3    H117241   0.439   3.134   4.849 -1.3938 -0.8998 -1.7245
 5745TIP3    H217242   0.522   3.059   4.747  1.2980 -0.4473  0.0498
 5746TIP3   OH217243   2.190  -0.004   4.399  0.1046  0.0115 -0.0848
 5746TIP3    H117244   2.240  -0.021   4.319 -1.0149  0.2627 -0.8730
 5746TIP3    H217245   2.214   0.085   4.424 -1.2061  0.8019 -1.4605
 5747TIP3   OH217246   2.433   2.653   0.689  0.1754  0.2659 -0.3143
 5747TIP3    H117247   2.437   2.571   0.737 -0.8208 -1.6304 -3.2243
 5747TIP3    H217248   2.363   2.702   0.732  0.7924 -0.3719  1.4799
 5748TIP3   OH217249   3.553   5.619   2.585 -0.4653  0.5433 -0.1742
 5748TIP3    H117250   3.513   5.533   2.578  0.1327  0.3762 -1.7875
 5748TIP3    H217251   3.646   5.602   2.600 -0.7422  0.9385  2.5948
 5749TIP3   OH217252   4.852   5.422   3.113 -0.3647 -0.1760  0.3308
 5749TIP3    H117253   4.882   5.395   3.200 -0.1374  1.2206  0.7113
 5749TIP3    H217254   4.932   5.446   3.067 -0.6500  1.0724  0.4572
 5750TIP3   OH217255   2.145   3.872   4.084  0.2499 -0.6207  0.1972
 5750TIP3    H117256   2.073   3.934   4.074  1.4145  0.7878  0.2933
 5750TIP3    H217257   2.102   3.787   4.093 -1.3607  0.0735 -0.5761
 5751TIP3   OH217258   1.052   2.881   0.816 -0.0700 -0.1899  0.1293
 5751TIP3    H117259   0.957   2.896   0.816 -0.6288 -2.8408 -2.1676
 5751TIP3    H217260   1.084   2.930   0.740 -0.0177 -1.0685 -0.4348
 5752TIP3   OH217261   4.519   4.161   3.183  0.2711  0.2675  0.5449
 5752TIP3    H117262   4.555   4.227   3.123  0.6174  0.5673  1.0754
 5752TIP3    H217263   4.444   4.203   3.223 -0.0708  0.0006  0.1891
 5753TIP3   OH217264   1.963   0.695   4.276 -0.2947 -0.0644  0.4482
 5753TIP3    H117265   1.920   0.765   4.228  3.1572  0.7743 -1.7294
 5753TIP3    H217266   1.943   0.616   4.226 -1.0998 -0.0818  0.7741
 5754TIP3   OH217267   3.210   4.637   3.100 -0.0001  0.1922  0.3661
 5754TIP3    H117268   3.187   4.654   3.192 -0.5455 -0.1371  0.2949
 5754TIP3    H217269   3.166   4.554   3.080  0.8000 -0.1662  0.0530
 5755TIP3   OH217270   5.677   1.035   0.813 -0.3214 -0.0280  0.7918
 5755TIP3    H117271   5.606   1.094   0.787 -0.6548 -1.0080 -0.6481
 5755TIP3    H217272   5.632   0.954   0.841  0.2084 -0.7383 -0.3487
 5756TIP3   OH217273   5.226   4.452   0.229  0.0562  0.5606 -0.5094
 5756TIP3    H117274   5.284   4.445   0.304  0.8014  2.5114 -0.8545
 5756TIP3    H217275   5.268   4.399   0.161 -0.6905 -1.3201  0.4272
 5757TIP3   OH217276   0.658   4.327   0.113  0.4002  0.3183  0.8707
 5757TIP3    H117277   0.689   4.318   0.203  1.4844  0.7836  0.5673
 5757TIP3    H217278   0.735   4.308   0.059  0.0420  1.0474  0.0646
 5758TIP3   OH217279   0.438   0.159   1.326  0.5709  0.0935 -0.3980
 5758TIP3    H117280   0.423   0.216   1.402  1.6439 -1.9114  1.4387
 5758TIP3    H217281   0.367   0.181   1.266 -0.1761  1.9798  1.0337
 5759TIP3   OH217282   1.530   0.687   3.798 -0.9082  0.0648  0.7405
 5759TIP3    H117283   1.476   0.671   3.875 -1.5219 -0.1115  0.2784
 5759TIP3    H217284   1.468   0.711   3.729 -0.4334 -0.4631  0.1118
 5760TIP3   OH217285   4.542   2.495   3.451  0.0721  0.4257  0.4593
 5760TIP3    H117286   4.524   2.582   3.413  1.1176  0.2135 -0.5685
 5760TIP3    H217287   4.470   2.441   3.419 -0.4258  0.8368  0.8614
 5761TIP3   OH217288   3.788   5.042   2.761  0.0784  0.0680 -0.0703
 5761TIP3    H117289   3.805   4.965   2.815  0.7383  0.6435  0.5666
 5761TIP3    H217290   3.862   5.044   2.699 -0.9180 -0.8576 -1.3438
 5762TIP3   OH217291   5.959   2.037   0.702  0.1485 -0.3566 -0.4700
 5762TIP3    H117292   6.047   2.048   0.738 -0.4647  0.0215  0.9820
 5762TIP3    H217293   5.938   1.945   0.717 -0.1852 -0.1516  0.3357
 5763TIP3   OH217294   6.264   1.216   0.405  0.3740  0.3366  0.0608
 5763TIP3    H117295   6.297   1.174   0.485 -3.0141  0.8939  1.9679
 5763TIP3    H217296   6.300   1.304   0.408  0.5073  0.2696  0.8475
 5764TIP3   OH217297   6.222   0.257   3.917 -0.5369  0.6030  0.0808
 5764TIP3    H117298   6.166   0.181   3.935 -0.8096  0.4639 -1.2618
 5764TIP3    H217299   6.162   0.332   3.918 -0.1307  0.9528  2.2779
 5765TIP3   OH217300   6.259   4.918   1.246  0.3802 -0.2095 -0.0493
 5765TIP3    H117301   6.267   4.826   1.270 -0.5661 -0.4773 -0.6844
 5765TIP3    H217302   6.186   4.950   1.298 -1.5451 -0.7408 -2.2118
 5766TIP3   OH217303   2.181   5.492   2.229 -0.5370 -0.0040  0.5440
 5766TIP3    H117304   2.126   5.413   2.230 -0.1406 -0.2782  1.0135
 5766TIP3    H217305   2.118   5.564   2.221 -0.8307 -0.4057 -1.3069
 5767TIP3   OH217306   3.483   1.009   1.709 -0.5528 -0.2359 -0.4575
 5767TIP3    H117307   3.562   1.062   1.724 -1.7875  1.5021  0.3464
 5767TIP3    H217308   3.508   0.921   1.734  0.7142  0.5669  1.3164
 5768TIP3   OH217309   5.570   3.082   0.369  0.1375 -0.2293  0.1538
 5768TIP3    H117310   5.585   3.089   0.463  3.1578  3.5853 -0.3550
 5768TIP3    H217311   5.508   3.152   0.349  3.6647  2.9172 -1.0778
 5769TIP3   OH217312   6.198   2.260   0.368  0.0724 -0.7949 -0.3652
 5769TIP3    H117313   6.275   2.307   0.336  0.8837 -1.3502  0.7200
 5769TIP3    H217314   6.199   2.274   0.463 -0.9806 -1.0868 -0.2968
 5770TIP3   OH217315   1.660   1.753   0.988 -0.4528  0.3792  0.2026
 5770TIP3    H117316   1.586   1.806   0.958 -0.2928  0.1161 -0.7165
 5770TIP3    H217317   1.684   1.702   0.911  1.3401  1.1930  0.1797
 5771TIP3   OH217318   6.112   1.346   3.339 -0.0671 -0.7574  0.6551
 5771TIP3    H117319   6.123   1.435   3.306 -0.9391 -0.3268  1.4804
 5771TIP3    H217320   6.202   1.312   3.345  0.2056 -0.3553 -0.7263
 5772TIP3   OH217321   1.055   2.894   0.061  0.2847  0.1016 -0.1537
 5772TIP3    H117322   1.046   2.809   0.020 -1.5788  0.5147 -0.7035
 5772TIP3    H217323   1.013   2.955   0.000  0.5407  1.2383  0.7647
 5773TIP3   OH217324   4.433   5.452   0.424  0.3700 -0.0801  0.7348
 5773TIP3    H117325   4.501   5.462   0.358 -0.4044  0.9009  0.0493
 5773TIP3    H217326   4.437   5.360   0.450 -0.8566 -1.1546 -2.4351
 5774TIP3   OH217327   5.637   4.144   2.507  0.2247  0.6567 -0.0728
 5774TIP3    H117328   5.593   4.065   2.477  1.0571 -0.3198  1.1851
 5774TIP3    H217329   5.658   4.126   2.599  1.4747  1.8779 -0.0936
 5775TIP3   OH217330   4.302   1.417   5.066  0.0684 -0.3430  0.3399
 5775TIP3    H117331   4.264   1.409   5.153 -1.8009  0.0334 -0.3802
 5775TIP3    H217332   4.297   1.329   5.029  1.6589 -0.6900  0.8854
 5776TIP3   OH217333   3.839   4.727   4.936  0.2501 -0.8304 -0.0648
 5776TIP3    H117334   3.874   4.812   4.962 -1.9824  0.2534 -0.3142
 5776TIP3    H217335   3.914   4.679   4.903  1.8991  0.3757  1.7139
 5777TIP3   OH217336   3.886   3.827   2.461  0.3641 -0.0544 -0.2014
 5777TIP3    H117337   3.911   3.886   2.532  1.2113  0.5540 -0.9825
 5777TIP3    H217338   3.792   3.843   2.449  0.4967  0.8521 -0.1417
 5778TIP3   OH217339   4.730   3.639   3.893 -0.3975 -0.8750  0.2749
 5778TIP3    H117340   4.821   3.613   3.911  0.0200  0.6023  0.4210
 5778TIP3    H217341   4.678   3.584   3.952  0.2886 -2.5182 -0.5713
 5779TIP3   OH217342   1.632   2.387   0.974  0.2192 -0.0396  0.1560
 5779TIP3    H117343   1.540   2.364   0.990  0.0700 -0.6740 -1.4677
 5779TIP3    H217344   1.682   2.312   1.006  0.0905 -0.2354 -0.1003
 5780TIP3   OH217345   2.107   5.507   3.627 -0.2769 -0.0061 -0.1229
 5780TIP3    H117346   2.072   5.547   3.547 -0.3292  0.2295  0.0136
 5780TIP3    H217347   2.197   5.483   3.605 -0.8976 -1.7928 -0.8840
 5781TIP3   OH217348   3.465   0.195   0.049 -0.5958  0.3955  1.1732
 5781TIP3    H117349   3.524   0.184   0.124 -0.6136 -0.8262  1.0382
 5781TIP3    H217350   3.511   0.256  -0.009 -1.1561  2.3548  2.7176
 5782TIP3   OH217351   3.899   5.338   0.095 -0.1888  0.3329 -0.1986
 5782TIP3    H117352   3.904   5.327  -0.000 -0.5239 -0.5637 -0.1192
 5782TIP3    H217353   3.969   5.400   0.115 -0.3908  0.8655 -1.0805
 5783TIP3   OH217354   2.304   2.893   4.623 -0.4044  0.1497  0.4539
 5783TIP3    H117355   2.253   2.823   4.582  0.0374  0.8659 -1.4091
 5783TIP3    H217356   2.246   2.969   4.622  0.2574  0.6529 -0.5593
 5784TIP3   OH217357   1.459   1.833   1.282 -0.0636  0.1642  0.4942
 5784TIP3    H117358   1.414   1.918   1.286 -2.3134 -0.8346 -1.2879
 5784TIP3    H217359   1.471   1.808   1.374 -1.3463  1.4520  1.0534
 5785TIP3   OH217360   2.025   3.931   4.544  0.2687  0.4360 -0.7984
 5785TIP3    H117361   2.009   3.950   4.637 -0.3155 -1.1712 -0.5256
 5785TIP3    H217362   2.117   3.908   4.540  0.1215 -0.2732 -0.4362
 5786TIP3   OH217363   4.685   5.592   3.028  0.0817 -0.0283 -0.6072
 5786TIP3    H117364   4.742   5.655   2.984  0.2165  0.6409  0.4748
 5786TIP3    H217365   4.741   5.516   3.044  1.3604  1.3532  2.2027
 5787TIP3   OH217366   3.991   1.582   1.493  0.1889 -0.0323 -0.6527
 5787TIP3    H117367   3.981   1.487   1.489  0.1449 -0.0484 -0.2407
 5787TIP3    H217368   3.902   1.616   1.489 -0.1122 -0.1591  2.5943
 5788TIP3   OH217369   1.480   1.731   3.908 -0.3611  0.1692 -0.4160
 5788TIP3    H117370   1.469   1.737   4.003  0.5918 -1.9908 -0.1180
 5788TIP3    H217371   1.391   1.716   3.875 -0.5489 -0.2199  0.2481
 5789TIP3   OH217372   2.662   4.648   2.277  0.6307 -0.0927 -0.1411
 5789TIP3    H117373   2.732   4.652   2.342  1.1489  0.7887 -0.7322
 5789TIP3    H217374   2.617   4.733   2.286  1.0959  0.2976 -1.3454
 5790TIP3   OH217375   3.772   3.379   0.823 -0.0287 -0.5118  0.0356
 5790TIP3    H117376   3.832   3.395   0.750  1.0842  1.1264  1.2230
 5790TIP3    H217377   3.783   3.286   0.843  0.5709 -0.7046 -1.0716
 5791TIP3   OH217378   1.973   2.394   3.776  0.0893  0.5817 -0.7114
 5791TIP3    H117379   1.877   2.399   3.781  0.1845  1.7774  0.6670
 5791TIP3    H217380   2.003   2.481   3.805  1.6311 -0.8112  2.4275
 5792TIP3   OH217381   3.628   4.295   0.319  0.3575 -0.4047  0.2173
 5792TIP3    H117382   3.562   4.266   0.382  0.3376  0.1546  0.4579
 5792TIP3    H217383   3.670   4.214   0.290 -0.4829 -0.7680  0.0028
 5793TIP3   OH217384   5.261   3.984   0.250  0.0492  0.1893 -0.0186
 5793TIP3    H117385   5.346   3.967   0.289 -1.1307 -1.7203  1.9288
 5793TIP3    H217386   5.249   3.914   0.186 -0.1949  0.2363 -0.0252
 5794TIP3   OH217387   0.014   0.785   3.879  0.0608 -0.1354 -0.5801
 5794TIP3    H117388   0.087   0.838   3.846  0.3714 -1.1170 -1.5445
 5794TIP3    H217389   0.000   0.816   3.968  0.5018  1.2695 -0.9688
 5795TIP3   OH217390   5.819   5.447   3.243 -0.2175 -0.6994 -0.5194
 5795TIP3    H117391   5.913   5.444   3.228 -0.1052 -0.7603  0.1509
 5795TIP3    H217392   5.798   5.540   3.252 -0.0368 -0.7352  0.3803
 5796TIP3   OH217393   0.036   2.465   2.535 -0.3758 -0.0918  0.1649
 5796TIP3    H117394  -0.058   2.455   2.518 -0.2083 -0.3631 -0.6539
 5796TIP3    H217395   0.070   2.376   2.526 -0.0663 -0.0174  0.6245
 5797TIP3   OH217396   4.302   0.384   5.084  0.0911 -0.2128  0.3646
 5797TIP3    H117397   4.315   0.448   5.014 -1.9441  0.2528  0.3657
 5797TIP3    H217398   4.375   0.399   5.144 -0.6242  2.5525  0.6755
 5798TIP3   OH217399   0.862   3.350   1.952 -0.1364  0.4271 -1.0137
 5798TIP3    H117400   0.943   3.334   1.905 -0.1855 -0.4994 -0.8013
 5798TIP3    H217401   0.806   3.395   1.888 -0.4009 -1.2942 -2.0510
 5799TIP3   OH217402   1.584   4.439   1.799  0.5304 -0.3441 -0.1623
 5799TIP3    H117403   1.602   4.515   1.744  0.4567  0.2720  0.6377
 5799TIP3    H217404   1.489   4.438   1.809  0.6655  1.5531  2.6036
 5800TIP3   OH217405   0.876   2.638   3.361  0.3994 -0.2857 -0.1816
 5800TIP3    H117406   0.970   2.640   3.382  0.3518 -1.0545  0.1124
 5800TIP3    H217407   0.862   2.717   3.309  1.1504 -0.0013  0.0353
 5801TIP3   OH217408   4.363   5.369   0.019  0.8024  0.4828  0.4624
 5801TIP3    H117409   4.328   5.318  -0.053 -2.3610  0.3466  1.9208
 5801TIP3    H217410   4.424   5.310   0.064 -1.1359 -1.3329  0.8479
 5802TIP3   OH217411   0.540   5.818   0.454 -0.4820 -0.0215 -0.8839
 5802TIP3    H117412   0.592   5.802   0.375  2.6067 -0.9772  1.1472
 5802TIP3    H217413   0.480   5.744   0.458  0.0044 -0.4893 -1.8310
 5803TIP3   OH217414   0.029   4.623   1.153 -0.1453  0.0770  0.1191
 5803TIP3    H117415   0.018   4.541   1.105  1.4335  0.3210 -0.6922
 5803TIP3    H217416   0.063   4.685   1.088 -0.7743  1.2315  0.8572
 5804TIP3   OH217417   5.767   3.726   2.753  0.1012 -0.3884  0.0096
 5804TIP3    H117418   5.725   3.657   2.702  0.2466  0.3942 -1.2114
 5804TIP3    H217419   5.855   3.693   2.771 -0.2494 -1.0460  0.5484
 5805TIP3   OH217420   0.781   4.986   3.199  0.0191 -0.5392 -0.5423
 5805TIP3    H117421   0.807   4.903   3.160  0.1186 -0.9614  0.4028
 5805TIP3    H217422   0.685   4.984   3.196  0.0305 -0.3227 -1.2535
 5806TIP3   OH217423   6.069   5.533   4.289 -0.1258 -0.2541  0.0447
 5806TIP3    H117424   6.028   5.615   4.316 -2.1584 -1.6821  1.6133
 5806TIP3    H217425   6.006   5.493   4.229  1.2624 -0.3048 -1.4556
 5807TIP3   OH217426   6.014   0.497   1.749 -0.2531 -0.0000  0.1155
 5807TIP3    H117427   6.075   0.428   1.778  0.6349  1.1991  1.2324
 5807TIP3    H217428   6.011   0.558   1.823 -0.3842  1.5621 -1.1439
 5808TIP3   OH217429   2.987   0.710   4.060  0.2489  0.5891 -0.1928
 5808TIP3    H117430   2.893   0.694   4.056  0.0504  1.5882  0.1760
 5808TIP3    H217431   3.023   0.666   3.983 -0.4074 -0.5164  0.1190
 5809TIP3   OH217432   3.708   0.966   3.082  0.1046  0.3778  0.4667
 5809TIP3    H117433   3.756   0.985   3.162  1.3610  0.8910 -0.3929
 5809TIP3    H217434   3.771   0.980   3.012 -0.5617 -1.4193 -0.5546
 5810TIP3   OH217435   1.279   1.803   1.545  0.4775  0.5495 -0.3482
 5810TIP3    H117436   1.296   1.878   1.489 -0.2151  0.3437 -0.8453
 5810TIP3    H217437   1.193   1.771   1.517 -0.3031  0.9875  1.4237
 5811TIP3   OH217438   0.675   2.229   1.179  0.3141 -0.2149 -0.1109
 5811TIP3    H117439   0.671   2.325   1.180  0.8978 -0.1688 -1.1625
 5811TIP3    H217440   0.608   2.202   1.242  1.2251  0.9013  1.4213
 5812TIP3   OH217441   0.643   2.286   2.719 -0.6653 -0.3557 -0.4138
 5812TIP3    H117442   0.729   2.285   2.677 -0.6808  1.6632 -0.6001
 5812TIP3    H217443   0.661   2.314   2.809 -1.1460  0.7509 -0.6363
 5813TIP3   OH217444   3.120   2.043   2.111  0.3474 -0.0031  0.5921
 5813TIP3    H117445   3.034   2.037   2.151 -1.1150 -1.5670 -2.4111
 5813TIP3    H217446   3.148   2.133   2.127 -2.8526  1.2554 -0.1259
 5814TIP3   OH217447   0.221   0.500   4.828 -0.1902  0.2133  0.0470
 5814TIP3    H117448   0.153   0.559   4.796 -0.3374 -0.0329 -0.1042
 5814TIP3    H217449   0.285   0.497   4.756  0.3805  1.0573  0.5021
 5815TIP3   OH217450   5.719   2.675   3.731  0.3381  0.2960  0.2856
 5815TIP3    H117451   5.730   2.770   3.743 -0.8293  0.5152 -0.2398
 5815TIP3    H217452   5.627   2.659   3.754  0.0525 -0.4269 -1.2395
 5816TIP3   OH217453   5.110   1.115   0.722 -0.3466  0.1779  0.0012
 5816TIP3    H117454   5.071   1.085   0.804  0.4319 -0.0129  0.3180
 5816TIP3    H217455   5.201   1.136   0.746 -0.3066  0.7829 -0.6657
 5817TIP3   OH217456   5.027   4.863   0.529  0.0473 -0.0764  0.1848
 5817TIP3    H117457   5.013   4.906   0.613  1.6914  1.9670 -0.5020
 5817TIP3    H217458   4.948   4.881   0.478 -0.7649 -0.9491  1.0808
 5818TIP3   OH217459   4.335   3.953   3.224  0.4528  0.1103 -0.4395
 5818TIP3    H117460   4.325   4.008   3.146  0.9951 -1.4271 -1.6580
 5818TIP3    H217461   4.418   3.981   3.263  1.5819 -0.8808 -1.9940
 5819TIP3   OH217462   1.829   1.594   0.314  0.3838  0.7340 -0.3815
 5819TIP3    H117463   1.912   1.637   0.298  0.2849  1.0999  0.0668
 5819TIP3    H217464   1.792   1.580   0.226  0.9523  0.4883 -0.5837
 5820TIP3   OH217465   3.049   0.310   2.506 -0.3320 -0.1359 -0.0797
 5820TIP3    H117466   3.037   0.311   2.411 -0.6131 -0.7765 -0.0563
 5820TIP3    H217467   3.036   0.219   2.531  0.4132 -0.0931  0.4952
 5821TIP3   OH217468   3.754   0.321   5.145 -0.0679  0.3876 -0.7400
 5821TIP3    H117469   3.664   0.355   5.145 -0.8520 -1.5547  0.4536
 5821TIP3    H217470   3.752   0.249   5.082  0.4223 -0.2477 -0.0321
 5822TIP3   OH217471   0.328   5.058   3.483  0.2912 -0.8626  0.2934
 5822TIP3    H117472   0.305   4.967   3.496  0.8905 -0.7754  2.1874
 5822TIP3    H217473   0.245   5.102   3.464 -0.0075 -1.7492 -0.5478
 5823TIP3   OH217474   0.813   2.062   3.522  0.2748 -0.6419 -0.3050
 5823TIP3    H117475   0.804   2.129   3.589 -0.9150 -0.2160 -0.8599
 5823TIP3    H217476   0.853   2.107   3.447 -0.3936 -0.5540 -0.6263
 5824TIP3   OH217477   2.185   2.975   2.004  0.5899  0.1004  0.5663
 5824TIP3    H117478   2.124   2.956   2.075 -0.0731 -0.0095 -0.0218
 5824TIP3    H217479   2.271   2.968   2.044  0.2341 -0.3160  1.2758
 5825TIP3   OH217480   1.585   2.725   0.250  0.4256  0.2470  0.2344
 5825TIP3    H117481   1.522   2.780   0.297  1.1292  0.1828  1.2848
 5825TIP3    H217482   1.669   2.743   0.292  1.0159 -0.1516 -0.7216
 5826TIP3   OH217483   4.857   5.406   1.166  0.1868 -0.3284  0.0892
 5826TIP3    H117484   4.820   5.362   1.243 -1.0973 -0.5596 -0.6441
 5826TIP3    H217485   4.885   5.491   1.200  0.0998 -0.6159  0.9212
 5827TIP3   OH217486   3.689   1.412   3.505  0.0961  0.4732  0.5374
 5827TIP3    H117487   3.672   1.506   3.508  1.7766  0.8672 -0.4982
 5827TIP3    H217488   3.763   1.404   3.444 -0.9190 -1.6694 -0.5120
 5828TIP3   OH217489   2.924   0.554   1.673  0.0598  0.2432 -0.2185
 5828TIP3    H117490   3.018   0.537   1.667 -0.2049 -1.0606 -1.0155
 5828TIP3    H217491   2.898   0.574   1.584 -0.2769  1.5202  0.1508
 5829TIP3   OH217492   6.089   5.064   3.892 -0.5498 -0.0814  0.4811
 5829TIP3    H117493   6.008   5.095   3.851 -1.2993 -2.2804  0.1739
 5829TIP3    H217494   6.110   5.131   3.957 -1.3309  1.6887 -0.9807
 5830TIP3   OH217495   2.693   4.935   3.816 -0.3295  0.0133 -0.0853
 5830TIP3    H117496   2.689   4.875   3.891  0.4116 -0.1216 -0.1403
 5830TIP3    H217497   2.697   5.022   3.855  0.9188 -0.0911  0.0880
 5831TIP3   OH217498   3.955   3.522   2.854 -0.3060 -0.1499 -0.3986
 5831TIP3    H117499   4.007   3.523   2.935  2.5735 -0.0014 -2.0946
 5831TIP3    H217500   3.899   3.599   2.860 -0.4801 -0.3806  1.6063
 5832TIP3   OH217501   6.299   5.656   1.748  0.5819 -0.2410 -0.6952
 5832TIP3    H117502   6.206   5.675   1.739  0.4179  0.1156  1.3723
 5832TIP3    H217503   6.302   5.562   1.769  0.7050 -0.2501 -0.7511
 5833TIP3   OH217504   2.403   3.521   2.220  0.0007  0.3715  0.5862
 5833TIP3    H117505   2.368   3.492   2.136  0.3867 -1.6999  1.0931
 5833TIP3    H217506   2.474   3.582   2.197  1.0536 -1.2397 -0.6640
 5834TIP3   OH217507   3.161   1.021   3.109 -0.2850  0.1340 -0.1379
 5834TIP3    H117508   3.119   0.935   3.116  1.3526 -0.9159 -2.0301
 5834TIP3    H217509   3.175   1.049   3.199 -0.3193 -1.8837  0.5380
 5835TIP3   OH217510   3.871   2.836   4.942  0.0747 -0.0758 -0.1301
 5835TIP3    H117511   3.776   2.827   4.929 -0.3947  2.8757  0.4111
 5835TIP3    H217512   3.892   2.775   5.013 -1.3757 -0.9332 -0.4011
 5836TIP3   OH217513   5.173   5.470   1.085  0.1123 -0.3998  0.2774
 5836TIP3    H117514   5.146   5.383   1.113  1.2639 -0.1679  2.2631
 5836TIP3    H217515   5.110   5.529   1.126 -0.9118 -0.2742 -1.3946
 5837TIP3   OH217516   4.073   3.952   4.517 -0.0971 -0.1053 -0.3945
 5837TIP3    H117517   3.978   3.958   4.507 -0.0307  0.8063 -0.6198
 5837TIP3    H217518   4.088   3.962   4.611 -0.2096  0.0386 -0.3915
 5838TIP3   OH217519   3.539   0.210   4.038  0.4711 -0.6268 -0.0811
 5838TIP3    H117520   3.532   0.286   4.097  1.0184  0.1684 -1.0172
 5838TIP3    H217521   3.608   0.157   4.076  0.7223 -0.1947  0.0782
 5839TIP3   OH217522   2.520   3.871   3.330 -0.6298 -0.0197 -0.6906
 5839TIP3    H117523   2.465   3.818   3.272 -0.4449  1.2685 -2.0916
 5839TIP3    H217524   2.534   3.815   3.407 -1.9675 -1.2668 -1.3028
 5840TIP3   OH217525   2.581   0.726   0.108 -0.1208 -0.1899  0.4181
 5840TIP3    H117526   2.589   0.738   0.014 -0.6948  0.0255  0.3930
 5840TIP3    H217527   2.519   0.793   0.136  0.9996  0.5973  1.1442
 5841TIP3   OH217528   0.338   4.344   3.520 -0.4471 -0.5313 -0.0537
 5841TIP3    H117529   0.400   4.324   3.450 -1.5847 -0.2659 -1.1692
 5841TIP3    H217530   0.317   4.436   3.508 -1.5205 -0.7700 -0.0809
 5842TIP3   OH217531   2.144   4.543   0.880  0.4170 -0.4159  0.4765
 5842TIP3    H117532   2.145   4.614   0.944  0.9996 -0.5574  0.6254
 5842TIP3    H217533   2.051   4.524   0.867  0.1442  1.5922 -0.9178
 5843TIP3   OH217534   0.417   5.319   3.407 -0.1344 -0.0700  0.0680
 5843TIP3    H117535   0.332   5.360   3.394 -0.2150 -0.7582 -1.9047
 5843TIP3    H217536   0.402   5.226   3.390  0.9952 -0.2059 -0.2603
 5844TIP3   OH217537   2.523   1.637   2.049 -0.1322 -0.1212 -0.1093
 5844TIP3    H117538   2.550   1.728   2.039 -0.6219  0.0235 -0.1419
 5844TIP3    H217539   2.427   1.640   2.042 -0.3671 -0.3253  2.2362
 5845TIP3   OH217540   4.255   2.199   3.577  0.1908  0.2659 -0.1292
 5845TIP3    H117541   4.234   2.261   3.507 -0.5937 -0.2048 -0.3202
 5845TIP3    H217542   4.303   2.129   3.533 -0.8428 -0.3363 -0.3237
 5846TIP3   OH217543   2.886   1.376   4.535 -0.5846  1.3267  0.4096
 5846TIP3    H117544   2.891   1.404   4.626  0.6089  1.8980  0.1861
 5846TIP3    H217545   2.859   1.454   4.488 -0.6527  1.1785  0.2015
 5847TIP3   OH217546   4.291   2.207   0.282 -0.3096  0.5160  0.3961
 5847TIP3    H117547   4.384   2.191   0.266 -0.5735  0.6547 -1.4044
 5847TIP3    H217548   4.281   2.302   0.274 -0.7064  0.4470  0.0579
 5848TIP3   OH217549   4.027   3.690   1.541  0.2497 -0.5393 -0.6592
 5848TIP3    H117550   3.972   3.731   1.607  0.1767  1.0111 -1.6197
 5848TIP3    H217551   4.065   3.614   1.584 -0.3549  0.0199  0.9172
 5849TIP3   OH217552   5.609   1.084   1.539 -0.0914  0.2062  0.1274
 5849TIP3    H117553   5.652   1.108   1.457 -2.1233 -0.1745 -1.1102
 5849TIP3    H217554   5.639   0.995   1.557  2.1071  1.0592  1.0713
 5850TIP3   OH217555   2.858   1.503   1.934 -0.0096  0.3698  0.2444
 5850TIP3    H117556   2.770   1.484   1.901  0.4434  0.1200 -0.8610
 5850TIP3    H217557   2.916   1.449   1.881  0.8016  0.3493  1.1284
 5851TIP3   OH217558   0.987   4.989   3.389 -0.3738  0.0836 -0.1542
 5851TIP3    H117559   0.911   4.979   3.332 -1.6556  1.2231  1.2651
 5851TIP3    H217560   1.011   4.900   3.414  0.2419 -0.4441 -2.4486
 5852TIP3   OH217561   2.667   1.560   4.866  0.2529 -0.1027 -0.6971
 5852TIP3    H117562   2.728   1.577   4.937 -0.4768 -0.3258 -0.0051
 5852TIP3    H217563   2.582   1.547   4.909 -0.3235  0.3653 -1.6388
 5853TIP3   OH217564   0.309   0.181   1.660 -0.6136  0.6198  0.4859
 5853TIP3    H117565   0.344   0.096   1.633 -3.5602 -0.6753  0.3791
 5853TIP3    H217566   0.312   0.179   1.756 -2.3246 -0.4571  0.5633
 5854TIP3   OH217567   2.090   2.009   1.051 -0.3440 -0.4871 -0.0317
 5854TIP3    H117568   2.113   1.969   1.135  1.5525  1.2256  0.3615
 5854TIP3    H217569   2.040   2.087   1.075  1.9576  1.1525 -0.2828
 5855TIP3   OH217570   4.124   4.701   2.909 -0.4541 -0.3905 -0.0266
 5855TIP3    H117571   4.108   4.620   2.958  1.7592 -0.3617  0.8645
 5855TIP3    H217572   4.052   4.759   2.934 -1.1446 -1.4999  0.6358
 5856TIP3   OH217573   3.035   2.983   2.315  0.0091  0.5258  0.3796
 5856TIP3    H117574   2.991   2.947   2.238  0.1022  0.4404  0.3666
 5856TIP3    H217575   2.991   3.067   2.330 -0.1405  0.4537  0.3505
 5857TIP3   OH217576   2.362   1.979   2.361 -0.1116 -0.3144  0.3599
 5857TIP3    H117577   2.388   2.062   2.402  0.7713 -0.1750 -0.4747
 5857TIP3    H217578   2.309   1.936   2.428  0.9431  0.1038  1.4927
 5858TIP3   OH217579   6.221   1.857   2.437  0.8339  0.5109 -0.4381
 5858TIP3    H117580   6.260   1.860   2.525 -1.1848 -1.6319  0.6349
 5858TIP3    H217581   6.262   1.781   2.396 -3.2049 -3.0617  1.4334
 5859TIP3   OH217582   0.610   4.432   2.604  0.0414 -0.3795 -0.0441
 5859TIP3    H117583   0.585   4.375   2.531 -2.1207  1.0880 -0.5233
 5859TIP3    H217584   0.679   4.488   2.567  1.1794 -1.6632  0.0228
 5860TIP3   OH217585   0.476   4.101   2.963 -0.1855 -0.0408 -0.0974
 5860TIP3    H117586   0.384   4.077   2.949  0.1688 -1.0933 -0.8263
 5860TIP3    H217587   0.490   4.177   2.906 -0.8649  0.8066  0.8384
 5861TIP3   OH217588   3.399   5.404   1.968  0.2448  0.5130 -0.4988
 5861TIP3    H117589   3.424   5.321   2.008  0.1999 -0.1284 -1.7435
 5861TIP3    H217590   3.446   5.470   2.019  1.5264 -0.3940 -0.4482
 5862TIP3   OH217591   6.247   3.356   0.655  0.3479  0.2932  0.0195
 5862TIP3    H117592   6.289   3.273   0.634 -0.7250 -0.2713  0.0146
 5862TIP3    H217593   6.207   3.383   0.572  0.6696  0.8027  0.0298
 5863TIP3   OH217594   1.806   5.495   4.821 -0.0609  0.0866  0.2099
 5863TIP3    H117595   1.832   5.580   4.787  2.3999 -0.3194  0.8584
 5863TIP3    H217596   1.741   5.514   4.888 -0.9950  1.2727 -0.9902
 5864TIP3   OH217597   1.033   2.217   3.047 -0.0159 -0.3254  0.2263
 5864TIP3    H117598   0.963   2.153   3.032 -0.2868 -0.0265  0.2037
 5864TIP3    H217599   1.102   2.192   2.986 -0.3042 -0.3237 -0.1061
 5865TIP3   OH217600   2.057   4.139   5.038  0.1720  0.2943  0.0704
 5865TIP3    H117601   2.089   4.112   5.124 -0.9280  2.5373  1.2624
 5865TIP3    H217602   1.993   4.208   5.056  2.3719  3.3509 -2.6410
 5866TIP3   OH217603   1.599   0.159   0.642 -0.0017  1.0547  0.1051
 5866TIP3    H117604   1.578   0.076   0.685  0.5607  1.4476  1.1431
 5866TIP3    H217605   1.688   0.179   0.669 -0.0578  1.8972 -0.3101
 5867TIP3   OH217606   2.642   4.086   2.112 -0.6874 -0.5107 -0.0454
 5867TIP3    H117607   2.693   4.127   2.042 -2.0760 -0.8207 -1.2914
 5867TIP3    H217608   2.600   4.160   2.157  0.2700 -0.3053  0.5362
 5868TIP3   OH217609   0.653   0.076   4.615  0.7790 -0.8848 -0.2554
 5868TIP3    H117610   0.572   0.115   4.583  1.3902 -0.6091 -1.5341
 5868TIP3    H217611   0.633  -0.018   4.620  0.0595 -0.7092  0.5078
 5869TIP3   OH217612   2.793   2.928   4.418  0.0175 -0.5601  0.0042
 5869TIP3    H117613   2.734   2.867   4.462  0.0419 -0.3044  0.3897
 5869TIP3    H217614   2.763   3.015   4.446 -0.5932 -0.3430 -1.2413
 5870TIP3   OH217615   6.103   4.833   2.999 -0.0373 -0.3252  0.1346
 5870TIP3    H117616   6.132   4.755   2.952  0.0082 -0.5871  0.5864
 5870TIP3    H217617   6.081   4.896   2.931  2.6746  0.3188 -0.2739
 5871TIP3   OH217618   0.141   5.354   5.163 -0.0723 -0.4167  0.6896
 5871TIP3    H117619   0.067   5.323   5.110 -0.5050 -1.0185  1.6219
 5871TIP3    H217620   0.213   5.295   5.141  0.2443  0.3413 -0.4307
 5872TIP3   OH217621   3.482   0.447   0.373 -0.0601 -0.1401 -0.1178
 5872TIP3    H117622   3.395   0.407   0.374  0.2008 -0.7159 -0.3088
 5872TIP3    H217623   3.496   0.475   0.464 -1.1303  1.4783 -0.4053
 5873TIP3   OH217624   5.090   1.180   1.268  0.0748 -0.0059 -0.2281
 5873TIP3    H117625   5.035   1.259   1.273  0.2020  0.0401  0.9648
 5873TIP3    H217626   5.064   1.129   1.345  0.7470 -0.6224 -0.4013
 5874TIP3   OH217627   3.818   3.527   4.692  0.1832 -0.0683  0.1155
 5874TIP3    H117628   3.748   3.509   4.630 -0.2563 -0.2464  0.6525
 5874TIP3    H217629   3.828   3.623   4.690  0.0749 -0.0622 -0.1241
 5875TIP3   OH217630   3.720   3.832   3.113  0.1699  0.4647  0.0878
 5875TIP3    H117631   3.658   3.906   3.115 -0.2369  0.1217  0.2817
 5875TIP3    H217632   3.776   3.845   3.189 -0.2382  0.2922  0.4246
 5876TIP3   OH217633   2.899   0.319   3.952 -0.2098 -0.2389 -0.4373
 5876TIP3    H117634   2.882   0.333   4.045  1.6209  0.9740 -0.2431
 5876TIP3    H217635   2.855   0.392   3.908  0.1006 -0.0289 -0.3993
 5877TIP3   OH217636   4.871   5.738   4.547 -0.4022 -0.1321 -0.5164
 5877TIP3    H117637   4.793   5.781   4.511 -0.1122  0.4678 -0.4451
 5877TIP3    H217638   4.845   5.711   4.635 -0.0777  1.4310  0.0918
 5878TIP3   OH217639   3.204   5.624   5.084 -0.2165 -0.6391 -0.2369
 5878TIP3    H117640   3.285   5.620   5.034 -1.9789 -0.7293 -3.3259
 5878TIP3    H217641   3.218   5.563   5.157  2.8906  0.3297  0.1276
 5879TIP3   OH217642   1.486   1.058   1.578 -0.2752 -0.2258  0.3861
 5879TIP3    H117643   1.494   1.093   1.667  1.3719  2.7930 -0.8086
 5879TIP3    H217644   1.456   1.133   1.526  0.9039 -1.3053 -1.9591
 5880TIP3   OH217645   5.792   2.895   0.275 -0.5030 -0.0553 -0.3359
 5880TIP3    H117646   5.754   2.973   0.316  1.6617  0.5524  0.6722
 5880TIP3    H217647   5.874   2.880   0.323 -0.4162 -2.4542 -1.0736
 5881TIP3   OH217648   0.985   5.483   2.931 -0.4310 -0.4868  0.0268
 5881TIP3    H117649   1.050   5.500   2.999 -0.1520  0.0176 -0.3593
 5881TIP3    H217650   0.950   5.396   2.952  0.2710 -0.7072  0.3175
 5882TIP3   OH217651   2.417   1.344   0.960 -0.2434  0.2089 -0.2409
 5882TIP3    H117652   2.338   1.358   0.908  0.7331  0.6651 -1.6432
 5882TIP3    H217653   2.389   1.357   1.051 -2.3701 -2.2421 -0.4445
 5883TIP3   OH217654   3.440   2.825   1.600  0.1355 -0.1084  0.4325
 5883TIP3    H117655   3.492   2.773   1.538  0.7934 -0.5789  1.3530
 5883TIP3    H217656   3.484   2.813   1.684 -0.1833  1.2936  0.8238
 5884TIP3   OH217657   3.077   4.884   5.137  0.0797  0.2319 -0.5655
 5884TIP3    H117658   3.134   4.810   5.156 -1.4653 -1.0341 -0.5902
 5884TIP3    H217659   3.025   4.896   5.217  0.9091  1.8997 -0.2342
 5885TIP3   OH217660   4.848   5.460   3.902  0.3809  0.2826 -0.4191
 5885TIP3    H117661   4.828   5.553   3.902 -0.6365  0.0926  0.1506
 5885TIP3    H217662   4.927   5.452   3.955 -0.6480  0.6486  1.2677
 5886TIP3   OH217663   3.401   4.637   4.173 -0.0376 -0.2215 -0.0586
 5886TIP3    H117664   3.406   4.689   4.253  0.6367 -0.7965  0.2827
 5886TIP3    H217665   3.322   4.583   4.185  1.2944 -1.9922  1.2926
 5887TIP3   OH217666   5.208   4.082   0.934 -0.1019 -0.1397 -0.0298
 5887TIP3    H117667   5.227   4.113   0.845 -0.2792  1.1255  0.3492
 5887TIP3    H217668   5.117   4.109   0.950  0.1972  0.4149  0.8352
 5888TIP3   OH217669   4.606   2.653   2.463 -0.0243 -0.4585  0.3541
 5888TIP3    H117670   4.674   2.716   2.438 -1.2328 -0.1206 -2.4296
 5888TIP3    H217671   4.558   2.696   2.534 -0.4222  1.5600 -1.0538
 5889TIP3   OH217672   5.613   5.009   0.305  0.0479  0.6499 -0.1245
 5889TIP3    H117673   5.586   5.095   0.337 -0.5335  0.6975 -0.7316
 5889TIP3    H217674   5.532   4.967   0.278  0.2607 -0.2864  0.6148
 5890TIP3   OH217675   3.957   2.876   0.300 -0.1261 -0.2485  0.2503
 5890TIP3    H117676   4.041   2.904   0.263 -1.3435  1.9596 -1.0885
 5890TIP3    H217677   3.903   2.955   0.300 -2.7484 -1.8824 -0.5192
 5891TIP3   OH217678   5.387   3.275   0.309  0.1859 -0.5556  0.2750
 5891TIP3    H117679   5.416   3.359   0.274 -0.1975 -0.9080 -0.9456
 5891TIP3    H217680   5.293   3.275   0.296 -0.3084  0.1032  3.1570
 5892TIP3   OH217681   5.842   4.451   1.191 -0.3633  0.2828  0.3537
 5892TIP3    H117682   5.775   4.514   1.165  0.5153  1.4263  0.7648
 5892TIP3    H217683   5.925   4.496   1.175  0.3587 -1.3610 -0.8154
 5893TIP3   OH217684   3.340   3.551   1.971  0.0837  0.0706  0.3894
 5893TIP3    H117685   3.307   3.640   1.958 -1.3394 -0.0310  2.7271
 5893TIP3    H217686   3.267   3.504   2.011  1.2352 -1.8139  0.3970
 5894TIP3   OH217687   6.330   0.179   2.040 -0.1321 -0.7501  0.3539
 5894TIP3    H117688   6.256   0.157   1.984 -1.7985  2.4787  1.0717
 5894TIP3    H217689   6.298   0.167   2.129 -0.3963  2.0796  0.7091
 5895TIP3   OH217690   5.270   5.603   5.080 -0.2519 -0.2156 -0.5262
 5895TIP3    H117691   5.233   5.681   5.037 -0.0270  0.9826  1.3354
 5895TIP3    H217692   5.235   5.606   5.169  1.3192 -1.1673  0.1688
 5896TIP3   OH217693   6.108   2.786   1.522  0.1721  0.3940  0.0997
 5896TIP3    H117694   6.042   2.739   1.471  0.8481 -0.5964  0.0979
 5896TIP3    H217695   6.122   2.731   1.600  1.0518  0.5358  0.0549
 5897TIP3   OH217696   1.428   2.741   3.089  0.0764  0.1509 -0.3313
 5897TIP3    H117697   1.352   2.711   3.138 -0.1278 -1.7838 -1.7175
 5897TIP3    H217698   1.503   2.708   3.139 -0.1252 -1.5944 -1.0922
 5898TIP3   OH217699   3.649   2.802   1.843 -0.0507  0.2629  0.2840
 5898TIP3    H117700   3.738   2.805   1.807  0.0433 -0.3381  0.4529
 5898TIP3    H217701   3.659   2.827   1.935 -0.5830  4.0059 -0.5385
 5899TIP3   OH217702   1.142   4.987   2.692 -0.5775 -0.8691  0.2283
 5899TIP3    H117703   1.081   5.034   2.749 -1.4961 -0.2732 -1.1870
 5899TIP3    H217704   1.112   5.007   2.604  1.3408 -1.0286 -0.5029
 5900TIP3   OH217705   0.933   0.104   1.194 -0.1162  0.4831 -0.6737
 5900TIP3    H117706   0.989   0.104   1.117  0.2784  0.0832 -0.3930
 5900TIP3    H217707   0.891   0.018   1.193  1.2749 -0.2476  0.5336
 5901TIP3   OH217708   2.715   2.396   1.612 -0.4624  0.0186  0.1449
 5901TIP3    H117709   2.675   2.342   1.681 -2.4270  0.1470 -0.8096
 5901TIP3    H217710   2.683   2.357   1.530 -0.1125  1.3044 -0.6314
 5902TIP3   OH217711   1.894   0.105   1.383 -0.1679  0.2750 -0.3768
 5902TIP3    H117712   1.940   0.083   1.303 -0.0230  0.5579 -0.3722
 5902TIP3    H217713   1.958   0.090   1.453  0.0026  0.9185 -0.3919
 5903TIP3   OH217714   2.261   2.791   0.817  0.9217  0.2051 -0.0086
 5903TIP3    H117715   2.293   2.881   0.830  1.4612 -0.0738  0.6549
 5903TIP3    H217716   2.175   2.802   0.778  1.3043  1.0002 -0.6683
 5904TIP3   OH217717   5.213   2.075   4.351  0.4680  0.3736  0.1601
 5904TIP3    H117718   5.234   2.156   4.304  1.3307  0.3114  0.4362
 5904TIP3    H217719   5.296   2.045   4.387  0.1044 -0.4876  0.3111
 5905TIP3   OH217720   3.810   1.455   2.225 -0.2195  0.3810 -0.2078
 5905TIP3    H117721   3.789   1.463   2.132  2.3260  0.5795 -0.8476
 5905TIP3    H217722   3.759   1.524   2.267 -0.3606  1.2122 -1.6668
 5906TIP3   OH217723   3.217   4.778   1.311 -0.7217  0.0386  0.1096
 5906TIP3    H117724   3.305   4.751   1.339  0.0619  0.4040 -1.8273
 5906TIP3    H217725   3.176   4.698   1.278  0.2199  0.4200 -2.1766
 5907TIP3   OH217726   3.307   4.895   2.052 -0.0058 -0.0144  0.0963
 5907TIP3    H117727   3.353   4.835   2.111  0.8970 -1.8798 -2.3506
 5907TIP3    H217728   3.361   4.898   1.973 -2.1205  0.7813 -1.4215
 5908TIP3   OH217729   4.424   5.520   1.081  0.1368 -0.1220 -0.1011
 5908TIP3    H117730   4.456   5.609   1.100 -1.1973  0.1503  0.9770
 5908TIP3    H217731   4.424   5.476   1.166 -3.0521  0.1639  0.1698
 5909TIP3   OH217732   2.120   2.690   1.889 -0.3127 -0.0004  0.6070
 5909TIP3    H117733   2.188   2.624   1.905 -0.2274  0.0486  0.4532
 5909TIP3    H217734   2.136   2.757   1.956 -0.6919 -0.3595  1.0566
 5910TIP3   OH217735   0.070   5.667   3.977  0.0037  0.2217  0.0162
 5910TIP3    H117736   0.061   5.738   3.913 -0.3532 -0.2805 -0.5015
 5910TIP3    H217737   0.108   5.595   3.927  1.4374  0.3971  0.8085
 5911TIP3   OH217738   2.742   0.262   2.107 -0.1214 -0.0256  0.0607
 5911TIP3    H117739   2.655   0.301   2.117  0.6063  1.4460  1.0381
 5911TIP3    H217740   2.776   0.301   2.026 -0.7547 -1.4215 -0.9056
 5912TIP3   OH217741   2.860   5.940   4.451 -0.1722  0.1012 -0.4304
 5912TIP3    H117742   2.830   5.914   4.364 -1.1674  0.2241 -0.1322
 5912TIP3    H217743   2.955   5.935   4.446 -0.2557 -1.2207 -1.1066
 5913TIP3   OH217744   2.315   1.494   0.227  0.2713  0.2091  0.0234
 5913TIP3    H117745   2.289   1.586   0.219  0.9531  0.4621  0.5889
 5913TIP3    H217746   2.329   1.482   0.321  1.3613 -0.1443 -0.1724
 5914TIP3   OH217747   3.860   3.087   0.942 -0.1657  0.2987 -0.0536
 5914TIP3    H117748   3.773   3.123   0.959 -0.5755 -0.4313 -0.5533
 5914TIP3    H217749   3.872   3.021   1.011  0.8327  1.7538  1.2290
 5915TIP3   OH217750   4.074   0.039   1.806  0.2798  0.6542  0.8711
 5915TIP3    H117751   3.985   0.072   1.808 -0.1861 -0.4654 -0.0162
 5915TIP3    H217752   4.122   0.100   1.750  0.2584  1.6376  1.8926
 5916TIP3   OH217753   3.243   5.063   1.311 -0.1898 -0.5228 -0.0689
 5916TIP3    H117754   3.243   4.968   1.309 -0.4628 -0.5175 -0.3244
 5916TIP3    H217755   3.179   5.089   1.245 -1.3229 -0.1876  1.1158
 5917TIP3   OH217756   0.304   1.843   4.834 -0.6029 -0.1270 -0.8510
 5917TIP3    H117757   0.377   1.905   4.840 -0.5223 -0.3347  0.9758
 5917TIP3    H217758   0.226   1.899   4.826 -0.4060  0.1713 -0.7278
 5918TIP3   OH217759   4.945   4.067   1.684  0.2116  0.3089 -0.5890
 5918TIP3    H117760   4.891   4.064   1.605  1.3027  0.5257 -1.3531
 5918TIP3    H217761   4.995   4.148   1.676 -0.9241  1.2771  1.1924
 5919TIP3   OH217762   5.955   3.531   0.132 -0.1677  0.1216  0.7507
 5919TIP3    H117763   6.047   3.544   0.110 -0.0532  1.2612  1.7969
 5919TIP3    H217764   5.934   3.444   0.098  1.3692 -0.2792  0.7579
 5920TIP3   OH217765   2.069   5.915   1.073 -0.7037 -0.6069 -0.1707
 5920TIP3    H117766   2.004   5.879   1.012 -0.3605 -0.0569 -0.8759
 5920TIP3    H217767   2.117   5.979   1.021 -0.2849 -0.2543  0.6400
 5921TIP3   OH217768   3.451   5.663   3.274  0.5119  0.1428  0.0114
 5921TIP3    H117769   3.404   5.615   3.341  4.2395 -3.0340  0.7015
 5921TIP3    H217770   3.432   5.616   3.193 -0.2582  1.0655 -0.3576
 5922TIP3   OH217771   1.813   2.182   1.029 -0.2367 -0.6053  0.2247
 5922TIP3    H117772   1.851   2.133   1.102 -0.1589 -1.3164 -0.2831
 5922TIP3    H217773   1.735   2.132   1.004 -0.2339 -0.3961 -0.2143
 5923TIP3   OH217774   4.180   3.672   3.745 -0.0876  0.1491 -0.4533
 5923TIP3    H117775   4.259   3.721   3.720 -0.5412  0.9609 -0.3435
 5923TIP3    H217776   4.150   3.715   3.825  0.6946 -1.6928  0.9005
 5924TIP3   OH217777   1.852   1.434   1.135 -0.0395  0.5046 -0.2432
 5924TIP3    H117778   1.876   1.527   1.137 -0.5979  0.6742  1.9998
 5924TIP3    H217779   1.827   1.415   1.225 -1.0064 -1.5651 -0.9009
 5925TIP3   OH217780   4.881   2.966   2.207 -0.0647  0.3845 -0.3800
 5925TIP3    H117781   4.873   2.981   2.113 -2.1972  1.5459 -0.0996
 5925TIP3    H217782   4.964   3.007   2.231  2.1677 -2.6839 -2.1370
 5926TIP3   OH217783   3.695   3.098   2.027  0.0856  0.0779 -0.0208
 5926TIP3    H117784   3.630   3.066   2.090  0.3487 -1.2001 -0.3682
 5926TIP3    H217785   3.672   3.190   2.013 -0.6681  0.0709  1.0685
 5927TIP3   OH217786   2.178   1.272   0.460  0.4575 -0.3280  0.5962
 5927TIP3    H117787   2.233   1.219   0.402  1.0060  1.4719 -0.6098
 5927TIP3    H217788   2.156   1.349   0.407 -1.2651  0.1108  1.8886
 5928TIP3   OH217789   4.997   0.433   3.274 -0.2830  0.0836  0.9556
 5928TIP3    H117790   4.972   0.351   3.233  0.3017  0.2994  0.1303
 5928TIP3    H217791   5.014   0.411   3.365 -0.7787 -0.5764  0.8934
 5929TIP3   OH217792   5.503   1.613   1.411 -0.6279 -0.8187 -0.5579
 5929TIP3    H117793   5.466   1.680   1.353 -1.1169 -0.5949  0.0004
 5929TIP3    H217794   5.487   1.647   1.499 -1.6046 -2.0341 -0.2363
 5930TIP3   OH217795   1.277   4.695   4.857 -0.4842  1.0979  0.4288
 5930TIP3    H117796   1.314   4.777   4.825 -0.3307  0.6494 -0.5645
 5930TIP3    H217797   1.187   4.718   4.882 -0.5975  1.4692 -0.2977
 5931TIP3   OH217798   4.522   0.191   4.943 -0.6270  0.8802  0.0418
 5931TIP3    H117799   4.573   0.231   4.873  0.2323  1.1786  0.8276
 5931TIP3    H217800   4.520   0.257   5.013 -1.3996  0.5524  0.3470
 5932TIP3   OH217801   2.891   1.300   4.822 -0.5962 -0.3024 -0.2977
 5932TIP3    H117802   2.959   1.279   4.758 -1.1328 -0.4171 -0.8310
 5932TIP3    H217803   2.928   1.269   4.905 -0.7324 -2.0711 -0.8393
 5933TIP3   OH217804   0.218   5.604   0.316 -0.1925 -0.0295  0.7478
 5933TIP3    H117805   0.128   5.581   0.338 -0.3848  0.2800  0.2938
 5933TIP3    H217806   0.259   5.624   0.401 -0.2733 -1.1201  1.0593
 5934TIP3   OH217807   3.916   2.452   2.030  0.0435  0.0199 -0.2933
 5934TIP3    H117808   3.984   2.502   2.076  1.2452 -2.6242  1.0112
 5934TIP3    H217809   3.955   2.432   1.945  0.0219  0.3245 -0.3764
 5935TIP3   OH217810   1.160   4.932   4.164 -0.1177  0.1580  0.4163
 5935TIP3    H117811   1.222   4.974   4.105 -0.9981 -0.3992 -0.9671
 5935TIP3    H217812   1.207   4.856   4.199 -0.6923 -1.6824 -2.5006
 5936TIP3   OH217813   4.457   2.771   2.662  0.1376 -0.3611  0.0433
 5936TIP3    H117814   4.453   2.736   2.751  1.3591 -0.8371 -0.0653
 5936TIP3    H217815   4.370   2.807   2.646  0.1051  0.3659  1.6876
 5937TIP3   OH217816   4.410   1.732   4.132  0.4229 -0.0309 -0.3829
 5937TIP3    H117817   4.445   1.643   4.143 -0.2364 -0.6256 -2.6633
 5937TIP3    H217818   4.323   1.728   4.171  0.1249 -0.6056 -1.0824
 5938TIP3   OH217819   5.030   2.590   2.318 -0.1450  0.0288  0.1836
 5938TIP3    H117820   5.084   2.523   2.359  0.4779 -0.1957 -0.9661
 5938TIP3    H217821   5.060   2.593   2.227 -2.4074 -0.4605 -0.6336
 5939TIP3   OH217822   1.936   2.451   2.793  0.5335  0.5686  0.2768
 5939TIP3    H117823   2.011   2.493   2.752  0.4954 -0.0945 -0.4935
 5939TIP3    H217824   1.939   2.360   2.763 -0.5314  0.5083  0.2849
 5940TIP3   OH217825   4.135   4.008   2.676  0.4232  0.4131  0.7450
 5940TIP3    H117826   4.213   3.962   2.646  0.2164  0.4186  0.1934
 5940TIP3    H217827   4.168   4.091   2.710  0.6751  0.3516  0.6559
 5941TIP3   OH217828   0.079   4.905   2.963 -0.0782  0.4084  0.0306
 5941TIP3    H117829  -0.015   4.896   2.948  0.1695 -1.3819 -0.6435
 5941TIP3    H217830   0.119   4.894   2.876  0.7358  2.2543  0.1084
 5942TIP3   OH217831   2.674   0.489   3.102 -0.2179  0.2034 -0.2690
 5942TIP3    H117832   2.755   0.500   3.153  0.2232  0.4116 -0.9922
 5942TIP3    H217833   2.678   0.398   3.071 -0.1409  0.2846 -0.4994
 5943TIP3   OH217834   1.149   5.166   3.595 -0.4386 -0.1514  0.2265
 5943TIP3    H117835   1.148   5.127   3.508 -0.2009  0.9846 -0.2962
 5943TIP3    H217836   1.157   5.091   3.654 -0.7949 -0.9484 -0.7112
 5944TIP3   OH217837   5.109   1.899   0.298 -0.0067  0.5689 -0.1259
 5944TIP3    H117838   5.038   1.853   0.253  0.5269 -0.8633  0.4471
 5944TIP3    H217839   5.188   1.855   0.268  0.3711 -0.4662  2.1736
 5945TIP3   OH217840   0.471   3.816   1.030  0.0607 -0.1476  0.4525
 5945TIP3    H117841   0.463   3.733   0.984 -0.9658 -0.4676  1.1789
 5945TIP3    H217842   0.421   3.878   0.977  1.5483  0.2473 -0.5660
 5946TIP3   OH217843   5.189   1.259   4.704 -0.3768 -0.2442  0.8234
 5946TIP3    H117844   5.148   1.188   4.754 -1.0271 -0.0722  0.5442
 5946TIP3    H217845   5.271   1.277   4.750 -0.1034 -1.3081  0.7900
 5947TIP3   OH217846   6.130   3.066   1.494 -0.4031 -0.4143  0.1469
 5947TIP3    H117847   6.099   3.031   1.411 -0.5307 -1.1768  0.5126
 5947TIP3    H217848   6.111   2.998   1.558  1.0539 -0.4694  0.5583
 5948TIP3   OH217849   1.190   2.243   0.186 -0.0376  0.5414  0.2349
 5948TIP3    H117850   1.251   2.170   0.176  0.4409  0.9734 -0.0407
 5948TIP3    H217851   1.199   2.270   0.277 -0.1839  0.2863  0.3256
 5949TIP3   OH217852   0.084   2.069   3.637 -0.4196 -0.2698  0.1415
 5949TIP3    H117853   0.020   2.047   3.570  0.3996  1.8641 -1.4689
 5949TIP3    H217854   0.164   2.022   3.611 -1.1101 -2.6465  1.9518
 5950TIP3   OH217855   2.630   3.390   0.277 -0.8882 -0.0048  0.1997
 5950TIP3    H117856   2.584   3.472   0.260  1.6018  1.9406  2.0973
 5950TIP3    H217857   2.562   3.330   0.307 -2.6214  1.7716  0.0180
 5951TIP3   OH217858   1.468   2.482   0.230  0.7117  0.0256 -0.3703
 5951TIP3    H117859   1.531   2.430   0.279 -0.1933 -0.3306  0.4386
 5951TIP3    H217860   1.513   2.565   0.215  0.2651  1.0635  3.1038
 5952TIP3   OH217861   2.930   1.460   2.199 -0.4457 -0.0840 -0.2329
 5952TIP3    H117862   2.899   1.497   2.116  2.0187 -1.2541 -1.7930
 5952TIP3    H217863   3.013   1.504   2.215  0.7363 -2.2232 -0.1844
 5953TIP3   OH217864   2.504   4.155   4.077 -0.1513 -0.4218  0.3286
 5953TIP3    H117865   2.424   4.175   4.125  0.1492 -1.5577  1.3506
 5953TIP3    H217866   2.478   4.087   4.015 -0.3869  0.5698 -0.6907
 5954TIP3   OH217867   1.291   1.357   0.432 -0.5847 -0.2134 -0.1034
 5954TIP3    H117868   1.217   1.306   0.462 -1.0078  0.3391 -0.1992
 5954TIP3    H217869   1.268   1.382   0.342  0.7299 -1.9934 -1.0023
 5955TIP3   OH217870   5.184   5.197   1.168 -0.3542 -0.2540  0.0242
 5955TIP3    H117871   5.220   5.109   1.159  0.3494 -0.1048  1.2070
 5955TIP3    H217872   5.181   5.213   1.263  0.6941  1.4525 -0.1859
 5956TIP3   OH217873   2.723   4.372   4.976  0.3564 -0.6967  0.4261
 5956TIP3    H117874   2.750   4.423   5.053  0.1627 -1.9279  1.3252
 5956TIP3    H217875   2.738   4.281   5.001  1.3467 -1.0818 -1.4070
 5957TIP3   OH217876   4.785   3.040   4.276  0.0035  0.4633  0.0479
 5957TIP3    H117877   4.692   3.047   4.294 -0.0333  3.1528 -0.7593
 5957TIP3    H217878   4.797   3.088   4.194  1.9723 -0.5599 -0.3163
 5958TIP3   OH217879   3.663   5.691   1.749  0.2087  0.2718  0.1698
 5958TIP3    H117880   3.581   5.649   1.723  0.8282 -1.9985  1.6173
 5958TIP3    H217881   3.732   5.637   1.709  1.0336  0.9987  0.5664
 5959TIP3   OH217882   6.167   4.564   1.442 -0.2265 -0.1600  0.0543
 5959TIP3    H117883   6.085   4.613   1.441  0.2870  0.8766  2.1348
 5959TIP3    H217884   6.234   4.630   1.459  0.6241 -1.3517  1.6679
 5960TIP3   OH217885   3.383   3.721   0.179 -0.2724  0.5390 -0.2862
 5960TIP3    H117886   3.371   3.691   0.269 -0.6568  0.7866 -0.2535
 5960TIP3    H217887   3.310   3.780   0.164 -1.3653 -1.0420 -1.4308
 5961TIP3   OH217888   4.515   4.407   2.972  0.6104  0.4294 -0.7565
 5961TIP3    H117889   4.505   4.497   3.003 -0.5406  1.1263 -2.9229
 5961TIP3    H217890   4.609   4.397   2.956  1.0627  0.4452  1.5670
 5962TIP3   OH217891   1.354   0.449   3.816 -0.5823 -0.3294  0.2283
 5962TIP3    H117892   1.335   0.521   3.875 -0.9557  0.7241 -1.1159
 5962TIP3    H217893   1.274   0.397   3.814 -1.5000  1.0255 -1.1973
 5963TIP3   OH217894   6.004   1.142   0.704 -0.2454 -0.3817  0.0148
 5963TIP3    H117895   6.011   1.053   0.736 -0.6425 -0.0454  1.1058
 5963TIP3    H217896   5.986   1.133   0.611 -0.0734 -1.4285  0.0729
 5964TIP3   OH217897   5.189   0.867   1.996 -0.6465 -0.4726  0.9071
 5964TIP3    H117898   5.164   0.803   1.929  0.1649  0.1670 -0.0390
 5964TIP3    H217899   5.118   0.930   1.997 -0.9092 -0.7688  1.0254
 5965TIP3   OH217900   2.246   0.218   3.826  0.2060 -0.0214  0.4830
 5965TIP3    H117901   2.252   0.151   3.758 -0.8868  0.4869 -0.1462
 5965TIP3    H217902   2.253   0.301   3.779  1.4210  0.3229  1.2368
 5966TIP3   OH217903   2.753   0.448   1.855  0.2686  0.7688  0.0330
 5966TIP3    H117904   2.811   0.487   1.789 -0.2902  1.3636 -0.1093
 5966TIP3    H217905   2.742   0.516   1.921  2.1473 -0.3579  1.6314
 5967TIP3   OH217906   0.897   4.271   1.002 -0.1059  0.2258  0.2535
 5967TIP3    H117907   0.822   4.284   0.944 -1.8753  0.5223  2.4793
 5967TIP3    H217908   0.946   4.353   0.997 -0.7476  0.5903 -0.1411
 5968TIP3   OH217909   5.240   0.503   2.499  0.2580  0.1860 -0.3860
 5968TIP3    H117910   5.233   0.413   2.530  0.1648 -0.3199 -1.7809
 5968TIP3    H217911   5.262   0.494   2.406 -0.4577  1.5838 -0.7212
 5969TIP3   OH217912   1.330   1.195   4.845 -0.3634 -0.1110 -0.2086
 5969TIP3    H117913   1.247   1.180   4.799 -0.5698  1.9882 -0.6037
 5969TIP3    H217914   1.390   1.226   4.777  1.0771 -2.4709 -0.1048
 5970TIP3   OH217915   2.245   2.859   3.825  0.0597  0.3953 -0.5892
 5970TIP3    H117916   2.331   2.883   3.860 -0.0324  0.4938 -0.4242
 5970TIP3    H217917   2.259   2.844   3.732 -0.1940  2.7356 -1.0542
 5971TIP3   OH217918   0.870   2.891   3.266 -0.4945  0.3444 -0.4709
 5971TIP3    H117919   0.807   2.953   3.303 -0.2199 -0.3137  1.1893
 5971TIP3    H217920   0.945   2.895   3.325  0.0781 -0.5957 -1.1040
 5972TIP3   OH217921   2.069   2.469   0.989 -0.2388 -1.4423  0.2465
 5972TIP3    H117922   2.044   2.558   1.015  0.8579 -0.5249 -1.5900
 5972TIP3    H217923   2.072   2.420   1.071 -1.9757 -0.0975  1.1939
 5973TIP3   OH217924   4.134   1.802   3.178 -0.4647 -0.0675  0.0861
 5973TIP3    H117925   4.061   1.815   3.118  0.3690  0.7502 -0.8145
 5973TIP3    H217926   4.208   1.845   3.134  0.6740 -1.3145  0.7125
 5974TIP3   OH217927   4.740   2.424   1.606 -0.2523  0.4747 -0.0238
 5974TIP3    H117928   4.682   2.349   1.596 -0.8000  0.4324  2.7276
 5974TIP3    H217929   4.823   2.387   1.634  0.6732  0.6720 -2.3089
 5975TIP3   OH217930   5.031   5.897   2.573 -0.1465 -0.5791 -0.4056
 5975TIP3    H117931   4.950   5.849   2.558  0.8871 -2.1965 -1.0153
 5975TIP3    H217932   5.046   5.945   2.492 -0.0225 -0.9974 -0.6300
 5976TIP3   OH217933   0.933   5.946   3.701 -0.2189  0.3853  0.9469
 5976TIP3    H117934   1.013   5.982   3.662 -0.2389  0.2199  0.7537
 5976TIP3    H217935   0.927   5.989   3.786 -0.3248  0.9610  0.6572
 5977TIP3   OH217936   3.254   5.879   3.449 -0.0301 -0.0015 -0.4232
 5977TIP3    H117937   3.205   5.800   3.426  0.4603 -0.8072  1.1318
 5977TIP3    H217938   3.191   5.933   3.497 -0.0165 -0.0592 -0.3380
 5978TIP3   OH217939   3.058   5.330   2.914 -0.2662 -0.1583  0.1758
 5978TIP3    H117940   3.120   5.363   2.979  0.9675 -1.2633 -0.4132
 5978TIP3    H217941   3.049   5.237   2.935 -2.0558  0.0472  0.4939
 5979TIP3   OH217942   5.587   5.466   3.097  0.0237 -0.1276  0.1097
 5979TIP3    H117943   5.538   5.386   3.081  1.5953 -0.7777 -1.9399
 5979TIP3    H217944   5.653   5.441   3.162  0.2034 -0.3914 -0.1687
 5980TIP3   OH217945   5.805   0.279   0.956  0.6976 -0.5758 -0.8180
 5980TIP3    H117946   5.882   0.324   0.922  0.4847 -1.1918 -2.1916
 5980TIP3    H217947   5.840   0.219   1.022  1.5477 -1.4364 -1.9855
 5981TIP3   OH217948   1.772   4.365   1.969 -0.2224  0.4254 -0.3246
 5981TIP3    H117949   1.694   4.387   1.917 -1.1072 -0.5192  0.5588
 5981TIP3    H217950   1.737   4.327   2.049  1.1598 -1.9885 -0.7739
 5982TIP3   OH217951   3.757   1.099   1.086  0.3256 -0.3927 -0.2249
 5982TIP3    H117952   3.820   1.033   1.057  1.1328  0.9051 -1.5736
 5982TIP3    H217953   3.692   1.103   1.016  0.1642  0.0869 -0.0529
 5983TIP3   OH217954   6.285   5.585   0.671  0.0678  0.3186 -0.3181
 5983TIP3    H117955   6.348   5.645   0.630  0.4682  1.2481  1.5583
 5983TIP3    H217956   6.260   5.629   0.752 -0.5359 -1.5232  0.5324
 5984TIP3   OH217957   2.032   2.452   1.656 -0.0672  0.0327 -0.3130
 5984TIP3    H117958   1.992   2.537   1.677 -0.3191 -0.5301  1.6796
 5984TIP3    H217959   1.971   2.411   1.595 -0.6875  0.6962 -0.1512
 5985TIP3   OH217960   4.661   5.047   0.052  0.8683 -0.3187  0.4021
 5985TIP3    H117961   4.609   5.103   0.110  0.2581 -1.9056  1.4417
 5985TIP3    H217962   4.597   4.999  -0.000  1.2640 -1.6307  1.0649
 5986TIP3   OH217963   3.598   1.319   3.129  0.3353 -0.1433 -0.3227
 5986TIP3    H117964   3.671   1.380   3.126 -1.1036  1.6615 -2.6773
 5986TIP3    H217965   3.636   1.234   3.104  1.6699  0.6890 -1.2324
 5987TIP3   OH217966   0.068   1.383   0.004  0.5522  0.2317 -1.0412
 5987TIP3    H117967   0.047   1.299   0.043  0.1019  0.3031 -1.1302
 5987TIP3    H217968   0.153   1.369  -0.038  0.7571 -0.0094 -0.5460
 5988TIP3   OH217969   4.627   1.530   4.443 -0.3541  0.4110 -0.1646
 5988TIP3    H117970   4.588   1.601   4.495 -2.8861  0.9314 -2.5562
 5988TIP3    H217971   4.686   1.574   4.383 -1.7506  0.5732 -1.4901
 5989TIP3   OH217972   0.472   5.519   3.016  0.0484 -0.7927  0.3339
 5989TIP3    H117973   0.507   5.435   2.985  0.5011 -0.9298  1.1796
 5989TIP3    H217974   0.516   5.534   3.100  0.8829  0.8696 -0.3517
 5990TIP3   OH217975   2.936   3.611   2.480 -0.1579 -0.1993 -0.3531
 5990TIP3    H117976   2.956   3.701   2.505  0.6605 -0.3439 -0.4574
 5990TIP3    H217977   2.974   3.557   2.549  0.3867 -0.5114 -0.8874
 5991TIP3   OH217978   2.085   2.282   0.279 -0.1157 -0.1163  0.7801
 5991TIP3    H117979   2.146   2.209   0.292  0.4848  0.5870  2.0839
 5991TIP3    H217980   2.141   2.358   0.264 -0.7357  0.0874 -0.7334
 5992TIP3   OH217981   5.641   3.248   3.342  0.4831  0.2943 -0.5946
 5992TIP3    H117982   5.551   3.254   3.376  0.5029  0.4896 -0.5745
 5992TIP3    H217983   5.693   3.220   3.417  0.3858 -0.1545 -0.6926
 5993TIP3   OH217984   2.533   3.836   4.692 -0.2520  0.7025 -0.2156
 5993TIP3    H117985   2.623   3.865   4.707 -0.2484  0.6183 -0.0690
 5993TIP3    H217986   2.481   3.917   4.693 -0.3389  0.6479  0.9021
 5994TIP3   OH217987   3.994   0.587   4.795 -0.0023 -0.3282 -0.0034
 5994TIP3    H117988   4.049   0.597   4.718  1.2510  0.1469  0.9285
 5994TIP3    H217989   4.010   0.665   4.847  0.5215 -1.4198  1.5601
 5995TIP3   OH217990   3.969   5.337   0.535 -0.3645 -0.1086 -0.4523
 5995TIP3    H117991   3.883   5.369   0.562 -1.0028 -2.6238  0.8664
 5995TIP3    H217992   4.022   5.339   0.615  0.1551 -0.4825 -0.7775
 5996TIP3   OH217993   4.515   2.787   3.825  0.0799 -0.1148 -0.4247
 5996TIP3    H117994   4.545   2.855   3.884 -0.8650  0.9266 -1.1000
 5996TIP3    H217995   4.539   2.705   3.868  0.2437  0.6276  0.9424
 5997TIP3   OH217996   6.191   5.827   2.966  0.1384  0.8119  0.1261
 5997TIP3    H117997   6.164   5.868   3.048 -1.1712 -1.0327  0.6932
 5997TIP3    H217998   6.279   5.793   2.984 -1.1150 -1.9240  1.7940
 5998TIP3   OH217999   1.953   4.543   2.667  0.5818 -0.3007  0.1183
 5998TIP3    H118000   1.979   4.575   2.581  0.5144 -0.9296 -0.1387
 5998TIP3    H218001   1.869   4.584   2.683  0.2735 -0.7036 -0.4182
 5999TIP3   OH218002   4.135   5.693   2.571 -0.6080 -0.0792 -0.1389
 5999TIP3    H118003   4.201   5.758   2.592  0.7382 -1.4684  0.0903
 5999TIP3    H218004   4.151   5.621   2.632 -0.1268 -1.8767 -2.2696
 6000TIP3   OH218005   4.828   4.961   1.149  0.1070 -0.4070 -0.1047
 6000TIP3    H118006   4.874   4.908   1.084 -0.0417 -0.5785 -0.0710
 6000TIP3    H218007   4.849   4.920   1.233 -3.4244 -3.1534 -0.2994
 6001TIP3   OH218008   3.073   2.888   4.099 -0.1749 -0.1464 -0.4593
 6001TIP3    H118009   3.088   2.956   4.034  0.3984 -0.8238 -1.0574
 6001TIP3    H218010   2.978   2.879   4.105 -0.2332  0.1353 -0.9765
 6002TIP3   OH218011   3.271   4.367   0.119 -0.2543  0.3190  0.1789
 6002TIP3    H118012   3.185   4.391   0.084 -0.2218 -0.8993 -0.8005
 6002TIP3    H218013   3.270   4.401   0.208 -0.5098  3.1374 -0.7983
 6003TIP3   OH218014   1.374   4.500   0.208  0.1109  0.2905 -0.3122
 6003TIP3    H118015   1.329   4.424   0.244 -0.8266  0.0772 -1.8494
 6003TIP3    H218016   1.380   4.482   0.115 -0.5031  2.2770 -0.7764
 6004TIP3   OH218017   3.129   4.088   2.615  0.2513 -0.3411  0.0865
 6004TIP3    H118018   3.197   4.099   2.682  0.4731 -1.2005  0.0154
 6004TIP3    H218019   3.047   4.099   2.662  0.4351  1.3045  0.0628
 6005TIP3   OH218020   1.116   1.268   4.668  0.9896  0.1035 -0.3565
 6005TIP3    H118021   1.041   1.305   4.716  0.6680  0.4284 -1.0890
 6005TIP3    H218022   1.093   1.176   4.656  0.1913  0.4349 -1.5162
 6006TIP3   OH218023   3.293   0.353   0.582  0.1212 -0.4207 -0.2700
 6006TIP3    H118024   3.269   0.388   0.668  0.1331 -0.4360 -0.2606
 6006TIP3    H218025   3.214   0.309   0.552  1.4955 -4.9494  1.9401
 6007TIP3   OH218026   0.777   2.348   2.954  0.1336  0.0800  0.3966
 6007TIP3    H118027   0.802   2.260   2.984 -2.3351 -0.3602  1.4287
 6007TIP3    H218028   0.858   2.399   2.958  1.4234 -1.8973  0.7192
 6008TIP3   OH218029   3.421   4.738   2.244 -0.5320 -0.3625  0.1275
 6008TIP3    H118030   3.333   4.718   2.276  0.3143 -1.3762  1.9568
 6008TIP3    H218031   3.480   4.704   2.311  1.3023 -0.4809 -1.4409
 6009TIP3   OH218032   4.313   4.652   0.911 -0.0134 -0.0844 -0.0805
 6009TIP3    H118033   4.392   4.663   0.963  0.8572 -1.8876 -0.9255
 6009TIP3    H218034   4.264   4.734   0.924  2.2979  1.3965 -0.0930
 6010TIP3   OH218035   1.995   4.592   2.387  0.1840 -0.0175  0.5725
 6010TIP3    H118036   2.035   4.524   2.333 -2.1097 -0.8676 -0.1844
 6010TIP3    H218037   1.946   4.646   2.325 -1.1464 -0.0120  1.5870
 6011TIP3   OH218038   5.809   2.118   5.167  0.7235 -0.5689 -0.1175
 6011TIP3    H118039   5.788   2.200   5.213  0.3614  0.3057 -1.7663
 6011TIP3    H218040   5.749   2.116   5.092  1.5426 -1.7539 -0.7772
 6012TIP3   OH218041   5.943   4.836   4.484 -0.3553 -0.3416 -0.0108
 6012TIP3    H118042   5.848   4.847   4.475 -0.6131 -0.2069  2.3048
 6012TIP3    H218043   5.977   4.850   4.396 -2.5680 -1.4784 -1.1527
 6013TIP3   OH218044   6.255   5.127   3.127  0.1497 -0.0708 -0.2652
 6013TIP3    H118045   6.323   5.060   3.121 -0.7213 -1.4872  3.0732
 6013TIP3    H218046   6.176   5.078   3.150 -0.7033  1.9969  1.5228
 6014TIP3   OH218047   1.799   4.886   3.443 -0.6091  0.5692  0.2181
 6014TIP3    H118048   1.862   4.875   3.515 -0.4976  0.3331  0.0876
 6014TIP3    H218049   1.801   4.979   3.423  0.4674  0.4106 -0.4736
 6015TIP3   OH218050   3.966   4.972   4.976 -0.0073  0.3692 -0.0125
 6015TIP3    H118051   4.036   5.005   4.920  0.0028 -1.5342 -1.1978
 6015TIP3    H218052   3.896   5.037   4.968  0.4611  0.7366 -1.2715
 6016TIP3   OH218053   4.262   4.241   2.784 -0.0830  0.2280 -0.4095
 6016TIP3    H118054   4.267   4.280   2.696 -2.7076  1.1066 -0.2746
 6016TIP3    H218055   4.258   4.317   2.843 -2.1277 -0.2240  0.1088
 6017TIP3   OH218056   1.873   3.820   4.339  0.0482 -0.1238 -0.6337
 6017TIP3    H118057   1.884   3.726   4.324  3.7031  0.4239 -2.4714
 6017TIP3    H218058   1.925   3.839   4.417  2.0361  0.7535 -2.0979
 6018TIP3   OH218059   0.529   3.139   4.561  0.2408 -0.1129  0.0961
 6018TIP3    H118060   0.500   3.202   4.495  0.6279  1.2031  1.1475
 6018TIP3    H218061   0.614   3.171   4.589 -0.2700 -0.1673  1.8075
 6019TIP3   OH218062   5.583   0.604   4.148  1.0405  0.2697 -0.0312
 6019TIP3    H118063   5.526   0.621   4.223  0.9027  2.8965 -0.6276
 6019TIP3    H218064   5.650   0.673   4.153  0.0508  1.6244 -3.1798
 6020TIP3   OH218065   0.133   0.992   4.705 -0.1976  0.2456  0.0573
 6020TIP3    H118066   0.073   0.953   4.769 -1.4952  0.5194 -0.9575
 6020TIP3    H218067   0.204   0.928   4.697 -1.7606 -1.4544 -0.8017
 6021TIP3   OH218068   3.878   5.092   1.102 -0.0807 -0.3442 -0.2679
 6021TIP3    H118069   3.843   5.150   1.033 -0.2920 -1.4245 -1.0930
 6021TIP3    H218070   3.831   5.117   1.181  0.4487  1.1981 -0.4059
 6022TIP3   OH218071   4.467   2.479   0.779 -0.5850 -0.1356 -0.1101
 6022TIP3    H118072   4.412   2.406   0.750 -1.7539  1.2257 -1.4841
 6022TIP3    H218073   4.436   2.499   0.867 -0.4836 -1.0436  0.1469
 6023TIP3   OH218074   1.572   0.449   1.579 -0.4313 -0.7853 -0.0060
 6023TIP3    H118075   1.503   0.384   1.569 -0.7126 -0.4748 -0.1044
 6023TIP3    H218076   1.530   0.522   1.626 -0.2727 -0.4412 -0.3944
 6024TIP3   OH218077   2.836   0.059   2.826 -0.7972 -0.3943 -0.2546
 6024TIP3    H118078   2.915   0.079   2.876 -0.7782  0.9363 -0.7642
 6024TIP3    H218079   2.842   0.115   2.749 -1.4410 -1.4771 -1.1311
 6025TIP3   OH218080   5.379   3.599   4.340  0.3404  0.3019  0.5211
 6025TIP3    H118081   5.396   3.622   4.249 -0.5705  0.6290  0.4242
 6025TIP3    H218082   5.435   3.658   4.391  0.7674  0.1926  0.1813
 6026TIP3   OH218083   0.662   4.622   3.334  0.5460 -0.3134  0.4155
 6026TIP3    H118084   0.736   4.627   3.273  1.4495 -0.5360  1.4677
 6026TIP3    H218085   0.600   4.688   3.301  1.0291 -0.3865 -0.6996
 6027TIP3   OH218086   6.106   3.916   0.843 -0.2173 -0.3504  0.5264
 6027TIP3    H118087   6.121   3.847   0.778 -3.3189 -0.6439 -0.0598
 6027TIP3    H218088   6.178   3.977   0.831  1.4612 -2.3872 -0.4227
 6028TIP3   OH218089   3.523   4.830   1.756 -0.2347 -0.0322  0.8379
 6028TIP3    H118090   3.532   4.744   1.799  1.8037 -1.9851 -2.9675
 6028TIP3    H218091   3.601   4.879   1.784  2.0123 -1.9194 -1.5275
 6029TIP3   OH218092   5.472   3.333   4.355  0.0446 -0.2073  0.1524
 6029TIP3    H118093   5.565   3.346   4.341  0.3507 -0.6785  1.6355
 6029TIP3    H218094   5.432   3.416   4.328  0.8912  0.0174 -0.4397
 6030TIP3   OH218095   3.629   2.668   1.435 -0.0128 -0.1764 -0.1124
 6030TIP3    H118096   3.667   2.583   1.413  0.7942 -0.4989  2.1981
 6030TIP3    H218097   3.698   2.732   1.416 -0.0737 -0.2062 -0.4353
 6031TIP3   OH218098   2.814   4.759   0.559  0.2075 -0.2058 -0.0152
 6031TIP3    H118099   2.899   4.718   0.542  0.7126  0.8095 -0.0007
 6031TIP3    H218100   2.790   4.729   0.647  1.0686  0.3459  0.4210
 6032TIP3   OH218101   5.701   1.610   1.938  0.1024  0.2173  0.5387
 6032TIP3    H118102   5.776   1.642   1.988  1.2326  1.0354 -1.5454
 6032TIP3    H218103   5.626   1.654   1.976  0.6205 -0.6276  2.6863
 6033TIP3   OH218104   3.466   1.602   3.551 -0.0462  0.1923  0.0575
 6033TIP3    H118105   3.402   1.672   3.563  0.1137  0.1799  1.0269
 6033TIP3    H218106   3.462   1.582   3.458  0.8569  2.4159 -0.5411
 6034TIP3   OH218107   5.839   1.279   0.168  0.0769 -0.4646 -0.2836
 6034TIP3    H118108   5.774   1.209   0.176  2.1237 -2.7600 -2.1643
 6034TIP3    H218109   5.890   1.273   0.249  1.1359 -2.2396 -1.0192
 6035TIP3   OH218110   4.716   0.081   2.734 -0.0414 -0.3106 -0.6211
 6035TIP3    H118111   4.680   0.170   2.736  1.5103  0.3427  0.7801
 6035TIP3    H218112   4.651   0.027   2.779 -1.2981 -0.0384 -2.0397
 6036TIP3   OH218113   3.127   2.681   1.441  0.2641  0.4143 -0.4072
 6036TIP3    H118114   3.148   2.771   1.466  1.6110  0.0920 -0.3092
 6036TIP3    H218115   3.209   2.633   1.451 -0.4079 -0.8213 -0.5273
 6037TIP3   OH218116   3.882   4.083   1.292 -0.1350 -0.7873 -0.0894
 6037TIP3    H118117   3.954   4.120   1.343  0.3810  0.7214 -1.8107
 6037TIP3    H218118   3.820   4.052   1.358 -0.2010  2.4149  1.5530
 6038TIP3   OH218119   5.362   2.510   4.323 -0.4821 -0.5280  0.7657
 6038TIP3    H118120   5.371   2.592   4.372  1.4165  0.1528 -0.6224
 6038TIP3    H218121   5.313   2.534   4.244  1.0984 -0.4216 -0.2214
 6039TIP3   OH218122   0.286   3.115   1.094  0.3118  0.0677  0.1556
 6039TIP3    H118123   0.226   3.152   1.029  1.2497  0.8738 -0.2708
 6039TIP3    H218124   0.293   3.183   1.161 -0.7003 -0.7868  1.1708
 6040TIP3   OH218125   5.423   5.511   2.843 -0.0717  0.6475 -0.2249
 6040TIP3    H118126   5.387   5.425   2.822 -0.7792  1.1254 -1.0446
 6040TIP3    H218127   5.465   5.500   2.928 -0.3841 -0.4354 -0.2025
 6041TIP3   OH218128   6.097   0.735   2.826  0.0867 -0.5958 -0.4831
 6041TIP3    H118129   6.078   0.812   2.879 -1.5276 -0.4099 -1.2669
 6041TIP3    H218130   6.131   0.670   2.888 -0.7432 -0.0277  0.5931
 6042TIP3   OH218131   4.270   0.539   0.721  0.2274  0.3630 -0.3644
 6042TIP3    H118132   4.188   0.575   0.687 -0.1664  0.3475  0.5368
 6042TIP3    H218133   4.325   0.527   0.644 -0.7885 -0.0631 -1.0491
 6043TIP3   OH218134   0.808   2.259   3.818 -0.5404  0.2181  0.1685
 6043TIP3    H118135   0.717   2.238   3.838  0.0983  0.0583  3.3989
 6043TIP3    H218136   0.859   2.195   3.868  1.3775  0.3305 -1.5178
 6044TIP3   OH218137   0.254   3.511   4.234  0.1174  0.5477  0.2393
 6044TIP3    H118138   0.173   3.559   4.219  0.4432  0.5990 -1.6025
 6044TIP3    H218139   0.302   3.564   4.297 -0.7735  1.1130  0.4591
 6045TIP3   OH218140   2.995   0.017   3.110 -0.0969  0.2939  0.6902
 6045TIP3    H118141   2.928   0.059   3.163  0.8773  0.7988  1.5626
 6045TIP3    H218142   3.063   0.083   3.100  0.2252 -0.1617 -0.2884
 6046TIP3   OH218143   6.210   2.299   0.652  0.0939 -0.1927  0.4098
 6046TIP3    H118144   6.283   2.333   0.704  0.1557  0.0551  0.1612
 6046TIP3    H218145   6.182   2.220   0.699  1.8867 -1.5134 -0.6353
 6047TIP3   OH218146   4.858   3.031   0.493 -0.0566  0.2218  0.1067
 6047TIP3    H118147   4.953   3.042   0.486 -0.2644  1.1446 -1.6329
 6047TIP3    H218148   4.838   3.054   0.584  1.2462  1.2056  0.1638
 6048TIP3   OH218149   0.427   4.906   2.925 -0.1463  0.1352 -0.0206
 6048TIP3    H118150   0.454   4.815   2.914  0.0177  0.3207 -1.3347
 6048TIP3    H218151   0.392   4.931   2.840 -3.5041  0.2692  1.2630
 6049TIP3   OH218152   4.277   3.809   4.796 -0.0095  0.5940 -0.2557
 6049TIP3    H118153   4.301   3.896   4.766  3.2592  0.4412  1.5057
 6049TIP3    H218154   4.256   3.820   4.889 -0.0319 -0.4088 -0.1311
 6050TIP3   OH218155   5.527   4.508   1.875  0.3436 -0.0880 -0.3015
 6050TIP3    H118156   5.603   4.495   1.819  2.3779  0.5579  2.0994
 6050TIP3    H218157   5.520   4.427   1.926  0.5225  0.5000  0.6833
 6051TIP3   OH218158   0.006   3.850   2.629 -0.7034 -0.3321 -0.5185
 6051TIP3    H118159  -0.018   3.926   2.576 -0.9222 -1.8389 -2.7344
 6051TIP3    H218160   0.091   3.823   2.594 -0.4194 -0.8486  0.5350
 6052TIP3   OH218161   5.311   0.853   3.014 -0.3444  0.1548 -0.5415
 6052TIP3    H118162   5.307   0.928   3.073  0.5759 -0.3121  0.1419
 6052TIP3    H218163   5.271   0.782   3.064 -2.2137  0.3957 -1.5862
 6053TIP3   OH218164   1.327   2.307   1.842  0.1203  0.6389  0.3514
 6053TIP3    H118165   1.305   2.246   1.911 -0.6270  0.9800  0.4238
 6053TIP3    H218166   1.384   2.371   1.884  2.4341 -0.9779 -0.1462
 6054TIP3   OH218167   4.560   3.470   0.131  0.0585  0.8429  0.1102
 6054TIP3    H118168   4.623   3.426   0.074  0.6604  0.8389  0.7684
 6054TIP3    H218169   4.554   3.415   0.209 -0.9205  0.7393 -0.0221
 6055TIP3   OH218170   2.904   1.175   2.703  0.0600  0.4668 -0.5255
 6055TIP3    H118171   2.812   1.174   2.729  0.6848  0.2508  1.8758
 6055TIP3    H218172   2.945   1.240   2.760  1.4697  0.3200 -1.3259
 6056TIP3   OH218173   3.497   1.464   2.815  1.0126 -0.2636  0.7393
 6056TIP3    H118174   3.435   1.415   2.870  1.1456 -0.3067  0.8529
 6056TIP3    H218175   3.529   1.534   2.872  0.0071  0.6329  0.2381
 6057TIP3   OH218176   4.130   4.673   2.326  0.5614  0.2051  0.0067
 6057TIP3    H118177   4.170   4.694   2.411  2.1871  0.2963 -0.7495
 6057TIP3    H218178   4.173   4.592   2.299 -1.4331 -0.9818  0.1788
 6058TIP3   OH218179   0.403   2.482   4.046 -0.5367 -0.9656  0.2549
 6058TIP3    H118180   0.403   2.549   3.978 -0.0449 -1.1027  0.1169
 6058TIP3    H218181   0.436   2.403   4.002 -1.6068 -1.4460  0.2729
 6059TIP3   OH218182   6.270   5.495   2.862  0.1430 -0.3751 -0.4465
 6059TIP3    H118183   6.225   5.561   2.810  0.4571 -0.7936 -1.2792
 6059TIP3    H218184   6.354   5.483   2.818  1.4367  0.9760  1.5478
 6060TIP3   OH218185   2.304   5.202   2.119  0.6247 -0.1097  0.2606
 6060TIP3    H118186   2.359   5.146   2.064  0.3990  0.9635 -1.1224
 6060TIP3    H218187   2.215   5.189   2.086  0.5978  1.2000 -0.2292
 6061TIP3   OH218188   3.876   1.428   3.321 -0.0472 -0.5222 -0.0645
 6061TIP3    H118189   3.836   1.475   3.248  0.6662 -1.9425 -1.4235
 6061TIP3    H218190   3.966   1.460   3.323 -0.7678  1.6753  2.1326
 6062TIP3   OH218191   5.954   4.515   4.860  0.0661 -0.1682 -0.2083
 6062TIP3    H118192   5.888   4.567   4.906 -0.5742 -1.0441 -0.1138
 6062TIP3    H218193   5.987   4.574   4.792  1.8253  1.5552  1.9883
 6063TIP3   OH218194   3.898   2.353   2.308 -0.0949  0.6555 -0.5847
 6063TIP3    H118195   3.944   2.436   2.299  1.2683 -0.1553 -1.3844
 6063TIP3    H218196   3.950   2.290   2.258 -0.9463 -0.7513  0.2096
 6064TIP3   OH218197   4.054   1.777   5.021 -0.2895 -0.1756 -0.4577
 6064TIP3    H118198   4.148   1.768   5.038 -0.3574 -0.2474 -0.1077
 6064TIP3    H218199   4.048   1.806   4.930  0.2095  2.8996  0.3823
 6065TIP3   OH218200   3.873   3.371   1.553 -0.5587  0.1255 -0.2178
 6065TIP3    H118201   3.969   3.381   1.554 -0.6033  0.7984 -1.0998
 6065TIP3    H218202   3.842   3.438   1.614 -0.5185  0.7783 -0.8988
 6066TIP3   OH218203   2.697   3.346   3.095 -0.4454 -0.0663 -0.2690
 6066TIP3    H118204   2.645   3.361   3.016  2.2144 -1.1636 -2.4271
 6066TIP3    H218205   2.677   3.256   3.121  0.3683 -0.5267 -1.1616
 6067TIP3   OH218206   0.428   1.157   0.045 -0.3765  0.3549  0.5796
 6067TIP3    H118207   0.394   1.078   0.086  0.0795  0.5718  1.4115
 6067TIP3    H218208   0.378   1.228   0.085  1.3662  0.7298  2.2586
 6068TIP3   OH218209   5.966   1.826   4.246 -0.3514  1.0462 -0.3561
 6068TIP3    H118210   5.998   1.750   4.296  0.3987  1.5096 -0.1286
 6068TIP3    H218211   5.973   1.798   4.154 -1.8227  0.1554 -0.2392
 6069TIP3   OH218212   0.327   5.903   1.559  0.5280 -0.1370  0.5213
 6069TIP3    H118213   0.347   5.943   1.643  2.7738  1.6449 -0.7436
 6069TIP3    H218214   0.386   5.828   1.553  0.0295 -0.5537  0.6947
 6070TIP3   OH218215   2.028   2.044   5.189 -0.3484 -0.4656  0.0386
 6070TIP3    H118216   2.034   2.118   5.130 -0.7434  0.3275  0.9623
 6070TIP3    H218217   1.941   2.007   5.172  0.2976 -1.4821 -1.2632
 6071TIP3   OH218218   4.726   2.815   3.583  0.2949  1.0740  0.2555
 6071TIP3    H118219   4.656   2.786   3.525  2.9856  0.5674 -3.0422
 6071TIP3    H218220   4.701   2.905   3.606 -1.5047  0.8491 -0.5853
 6072TIP3   OH218221   5.062   1.806   4.367  0.3615 -0.5560  0.2827
 6072TIP3    H118222   5.110   1.869   4.312 -1.6347  0.2895 -0.5757
 6072TIP3    H218223   5.033   1.856   4.443 -1.1266 -0.4257 -0.3393
 6073TIP3   OH218224   3.306   2.316   3.236 -0.4473 -0.4843  0.4365
 6073TIP3    H118225   3.253   2.275   3.168  1.3663 -1.3189 -0.5343
 6073TIP3    H218226   3.329   2.402   3.200 -0.6809 -0.3419  0.6244
 6074TIP3   OH218227   3.597   3.127   1.005  0.7918  0.4100  0.7546
 6074TIP3    H118228   3.647   3.102   1.083 -0.7754 -0.6234  1.4857
 6074TIP3    H218229   3.516   3.163   1.040  0.9308  1.9157 -0.3993
 6075TIP3   OH218230   2.494   2.110   1.490 -0.5251  1.2413  0.1717
 6075TIP3    H118231   2.479   2.167   1.566  1.1159  1.0953  0.6506
 6075TIP3    H218232   2.582   2.134   1.459  0.7590 -1.7471  1.1083
 6076TIP3   OH218233   5.252   1.544   4.691  0.2954  0.1790  0.5225
 6076TIP3    H118234   5.168   1.587   4.702  0.3550  0.5642 -0.4871
 6076TIP3    H218235   5.231   1.450   4.695 -0.0428  0.2765  1.1914
 6077TIP3   OH218236   2.645   4.374   1.054  0.4804 -0.1983 -0.0664
 6077TIP3    H118237   2.575   4.312   1.034 -1.5243  2.0924 -0.6816
 6077TIP3    H218238   2.637   4.392   1.148 -1.0027  1.3384 -0.4290
 6078TIP3   OH218239   5.422   5.763   0.139 -0.0343 -0.5429  0.7346
 6078TIP3    H118240   5.360   5.828   0.106 -1.5608 -2.7112 -0.9902
 6078TIP3    H218241   5.413   5.767   0.234 -1.5040  0.4438  0.5837
 6079TIP3   OH218242   5.619   3.121   2.116  0.1517 -0.2908  0.2322
 6079TIP3    H118243   5.702   3.167   2.105  0.6478 -1.1429  0.2753
 6079TIP3    H218244   5.634   3.064   2.191 -0.8079  0.2571  0.8590
 6080TIP3   OH218245   3.616   1.277   0.480  0.7249 -0.0512  0.0749
 6080TIP3    H118246   3.688   1.267   0.418 -0.5272 -1.1195 -1.2864
 6080TIP3    H218247   3.562   1.200   0.466 -0.6651  0.6961  1.0889
 6081TIP3   OH218248   0.555   4.315   3.941 -0.4849 -0.0652  0.1282
 6081TIP3    H118249   0.507   4.258   3.881 -0.4273 -1.1741  1.1136
 6081TIP3    H218250   0.487   4.362   3.989 -0.6218 -1.2904  1.1915
 6082TIP3   OH218251   5.370   0.109   2.296 -0.6573 -0.2581 -0.4461
 6082TIP3    H118252   5.387   0.083   2.386 -1.4722  1.1632  0.1547
 6082TIP3    H218253   5.450   0.151   2.267 -1.4779  2.4885  0.8840
 6083TIP3   OH218254   0.165   0.013   3.673 -0.4699 -0.1400 -0.0180
 6083TIP3    H118255   0.169   0.103   3.706  0.2145 -0.4360  0.7611
 6083TIP3    H218256   0.186   0.021   3.580  2.1896  0.2824  0.5335
 6084TIP3   OH218257   4.392   1.383   3.104  0.0880 -0.5908 -0.3975
 6084TIP3    H118258   4.477   1.423   3.126 -1.0010  1.6457  0.0462
 6084TIP3    H218259   4.352   1.445   3.043 -2.5746  0.1594  1.9030
 6085TIP3   OH218260   3.574   5.986   3.632  0.2947 -0.0768 -0.5421
 6085TIP3    H118261   3.620   5.905   3.610  2.3615  0.6431  0.7984
 6085TIP3    H218262   3.525   5.965   3.712  0.2061 -0.2062 -0.6300
 6086TIP3   OH218263   2.900   2.390   4.450  0.1627  0.4792 -0.0035
 6086TIP3    H118264   2.996   2.393   4.450  0.2793 -1.1215 -1.8346
 6086TIP3    H218265   2.878   2.299   4.471 -0.9968  0.9551  0.9789
 6087TIP3   OH218266   1.871   0.199   0.738  0.2825  0.0089  0.3637
 6087TIP3    H118267   1.914   0.270   0.690 -1.2656  1.2252  0.6958
 6087TIP3    H218268   1.931   0.125   0.730  0.9324  0.7045 -1.8569
 6088TIP3   OH218269   0.341   1.676   3.007  0.0655  0.7525 -0.0346
 6088TIP3    H118270   0.431   1.669   3.041  0.4412  0.4299 -1.0586
 6088TIP3    H218271   0.351   1.677   2.912 -1.1124 -1.1790 -0.2523
 6089TIP3   OH218272   0.150   0.701   0.259  0.7372  0.7033  0.1230
 6089TIP3    H118273   0.057   0.682   0.256  0.3725  2.2130  0.6264
 6089TIP3    H218274   0.180   0.661   0.341  0.0569  1.9278  1.0179
 6090TIP3   OH218275   5.476   3.958   0.419 -0.2233 -0.2767  0.8657
 6090TIP3    H118276   5.481   3.890   0.486  0.2687 -0.3481  0.7606
 6090TIP3    H218277   5.563   3.959   0.379 -0.8126 -0.9781 -0.5166
 6091TIP3   OH218278   2.757   0.574   0.276  0.0647  0.2479  0.3941
 6091TIP3    H118279   2.833   0.628   0.252  1.0839 -1.1609  0.2878
 6091TIP3    H218280   2.681   0.626   0.249  1.0428  0.5658 -2.0441
 6092TIP3   OH218281   4.769   1.104   5.188 -0.6765 -0.3069  0.4906
 6092TIP3    H118282   4.816   1.076   5.110 -1.5096  1.7929 -0.8630
 6092TIP3    H218283   4.794   1.196   5.200 -1.6177 -0.1909  1.9022
 6093TIP3   OH218284   4.180   1.695   4.252 -0.0117  0.1167  0.0978
 6093TIP3    H118285   4.226   1.744   4.320  1.1832  0.2934 -0.7971
 6093TIP3    H218286   4.090   1.729   4.254  0.5021  1.5140  0.2745
 6094TIP3   OH218287   4.788   2.769   3.953  0.4614  0.0021  0.1289
 6094TIP3    H118288   4.781   2.860   3.924  0.0669 -0.3801 -1.0550
 6094TIP3    H218289   4.821   2.774   4.043 -0.5518  1.3504  0.4499
 6095TIP3   OH218290   6.303   1.135   0.679  0.2168  0.3518  0.1356
 6095TIP3    H118291   6.224   1.141   0.732  0.1967  1.0306  0.0260
 6095TIP3    H218292   6.348   1.218   0.692  1.0625 -0.1368  0.4254
 6096TIP3   OH218293   2.338   1.707   4.893  0.3260  0.4372  0.1041
 6096TIP3    H118294   2.338   1.739   4.983  1.0066 -0.3095  0.3820
 6096TIP3    H218295   2.390   1.772   4.845  1.0102  0.1976  0.5039
 6097TIP3   OH218296   3.695   0.031   4.426  0.5401  0.3702  0.1505
 6097TIP3    H118297   3.789   0.023   4.445  0.6567 -1.9210 -1.0063
 6097TIP3    H218298   3.653   0.035   4.511  1.5625 -0.7702  0.7334
 6098TIP3   OH218299   5.398   2.806   4.902  0.2882  0.1327  0.2392
 6098TIP3    H118300   5.357   2.878   4.854 -2.9136 -2.1077 -0.7390
 6098TIP3    H218301   5.465   2.773   4.841  1.0597  1.5720  0.2711
 6099TIP3   OH218302   3.046   2.148   3.744 -0.0166 -0.2877 -0.5313
 6099TIP3    H118303   3.041   2.234   3.787 -0.6325 -0.2506 -0.6663
 6099TIP3    H218304   3.132   2.148   3.702 -1.4868  1.9788 -4.0255
 6100TIP3   OH218305   1.796   3.644   3.110 -0.0983  0.2734  0.2806
 6100TIP3    H118306   1.878   3.687   3.133  1.3479 -2.1403 -0.0692
 6100TIP3    H218307   1.746   3.641   3.192 -0.2591  2.4454  0.3295
 6101TIP3   OH218308   5.558   4.168   0.706 -0.0885  0.0088 -0.3893
 6101TIP3    H118309   5.613   4.212   0.641 -0.6846 -1.3701 -1.9023
 6101TIP3    H218310   5.597   4.191   0.790  1.2148  1.1812 -1.2687
 6102TIP3   OH218311   1.870   5.941   4.957 -0.0166  0.3825 -0.1649
 6102TIP3    H118312   1.899   6.022   4.999  2.5233 -0.4187 -0.1820
 6102TIP3    H218313   1.901   5.871   5.015 -0.6376 -0.6243 -1.0082
 6103TIP3   OH218314   2.304   5.332   4.163  0.6715 -0.0282  0.2707
 6103TIP3    H118315   2.384   5.384   4.171  0.7535 -0.2208  0.7614
 6103TIP3    H218316   2.233   5.395   4.167  0.7871  0.0980  0.3414
 6104TIP3   OH218317   0.148   0.293   0.074 -0.0315  0.6453  0.4521
 6104TIP3    H118318   0.199   0.261  -0.000 -2.6401  2.4875 -2.3601
 6104TIP3    H218319   0.211   0.297   0.146  2.3318 -2.6146 -1.1706
 6105TIP3   OH218320   4.170   5.164   2.251 -0.0163  0.2538  0.5483
 6105TIP3    H118321   4.245   5.135   2.304 -1.8496  0.4599  3.5058
 6105TIP3    H218322   4.178   5.260   2.250  1.6038  0.2009 -2.2628
 6106TIP3   OH218323   4.600   5.361   4.021  0.0260 -0.1370  0.1232
 6106TIP3    H118324   4.589   5.309   4.100 -0.5417 -0.4691 -0.1624
 6106TIP3    H218325   4.684   5.405   4.032  0.3405 -0.8213  0.5425
 6107TIP3   OH218326   1.365   0.610   3.051 -0.1909  0.0695 -0.6098
 6107TIP3    H118327   1.446   0.604   3.002 -0.1685 -0.0871 -0.5544
 6107TIP3    H218328   1.301   0.645   2.989  0.1196  1.0003 -0.4152
 6108TIP3   OH218329   0.161   3.790   3.766  0.1095 -0.3978  0.2513
 6108TIP3    H118330   0.103   3.865   3.758  1.3697  0.8211  1.8682
 6108TIP3    H218331   0.233   3.807   3.705 -0.2844 -0.9960 -0.3949
 6109TIP3   OH218332   4.373   5.382   3.882  0.2360  0.1760  0.6200
 6109TIP3    H118333   4.453   5.358   3.929  0.7530  3.0059  1.4024
 6109TIP3    H218334   4.309   5.400   3.950 -0.5159 -0.2975  0.0515
 6110TIP3   OH218335   3.333   2.791   4.250  0.0379 -0.4749 -0.0707
 6110TIP3    H118336   3.271   2.819   4.183 -1.2258 -2.7322  0.0616
 6110TIP3    H218337   3.361   2.872   4.292  0.0574  0.9224 -2.5786
 6111TIP3   OH218338   4.505   1.245   4.785  0.0503  0.5868  0.0141
 6111TIP3    H118339   4.558   1.264   4.708  0.9210 -0.3353  0.3637
 6111TIP3    H218340   4.414   1.254   4.754  0.3643  2.7136 -0.4536
 6112TIP3   OH218341   2.243   5.272   2.392  0.4705  0.3842 -0.4158
 6112TIP3    H118342   2.269   5.360   2.365 -0.6040  0.4439 -1.3257
 6112TIP3    H218343   2.267   5.216   2.318  0.0699  0.0963 -0.3300
 6113TIP3   OH218344   3.456   2.218   1.744  0.0324  0.4599 -0.5053
 6113TIP3    H118345   3.517   2.270   1.692  0.4173 -0.2733 -0.8075
 6113TIP3    H218346   3.491   2.222   1.833  0.6635 -0.1448 -0.7191
 6114TIP3   OH218347   3.532   2.175   1.056  0.2095  0.2879 -0.1130
 6114TIP3    H118348   3.613   2.142   1.016 -0.6511 -1.0183 -0.8650
 6114TIP3    H218349   3.512   2.111   1.125  0.2958  1.1055  0.6819
 6115TIP3   OH218350   4.968   0.081   3.775  0.2081  0.1314 -0.4524
 6115TIP3    H118351   5.001   0.057   3.861 -0.2203 -0.1488 -0.3622
 6115TIP3    H218352   4.903   0.149   3.793 -1.5442 -1.4885 -0.3235
 6116TIP3   OH218353   5.750   0.257   2.039 -0.4757 -0.3878 -0.3146
 6116TIP3    H118354   5.675   0.200   2.057 -0.3119 -0.9499 -1.3108
 6116TIP3    H218355   5.742   0.277   1.946  0.0537  0.3778 -0.2005
 6117TIP3   OH218356   4.651   0.403   1.331  0.0403 -0.0103  0.4157
 6117TIP3    H118357   4.642   0.478   1.273  0.6325 -0.9987 -0.9974
 6117TIP3    H218358   4.583   0.343   1.303 -1.4170  0.5426  2.5123
 6118TIP3   OH218359   0.691   0.407   5.069  0.0222 -0.9759 -0.7242
 6118TIP3    H118360   0.689   0.350   5.146 -1.0414  1.0418  0.8382
 6118TIP3    H218361   0.616   0.379   5.016  0.4006 -1.9711 -0.7628
 6119TIP3   OH218362   1.683   3.328   1.673  0.0130  0.2655 -0.3039
 6119TIP3    H118363   1.774   3.358   1.672 -0.1750  0.8622  0.1889
 6119TIP3    H218364   1.677   3.273   1.751  0.4199 -1.3182 -1.3280
 6120TIP3   OH218365   0.142   2.446   3.915 -0.0259 -0.8262 -0.4712
 6120TIP3    H118366   0.205   2.457   3.986  0.0536  1.7927 -0.8502
 6120TIP3    H218367   0.194   2.409   3.843  0.0145 -2.9534  0.5733
 6121TIP3   OH218368   1.749   2.763   2.986  0.2751 -0.2337  0.1440
 6121TIP3    H118369   1.799   2.682   2.974  1.4232  0.4184  0.3836
 6121TIP3    H218370   1.737   2.770   3.081 -0.7439 -0.6421  0.0634
 6122TIP3   OH218371   2.875   3.741   4.694 -0.0955  0.3323 -0.0564
 6122TIP3    H118372   2.859   3.830   4.661 -1.3416 -0.4076 -1.6272
 6122TIP3    H218373   2.837   3.684   4.627  1.1046 -1.4152  0.6757
 6123TIP3   OH218374   1.371   2.377   0.736  0.4533 -0.0237  0.3014
 6123TIP3    H118375   1.340   2.308   0.676 -0.8382  2.0994 -1.6147
 6123TIP3    H218376   1.443   2.419   0.690 -0.3686  1.4610  0.3115
 6124TIP3   OH218377   0.088   4.629   2.652  0.1311 -0.3303  0.0276
 6124TIP3    H118378   0.008   4.585   2.624  0.4725  0.4523 -2.4020
 6124TIP3    H218379   0.065   4.722   2.653  0.9436 -0.1173 -0.4931
 6125TIP3   OH218380   4.641   5.008   3.372 -0.1411  0.6450 -0.2616
 6125TIP3    H118381   4.736   5.010   3.365 -0.0955  1.3553  0.4495
 6125TIP3    H218382   4.615   5.100   3.376 -0.9716  0.5024 -1.7226
 6126TIP3   OH218383   0.480   3.361   1.232 -0.5253 -0.3942  0.4111
 6126TIP3    H118384   0.442   3.334   1.315 -0.9631 -1.0263  0.0099
 6126TIP3    H218385   0.572   3.379   1.253  0.1444 -3.3667  0.5060
 6127TIP3   OH218386   4.188   2.689   3.432  0.6858 -0.3350 -0.6862
 6127TIP3    H118387   4.127   2.626   3.469  1.1922 -0.0098  0.7519
 6127TIP3    H218388   4.239   2.720   3.506  0.6069  1.6069 -1.3879
 6128TIP3   OH218389   2.472   2.640   3.710  0.0702  0.2197 -0.3077
 6128TIP3    H118390   2.377   2.635   3.714  0.1201 -0.5985  0.0315
 6128TIP3    H218391   2.490   2.718   3.657 -0.8027 -0.4189 -1.6124
 6129TIP3   OH218392   2.550   5.069   0.517  0.0757 -0.0769  0.2386
 6129TIP3    H118393   2.640   5.096   0.501 -0.3990  0.1586 -2.5841
 6129TIP3    H218394   2.557   4.978   0.546  1.1907 -0.8790 -2.2819
 6130TIP3   OH218395   4.878   1.234   0.081  0.2151 -0.7098  0.2181
 6130TIP3    H118396   4.877   1.177   0.004 -0.6158 -3.2117  1.9345
 6130TIP3    H218397   4.962   1.279   0.078  0.3515 -1.0449 -1.9179
 6131TIP3   OH218398   5.214   5.802   3.286 -0.2271 -0.8795 -0.5711
 6131TIP3    H118399   5.265   5.878   3.315 -0.1607 -1.0906 -0.1317
 6131TIP3    H218400   5.267   5.762   3.217 -0.0183 -0.8270 -0.4410
 6132TIP3   OH218401   5.782   3.523   3.331  0.1605  0.4159  0.0410
 6132TIP3    H118402   5.767   3.532   3.237 -0.8789  0.7000  0.2196
 6132TIP3    H218403   5.769   3.430   3.349 -0.1703  0.4470 -0.0207
 6133TIP3   OH218404   0.163   2.264   2.676  0.0390  0.2158 -0.1321
 6133TIP3    H118405   0.248   2.302   2.652  0.8080  0.8008  3.0080
 6133TIP3    H218406   0.183   2.172   2.697 -0.2530  0.1681 -0.0541
 6134TIP3   OH218407   4.765   1.572   4.727 -0.3014 -0.4399 -0.1589
 6134TIP3    H118408   4.746   1.481   4.752 -0.2047 -0.3445  0.2690
 6134TIP3    H218409   4.679   1.610   4.708 -0.2561 -0.9527 -1.5350
 6135TIP3   OH218410   1.820   0.336   1.828 -0.6178 -0.4782 -0.6878
 6135TIP3    H118411   1.847   0.346   1.919  0.6897 -2.7797 -0.7600
 6135TIP3    H218412   1.902   0.336   1.779 -1.0016 -2.9052 -1.4341
 6136TIP3   OH218413   2.419   5.741   4.222 -0.1097  0.4459 -0.3796
 6136TIP3    H118414   2.404   5.791   4.142 -2.4668 -0.6113 -0.6922
 6136TIP3    H218415   2.427   5.807   4.291 -3.6734  1.4236 -0.6858
 6137TIP3   OH218416   2.370   5.098   1.082 -0.2063 -0.1684 -0.3487
 6137TIP3    H118417   2.301   5.143   1.033  0.4106  0.5092 -0.6194
 6137TIP3    H218418   2.441   5.162   1.088 -0.1622 -0.3237  1.2261
 6138TIP3   OH218419   1.726   1.628   3.944  0.3249  0.1508  0.3131
 6138TIP3    H118420   1.699   1.556   4.001 -1.1933  2.0477  2.1620
 6138TIP3    H218421   1.645   1.655   3.900  0.6292  1.4049  0.5003
 6139TIP3   OH218422   0.076   5.900   1.816  0.1781  0.0752  0.5695
 6139TIP3    H118423   0.024   5.918   1.894  0.4201  1.1610  0.4885
 6139TIP3    H218424   0.044   5.815   1.786  1.0614 -1.0642  2.6361
 6140TIP3   OH218425   2.182   2.444   4.679 -0.0224  0.1182  0.4375
 6140TIP3    H118426   2.163   2.404   4.594 -0.9620  1.7685 -0.1774
 6140TIP3    H218427   2.097   2.455   4.721  0.2630  0.9386  0.8229
 6141TIP3   OH218428   5.097   5.078   4.950  0.4791  0.1898 -0.2165
 6141TIP3    H118429   5.040   5.062   4.875 -1.4732  1.1975  0.9678
 6141TIP3    H218430   5.069   5.163   4.985  1.4586 -0.1347  1.5141
 6142TIP3   OH218431   2.900   1.581   2.750 -0.4256 -0.0345 -0.1322
 6142TIP3    H118432   2.883   1.573   2.656  0.3858  0.5652 -0.3410
 6142TIP3    H218433   2.939   1.668   2.760 -0.6300 -0.0401  0.7822
 6143TIP3   OH218434   0.221   2.001   2.756  0.0982  0.2304 -0.4973
 6143TIP3    H118435   0.258   1.914   2.771 -0.0413  0.5128  1.8265
 6143TIP3    H218436   0.146   1.986   2.699  0.0285 -1.1982 -0.0631
 6144TIP3   OH218437   3.594   4.618   1.917  0.3263  0.1510 -0.2167
 6144TIP3    H118438   3.515   4.576   1.951 -0.0068  0.8337 -0.1313
 6144TIP3    H218439   3.658   4.607   1.987  1.4428 -3.4645 -1.5858
 6145TIP3   OH218440   4.379   5.124   1.845 -0.5133 -0.4277 -0.0581
 6145TIP3    H118441   4.354   5.110   1.754  1.0281  0.5453 -0.6683
 6145TIP3    H218442   4.465   5.083   1.853 -0.1085  0.5074  0.6323
 6146TIP3   OH218443   0.395   3.102   2.927 -0.2645  0.0007  0.0089
 6146TIP3    H118444   0.379   3.160   2.852 -1.0882  0.5367  0.5858
 6146TIP3    H218445   0.314   3.105   2.978  0.0694 -0.8314  0.6127
 6147TIP3   OH218446   2.833   3.435   3.644 -0.0831  0.4339 -0.2136
 6147TIP3    H118447   2.817   3.470   3.557 -0.4204 -0.7831 -0.6696
 6147TIP3    H218448   2.928   3.437   3.655 -0.0427  0.6016 -0.6050
 6148TIP3   OH218449   5.612   4.355   0.955 -0.0177 -0.5389  0.9341
 6148TIP3    H118450   5.518   4.360   0.972  0.0276 -0.3660  1.1450
 6148TIP3    H218451   5.652   4.344   1.041  0.0936 -1.7254  0.7504
 6149TIP3   OH218452   2.279   5.016   1.347 -0.3475 -0.2528  0.0298
 6149TIP3    H118453   2.316   5.020   1.259  0.4737  0.4577  0.4013
 6149TIP3    H218454   2.243   5.103   1.362  0.2339 -0.1156  0.6939
 6150TIP3   OH218455   4.481   1.207   0.113  0.1302  0.5456  0.1743
 6150TIP3    H118456   4.431   1.228   0.192 -0.4940  1.3891 -0.4377
 6150TIP3    H218457   4.449   1.121   0.086  0.2435  0.3164  0.7437
 6151TIP3   OH218458   5.518   4.806   3.883 -0.0754  0.0156 -0.1474
 6151TIP3    H118459   5.431   4.765   3.884  0.3408 -1.0827 -2.2351
 6151TIP3    H218460   5.519   4.857   3.802  1.3015 -0.1611 -0.2573
 6152TIP3   OH218461   3.882   2.814   1.360 -0.4148  0.1665  0.0780
 6152TIP3    H118462   3.844   2.875   1.423  0.1176  0.8599 -0.2583
 6152TIP3    H218463   3.976   2.816   1.379 -0.2537  0.3532 -0.7007
 6153TIP3   OH218464   5.331   1.794   2.999  0.1475 -0.4619 -0.3029
 6153TIP3    H118465   5.254   1.794   3.056  1.0372  4.5918  1.3918
 6153TIP3    H218466   5.405   1.781   3.058  0.8647 -1.5836 -1.3834
 6154TIP3   OH218467   1.908   3.621   3.819  0.7840 -0.6777  0.2489
 6154TIP3    H118468   1.817   3.648   3.806  1.2715  0.6760 -0.5877
 6154TIP3    H218469   1.919   3.545   3.762  0.6121  0.1914 -0.9836
 6155TIP3   OH218470   0.864   0.610   3.136  0.4695  0.0644 -0.3009
 6155TIP3    H118471   0.790   0.565   3.095 -0.3319  1.1339 -0.0860
 6155TIP3    H218472   0.938   0.591   3.079 -0.1602 -0.3101 -1.0173
 6156TIP3   OH218473   5.522   5.787   2.122 -0.0182  0.0870 -0.1719
 6156TIP3    H118474   5.508   5.862   2.181  1.5497 -1.1730  1.9433
 6156TIP3    H218475   5.565   5.825   2.046  1.8486  1.2564  1.3613
 6157TIP3   OH218476   4.565   5.323   2.204 -0.1706  0.0783  0.8662
 6157TIP3    H118477   4.490   5.296   2.256 -0.8658  0.3034 -0.0084
 6157TIP3    H218478   4.565   5.419   2.211 -0.0923  0.0913  0.6780
 6158TIP3   OH218479   4.987   4.981   4.724  0.1868  0.1230 -0.0318
 6158TIP3    H118480   4.914   4.986   4.663  0.1155  0.2066  0.0611
 6158TIP3    H218481   4.990   4.889   4.750  1.6056 -0.4181 -1.8673
 6159TIP3   OH218482   5.421   2.954   3.882  0.1938 -0.0570  0.3116
 6159TIP3    H118483   5.354   2.960   3.814  0.0882 -0.8970  0.3288
 6159TIP3    H218484   5.413   3.035   3.931 -0.7763 -0.1240  0.2770
 6160TIP3   OH218485   2.681   5.788   0.146 -0.6439 -0.0418 -0.0671
 6160TIP3    H118486   2.748   5.833   0.198 -1.4032  1.2570 -0.1712
 6160TIP3    H218487   2.672   5.842   0.067 -0.8054 -0.9886 -0.7086
 6161TIP3   OH218488   2.607   3.357   2.574  0.2120  0.5446 -0.3664
 6161TIP3    H118489   2.663   3.397   2.640  1.1774  0.9633 -1.4010
 6161TIP3    H218490   2.646   3.383   2.490 -1.1769  0.3297 -1.1145
 6162TIP3   OH218491   4.713   2.441   3.052 -0.1867  0.1661  0.1533
 6162TIP3    H118492   4.743   2.525   3.086 -3.1661  1.4814 -0.1085
 6162TIP3    H218493   4.702   2.386   3.129 -0.0934  0.6918  0.5480
 6163TIP3   OH218494   1.372   0.615   0.543 -0.3810 -0.0675  0.1866
 6163TIP3    H118495   1.334   0.637   0.458  1.1403  1.3343 -0.1712
 6163TIP3    H218496   1.382   0.519   0.540 -0.5983 -0.0721 -1.0946
 6164TIP3   OH218497   1.880   5.474   1.840 -0.6101 -0.3560  0.3130
 6164TIP3    H118498   1.955   5.430   1.801 -1.1642 -2.4737  1.5015
 6164TIP3    H218499   1.907   5.566   1.847  0.7172 -0.5083 -1.9398
 6165TIP3   OH218500   1.294   1.242   0.802  0.0320 -0.2635 -0.1391
 6165TIP3    H118501   1.206   1.274   0.825 -0.1802 -1.6010  1.0623
 6165TIP3    H218502   1.342   1.321   0.778 -1.2284  0.6200  0.0922
 6166TIP3   OH218503   4.576   0.279   3.005 -0.2362  0.2324  0.2534
 6166TIP3    H118504   4.586   0.333   3.083  1.9911  0.2007  0.0393
 6166TIP3    H218505   4.575   0.189   3.038 -2.5710  0.2711  0.4791
 6167TIP3   OH218506   1.102   5.353   2.676 -0.5739  0.0640 -0.6594
 6167TIP3    H118507   1.070   5.442   2.695 -0.6691 -0.1139  0.0581
 6167TIP3    H218508   1.023   5.299   2.677 -0.5204 -0.0283 -1.1394
 6168TIP3   OH218509   5.247   2.544   0.755  0.5888  0.9239  0.6529
 6168TIP3    H118510   5.275   2.481   0.822  1.8916  1.1567  0.3650
 6168TIP3    H218511   5.152   2.545   0.760  0.6192 -0.0068  1.6361
 6169TIP3   OH218512  -0.002   2.324   2.893 -0.1672  0.7674 -0.0401
 6169TIP3    H118513   0.084   2.319   2.852  0.1427 -1.3857  0.6950
 6169TIP3    H218514   0.016   2.329   2.987 -0.8431  1.3603  0.0661
 6170TIP3   OH218515   4.051   5.926   3.932  0.0746  0.3996 -0.1325
 6170TIP3    H118516   4.124   5.951   3.989  0.2349 -0.1635 -0.0908
 6170TIP3    H218517   4.083   5.946   3.843 -0.2228  1.3938 -0.0275
 6171TIP3   OH218518   1.058   0.211   0.959 -0.1143  0.7854  0.2629
 6171TIP3    H118519   1.090   0.237   0.872 -1.1183 -2.0329 -1.0919
 6171TIP3    H218520   0.980   0.264   0.972 -0.9519  0.0543 -1.4168
 6172TIP3   OH218521   3.516   0.118   5.126  0.0309 -0.3968  0.3208
 6172TIP3    H118522   3.589   0.059   5.147  1.4635  0.6354 -1.4318
 6172TIP3    H218523   3.504   0.108   5.032 -1.7815 -0.1138  0.4784
 6173TIP3   OH218524   6.267   2.587   0.207  0.1992 -0.3447 -0.2378
 6173TIP3    H118525   6.183   2.541   0.205 -0.9145  1.3795  1.7420
 6173TIP3    H218526   6.316   2.545   0.277  0.4034 -0.4543 -0.4479
 6174TIP3   OH218527   2.505   0.569   0.425  0.1354 -0.0434 -0.0274
 6174TIP3    H118528   2.570   0.617   0.477  0.2218  0.3888 -0.5197
 6174TIP3    H218529   2.557   0.514   0.366  0.0652  0.3054 -0.4235
 6175TIP3   OH218530   0.273   1.335   1.219  0.3189  0.2499 -0.3842
 6175TIP3    H118531   0.276   1.304   1.310 -1.2122  0.4961 -0.2219
 6175TIP3    H218532   0.345   1.398   1.213  0.9219 -0.3363  0.4316
 6176TIP3   OH218533   5.443   4.652   2.270 -0.0024  0.5934  0.0373
 6176TIP3    H118534   5.405   4.688   2.190 -0.5263  0.0989  0.0624
 6176TIP3    H218535   5.537   4.651   2.253 -0.1925 -0.6783 -1.0551
 6177TIP3   OH218536   4.236   1.721   1.490 -0.0636 -0.7206 -0.2439
 6177TIP3    H118537   4.146   1.689   1.493  0.3019 -1.8436 -0.7291
 6177TIP3    H218538   4.267   1.712   1.580 -0.7492  0.6627  0.1524
 6178TIP3   OH218539   4.836   3.237   2.364 -0.0541  0.3197 -0.5170
 6178TIP3    H118540   4.890   3.165   2.398 -0.8023  1.0851  2.5791
 6178TIP3    H218541   4.892   3.314   2.371 -0.5758  0.6594 -0.1110
 6179TIP3   OH218542   4.491   0.848   4.413  0.3908  0.4193 -0.5496
 6179TIP3    H118543   4.518   0.919   4.354 -1.1149  0.6694 -0.9640
 6179TIP3    H218544   4.406   0.875   4.447  1.5922  0.7749  2.5796
 6180TIP3   OH218545   3.843   0.560   1.245 -0.5638 -0.3416  0.1061
 6180TIP3    H118546   3.855   0.648   1.208  0.0861 -0.6472 -0.4378
 6180TIP3    H218547   3.933   0.528   1.259 -0.7180 -1.8463 -1.9490
 6181TIP3   OH218548   1.550   2.483   2.388  0.4340 -0.1432 -0.2107
 6181TIP3    H118549   1.457   2.494   2.368  0.4369  1.3376  0.4108
 6181TIP3    H218550   1.552   2.415   2.456 -0.1146 -0.7062 -0.7435
 6182TIP3   OH218551   3.315   4.560   4.560 -0.2929 -0.6065 -0.4765
 6182TIP3    H118552   3.337   4.494   4.494 -0.8458 -0.4110 -0.8671
 6182TIP3    H218553   3.225   4.584   4.540 -1.0470 -1.7200  1.3737
 6183TIP3   OH218554   1.359   1.282   4.552  0.5457 -0.1450 -0.6894
 6183TIP3    H118555   1.358   1.224   4.476  0.1091 -1.0837  0.0074
 6183TIP3    H218556   1.270   1.274   4.588  0.9950 -0.3708  0.3959
 6184TIP3   OH218557   2.938   4.148   4.825  0.6266  0.3621  0.2239
 6184TIP3    H118558   3.017   4.144   4.880  0.0655  0.8697  1.0853
 6184TIP3    H218559   2.866   4.134   4.885 -0.0215  1.1680 -0.3430
 6185TIP3   OH218560   6.310   1.912   2.680 -0.2780 -0.8761  0.7276
 6185TIP3    H118561   6.240   1.976   2.664 -0.9561 -2.1624 -2.0753
 6185TIP3    H218562   6.276   1.855   2.749 -1.5115 -0.7676  0.2343
 6186TIP3   OH218563   3.957   0.797   4.989  0.8219 -0.0340 -0.5898
 6186TIP3    H118564   3.885   0.855   5.013  1.1600  0.5795 -1.0454
 6186TIP3    H218565   4.009   0.788   5.069  0.5319 -0.0540 -0.4031
 6187TIP3   OH218566   0.885   4.643   5.110 -0.1648 -0.3893 -0.4227
 6187TIP3    H118567   0.826   4.715   5.088 -0.4083 -0.8538 -1.3674
 6187TIP3    H218568   0.911   4.607   5.025 -0.0755 -1.4340  0.0326
 6188TIP3   OH218569   5.869   3.624   3.574 -0.5322  0.0788  0.3709
 6188TIP3    H118570   5.909   3.709   3.554  1.5421 -1.0202 -0.3747
 6188TIP3    H218571   5.828   3.597   3.492  0.8040 -0.6406 -0.0960
 6189TIP3   OH218572   0.762   4.450   3.087  0.1513 -0.4083  0.1703
 6189TIP3    H118573   0.766   4.362   3.049  0.6245 -0.2626 -0.1254
 6189TIP3    H218574   0.669   4.466   3.103  0.0946 -1.1293  0.6165
 6190TIP3   OH218575   2.553   2.029   0.185  1.0057 -0.2087 -0.1069
 6190TIP3    H118576   2.546   1.934   0.172 -1.0471 -0.0683 -0.3821
 6190TIP3    H218577   2.603   2.039   0.266  0.0802 -1.5761  0.6597
 6191TIP3   OH218578   3.876   3.126   3.918  0.0166 -0.4008  0.0741
 6191TIP3    H118579   3.872   3.035   3.948 -2.1423  0.0770  1.4834
 6191TIP3    H218580   3.969   3.142   3.901  0.3289 -3.2658 -1.6694
 6192TIP3   OH218581   4.571   5.724   3.581 -0.1945  0.0593 -0.2960
 6192TIP3    H118582   4.616   5.697   3.501 -1.7145  0.5530 -1.3895
 6192TIP3    H218583   4.575   5.647   3.638 -0.0235 -0.7043 -1.2988
 6193TIP3   OH218584   4.366   0.946   0.093 -0.2608 -1.2473  0.1034
 6193TIP3    H118585   4.326   0.862   0.116 -1.3363 -0.8015 -0.0897
 6193TIP3    H218586   4.313   0.978   0.020  0.5136 -0.6802 -0.2166
 6194TIP3   OH218587   2.373   5.574   3.347  0.0787 -0.0568 -0.4587
 6194TIP3    H118588   2.365   5.664   3.315  1.0023 -1.0604 -3.9672
 6194TIP3    H218589   2.304   5.526   3.300  0.0368 -1.3252  0.8360
 6195TIP3   OH218590   4.627   3.943   0.580  0.3901  0.4884  0.2591
 6195TIP3    H118591   4.581   3.929   0.663  1.0810 -1.9485  0.3223
 6195TIP3    H218592   4.575   3.895   0.515  0.6516  1.1281 -0.4374
 6196TIP3   OH218593   0.425   2.160   0.054 -0.1919 -0.0564  0.6468
 6196TIP3    H118594   0.379   2.233   0.012  0.8111  0.2220 -0.0218
 6196TIP3    H218595   0.453   2.105  -0.020 -0.0653 -0.5797  1.0827
 6197TIP3   OH218596   1.475   5.424   4.468 -0.2972  0.5054 -0.0176
 6197TIP3    H118597   1.523   5.456   4.545  1.1757  0.5246 -0.8958
 6197TIP3    H218598   1.478   5.498   4.407 -2.7522  1.0361  0.4080
 6198TIP3   OH218599   1.469   1.882   3.380  0.4356  0.2160 -0.6156
 6198TIP3    H118600   1.561   1.856   3.388  0.2111 -0.0101  1.9957
 6198TIP3    H218601   1.428   1.812   3.329  1.6662  0.2939 -1.7722
 6199TIP3   OH218602   3.752   1.823   2.688 -0.1788  0.3939 -0.4649
 6199TIP3    H118603   3.771   1.729   2.680 -1.8713  0.0572 -0.7921
 6199TIP3    H218604   3.835   1.866   2.665  0.7441 -1.0119  0.1143
 6200TIP3   OH218605   3.519   3.549   2.379  0.3700  0.1720  0.0785
 6200TIP3    H118606   3.466   3.494   2.321 -2.1261  1.6296  0.7971
 6200TIP3    H218607   3.539   3.626   2.326  2.2353 -0.5538 -0.3263
 6201TIP3   OH218608   1.486   5.425   1.282  0.5148 -0.6653  0.1440
 6201TIP3    H118609   1.465   5.404   1.191  1.5738  1.4293 -0.6420
 6201TIP3    H218610   1.581   5.409   1.289  0.5374 -0.3078  0.7505
 6202TIP3   OH218611   5.029   2.653   4.646  0.2025 -0.1426 -0.5292
 6202TIP3    H118612   5.018   2.738   4.688 -1.0839 -0.5545  0.0500
 6202TIP3    H218613   4.972   2.594   4.696  0.6185 -1.2193 -1.2705
 6203TIP3   OH218614   0.143   3.545   2.770  0.4290 -0.3384  0.1158
 6203TIP3    H118615   0.201   3.615   2.800  0.4878  0.1588 -1.1187
 6203TIP3    H218616   0.146   3.550   2.675 -1.2831 -0.6180  0.0227
 6204TIP3   OH218617   5.234   4.418   2.880 -0.7475  0.5902 -0.3825
 6204TIP3    H118618   5.249   4.323   2.871 -1.0984  0.2305  2.0517
 6204TIP3    H218619   5.147   4.432   2.842 -0.5915 -0.0105 -0.9827
 6205TIP3   OH218620  -0.015   2.175   4.412  0.5560  0.2365 -0.4918
 6205TIP3    H118621   0.017   2.085   4.410  0.4336  0.1855 -0.1819
 6205TIP3    H218622   0.063   2.227   4.433  0.3205  0.0423  1.0212
 6206TIP3   OH218623   1.880   4.291   2.430 -0.3378 -0.9224 -0.0209
 6206TIP3    H118624   1.820   4.365   2.422 -1.1075 -1.4686  0.4699
 6206TIP3    H218625   1.942   4.302   2.358  1.5677  1.9275  1.8470
 6207TIP3   OH218626   5.269   3.795   3.377 -0.0270  0.3442 -0.0909
 6207TIP3    H118627   5.225   3.739   3.440  0.3652  0.4760  0.2997
 6207TIP3    H218628   5.338   3.839   3.427  0.4841  0.2182 -0.6746
 6208TIP3   OH218629   5.138   1.215   1.959  0.4938  0.1531 -0.2138
 6208TIP3    H118630   5.097   1.196   2.043  1.4521  1.4943  0.5856
 6208TIP3    H218631   5.231   1.228   1.979  1.1992 -1.7877 -1.8312
 6209TIP3   OH218632   5.947   2.269   3.942 -0.8338 -0.1609 -0.3375
 6209TIP3    H118633   5.999   2.191   3.959  0.4479  0.7409 -0.0195
 6209TIP3    H218634   5.938   2.311   4.027 -4.6134 -1.7311  0.2580
 6210TIP3   OH218635   2.739   2.462   4.692 -0.0360  1.2226  0.1779
 6210TIP3    H118636   2.733   2.369   4.713 -0.9366  1.2222 -0.0410
 6210TIP3    H218637   2.809   2.467   4.628 -0.8166  0.5146 -0.7619
 6211TIP3   OH218638   0.056   0.487   2.563  0.5492  0.0118 -0.0556
 6211TIP3    H118639  -0.003   0.488   2.487  1.0570 -0.8034 -0.4710
 6211TIP3    H218640   0.115   0.561   2.549  1.7296 -1.1159 -1.3546
 6212TIP3   OH218641   2.758   2.277   1.152 -0.4313 -0.4072 -0.2807
 6212TIP3    H118642   2.707   2.274   1.071 -0.6806 -1.4377 -0.1037
 6212TIP3    H218643   2.835   2.329   1.130 -0.7514 -0.2365 -1.0309
 6213TIP3   OH218644   3.429   0.278   3.095  0.3727 -0.0815 -0.3205
 6213TIP3    H118645   3.475   0.299   3.014 -1.3607 -0.8767 -1.5695
 6213TIP3    H218646   3.498   0.277   3.162  1.8335  0.6988 -1.7326
 6214TIP3   OH218647   6.153   2.843   4.154  0.2124 -0.0995 -0.0605
 6214TIP3    H118648   6.189   2.754   4.148 -0.6724 -0.4389 -0.6170
 6214TIP3    H218649   6.079   2.835   4.215  1.1212  0.6138  1.1763
 6215TIP3   OH218650   5.912   3.246   1.495 -1.1216 -0.0549  0.1304
 6215TIP3    H118651   5.877   3.241   1.584 -0.7657  1.8130  0.4221
 6215TIP3    H218652   5.983   3.182   1.494 -1.9944 -1.0687  0.7440
 6216TIP3   OH218653   0.200   2.896   2.355  0.3992  0.0258  0.0119
 6216TIP3    H118654   0.155   2.835   2.297 -0.8642 -0.5982  1.5705
 6216TIP3    H218655   0.246   2.839   2.418  1.0531  0.6817  0.1415
 6217TIP3   OH218656   2.280   5.283   3.787  0.0775 -0.3356 -0.2126
 6217TIP3    H118657   2.314   5.331   3.711  1.5876 -0.4457  0.3732
 6217TIP3    H218658   2.357   5.250   3.832 -0.7959 -0.5036  1.2410
 6218TIP3   OH218659   2.298   4.073   4.896  0.4404  0.2829  0.1179
 6218TIP3    H118660   2.222   4.081   4.953  1.1602  1.0740  0.9962
 6218TIP3    H218661   2.263   4.041   4.813 -0.9284  1.2318  0.3102
 6219TIP3   OH218662   2.831   5.148   1.102 -0.0670  0.2870  0.1830
 6219TIP3    H118663   2.839   5.095   1.022 -1.2448  1.2520 -0.6133
 6219TIP3    H218664   2.919   5.183   1.116  0.0842  0.4128 -0.9252
 6220TIP3   OH218665   4.887   0.549   0.037 -0.3764  0.0613  0.2562
 6220TIP3    H118666   4.827   0.624   0.035 -2.3427 -1.4285 -0.1858
 6220TIP3    H218667   4.830   0.474   0.052  1.3586 -1.5101 -0.6657
 6221TIP3   OH218668   1.008   4.742   2.505 -0.6020  0.0897  0.0526
 6221TIP3    H118669   1.029   4.828   2.469 -1.3020  0.2243 -0.0521
 6221TIP3    H218670   1.014   4.754   2.600  2.6155 -0.6176  0.0469
 6222TIP3   OH218671   5.398   0.931   1.121  0.2008  0.5088  0.0956
 6222TIP3    H118672   5.333   0.935   1.192  0.5655 -0.5131  0.5065
 6222TIP3    H218673   5.476   0.973   1.158 -0.4911  2.6969 -0.7560
 6223TIP3   OH218674   2.245   2.795   3.565  0.3059 -0.3842  0.1855
 6223TIP3    H118675   2.168   2.831   3.523  1.0527  1.0138 -0.0432
 6223TIP3    H218676   2.289   2.746   3.495  0.3845  0.0661 -0.0876
 6224TIP3   OH218677   5.017   4.364   1.916 -0.2822 -0.2895 -0.2152
 6224TIP3    H118678   4.969   4.281   1.909 -0.4825 -0.1271 -0.9518
 6224TIP3    H218679   5.085   4.358   1.849  0.1661 -0.1596  0.2319
 6225TIP3   OH218680   2.914   2.872   2.102  0.3160 -0.2286  0.1546
 6225TIP3    H118681   2.885   2.939   2.041  0.8590  0.2506  0.4162
 6225TIP3    H218682   2.967   2.812   2.048  0.9082  0.2680  0.1824
 6226TIP3   OH218683   5.255   3.754   0.076 -0.3773 -0.0607  0.2370
 6226TIP3    H118684   5.221   3.745  -0.013  1.2676 -0.0056 -0.4411
 6226TIP3    H218685   5.298   3.670   0.093 -0.4977  0.0066  0.9089
 6227TIP3   OH218686   4.863   0.001   1.682  0.1459  0.1561 -0.0632
 6227TIP3    H118687   4.920   0.061   1.731  0.5387  1.0185 -1.5127
 6227TIP3    H218688   4.774   0.031   1.700  0.3078  0.7143 -0.1947
 6228TIP3   OH218689   2.723   4.070   1.143  0.3402  0.2610  0.3851
 6228TIP3    H118690   2.788   4.139   1.135  0.5278 -0.0677 -1.2203
 6228TIP3    H218691   2.645   4.105   1.100  0.0572 -0.0767  0.6156
 6229TIP3   OH218692   1.994   1.846   1.964 -0.4173 -0.0141  0.0268
 6229TIP3    H118693   1.947   1.768   1.994  0.6275 -0.8445 -0.3818
 6229TIP3    H218694   2.061   1.860   2.031 -0.0937  0.0362 -0.3028
 6230TIP3   OH218695   3.974   0.315   4.939  0.5812 -0.0550  0.1719
 6230TIP3    H118696   3.888   0.307   4.981 -0.1784  0.5181 -1.2236
 6230TIP3    H218697   3.966   0.392   4.882  1.3103 -1.2408 -1.6045
 6231TIP3   OH218698   3.930   2.607   2.566  0.0293 -0.3614 -0.4755
 6231TIP3    H118699   3.881   2.525   2.554  0.0637 -0.3411 -0.7470
 6231TIP3    H218700   3.895   2.643   2.648 -0.9030  0.0031 -1.0193
 6232TIP3   OH218701   4.248   4.143   1.944  0.2124  0.3814 -0.1174
 6232TIP3    H118702   4.324   4.158   1.888 -0.3468  1.9430 -0.5197
 6232TIP3    H218703   4.177   4.121   1.883  0.1268 -0.1725  0.1773
 6233TIP3   OH218704   1.316   1.896   1.820  0.1191 -0.0734  0.8758
 6233TIP3    H118705   1.235   1.947   1.821 -0.1094 -0.4066 -0.0993
 6233TIP3    H218706   1.325   1.866   1.730  1.8598  0.7894  0.7198
 6234TIP3   OH218707   2.440   4.766   0.569 -0.6119 -0.2972  0.1687
 6234TIP3    H118708   2.436   4.828   0.496  1.1915 -0.0229  0.2672
 6234TIP3    H218709   2.411   4.683   0.531  1.5913 -0.4947 -1.3057
 6235TIP3   OH218710   6.129   3.353   0.989  0.3905  0.1531 -0.3331
 6235TIP3    H118711   6.109   3.267   0.951  0.2799  0.4082 -0.8596
 6235TIP3    H218712   6.106   3.416   0.920  0.9243  0.5787 -0.1288
 6236TIP3   OH218713   2.435   3.958   0.525  0.1831 -0.1387 -0.1567
 6236TIP3    H118714   2.478   3.974   0.441  1.3846 -0.5754  0.3529
 6236TIP3    H218715   2.425   4.045   0.563 -0.2566  0.0522 -0.6895
 6237TIP3   OH218716   1.957   4.833   0.142  0.4302 -0.0071 -0.4130
 6237TIP3    H118717   1.985   4.854   0.231  1.7085  0.1743 -0.8410
 6237TIP3    H218718   1.861   4.830   0.148  0.4953 -0.2011  1.0054
 6238TIP3   OH218719   2.112   0.922   4.068  0.4933  0.6213  0.3933
 6238TIP3    H118720   2.037   0.868   4.092  2.2105 -1.4607  1.3734
 6238TIP3    H218721   2.134   0.895   3.979  0.2453  1.0401  0.2038
 6239TIP3   OH218722   4.377   1.320   3.985  0.3938 -0.2252  0.0864
 6239TIP3    H118723   4.405   1.257   3.919 -0.7723  1.7652 -2.4941
 6239TIP3    H218724   4.292   1.286   4.014 -1.1037  0.9152 -2.6161
 6240TIP3   OH218725   4.142   1.533   3.252 -0.5800  0.2349 -0.0362
 6240TIP3    H118726   4.111   1.530   3.162  0.4833  0.8842 -0.4397
 6240TIP3    H218727   4.168   1.624   3.266 -2.1127  0.5053  1.4229
 6241TIP3   OH218728   6.281   4.837   3.683 -1.0320  0.2537 -0.1435
 6241TIP3    H118729   6.245   4.751   3.663 -2.4472  0.6464  0.5619
 6241TIP3    H218730   6.221   4.899   3.642  1.0792  0.9623 -2.4336
 6242TIP3   OH218731   2.132   0.202   1.568 -0.2111  0.1853 -0.4010
 6242TIP3    H118732   2.113   0.274   1.628  0.1044 -0.0460 -0.0206
 6242TIP3    H218733   2.064   0.137   1.587  1.4887 -1.1235  1.7414
 6243TIP3   OH218734   0.115   5.253   3.520  0.4550 -0.8175 -0.0536
 6243TIP3    H118735   0.137   5.337   3.561  0.5984 -0.6560 -0.4619
 6243TIP3    H218736   0.066   5.206   3.588  2.7897 -1.5649  1.2447
 6244TIP3   OH218737   3.537   4.275   1.268 -0.1457  0.3327 -0.3655
 6244TIP3    H118738   3.601   4.244   1.204 -0.6819  0.2818 -0.8957
 6244TIP3    H218739   3.558   4.227   1.348 -1.0373 -1.5861 -1.1970
 6245TIP3   OH218740   0.096   4.907   5.109  0.3008 -0.1186  0.8283
 6245TIP3    H118741   0.017   4.857   5.088  0.9367 -1.2738  1.0862
 6245TIP3    H218742   0.161   4.878   5.045 -0.4159  3.6166 -1.9430
 6246TIP3   OH218743   3.375   5.682   4.004 -0.2844  0.6378  0.7705
 6246TIP3    H118744   3.280   5.694   4.013 -0.4372  0.5987 -0.6440
 6246TIP3    H218745   3.407   5.769   3.979 -0.2283  0.1907 -0.7722
 6247TIP3   OH218746   3.048   1.619   3.913  0.1209 -0.8019 -0.2871
 6247TIP3    H118747   3.144   1.620   3.906  0.0713 -2.1519 -1.7743
 6247TIP3    H218748   3.019   1.575   3.833 -1.6880 -1.6603  0.7842
 6248TIP3   OH218749   2.137   2.785   0.187 -0.3742  0.0784  0.0333
 6248TIP3    H118750   2.054   2.817   0.153 -1.1997 -0.7420  1.2011
 6248TIP3    H218751   2.140   2.693   0.160  0.0085  0.0160  0.2820
 6249TIP3   OH218752   3.694   4.989   3.404 -0.7893 -0.1943  0.5724
 6249TIP3    H118753   3.680   5.076   3.441 -0.3438 -0.1327  0.6013
 6249TIP3    H218754   3.618   4.939   3.431 -0.1379 -0.3562  2.1639
 6250TIP3   OH218755   4.970   0.898   0.606  0.1637 -0.3499 -0.0739
 6250TIP3    H118756   5.012   0.983   0.617  2.7372 -1.6532  1.0634
 6250TIP3    H218757   4.898   0.898   0.670  1.8747  0.0155  1.9676
 6251TIP3   OH218758   5.924   3.339   4.878 -0.0670 -0.3302 -0.3413
 6251TIP3    H118759   5.897   3.334   4.970 -2.2134  2.5446 -0.6652
 6251TIP3    H218760   5.917   3.250   4.846 -0.2768 -1.2388  2.0171
 6252TIP3   OH218761   1.507   4.139   1.305  0.1602  0.5074  0.2225
 6252TIP3    H118762   1.445   4.209   1.284 -0.0734  0.3463  0.3709
 6252TIP3    H218763   1.591   4.172   1.275  0.3115  1.4847  1.6098
 6253TIP3   OH218764   3.291   1.451   4.883  0.6151 -0.4057 -0.6108
 6253TIP3    H118765   3.351   1.383   4.851 -0.4184 -0.5361 -2.4394
 6253TIP3    H218766   3.215   1.444   4.825  0.4228  2.2158 -0.7995
 6254TIP3   OH218767   3.561   0.551   1.235  0.5813 -0.1495  0.4683
 6254TIP3    H118768   3.656   0.560   1.245  0.5403 -0.6056  1.4087
 6254TIP3    H218769   3.533   0.505   1.314 -0.2564 -1.1631 -0.3749
 6255TIP3   OH218770   2.760   2.511   4.221  0.1931  0.0452 -0.3723
 6255TIP3    H118771   2.726   2.422   4.214  1.2844 -0.3137 -1.3784
 6255TIP3    H218772   2.812   2.511   4.301  0.0271 -0.1658 -0.2654
 6256TIP3   OH218773   5.321   1.487   2.129  0.8362 -0.2103 -0.1665
 6256TIP3    H118774   5.276   1.430   2.192 -1.0851  0.8030 -0.5626
 6256TIP3    H218775   5.379   1.428   2.081 -0.1805 -1.6206  0.2707
 6257TIP3   OH218776   6.140   5.111   2.258 -0.1599 -0.1272 -0.3779
 6257TIP3    H118777   6.090   5.037   2.225  0.4642 -0.2554 -1.0834
 6257TIP3    H218778   6.076   5.167   2.302 -0.4812 -1.5435  0.9912
 6258TIP3   OH218779   4.081   2.558   1.526  0.3230  0.6035 -0.0380
 6258TIP3    H118780   4.040   2.630   1.574  0.4250 -0.2976  1.4800
 6258TIP3    H218781   4.173   2.561   1.552  0.2344 -0.3461  0.4531
 6259TIP3   OH218782   5.565   4.939   2.806  0.0142 -0.2648 -0.1697
 6259TIP3    H118783   5.494   4.910   2.749 -0.6801 -0.3492  0.7133
 6259TIP3    H218784   5.547   4.897   2.890  0.8678  0.0649  0.1951
 6260TIP3   OH218785   4.727   0.826   3.007 -0.3848 -1.0039 -0.0495
 6260TIP3    H118786   4.810   0.803   2.965 -0.8293 -1.5946 -0.6220
 6260TIP3    H218787   4.668   0.846   2.934 -0.8700 -1.0227  0.3359
 6261TIP3   OH218788   1.432   0.087   2.167 -0.1688 -0.1945 -0.2723
 6261TIP3    H118789   1.516   0.131   2.175 -0.8706  0.9853  1.1123
 6261TIP3    H218790   1.377   0.149   2.120 -0.5966 -0.4679 -0.1424
 6262TIP3   OH218791   4.735   0.762   3.738 -0.2712 -0.0472  0.3115
 6262TIP3    H118792   4.718   0.800   3.651  0.2717  2.5687  1.2542
 6262TIP3    H218793   4.797   0.822   3.779 -0.4981 -1.2163  2.5306
 6263TIP3   OH218794   3.710   0.440   0.717 -0.5558 -0.1189  0.5612
 6263TIP3    H118795   3.717   0.432   0.813  1.8101  0.4703  0.4916
 6263TIP3    H218796   3.653   0.367   0.692 -0.2078 -1.0592  2.2996
 6264TIP3   OH218797   6.236   1.228   2.675  0.3006  0.3845  0.0826
 6264TIP3    H118798   6.153   1.181   2.685  0.8065 -0.5109  0.1938
 6264TIP3    H218799   6.265   1.246   2.764 -0.1859  1.4754  0.0381
 6265TIP3   OH218800   1.876   5.669   0.484  0.0150  0.1469 -0.0395
 6265TIP3    H118801   1.919   5.670   0.570 -1.9251  0.9709  0.9770
 6265TIP3    H218802   1.946   5.689   0.423  1.1757  1.0049  1.4934
 6266TIP3   OH218803   4.519   0.223   3.723  0.1415  0.1799 -0.0612
 6266TIP3    H118804   4.514   0.135   3.687  0.6957  0.4669 -0.8772
 6266TIP3    H218805   4.443   0.231   3.780 -0.0345 -0.7425 -0.1610
 6267TIP3   OH218806   1.351   5.062   1.772 -0.7984  0.0842 -0.6042
 6267TIP3    H118807   1.311   5.049   1.686 -0.5769  3.2986 -1.3272
 6267TIP3    H218808   1.438   5.022   1.764 -0.3353  1.3130 -2.3461
 6268TIP3   OH218809   5.072   1.284   5.115 -0.0234  0.3013  0.2390
 6268TIP3    H118810   5.141   1.224   5.085 -0.9054 -0.6242  0.0337
 6268TIP3    H218811   5.090   1.365   5.068  1.0206  0.1312  0.3001
 6269TIP3   OH218812   4.126   1.062   1.515 -0.9133  0.1574 -0.0889
 6269TIP3    H118813   4.056   1.102   1.566  1.5070  2.0282  2.0576
 6269TIP3    H218814   4.134   0.973   1.549 -2.1448 -0.0503 -0.3034
 6270TIP3   OH218815   4.117   4.078   3.392  0.3979  0.9360  0.1706
 6270TIP3    H118816   4.079   4.004   3.345  2.1097 -0.3338  0.6838
 6270TIP3    H218817   4.212   4.069   3.379  0.7863  1.7686  2.0548
 6271TIP3   OH218818   4.015   0.752   1.377 -0.3403 -0.3949 -0.3599
 6271TIP3    H118819   3.947   0.819   1.384 -0.4615 -0.5318 -0.2360
 6271TIP3    H218820   4.016   0.710   1.463  1.1217  0.7986  0.2555
 6272TIP3   OH218821   3.020   5.119   0.113 -0.1033 -0.0837 -0.1320
 6272TIP3    H118822   3.086   5.053   0.095 -0.8520 -0.5726 -1.1470
 6272TIP3    H218823   2.942   5.069   0.139 -0.4868  0.4146 -0.2942
 6273TIP3   OH218824   2.676   5.280   4.798  0.4101  0.2869 -0.2648
 6273TIP3    H118825   2.763   5.293   4.835  0.8117 -2.1728 -0.1443
 6273TIP3    H218826   2.641   5.205   4.846 -0.6443 -0.5177 -2.1699
 6274TIP3   OH218827   5.590   1.811   4.226  0.0004 -0.2436  0.0325
 6274TIP3    H118828   5.610   1.839   4.316  1.5611 -1.6725  0.1840
 6274TIP3    H218829   5.522   1.744   4.237  1.1621 -1.4178  0.3178
 6275TIP3   OH218830   5.925   2.831   4.357 -0.1144 -0.6981 -0.4561
 6275TIP3    H118831   5.851   2.847   4.415 -0.0867 -0.7926 -0.3937
 6275TIP3    H218832   6.002   2.860   4.407 -0.0735 -0.9346 -0.3789
 6276TIP3   OH218833   4.046   4.789   0.419 -0.1248 -0.3345  0.3507
 6276TIP3    H118834   4.102   4.744   0.481  0.1460 -1.1319 -0.4453
 6276TIP3    H218835   4.020   4.870   0.463  0.1385 -0.8360  1.4407
 6277TIP3   OH218836   2.900   1.331   1.725  0.1721  0.2103  0.0643
 6277TIP3    H118837   2.954   1.283   1.788  2.1503  2.9741  0.6404
 6277TIP3    H218838   2.924   1.294   1.640  0.8675 -0.5134  0.5604
 6278TIP3   OH218839   2.137   1.814   2.966 -0.2936  0.0841 -0.0217
 6278TIP3    H118840   2.191   1.735   2.965 -0.6968 -0.1944 -0.3407
 6278TIP3    H218841   2.105   1.820   3.056  0.5995  0.4829  0.2710
 6279TIP3   OH218842   1.814   3.561   2.627  0.3815  0.0843 -0.2193
 6279TIP3    H118843   1.879   3.539   2.559  1.5585  1.7135  0.3195
 6279TIP3    H218844   1.730   3.556   2.582  1.1907  2.3475 -2.2103
 6280TIP3   OH218845   3.588   0.703   2.998  0.3106  0.0774 -0.3398
 6280TIP3    H118846   3.610   0.796   3.001  1.2708 -0.1566  0.5927
 6280TIP3    H218847   3.641   0.667   2.927 -2.1573  0.7054 -2.6535
 6281TIP3   OH218848   0.089   5.816   0.613  0.2682 -0.2794 -0.0153
 6281TIP3    H118849   0.166   5.816   0.670  1.5218 -1.8323 -1.5970
 6281TIP3    H218850   0.125   5.833   0.526 -1.0792 -1.7502 -0.8927
 6282TIP3   OH218851   1.297   0.429   3.531  0.3631 -0.4183  0.6800
 6282TIP3    H118852   1.295   0.515   3.489 -1.6021 -1.3549 -1.2959
 6282TIP3    H218853   1.326   0.448   3.621  1.8766  2.0231 -0.2143
 6283TIP3   OH218854   4.312   2.405   4.408 -0.3899  0.7665 -0.4266
 6283TIP3    H118855   4.382   2.408   4.344  0.4353 -1.3098  0.3054
 6283TIP3    H218856   4.242   2.356   4.365  0.7101 -1.9023  0.6727
 6284TIP3   OH218857   5.702   4.338   0.129  0.0250 -0.2409  0.1148
 6284TIP3    H118858   5.779   4.291   0.160 -0.0245  0.6078  1.6467
 6284TIP3    H218859   5.631   4.305   0.184 -0.7984 -1.2014 -1.4414
 6285TIP3   OH218860   4.082   3.292   4.075 -0.6144 -0.2360  0.9262
 6285TIP3    H118861   4.092   3.361   4.141  1.8968 -0.5425  0.9711
 6285TIP3    H218862   4.125   3.327   3.997 -0.9511 -1.0259  0.3795
 6286TIP3   OH218863   3.639   5.954   4.274 -0.0365  0.2129 -0.3272
 6286TIP3    H118864   3.668   5.987   4.189 -1.3485  0.0506 -0.8732
 6286TIP3    H218865   3.663   5.862   4.274 -0.7500  0.0078 -0.8974
 6287TIP3   OH218866   3.144   4.652   4.881  0.0245 -0.8833 -0.2650
 6287TIP3    H118867   3.151   4.730   4.825  1.4701 -0.2394  0.7540
 6287TIP3    H218868   3.194   4.674   4.959 -4.2834 -0.5200  2.7573
 6288TIP3   OH218869   5.425   4.478   0.395  0.3373  0.2582  0.1934
 6288TIP3    H118870   5.461   4.504   0.479 -2.0064  1.6813  0.8668
 6288TIP3    H218871   5.459   4.543   0.333 -0.0319  0.8517  0.5917
 6289TIP3   OH218872   4.390   0.817   0.428 -0.8045 -0.1072  0.4925
 6289TIP3    H118873   4.301   0.839   0.399 -1.4890 -1.2339  1.6270
 6289TIP3    H218874   4.412   0.886   0.491  0.3825  1.9045 -1.9359
 6290TIP3   OH218875   1.564   0.242   1.008  0.2241  0.2614  0.2963
 6290TIP3    H118876   1.480   0.268   1.047 -0.3895  0.5056 -1.1237
 6290TIP3    H218877   1.556   0.147   0.995 -0.1159  0.3812 -0.4413
 6291TIP3   OH218878   2.526   0.619   4.794  0.0943 -0.0138  0.5677
 6291TIP3    H118879   2.501   0.633   4.885 -2.5628  0.6135 -0.1545
 6291TIP3    H218880   2.463   0.671   4.744  0.8771 -1.0871 -1.6613
 6292TIP3   OH218881   4.437   2.193   3.790  0.5055 -0.3720  0.3907
 6292TIP3    H118882   4.404   2.106   3.768 -1.4409  0.5790 -0.7443
 6292TIP3    H218883   4.411   2.248   3.715 -1.0442  1.8139  2.3943
 6293TIP3   OH218884   1.022   5.857   2.246 -0.1607 -0.1712  0.2994
 6293TIP3    H118885   0.929   5.882   2.238  0.5923  2.3777 -2.2169
 6293TIP3    H218886   1.034   5.789   2.180 -0.4421 -1.3544  1.4373
 6294TIP3   OH218887   3.750   3.588   2.055  0.0266  0.3417  0.3704
 6294TIP3    H118888   3.675   3.529   2.053 -0.2095  0.5929  1.3398
 6294TIP3    H218889   3.775   3.592   2.147  0.9616  0.6023  0.1118
 6295TIP3   OH218890   1.738   2.892   1.832 -0.7382  0.4821 -0.2859
 6295TIP3    H118891   1.730   2.913   1.740 -1.2253 -0.1005 -0.3821
 6295TIP3    H218892   1.740   2.977   1.877 -0.9423  0.7513 -0.7901
 6296TIP3   OH218893   2.098   3.830   2.467  0.0627  0.2614  0.1018
 6296TIP3    H118894   2.023   3.859   2.415  0.5803  0.4960 -0.5328
 6296TIP3    H218895   2.066   3.829   2.557 -1.7434 -2.9511 -0.4267
 6297TIP3   OH218896   0.214   1.424   5.077  0.5020 -0.0912 -0.2572
 6297TIP3    H118897   0.165   1.490   5.029 -1.7719 -1.7691 -0.4227
 6297TIP3    H218898   0.230   1.354   5.013  0.1912 -0.9919  0.6176
 6298TIP3   OH218899   1.055   0.610   2.636  0.1838  0.3544  0.3473
 6298TIP3    H118900   1.088   0.521   2.648  0.6695  0.7432  2.2682
 6298TIP3    H218901   1.115   0.650   2.573  0.8906 -0.2301  0.6377
 6299TIP3   OH218902   1.892   4.404   2.890 -0.2806 -0.1112 -0.1140
 6299TIP3    H118903   1.892   4.425   2.796  1.2845 -2.2973 -0.7060
 6299TIP3    H218904   1.839   4.472   2.930  0.5361  1.9814 -2.3397
 6300TIP3   OH218905   4.587   1.428   2.815 -0.1843 -0.0902  0.1954
 6300TIP3    H118906   4.495   1.428   2.842 -0.2015  0.6813  0.1529
 6300TIP3    H218907   4.583   1.437   2.720 -0.0753 -0.6217  0.1394
 6301TIP3   OH218908   1.254   0.726   1.838  0.0778  0.2944 -0.5203
 6301TIP3    H118909   1.336   0.720   1.789  0.2563  0.0554 -0.1931
 6301TIP3    H218910   1.257   0.652   1.899 -0.3873  0.2762 -0.5160
 6302TIP3   OH218911   5.818   5.427   4.017 -0.0159 -0.2266  0.0111
 6302TIP3    H118912   5.859   5.479   3.948 -1.1189 -1.1735 -1.4216
 6302TIP3    H218913   5.794   5.491   4.085 -0.8036  1.0630 -1.4225
 6303TIP3   OH218914   5.913   2.330   1.036  0.7430  0.6146 -0.0464
 6303TIP3    H118915   5.978   2.396   1.060 -0.3061  0.7164  2.9671
 6303TIP3    H218916   5.965   2.252   1.017  1.8758  1.6024 -1.1793
 6304TIP3   OH218917   2.002   2.475   1.295 -0.6279  0.0890  0.3587
 6304TIP3    H118918   1.929   2.439   1.345 -1.2312 -0.1861 -0.6969
 6304TIP3    H218919   2.061   2.401   1.281 -0.1275  0.3154  1.2280
 6305TIP3   OH218920   6.134   3.751   1.092 -0.7453  0.2300 -0.0668
 6305TIP3    H118921   6.197   3.807   1.137  0.1062 -0.7498 -0.0092
 6305TIP3    H218922   6.126   3.788   1.004 -0.2345  0.4625 -0.0160
 6306TIP3   OH218923   2.393   2.649   1.199 -0.1513  0.9539 -0.2758
 6306TIP3    H118924   2.437   2.694   1.271 -0.0756  1.1198 -0.4259
 6306TIP3    H218925   2.346   2.718   1.153  1.5116  1.2407 -1.6668
 6307TIP3   OH218926   3.066   4.726   3.839  0.1213 -0.4225 -0.3940
 6307TIP3    H118927   3.023   4.780   3.773  0.7229  0.6855  0.0922
 6307TIP3    H218928   3.061   4.637   3.804  0.9357  0.1991 -2.2063
 6308TIP3   OH218929   3.101   0.816   4.622 -0.0057  0.5868  0.4012
 6308TIP3    H118930   3.006   0.821   4.633 -0.3918 -0.8600 -1.7264
 6308TIP3    H218931   3.128   0.908   4.613 -1.4992  0.9326 -0.9745
 6309TIP3   OH218932   3.126   5.850   4.147 -0.2509  0.0062 -0.0861
 6309TIP3    H118933   3.125   5.762   4.184 -0.6317 -0.1027 -0.3585
 6309TIP3    H218934   3.197   5.894   4.194 -1.3585  0.1768  1.4962
 6310TIP3   OH218935   2.095   2.242   3.029 -0.7141  0.4945 -0.2824
 6310TIP3    H118936   2.157   2.180   3.070  0.7504  2.3413  0.4610
 6310TIP3    H218937   2.118   2.242   2.937  0.0499  0.7390 -0.1004
 6311TIP3   OH218938   2.255   2.655   4.147 -0.1964 -0.0979  0.4663
 6311TIP3    H118939   2.232   2.564   4.128  1.5545 -0.5917  0.5196
 6311TIP3    H218940   2.351   2.657   4.143 -0.2142  1.9808 -0.5920
 6312TIP3   OH218941   1.402   1.332   3.270  0.5225  0.4315 -0.4191
 6312TIP3    H118942   1.387   1.425   3.288  0.4341  0.4302 -0.4850
 6312TIP3    H218943   1.323   1.288   3.303  0.5168  0.3917 -0.4840
 6313TIP3   OH218944   5.646   2.250   3.318 -0.0643 -0.1069 -0.0934
 6313TIP3    H118945   5.677   2.163   3.294 -1.7309 -0.6776 -0.2941
 6313TIP3    H218946   5.719   2.289   3.365  1.1420 -1.1558 -1.0310
 6314TIP3   OH218947   3.662   0.258   0.254 -0.3749 -0.5180 -0.2776
 6314TIP3    H118948   3.623   0.330   0.305  1.1455  0.4846 -0.4626
 6314TIP3    H218949   3.677   0.189   0.318  0.3491  0.2524  0.4204
 6315TIP3   OH218950   6.253   4.379   4.600  0.1281 -0.0840 -0.3750
 6315TIP3    H118951   6.223   4.289   4.588  0.1764 -0.2871  0.9587
 6315TIP3    H218952   6.179   4.425   4.638  0.1691  0.4079 -0.8648
 6316TIP3   OH218953   2.378   4.743   2.342  0.0359 -0.0320  0.2531
 6316TIP3    H118954   2.425   4.821   2.371 -0.8907  0.7528 -0.2824
 6316TIP3    H218955   2.357   4.696   2.422  0.1963  0.5169  0.6204
 6317TIP3   OH218956   4.944   1.053   1.501 -0.0490 -0.3351  0.3100
 6317TIP3    H118957   4.866   1.000   1.520 -0.9499  0.2648 -1.4794
 6317TIP3    H218958   4.963   1.098   1.583 -0.8335 -1.4366  1.1264
 6318TIP3   OH218959   4.834   0.552   2.704 -0.9124 -0.1720  0.2466
 6318TIP3    H118960   4.849   0.496   2.779 -0.2113 -0.2920  0.0288
 6318TIP3    H218961   4.809   0.493   2.633 -0.0706 -0.2430 -0.0110
 6319TIP3   OH218962   5.072   5.924   1.727 -0.1078  0.4991  0.4269
 6319TIP3    H118963   5.073   5.911   1.822 -0.8563 -2.1812  0.1493
 6319TIP3    H218964   5.164   5.934   1.703  0.0795  1.3346  1.4219
 6320TIP3   OH218965   3.710   1.682   1.518  0.1787  0.2891  0.4285
 6320TIP3    H118966   3.628   1.638   1.542  2.7574 -5.2634  0.5545
 6320TIP3    H218967   3.713   1.677   1.422 -0.0553  1.5473  0.3384
 6321TIP3   OH218968   4.634   0.139   2.106  0.0845  0.0733  0.4861
 6321TIP3    H118969   4.687   0.145   2.185 -1.0514 -0.4678  1.3108
 6321TIP3    H218970   4.616   0.230   2.082 -0.9790  0.2453  1.8369
 6322TIP3   OH218971   3.232   0.673   2.292  0.0459  0.2575  0.4958
 6322TIP3    H118972   3.146   0.636   2.274 -0.6030  1.7538  0.3040
 6322TIP3    H218973   3.233   0.688   2.386  0.2344 -0.0880  0.5484
 6323TIP3   OH218974   4.407   2.943   0.891 -1.5987 -0.1216 -0.0937
 6323TIP3    H118975   4.341   2.944   0.961 -0.0217 -2.1452  1.5728
 6323TIP3    H218976   4.375   2.877   0.829 -1.4255 -0.7305  0.4512
 6324TIP3   OH218977   0.339   0.835   4.648  0.0838  0.1587  0.0775
 6324TIP3    H118978   0.303   0.864   4.564  1.7754  1.9922 -0.0958
 6324TIP3    H218979   0.397   0.762   4.626  2.2721  2.0349 -0.7726
 6325TIP3   OH218980   5.103   1.739   2.810  0.6992  0.4567  0.3092
 6325TIP3    H118981   5.186   1.753   2.855  0.2596  1.6291  0.7689
 6325TIP3    H218982   5.037   1.740   2.879  0.3145 -0.8769 -0.0018
 6326TIP3   OH218983   5.618   1.124   5.059 -0.1441 -0.0836  0.0690
 6326TIP3    H118984   5.633   1.138   5.153 -0.7902 -3.3567  0.7845
 6326TIP3    H218985   5.700   1.149   5.017 -0.0801  2.1385  1.3435
 6327TIP3   OH218986   5.542   4.084   3.746 -0.0939 -0.2614  0.3215
 6327TIP3    H118987   5.587   4.001   3.760 -0.5600 -0.2810  1.8304
 6327TIP3    H218988   5.591   4.147   3.800  0.1937  0.4408 -0.7229
 6328TIP3   OH218989   4.846   0.104   2.307 -0.4619 -0.0226 -0.4717
 6328TIP3    H118990   4.875   0.016   2.286 -0.3096 -0.3984  1.1782
 6328TIP3    H218991   4.916   0.161   2.275 -0.2279 -0.5503 -0.9088
 6329TIP3   OH218992   0.537   4.433   0.692 -0.3974  0.2212  0.1182
 6329TIP3    H118993   0.445   4.427   0.719 -0.2874 -1.3936  0.2282
 6329TIP3    H218994   0.539   4.506   0.630 -1.3125  1.7784  1.8142
 6330TIP3   OH218995   3.929   1.915   1.675  0.3922  0.3016  0.2156
 6330TIP3    H118996   3.855   1.974   1.681  1.8496  2.1914  0.4943
 6330TIP3    H218997   3.915   1.850   1.744 -0.5810  1.1237  0.8065
 6331TIP3   OH218998   3.630   1.241   1.719 -0.2732 -0.4581 -0.0333
 6331TIP3    H118999   3.681   1.316   1.750  0.3049 -1.6139  1.9578
 6331TIP3    H219000   3.613   1.260   1.627  0.2218  1.9045  0.2984
 6332TIP3   OH219001   6.166   5.649   3.729  0.4733 -0.1857  0.4585
 6332TIP3    H119002   6.118   5.691   3.800 -0.0034  0.4068 -0.2032
 6332TIP3    H219003   6.253   5.691   3.731  0.2604  0.2699  0.3089
 6333TIP3   OH219004   1.306   2.327   3.686  0.6967  0.1202 -0.2551
 6333TIP3    H119005   1.322   2.395   3.752  1.5059  2.5632 -2.7893
 6333TIP3    H219006   1.374   2.262   3.703  1.7250  1.3277  0.5573
 6334TIP3   OH219007   5.556   3.558   0.695  0.0798 -0.0730 -0.0306
 6334TIP3    H119008   5.551   3.623   0.766 -2.1041  0.8380 -0.9212
 6334TIP3    H219009   5.612   3.489   0.730  0.5819  1.1920  1.8605
 6335TIP3   OH219010   3.579   0.265   1.633 -0.4010  0.1253  0.3912
 6335TIP3    H119011   3.587   0.271   1.538  0.4611 -0.1505  0.4408
 6335TIP3    H219012   3.540   0.179   1.648  1.4231 -0.7528  0.3627
 6336TIP3   OH219013   6.001   2.489   1.637  0.2626 -0.2581 -0.0496
 6336TIP3    H119014   6.033   2.513   1.724  0.5458  0.7291 -0.4155
 6336TIP3    H219015   5.912   2.524   1.634 -0.0495 -1.0171  0.1358
 6337TIP3   OH219016   6.262   0.748   4.970 -0.2993  0.4715  0.1901
 6337TIP3    H119017   6.260   0.786   4.882  2.8184 -2.9813 -1.6354
 6337TIP3    H219018   6.192   0.683   4.970 -0.0724  0.2244  0.1029
 6338TIP3   OH219019   6.003   1.720   2.960 -0.0028  0.1888  0.4089
 6338TIP3    H119020   5.955   1.798   2.987  0.6241  1.0668 -0.9021
 6338TIP3    H219021   5.936   1.654   2.947 -0.5217  0.3884  1.8405
 6339TIP3   OH219022   2.237   0.694   4.232 -0.9081  0.1396 -0.0624
 6339TIP3    H119023   2.145   0.680   4.255 -0.8886 -1.9935 -1.0139
 6339TIP3    H219024   2.239   0.689   4.137  0.1359  0.5634 -0.0712
 6340TIP3   OH219025   0.885   2.580   2.779  0.2844 -0.5134  0.3274
 6340TIP3    H119026   0.900   2.619   2.865  1.6230  1.5806 -0.7880
 6340TIP3    H219027   0.957   2.518   2.768  2.8524  2.4649 -1.0155
 6341TIP3   OH219028   1.888   1.243   0.243 -0.6239 -0.5379 -0.0894
 6341TIP3    H119029   1.809   1.295   0.231 -0.3643 -0.6505 -2.8965
 6341TIP3    H219030   1.856   1.153   0.256 -0.9938 -0.7081 -1.9713
 6342TIP3   OH219031   3.476   4.116   3.537 -0.0254 -0.0643  0.2961
 6342TIP3    H119032   3.398   4.137   3.486  0.8628  1.5994 -0.4412
 6342TIP3    H219033   3.472   4.175   3.613  1.4124  1.4124 -0.7027
 6343TIP3   OH219034   0.192   4.870   3.214  0.4659  0.2365  0.1015
 6343TIP3    H119035   0.107   4.860   3.257  1.2324 -1.1303  1.3959
 6343TIP3    H219036   0.171   4.880   3.121 -1.0649 -2.5634  0.0301
 6344TIP3   OH219037   0.259   4.800   4.917  0.0582  0.0002  0.1114
 6344TIP3    H119038   0.225   4.830   4.833 -1.8521 -1.1348  0.4213
 6344TIP3    H219039   0.288   4.710   4.901 -1.0881 -0.5230  0.8051
 6345TIP3   OH219040   0.714   4.840   1.372  0.6606 -0.1017  0.6553
 6345TIP3    H119041   0.672   4.758   1.345  0.3969  0.2550 -0.0295
 6345TIP3    H219042   0.676   4.907   1.316  0.7079  0.5355  1.3599
 6346TIP3   OH219043   0.278   4.673   4.411 -0.4212 -0.1133  0.4172
 6346TIP3    H119044   0.254   4.765   4.427 -1.6942 -0.3366 -0.0491
 6346TIP3    H219045   0.365   4.677   4.373 -0.0991  0.8454  1.2245
 6347TIP3   OH219046   5.251   1.675   2.377  0.7133 -0.0713  0.2576
 6347TIP3    H119047   5.334   1.656   2.419  0.7099  0.4382  0.5079
 6347TIP3    H219048   5.270   1.673   2.283  1.1908  0.7875  0.3189
 6348TIP3   OH219049   2.272   5.378   1.135  0.1423  0.1660  0.2669
 6348TIP3    H119050   2.319   5.330   1.204 -1.1372 -1.1601  0.2778
 6348TIP3    H219051   2.197   5.416   1.180 -0.9324 -1.0537 -0.4223
 6349TIP3   OH219052   3.926   1.146   1.699 -0.6647 -0.3272 -0.2490
 6349TIP3    H119053   3.932   1.178   1.789  2.6359  0.3944 -0.5657
 6349TIP3    H219054   3.922   1.051   1.708  1.0832 -0.3606  0.7287
 6350TIP3   OH219055   6.150   2.652   3.045  0.3416 -0.1947  0.5593
 6350TIP3    H119056   6.096   2.576   3.023 -0.1982  0.7798 -1.9499
 6350TIP3    H219057   6.089   2.726   3.043  1.4253  0.7264 -0.6575
 6351TIP3   OH219058   2.850   2.316   0.736 -0.7055 -0.5993 -0.2728
 6351TIP3    H119059   2.834   2.405   0.768 -0.3490 -0.6117 -0.0541
 6351TIP3    H219060   2.890   2.328   0.650  0.6228 -0.5161  0.3410
 6352TIP3   OH219061   4.467   4.567   0.415  0.8060 -0.5900  0.1844
 6352TIP3    H119062   4.490   4.541   0.326  2.9210 -0.5518  0.6773
 6352TIP3    H219063   4.448   4.484   0.460  0.8077 -0.6929 -0.0048
 6353TIP3   OH219064   2.955   5.766   3.800 -0.4509  0.2954 -0.0066
 6353TIP3    H119065   3.026   5.829   3.807 -1.3123  1.2519  0.4822
 6353TIP3    H219066   2.945   5.751   3.706  0.2367  0.3310 -0.0886
 6354TIP3   OH219067   3.316   1.594   2.662 -0.1349 -0.3680 -0.2428
 6354TIP3    H119068   3.355   1.679   2.681 -1.5468 -0.1603  2.1700
 6354TIP3    H219069   3.379   1.531   2.696 -0.4538 -0.1400  0.8212
 6355TIP3   OH219070   4.992   3.694   4.008 -0.7189 -0.3370  0.1539
 6355TIP3    H119071   4.994   3.631   4.079  1.0084 -1.4424 -0.8149
 6355TIP3    H219072   5.021   3.776   4.048  1.3297 -1.1958  0.5310
 6356TIP3   OH219073   3.694   5.689   4.217 -0.3611 -0.0907  0.2551
 6356TIP3    H119074   3.786   5.661   4.220  0.1957  1.2165 -1.9790
 6356TIP3    H219075   3.644   5.610   4.238  1.2608 -0.9286  1.1131
 6357TIP3   OH219076   5.859   4.014   0.904 -0.2309  0.1919  0.2808
 6357TIP3    H119077   5.944   3.973   0.889  0.0123  0.5083  0.7854
 6357TIP3    H219078   5.875   4.108   0.899 -0.3460  0.2882  1.3504
 6358TIP3   OH219079   1.793   2.955   2.591  0.4137 -0.4347  0.4466
 6358TIP3    H119080   1.869   2.918   2.546  1.0691 -0.7010  1.7233
 6358TIP3    H219081   1.784   2.902   2.670 -1.9848 -1.3395 -0.3420
 6359TIP3   OH219082   6.283   5.080   4.890 -0.5319 -0.2808 -0.1211
 6359TIP3    H119083   6.252   5.159   4.934  0.8981  0.2684 -0.0716
 6359TIP3    H219084   6.227   5.010   4.925 -0.2771  0.3367  1.6157
 6360TIP3   OH219085   3.718   4.538   4.457 -0.4476  0.8123 -0.5904
 6360TIP3    H119086   3.785   4.604   4.475  1.3871 -1.0922  0.0782
 6360TIP3    H219087   3.698   4.501   4.543 -0.3424 -0.4467 -1.0905
 6361TIP3   OH219088   1.879   0.477   4.123 -0.2915  0.8078  0.7658
 6361TIP3    H119089   1.792   0.441   4.103  0.3694 -0.0129 -0.8416
 6361TIP3    H219090   1.914   0.421   4.192  1.0723 -2.4478 -2.2629
 6362TIP3   OH219091   3.374   1.379   4.105 -0.0433 -0.3322 -0.1670
 6362TIP3    H119092   3.369   1.466   4.145  1.5110 -0.0875 -0.4475
 6362TIP3    H219093   3.461   1.347   4.126 -0.2302 -1.4205 -0.9173
 6363TIP3   OH219094   1.576   0.292   5.148  0.0439 -0.6943 -0.1293
 6363TIP3    H119095   1.528   0.272   5.067  0.4090 -2.7446  0.1070
 6363TIP3    H219096   1.617   0.209   5.172  1.5200  0.3535  1.1352
 6364TIP3   OH219097   6.054   3.845   1.934 -0.3606  0.1650 -0.4505
 6364TIP3    H119098   6.001   3.878   1.861 -0.8862  0.0656 -0.1177
 6364TIP3    H219099   6.140   3.828   1.895  0.2549  2.8469 -0.4360
 6365TIP3   OH219100   0.457   1.160   2.146  0.8059 -0.4734  0.3819
 6365TIP3    H119101   0.531   1.221   2.142  1.0662 -0.6425  2.0307
 6365TIP3    H219102   0.387   1.205   2.098  0.7288  1.5291  2.2139
 6366TIP3   OH219103   2.304   0.710   2.464  0.0356 -0.3261 -0.5360
 6366TIP3    H119104   2.239   0.759   2.514  1.4870  1.1172  0.0098
 6366TIP3    H219105   2.316   0.761   2.384  1.0023 -0.1557 -0.3019
 6367TIP3   OH219106   0.880   1.270   3.094 -0.2044 -0.4896  0.3253
 6367TIP3    H119107   0.808   1.213   3.122 -0.4298 -1.4403 -1.9792
 6367TIP3    H219108   0.955   1.212   3.085  0.4526  0.2052  1.1050
 6368TIP3   OH219109   4.352   0.111   2.496 -0.7947  0.0794 -0.2060
 6368TIP3    H119110   4.415   0.183   2.498 -0.9465  0.2143  1.2202
 6368TIP3    H219111   4.379   0.056   2.423  0.4091  0.6429 -0.2014
 6369TIP3   OH219112   0.417   1.284   2.571 -0.3241 -0.1318 -0.7676
 6369TIP3    H119113   0.496   1.327   2.537  1.4751 -1.6925  1.1481
 6369TIP3    H219114   0.412   1.311   2.662 -1.1144 -1.2498 -0.4603
 6370TIP3   OH219115   6.159   1.761   4.463 -0.3669 -0.2160 -0.3203
 6370TIP3    H119116   6.065   1.746   4.471 -0.5775  1.3450  0.3912
 6370TIP3    H219117   6.171   1.853   4.483  1.3257 -0.3747 -0.4276
 6371TIP3   OH219118   3.877   4.151   4.284  0.4090  0.7664  0.2548
 6371TIP3    H119119   3.842   4.234   4.250  2.5351  2.6977  2.4470
 6371TIP3    H219120   3.893   4.168   4.376  0.5908 -2.2806  0.8759
 6372TIP3   OH219121   4.775   0.431   4.305 -0.1047  0.1098  0.2013
 6372TIP3    H119122   4.685   0.422   4.273 -0.2767 -0.4760  0.8283
 6372TIP3    H219123   4.830   0.412   4.228 -0.5133 -1.0433  0.1793
 6373TIP3   OH219124   2.456   0.633   3.102 -0.7429 -0.4574  0.2296
 6373TIP3    H119125   2.532   0.577   3.088  0.2865  1.1387 -0.8765
 6373TIP3    H219126   2.481   0.690   3.175 -1.9224 -1.6116  1.5919
 6374TIP3   OH219127   1.535   3.117   2.718  0.2304  0.3457 -0.0962
 6374TIP3    H119128   1.493   3.039   2.681 -0.5640  1.2708 -1.2101
 6374TIP3    H219129   1.462   3.176   2.738  0.9069  1.7515 -1.5233
 6375TIP3   OH219130   0.046   5.826   1.488 -0.1345 -0.2483 -0.4426
 6375TIP3    H119131   0.016   5.779   1.566 -0.0398  0.8032  0.2472
 6375TIP3    H219132   0.131   5.863   1.513 -0.3269  0.5093 -0.8729
 6376TIP3   OH219133   0.790   5.406   4.607  0.2061 -0.4340 -0.0765
 6376TIP3    H119134   0.743   5.342   4.660  0.5984 -0.4363  0.2733
 6376TIP3    H219135   0.735   5.484   4.610  0.2841 -0.3991  0.4272
 6377TIP3   OH219136   3.117   5.456   2.233  0.3318 -0.2939  0.8078
 6377TIP3    H119137   3.159   5.443   2.148 -0.2077  0.4244  0.4179
 6377TIP3    H219138   3.143   5.544   2.260 -2.0584  0.7837 -0.1450
 6378TIP3   OH219139   5.784   1.436   2.447  0.3048 -0.1606  0.4021
 6378TIP3    H119140   5.701   1.480   2.428  0.8345  1.0672  0.8016
 6378TIP3    H219141   5.813   1.403   2.362 -0.3617 -0.1737  0.1757
 6379TIP3   OH219142   2.631   5.791   0.731  0.3092  0.2445  0.1595
 6379TIP3    H119143   2.711   5.755   0.693 -0.0502  0.2856 -0.6459
 6379TIP3    H219144   2.644   5.886   0.727  0.9551  0.2419  1.6362
 6380TIP3   OH219145   5.441   0.068   4.706  0.3868 -0.1068  0.0532
 6380TIP3    H119146   5.443  -0.016   4.660  1.2370  0.1182 -0.3329
 6380TIP3    H219147   5.428   0.133   4.637 -0.1815  0.0914  0.3425
 6381TIP3   OH219148   4.457   4.380   3.792  0.5099 -0.4526 -0.3569
 6381TIP3    H119149   4.541   4.339   3.770  0.1664 -0.9206 -0.8427
 6381TIP3    H219150   4.394   4.334   3.737 -0.0718 -0.1354  0.0396
 6382TIP3   OH219151   4.131   0.902   0.464 -0.2189 -0.1485  0.2932
 6382TIP3    H119152   4.074   0.980   0.465 -0.1902 -0.1247  0.1014
 6382TIP3    H219153   4.074   0.832   0.431  0.8259  0.6477 -3.8559
 6383TIP3   OH219154   3.040   3.199   4.807  0.2386  0.4199  0.3943
 6383TIP3    H119155   2.987   3.212   4.729 -0.4707  1.2280  0.9857
 6383TIP3    H219156   3.077   3.111   4.798 -4.2226 -1.8721  1.6655
 6384TIP3   OH219157   0.907   5.611   2.131  0.7461  0.4090  0.0393
 6384TIP3    H119158   0.967   5.587   2.061  1.4238  1.4872  0.2328
 6384TIP3    H219159   0.950   5.582   2.212 -0.1106 -0.9895  0.0387
 6385TIP3   OH219160   4.372   5.128   3.686  0.0678 -0.0098  0.0823
 6385TIP3    H119161   4.304   5.136   3.753  0.8706  1.2688  0.7991
 6385TIP3    H219162   4.354   5.201   3.626  0.0127 -0.4834 -0.4849
 6386TIP3   OH219163   0.692   3.370   2.432 -0.6487  0.8848 -0.0692
 6386TIP3    H119164   0.765   3.368   2.494 -0.2684  1.0912 -0.5043
 6386TIP3    H219165   0.666   3.462   2.429 -0.6813  0.8709 -0.2069
 6387TIP3   OH219166   5.934   5.875   4.760  0.0818  0.4621 -0.2764
 6387TIP3    H119167   5.874   5.877   4.686  0.3360 -0.7049 -0.5339
 6387TIP3    H219168   5.879   5.852   4.835  0.1246 -0.2035 -0.4415
 6388TIP3   OH219169   6.141   2.448   1.109  0.1927  0.3885 -0.0231
 6388TIP3    H119170   6.101   2.425   1.193 -1.6337 -0.7658 -1.1609
 6388TIP3    H219171   6.221   2.395   1.106  1.4188  1.9569  1.8180
 6389TIP3   OH219172   4.300   5.850   0.922  0.0308 -0.2789  0.0096
 6389TIP3    H119173   4.283   5.916   0.855 -0.3954  0.7195  1.0792
 6389TIP3    H219174   4.395   5.854   0.935  0.1027 -0.4060 -0.4586
 6390TIP3   OH219175   5.402   5.017   0.738  0.4391 -0.5015 -0.0625
 6390TIP3    H119176   5.369   5.102   0.767 -1.1811 -1.3145  0.6004
 6390TIP3    H219177   5.405   4.964   0.818  0.1705 -1.4641 -0.6757
 6391TIP3   OH219178   0.801   2.184   4.574  0.5086  0.6733  0.0058
 6391TIP3    H119179   0.885   2.141   4.559 -0.3999 -0.6441 -1.6052
 6391TIP3    H219180   0.809   2.270   4.533  1.3191  0.8616  0.5523
 6392TIP3   OH219181   2.439   2.591   0.398 -0.3561 -0.0519 -0.3164
 6392TIP3    H119182   2.418   2.650   0.470  2.9510 -0.3596  1.0864
 6392TIP3    H219183   2.403   2.506   0.426  2.0264 -0.5004  1.8349
 6393TIP3   OH219184   3.834   0.076   3.213 -0.2213 -0.6624  0.2787
 6393TIP3    H119185   3.921   0.077   3.173 -0.8210  1.3612 -1.1427
 6393TIP3    H219186   3.784   0.013   3.161 -0.3434  0.2407 -0.7384
 6394TIP3   OH219187   2.610   1.255   3.146 -0.2457  0.1802 -0.3460
 6394TIP3    H119188   2.625   1.336   3.098 -0.5289 -0.3501 -1.3401
 6394TIP3    H219189   2.693   1.208   3.139 -0.1668  0.2587  0.0116
 6395TIP3   OH219190   0.903   4.532   0.849  0.5632  0.3822  0.6055
 6395TIP3    H119191   0.863   4.464   0.795  2.3292 -1.2623  1.2668
 6395TIP3    H219192   0.882   4.614   0.803 -0.9917 -0.6404 -0.6108
 6396TIP3   OH219193   4.370   3.361   4.329  0.3037  0.4881 -0.1852
 6396TIP3    H119194   4.316   3.294   4.370 -2.1891  2.1958 -0.4533
 6396TIP3    H219195   4.398   3.418   4.401  2.9062 -1.0249  0.1283
 6397TIP3   OH219196   0.319   5.930   1.963  0.0014  0.5201  0.1076
 6397TIP3    H119197   0.305   5.841   1.995  0.7871  0.1798 -0.4539
 6397TIP3    H219198   0.247   5.947   1.903 -0.2549  0.3336  0.3639
 6398TIP3   OH219199   0.763   5.652   4.258 -0.0552  0.0175  0.7209
 6398TIP3    H119200   0.822   5.580   4.236  0.3942  1.1202 -2.1664
 6398TIP3    H219201   0.677   5.622   4.227 -0.5472 -0.5217  2.5046
 6399TIP3   OH219202   1.994   1.436   2.240 -0.0018 -0.0192 -0.2537
 6399TIP3    H119203   1.990   1.340   2.232  1.7863 -0.0327 -1.5942
 6399TIP3    H219204   1.965   1.453   2.330  0.2848 -1.8779  0.2526
 6400TIP3   OH219205   0.461   2.316   3.479  0.0299  0.3987  0.3467
 6400TIP3    H119206   0.529   2.369   3.438  0.3697 -0.7757 -0.7033
 6400TIP3    H219207   0.379   2.357   3.452  0.2725  0.1109 -0.8777
 6401TIP3   OH219208   4.195   4.665   3.545  0.1237 -0.1272  0.1298
 6401TIP3    H119209   4.235   4.745   3.578 -2.3951  0.9915  0.6646
 6401TIP3    H219210   4.157   4.623   3.623 -0.2110 -0.8699 -0.4195
 6402TIP3   OH219211   4.971   0.948   0.987  0.0915 -0.4865  0.5603
 6402TIP3    H119212   5.012   0.869   0.951 -0.7746 -0.7838  0.2098
 6402TIP3    H219213   5.024   0.970   1.064  1.7543 -0.0618 -0.6444
 6403TIP3   OH219214   3.127   3.806   2.752 -0.0633 -0.3369  0.6260
 6403TIP3    H119215   3.136   3.760   2.669  1.4747  0.7904  0.1201
 6403TIP3    H219216   3.214   3.799   2.793  0.2188  1.9587  0.5650
 6404TIP3   OH219217   3.114   0.649   3.794 -0.1368 -0.1673 -0.0298
 6404TIP3    H119218   3.181   0.717   3.803 -1.4547  0.8429  3.5443
 6404TIP3    H219219   3.159   0.568   3.818  0.5406 -0.0567 -0.8402
 6405TIP3   OH219220   3.683   4.382   2.302 -0.1828  0.1191 -0.1754
 6405TIP3    H119221   3.690   4.457   2.242 -0.8301 -1.2868 -2.1316
 6405TIP3    H219222   3.596   4.389   2.339  0.0577  0.7662  0.2806
 6406TIP3   OH219223   3.539   3.395   3.416 -0.1254 -0.0906 -0.6387
 6406TIP3    H119224   3.589   3.314   3.419 -0.9512 -0.5974 -0.0882
 6406TIP3    H219225   3.605   3.464   3.415  0.5936 -0.7654 -1.3857
 6407TIP3   OH219226   4.903   0.285   1.502  0.3180 -0.1510 -0.1455
 6407TIP3    H119227   4.905   0.259   1.410 -0.4787  0.7062 -0.4238
 6407TIP3    H219228   4.825   0.341   1.509  1.3223  1.2166  0.6589
 6408TIP3   OH219229   4.608   2.756   1.832  0.3107  0.6104 -0.5505
 6408TIP3    H119230   4.613   2.696   1.758  1.5875 -0.4996  0.3857
 6408TIP3    H219231   4.518   2.790   1.830 -0.8464 -2.1847 -0.4961
 6409TIP3   OH219232   2.244   1.582   2.488  0.3901 -0.1231 -0.1717
 6409TIP3    H119233   2.176   1.544   2.544  0.4375 -0.7893 -0.5586
 6409TIP3    H219234   2.263   1.514   2.423 -0.0585  0.8482 -1.3446
 6410TIP3   OH219235   4.749   5.720   0.516  0.2027 -0.0832 -0.4465
 6410TIP3    H119236   4.753   5.728   0.611 -1.9389  0.5465 -0.3480
 6410TIP3    H219237   4.657   5.700   0.497  0.6733 -0.7052 -2.3604
 6411TIP3   OH219238   2.958   5.705   1.818  0.1216  0.0303 -0.2591
 6411TIP3    H119239   2.984   5.668   1.902  0.4209  1.0789  0.1258
 6411TIP3    H219240   2.912   5.633   1.773  2.0163 -1.2938 -0.1899
 6412TIP3   OH219241   4.952   3.935   3.493 -0.4975  0.4101  0.3135
 6412TIP3    H119242   4.982   3.877   3.563 -1.4529 -0.2122  0.2260
 6412TIP3    H219243   4.875   3.979   3.530 -0.8813  0.2351 -0.2669
 6413TIP3   OH219244   6.139   4.584   1.970 -0.3069  0.0665 -0.0037
 6413TIP3    H119245   6.212   4.579   1.909 -1.1192  0.9741 -1.0970
 6413TIP3    H219246   6.072   4.526   1.934 -0.5859  0.1770  0.3218
 6414TIP3   OH219247   4.283   1.743   3.504  0.1873 -0.4785 -0.3897
 6414TIP3    H119248   4.350   1.686   3.468  0.9341  1.0078 -1.4577
 6414TIP3    H219249   4.248   1.791   3.429 -0.1046  0.7791  0.5053
 6415TIP3   OH219250   2.876   3.486   4.240 -0.3068  0.3593 -0.4001
 6415TIP3    H119251   2.809   3.451   4.181  0.6887 -0.5941 -0.9904
 6415TIP3    H219252   2.936   3.534   4.184  1.0658 -1.1784 -0.3363
 6416TIP3   OH219253   0.555   1.485   3.007  0.0946 -0.0249  0.1075
 6416TIP3    H119254   0.625   1.551   3.017 -0.1092  0.4274 -1.3068
 6416TIP3    H219255   0.553   1.440   3.092  1.4728  0.5741  0.4889
 6417TIP3   OH219256   4.419   1.945   3.666 -0.0700 -0.7272  0.1159
 6417TIP3    H119257   4.369   1.876   3.622  0.0760 -1.4356  1.0384
 6417TIP3    H219258   4.509   1.931   3.637  0.3909 -2.4823  2.1401
 6418TIP3   OH219259   0.652   5.050   0.860  0.4840 -0.2361 -0.2700
 6418TIP3    H119260   0.692   5.050   0.773  1.8694 -1.9966  0.3128
 6418TIP3    H219261   0.611   4.964   0.869 -0.4010  0.2348  0.5235
 6419TIP3   OH219262   3.177   0.459   1.701 -0.2353  0.1259 -0.0987
 6419TIP3    H119263   3.143   0.406   1.774 -0.0311 -1.0077 -0.8034
 6419TIP3    H219264   3.262   0.491   1.733 -1.1517  1.5670  1.0225
 6420TIP3   OH219265   5.935   1.413   2.885 -0.0014 -0.3726  0.1747
 6420TIP3    H119266   6.014   1.386   2.932 -0.3228 -0.4806  0.6710
 6420TIP3    H219267   5.872   1.433   2.955 -1.4637 -3.2940 -0.1380
 6421TIP3   OH219268   4.379   2.391   2.973  0.3262 -0.2143 -0.0114
 6421TIP3    H119269   4.460   2.352   2.941 -0.7305 -1.0005 -1.9010
 6421TIP3    H219270   4.322   2.316   2.990 -0.4569  0.3694 -0.0051
 6422TIP3   OH219271   0.441   5.090   4.171  0.3795  0.1919 -0.7742
 6422TIP3    H119272   0.529   5.053   4.169  0.3748 -0.2196  1.9649
 6422TIP3    H219273   0.387   5.020   4.207 -0.1987  1.7833  1.6822
 6423TIP3   OH219274   1.009   5.044   0.487 -0.3732 -0.5379 -0.0651
 6423TIP3    H119275   1.077   5.008   0.430  0.0960  2.8875 -1.9389
 6423TIP3    H219276   1.057   5.081   0.561 -0.6183 -1.5945  0.6351
 6424TIP3   OH219277   1.114   4.376   0.136 -0.2292  0.2457 -0.1942
 6424TIP3    H119278   1.129   4.305   0.198  1.7516  0.2767 -0.5663
 6424TIP3    H219279   1.105   4.332   0.051  0.9720  0.4072 -0.4215
 6425TIP3   OH219280   1.279   5.859   1.958 -0.0455 -0.9193  0.4491
 6425TIP3    H119281   1.360   5.829   1.917  0.2495 -0.5076  0.7207
 6425TIP3    H219282   1.211   5.844   1.891  0.2493 -1.2801  0.2278
 6426TIP3   OH219283   4.287   5.145   0.974  0.3450 -0.1596  0.3783
 6426TIP3    H119284   4.330   5.201   0.910  4.0615 -0.7358  2.0665
 6426TIP3    H219285   4.297   5.191   1.057 -3.9505  0.3729  0.8017
 6427TIP3   OH219286   2.739   2.710   1.409  0.0676 -0.8986  0.7711
 6427TIP3    H119287   2.687   2.658   1.471  0.7759 -2.4400  0.0961
 6427TIP3    H219288   2.791   2.768   1.465  0.5179 -2.1014  1.6244
 6428TIP3   OH219289   2.804   1.017   2.952  0.7711  0.5546 -0.4320
 6428TIP3    H119290   2.772   0.967   3.028  1.9264  1.0289  0.3883
 6428TIP3    H219291   2.833   0.950   2.891  0.4171  0.1783 -0.1976
 6429TIP3   OH219292   5.491   5.737   0.706  0.1942 -0.2119  0.2306
 6429TIP3    H119293   5.470   5.652   0.669 -0.7353 -0.3078  0.9389
 6429TIP3    H219294   5.535   5.717   0.789  1.0371 -0.0019 -0.1602
 6430TIP3   OH219295   0.632   3.247   2.746  0.1677  0.4160 -0.1075
 6430TIP3    H119296   0.537   3.251   2.757  0.1321  0.8365 -0.5320
 6430TIP3    H219297   0.645   3.235   2.652  0.5199 -0.5637  0.0530
 6431TIP3   OH219298   3.686   3.248   3.066  0.0727 -0.3254 -0.4378
 6431TIP3    H119299   3.594   3.226   3.079 -0.0217  0.5715  0.5881
 6431TIP3    H219300   3.734   3.182   3.115 -0.1840  1.2205  2.0825
 6432TIP3   OH219301   2.528   4.613   1.814 -0.2573  0.1591 -0.2039
 6432TIP3    H119302   2.585   4.557   1.867 -1.5618 -1.0705 -0.0437
 6432TIP3    H219303   2.477   4.551   1.761 -0.0874  1.2947 -1.7678
 6433TIP3   OH219304   2.310   0.668   3.605  0.1691 -0.2094 -0.1564
 6433TIP3    H119305   2.343   0.667   3.515  0.3697  1.3081 -0.1373
 6433TIP3    H219306   2.229   0.719   3.600 -0.0425 -0.4759  0.4616
 6434TIP3   OH219307   4.017   1.018   3.173  0.7708 -0.1083  0.3250
 6434TIP3    H119308   3.993   1.053   3.087  0.0208 -0.2245  0.4842
 6434TIP3    H219309   3.992   1.086   3.235 -1.0916 -1.0396  0.6792
 6435TIP3   OH219310   1.059   1.018   4.803  0.0400  0.9051  0.0950
 6435TIP3    H119311   1.027   1.058   4.884 -1.4579  0.0480 -0.0302
 6435TIP3    H219312   1.089   0.931   4.829  0.5125  1.0041 -0.1106
 6436TIP3   OH219313   2.404   5.403   4.760 -0.0421 -0.5284 -0.7992
 6436TIP3    H119314   2.393   5.378   4.852  0.1036 -0.7560 -0.8441
 6436TIP3    H219315   2.497   5.427   4.753  0.1484 -1.3362 -1.0895
 6437TIP3   OH219316   2.774   3.434   2.781 -1.0524 -0.3172 -0.8195
 6437TIP3    H119317   2.841   3.369   2.804 -2.0076 -1.5135 -1.2622
 6437TIP3    H219318   2.791   3.508   2.839 -0.2318 -1.1680  0.0689
 6438TIP3   OH219319   2.323   4.557   4.227  0.3665 -0.2360  0.6496
 6438TIP3    H119320   2.306   4.471   4.265 -1.4655  0.0749  0.6411
 6438TIP3    H219321   2.373   4.539   4.148 -2.9522 -1.7127 -1.3396
 6439TIP3   OH219322   0.193   4.927   4.564 -0.7389  0.4034  0.6105
 6439TIP3    H119323   0.181   5.011   4.608 -1.3163  0.9822 -0.5962
 6439TIP3    H219324   0.107   4.907   4.527 -0.2919 -0.0960 -0.1822
 6440TIP3   OH219325   4.007   2.992   2.860  0.4099 -0.4895 -0.6219
 6440TIP3    H119326   4.065   2.917   2.873  0.7151 -0.1532 -0.0150
 6440TIP3    H219327   4.054   3.066   2.898 -0.1624 -0.1060 -0.6521
 6441TIP3   OH219328   3.743   2.515   0.742 -0.2034 -0.2329  0.0339
 6441TIP3    H119329   3.768   2.423   0.743  1.5426  0.1820 -0.3974
 6441TIP3    H219330   3.785   2.552   0.820 -1.7011  0.0217  0.7438
 6442TIP3   OH219331   2.255   1.373   0.743 -0.1308  0.0791 -0.5006
 6442TIP3    H119332   2.251   1.327   0.658 -0.6554  1.5679 -1.3075
 6442TIP3    H219333   2.209   1.455   0.728  0.5260  0.7539  1.0036
 6443TIP3   OH219334   1.048   5.479   4.591 -0.3766  0.2032  0.6750
 6443TIP3    H119335   1.068   5.455   4.682 -0.6852 -1.9154  0.2306
 6443TIP3    H219336   0.954   5.462   4.582 -0.5424  1.3212  0.2170
 6444TIP3   OH219337   1.410   1.747   4.182 -0.4835 -0.1187 -0.2749
 6444TIP3    H119338   1.319   1.718   4.193 -0.0527 -1.7566 -0.8601
 6444TIP3    H219339   1.403   1.842   4.169 -1.9540  0.0730  1.4952
 6445TIP3   OH219340   1.395   2.885   2.628 -0.3007  0.0810 -0.1894
 6445TIP3    H119341   1.301   2.877   2.618 -0.1552 -0.6162 -1.0497
 6445TIP3    H219342   1.420   2.813   2.686 -0.1774 -0.2560 -0.6655
 6446TIP3   OH219343   3.028   5.899   1.023 -0.6016  0.0668 -0.2765
 6446TIP3    H119344   2.994   5.907   1.112 -0.6351  0.4702 -0.3225
 6446TIP3    H219345   3.108   5.952   1.023  0.2852 -1.2302 -0.0435
 6447TIP3   OH219346   1.399   3.088   1.851 -0.1045 -0.5986 -0.0315
 6447TIP3    H119347   1.409   3.029   1.777 -2.3524 -0.7451 -0.2896
 6447TIP3    H219348   1.410   3.176   1.814  2.2770 -0.7520  0.1765
 6448TIP3   OH219349   5.776   3.427   1.357  0.3283 -0.3918  0.2331
 6448TIP3    H119350   5.835   3.475   1.299 -1.0183 -1.1189 -1.8501
 6448TIP3    H219351   5.833   3.366   1.404  1.3024 -0.9223 -1.5441
 6449TIP3   OH219352   5.374   2.233   0.456  0.8206  0.0563  0.4153
 6449TIP3    H119353   5.336   2.308   0.410  2.7163  0.8133  0.0251
 6449TIP3    H219354   5.444   2.270   0.509  1.8500 -1.4431  0.1613
 6450TIP3   OH219355   5.559   0.678   3.321  0.4492  0.0349 -0.0181
 6450TIP3    H119356   5.477   0.728   3.332  1.3005  1.5823 -0.3855
 6450TIP3    H219357   5.544   0.597   3.369 -1.9783 -0.5527 -1.5604
 6451TIP3   OH219358   1.259   0.336   4.210  0.3012  0.0783 -0.3044
 6451TIP3    H119359   1.231   0.258   4.162 -2.9179  1.6707 -1.3055
 6451TIP3    H219360   1.184   0.395   4.205  3.2087  4.1069 -1.4201
 6452TIP3   OH219361   4.481   0.933   2.009 -0.0410 -0.1313 -0.0664
 6452TIP3    H119362   4.514   0.852   1.969 -0.8529  0.3142 -1.7252
 6452TIP3    H219363   4.393   0.943   1.973 -0.9887  0.1150  2.1807
 6453TIP3   OH219364   6.349   2.577   3.590  0.2317  0.4706  0.3015
 6453TIP3    H119365   6.388   2.578   3.678 -0.0640  0.9089  0.4302
 6453TIP3    H219366   6.269   2.628   3.599  0.3864  0.8311 -0.3131
 6454TIP3   OH219367   5.726   4.439   1.703 -0.6527  0.4440  0.1513
 6454TIP3    H119368   5.783   4.422   1.627 -1.4245 -1.4149 -0.0667
 6454TIP3    H219369   5.721   4.355   1.748 -1.0915  1.2547  1.6687
 6455TIP3   OH219370   1.802   5.259   2.415 -0.2516 -0.2905 -0.1623
 6455TIP3    H119371   1.764   5.172   2.403  0.2937 -0.5136 -0.3126
 6455TIP3    H219372   1.754   5.296   2.490 -0.7907 -0.5415 -0.3782
 6456TIP3   OH219373   2.262   3.782   1.839  0.4165  0.1104  0.7629
 6456TIP3    H119374   2.312   3.703   1.818  0.3285  0.1573  0.3781
 6456TIP3    H219375   2.296   3.810   1.924  1.9862  0.8943 -0.0749
 6457TIP3   OH219376   0.822   2.823   5.114  0.5172  0.2947 -0.3822
 6457TIP3    H119377   0.869   2.755   5.162  0.1231  0.3204  0.0495
 6457TIP3    H219378   0.745   2.778   5.078  0.6252  0.3542 -0.6852
 6458TIP3   OH219379   2.572   2.869   1.883  0.2002 -0.2900 -0.3536
 6458TIP3    H119380   2.626   2.793   1.862  1.3311  0.6602 -1.0359
 6458TIP3    H219381   2.548   2.906   1.798  0.5638  0.7076 -0.0399
 6459TIP3   OH219382   1.152   3.972   5.190  0.3074 -0.5629  0.0919
 6459TIP3    H119383   1.057   3.978   5.178  0.5945  1.3263 -2.0698
 6459TIP3    H219384   1.187   3.975   5.100  2.4481 -0.1659  0.8849
 6460TIP3   OH219385   4.129   2.172   2.754 -0.1629 -0.3816  0.0178
 6460TIP3    H119386   4.050   2.164   2.808  0.3131 -0.9638  0.6516
 6460TIP3    H219387   4.196   2.121   2.801 -0.1865 -2.4968 -2.0370
 6461TIP3   OH219388   4.189   5.878   3.454 -0.5951 -0.2240  0.3839
 6461TIP3    H119389   4.125   5.839   3.395  0.0911  0.1122 -0.5990
 6461TIP3    H219390   4.245   5.932   3.398  0.0040  0.2001  1.3525
 6462TIP3   OH219391   5.993   0.305   0.758  0.1115  0.6246  0.2225
 6462TIP3    H119392   6.009   0.211   0.752  0.4825  0.6367  0.9423
 6462TIP3    H219393   5.935   0.324   0.684 -1.7699 -0.5619  1.3021
 6463TIP3   OH219394   0.140   1.808   3.407  0.2775  0.2684  0.1347
 6463TIP3    H119395   0.070   1.873   3.408  1.2050  1.3088  1.3933
 6463TIP3    H219396   0.144   1.778   3.316 -2.8204 -1.0360  0.3123
 6464TIP3   OH219397   2.677   1.261   5.113  0.1089 -0.3517 -0.0036
 6464TIP3    H119398   2.656   1.193   5.176  0.3131 -0.3072  0.1118
 6464TIP3    H219399   2.753   1.307   5.150  0.9167 -1.0153 -0.7860
 6465TIP3   OH219400   0.265   4.345   0.790  0.1211 -0.2282  0.1810
 6465TIP3    H119401   0.268   4.355   0.886 -1.9743  0.7888  0.1945
 6465TIP3    H219402   0.229   4.428   0.759 -3.3525 -2.0078 -1.0905
 6466TIP3   OH219403   2.924   5.974   4.009  0.0079 -0.1046  0.2130
 6466TIP3    H119404   2.996   5.918   4.035 -0.5806 -1.4189 -0.8411
 6466TIP3    H219405   2.860   5.966   4.079  0.2853 -0.0687  0.4710
 6467TIP3   OH219406   6.018   3.761   0.306 -0.0652  0.0896  0.6001
 6467TIP3    H119407   6.023   3.783   0.213 -3.4080  1.9622  0.7083
 6467TIP3    H219408   6.017   3.665   0.308 -0.1946  0.0136 -1.3071
 6468TIP3   OH219409   0.650   4.159   2.349  0.2455  0.2655 -0.3111
 6468TIP3    H119410   0.692   4.244   2.336 -0.2166  0.4362 -0.7189
 6468TIP3    H219411   0.557   4.175   2.331  0.0926 -0.2364  0.0112
 6469TIP3   OH219412   2.266   1.514   1.596 -0.0281  0.0270 -0.3522
 6469TIP3    H119413   2.310   1.584   1.644  0.4267  0.1104 -0.8809
 6469TIP3    H219414   2.208   1.474   1.660 -0.2152  0.8195 -0.0163
 6470TIP3   OH219415   4.303   4.874   3.713 -0.5413  0.5072 -0.2872
 6470TIP3    H119416   4.373   4.810   3.723 -1.4410 -0.4512  0.1979
 6470TIP3    H219417   4.347   4.956   3.692  0.7000 -0.0911 -0.1008
 6471TIP3   OH219418   1.929   4.081   3.830  0.4820 -0.3657 -1.1140
 6471TIP3    H119419   1.975   4.056   3.910 -1.1000  0.3328  0.0588
 6471TIP3    H219420   1.939   4.005   3.772 -0.4355 -1.9286  0.6764
 6472TIP3   OH219421   4.425   4.946   0.044 -0.1959  0.0574  0.2992
 6472TIP3    H119422   4.406   4.887   0.117 -0.9393  0.4895  0.4679
 6472TIP3    H219423   4.342   4.992   0.028  0.4029  1.1573  0.2669
 6473TIP3   OH219424   0.520   2.113   3.748 -0.3578 -0.0470  0.0500
 6473TIP3    H119425   0.498   2.112   3.842 -0.2638 -1.4234  0.0736
 6473TIP3    H219426   0.441   2.082   3.705  0.1002 -0.8671 -0.2041
 6474TIP3   OH219427   4.830   4.070   1.425 -0.3097  0.1206 -0.0921
 6474TIP3    H119428   4.906   4.128   1.413 -0.3399  0.1862  0.0238
 6474TIP3    H219429   4.757   4.130   1.444 -0.4389  0.0714 -0.4276
 6475TIP3   OH219430   3.731   0.207   2.461  0.5014  0.2608  0.3291
 6475TIP3    H119431   3.811   0.181   2.506 -0.0790 -0.4730  0.9583
 6475TIP3    H219432   3.661   0.160   2.507 -0.8222  3.9076  2.4686
 6476TIP3   OH219433   4.272   5.859   0.407 -0.0888 -0.4243  0.0199
 6476TIP3    H119434   4.334   5.806   0.457 -0.2410 -0.4051  0.2313
 6476TIP3    H219435   4.315   5.873   0.323 -0.3205 -1.4256 -0.2765
 6477TIP3   OH219436   1.145   0.810   1.183 -0.5610  0.1176  0.0199
 6477TIP3    H119437   1.099   0.853   1.111 -0.3965  0.0468 -0.1287
 6477TIP3    H219438   1.088   0.736   1.207 -0.9574  0.5440  0.4310
 6478TIP3   OH219439   1.023   1.873   0.644 -0.1138 -0.3098  0.6526
 6478TIP3    H119440   1.052   1.936   0.709 -0.5441  0.8623 -0.2655
 6478TIP3    H219441   1.070   1.792   0.666  1.1403  0.5726  1.2865
 6479TIP3   OH219442   2.673   5.369   4.547 -0.3007  0.0914 -0.5494
 6479TIP3    H119443   2.650   5.341   4.635 -1.1699 -1.7192 -1.2887
 6479TIP3    H219444   2.700   5.460   4.556 -3.0945  0.8546  1.1380
 6480TIP3   OH219445   5.321   2.760   5.187  0.6299 -0.1959 -0.2034
 6480TIP3    H119446   5.289   2.711   5.112 -1.0958  0.6229 -0.0605
 6480TIP3    H219447   5.405   2.797   5.158 -0.1593  0.3829 -1.8735
 6481TIP3   OH219448   5.327   2.469   1.081 -0.2302  0.2468  0.0126
 6481TIP3    H119449   5.341   2.388   1.031 -0.7187 -0.7089  1.3570
 6481TIP3    H219450   5.238   2.460   1.116  0.3177  0.5770  1.5562
 6482TIP3   OH219451   0.388   5.285   2.094 -0.3859  0.1937 -0.1472
 6482TIP3    H119452   0.350   5.319   2.175 -0.0431  1.8443 -0.6510
 6482TIP3    H219453   0.481   5.276   2.113 -0.6761 -2.1301  0.5041
 6483TIP3   OH219454   3.777   2.078   0.970  0.3649 -0.8635  0.2713
 6483TIP3    H119455   3.861   2.074   1.015 -0.8411 -1.1581  2.6082
 6483TIP3    H219456   3.749   1.987   0.962  0.3457 -0.7843 -0.7052
 6484TIP3   OH219457   4.872   0.613   1.209 -0.0900 -0.7298  0.1261
 6484TIP3    H119458   4.831   0.659   1.136 -0.6611 -1.1223  0.1941
 6484TIP3    H219459   4.939   0.557   1.169 -0.3287 -0.8645 -0.0831
 6485TIP3   OH219460   0.599   5.525   0.707  0.3676  0.1542 -0.4130
 6485TIP3    H119461   0.624   5.459   0.771  1.4908  1.6955  0.8194
 6485TIP3    H219462   0.652   5.504   0.630  0.4755 -0.5687 -0.1503
 6486TIP3   OH219463   5.848   5.518   4.861 -0.7011 -0.0756 -0.8046
 6486TIP3    H119464   5.892   5.538   4.779 -1.7737  1.7218 -0.9967
 6486TIP3    H219465   5.867   5.425   4.877  1.6232  0.1720 -1.7598
 6487TIP3   OH219466   2.470   4.904   3.659 -0.2009  0.1164  0.2359
 6487TIP3    H119467   2.525   4.904   3.737 -1.7869 -0.4239  1.4033
 6487TIP3    H219468   2.477   4.993   3.625  0.0036  0.5544  1.3789
 6488TIP3   OH219469   3.533   4.362   0.029  0.4414 -0.2276  0.3578
 6488TIP3    H119470   3.541   4.269   0.006  0.4940 -1.2463  3.8825
 6488TIP3    H219471   3.446   4.368   0.070  1.5533  0.5332  2.7714
 6489TIP3   OH219472   5.902   2.749   2.784  0.0397 -0.0245  0.1514
 6489TIP3    H119473   5.893   2.710   2.697  1.5593  0.3994 -0.2201
 6489TIP3    H219474   5.815   2.742   2.822 -0.8992  0.6266 -1.7527
 6490TIP3   OH219475   4.028   4.943   2.362 -0.0123  0.2879  0.1833
 6490TIP3    H119476   4.063   4.862   2.323  0.0320 -0.1330  1.0715
 6490TIP3    H219477   4.080   5.013   2.323 -0.5946 -0.0221 -1.2332
 6491TIP3   OH219478   2.236   0.284   4.775  0.8476 -0.0313  0.4456
 6491TIP3    H119479   2.317   0.332   4.792  0.1536  0.6183  2.0996
 6491TIP3    H219480   2.183   0.346   4.725  0.6708  0.2483  0.9701
 6492TIP3   OH219481   1.907   4.866   3.953 -0.0032  0.7879 -0.2033
 6492TIP3    H119482   1.829   4.870   4.007 -0.1268 -0.5306 -0.2509
 6492TIP3    H219483   1.979   4.851   4.014  0.1673  1.5537 -0.2034
 6493TIP3   OH219484   4.944   2.283   2.239  0.1147 -0.0629  0.1886
 6493TIP3    H119485   4.884   2.358   2.237 -1.7812 -1.5097  0.6548
 6493TIP3    H219486   5.027   2.321   2.271 -0.0416  2.2627 -1.8582
 6494TIP3   OH219487   4.557   3.215   3.774  0.2874  0.3241 -0.3026
 6494TIP3    H119488   4.482   3.181   3.823 -0.3454  0.7093 -0.9833
 6494TIP3    H219489   4.633   3.185   3.823 -0.3148  0.0905  0.5099
 6495TIP3   OH219490   1.085   2.013   1.897  0.2874  0.2457 -0.2779
 6495TIP3    H119491   1.020   2.080   1.873 -0.1881 -0.2547 -0.4011
 6495TIP3    H219492   1.104   2.030   1.989 -0.6941 -0.1528  0.0162
 6496TIP3   OH219493   0.988   2.098   3.984  0.7819 -0.2468 -0.4501
 6496TIP3    H119494   1.040   2.143   4.050 -2.0999  1.0307  1.1342
 6496TIP3    H219495   0.997   2.005   4.006  1.4852  0.0206  0.4601
 6497TIP3   OH219496   3.542   5.349   1.759  0.1750 -0.3895 -0.1823
 6497TIP3    H119497   3.522   5.416   1.694  1.0395 -0.4509 -0.5277
 6497TIP3    H219498   3.507   5.383   1.841  0.9413  0.6734 -0.2820
 6498TIP3   OH219499   5.547   1.301   2.333  0.1727  0.0787 -0.5639
 6498TIP3    H119500   5.628   1.249   2.334  0.4778  0.4773  1.6638
 6498TIP3    H219501   5.511   1.288   2.245 -0.0743 -4.3755 -0.0540
 6499TIP3   OH219502   6.211   5.485   4.601 -0.5732 -0.3392 -0.4197
 6499TIP3    H119503   6.261   5.562   4.575 -0.5619 -0.1783  0.0638
 6499TIP3    H219504   6.233   5.419   4.535  0.8026 -0.4781  0.1279
 6500TIP3   OH219505   0.206   3.543   0.130  0.3358  0.1206 -0.3816
 6500TIP3    H119506   0.244   3.466   0.173 -1.0859  0.7266  2.1562
 6500TIP3    H219507   0.268   3.614   0.149  0.9116 -0.0568 -1.4825
 6501TIP3   OH219508   5.566   0.405   1.031  0.8933 -0.1026 -0.6620
 6501TIP3    H119509   5.642   0.358   0.997  0.7111 -0.4269 -0.6201
 6501TIP3    H219510   5.503   0.405   0.958  1.4096  1.2741 -1.1515
 6502TIP3   OH219511   1.263   4.875   1.576  0.3979 -0.1233  0.0896
 6502TIP3    H119512   1.276   4.922   1.493 -0.4590 -0.9112 -0.4980
 6502TIP3    H219513   1.173   4.895   1.601  0.1427 -1.1534  0.0205
 6503TIP3   OH219514   5.994   3.107   2.213 -0.0570  0.1723  0.0944
 6503TIP3    H119515   5.982   3.093   2.307 -0.3379 -0.1514  0.0124
 6503TIP3    H219516   6.008   3.019   2.177  1.0245  0.3796 -0.0321
 6504TIP3   OH219517   3.686   3.334   4.852  0.2998  0.4504  0.1936
 6504TIP3    H119518   3.663   3.388   4.928 -0.9849  0.6141 -0.2759
 6504TIP3    H219519   3.750   3.386   4.803 -0.0518  1.0422  0.3517
 6505TIP3   OH219520   3.503   4.678   0.883 -0.8664  0.0942  0.3519
 6505TIP3    H119521   3.598   4.674   0.892 -0.8969 -1.5705  0.1886
 6505TIP3    H219522   3.486   4.767   0.851  0.8767 -0.3892 -2.2317
 6506TIP3   OH219523   5.077   1.732   1.462  0.3340  0.0913  0.1328
 6506TIP3    H119524   5.136   1.669   1.418 -0.2598 -0.3981  0.0265
 6506TIP3    H219525   5.107   1.732   1.553  0.7443  0.1334  0.0032
 6507TIP3   OH219526   6.064   2.395   2.914 -0.5772  0.3775  0.7757
 6507TIP3    H119527   6.158   2.390   2.894 -0.8641  0.1861 -0.6407
 6507TIP3    H219528   6.037   2.303   2.925 -0.9655  0.2725 -0.7931
 6508TIP3   OH219529   5.450   2.270   0.089  0.3874 -0.1060 -0.0925
 6508TIP3    H119530   5.535   2.276   0.132 -0.0496  0.2197  0.7692
 6508TIP3    H219531   5.435   2.358   0.053  0.8979 -0.4674 -1.2234
 6509TIP3   OH219532   1.820   0.231   3.168  0.1275 -0.1090  0.0640
 6509TIP3    H119533   1.899   0.239   3.116 -0.0624  1.1179 -0.0645
 6509TIP3    H219534   1.831   0.295   3.239 -0.1550 -0.8834  0.8290
 6510TIP3   OH219535   4.722   1.332   2.565  0.2643 -0.3826 -0.4486
 6510TIP3    H119536   4.784   1.344   2.493  0.6651  1.0968  0.1146
 6510TIP3    H219537   4.770   1.279   2.629  1.2676  1.3286  0.2914
 6511TIP3   OH219538   4.975   0.523   1.757  0.0109 -0.1342  0.2024
 6511TIP3    H119539   4.951   0.445   1.807  1.2147 -0.7751 -0.1747
 6511TIP3    H219540   4.944   0.506   1.668 -3.5732  1.6817  0.9460
 6512TIP3   OH219541   0.981   4.948   1.618 -0.3450 -0.1094  0.1461
 6512TIP3    H119542   0.986   4.996   1.536 -1.0182  0.4257  0.4099
 6512TIP3    H219543   1.006   5.012   1.685  1.2751 -0.8236  0.2891
 6513TIP3   OH219544   4.238   0.244   1.722  0.2011  0.2295 -0.0311
 6513TIP3    H119545   4.319   0.240   1.672  0.7453 -1.2472  0.9084
 6513TIP3    H219546   4.257   0.305   1.794 -0.2716  1.5938 -1.0124
 6514TIP3   OH219547   3.713   0.726   4.873  0.0288  0.2615 -0.3043
 6514TIP3    H119548   3.799   0.735   4.914 -1.6201  0.4801  3.5565
 6514TIP3    H219549   3.667   0.663   4.928 -2.0791 -0.4352 -2.6928
 6515TIP3   OH219550   5.683   4.870   2.245 -0.4899 -0.0526  0.3399
 6515TIP3    H119551   5.692   4.781   2.278 -0.5670 -0.5763 -0.9933
 6515TIP3    H219552   5.649   4.920   2.319 -1.0720 -1.2627  0.9096
 6516TIP3   OH219553   3.858   3.707   1.287  0.1835  0.6997 -0.1945
 6516TIP3    H119554   3.909   3.727   1.365 -0.1084 -0.3810  0.2962
 6516TIP3    H219555   3.767   3.713   1.316  0.0613  0.9794 -0.6332
 6517TIP3   OH219556   0.280   4.414   4.031  0.0362 -0.0381 -0.6142
 6517TIP3    H119557   0.238   4.353   3.970 -1.1574 -0.0135  0.1548
 6517TIP3    H219558   0.235   4.400   4.114  0.3945  1.2132 -0.1824
 6518TIP3   OH219559   4.567   1.485   0.845  0.5249  0.0961  0.3586
 6518TIP3    H119560   4.607   1.400   0.862 -1.8450 -1.1333  0.2463
 6518TIP3    H219561   4.477   1.464   0.819 -0.0835  2.6373  0.1704
 6519TIP3   OH219562   2.824   3.684   3.490 -0.2278 -0.1661 -0.3730
 6519TIP3    H119563   2.900   3.726   3.449  0.3821 -0.6795  0.2231
 6519TIP3    H219564   2.778   3.642   3.417  1.4103 -1.9521 -0.4502
 6520TIP3   OH219565   3.521   3.652   3.141  0.5591  0.5430 -0.0100
 6520TIP3    H119566   3.527   3.582   3.077  1.7120  0.2868  0.3470
 6520TIP3    H219567   3.602   3.702   3.130  0.5618  0.7693  0.9158
 6521TIP3   OH219568   0.429   4.236   1.097  0.4222  0.2816  0.4623
 6521TIP3    H119569   0.374   4.314   1.111 -2.3683 -1.8113  2.2075
 6521TIP3    H219570   0.394   4.195   1.018  1.3355  0.3320  0.0183
 6522TIP3   OH219571   4.309   1.690   5.066 -0.2516  0.5303  0.1320
 6522TIP3    H119572   4.314   1.595   5.054 -1.3208 -0.0019  3.0732
 6522TIP3    H219573   4.368   1.709   5.139  0.2514  2.2238 -0.6597
 6523TIP3   OH219574   0.122   5.686   0.066  0.1348  0.1377 -0.0484
 6523TIP3    H119575   0.076   5.770   0.073 -0.0987 -0.0025  0.0854
 6523TIP3    H219576   0.157   5.672   0.154  1.3204  0.7526 -0.3959
 6524TIP3   OH219577   3.852   2.195   0.067  0.2536 -0.0758 -0.2538
 6524TIP3    H119578   3.943   2.167   0.059  0.8513  1.7956 -0.2536
 6524TIP3    H219579   3.834   2.189   0.161  0.3155 -0.5926 -0.2705
 6525TIP3   OH219580   3.176   2.677   4.459  0.6962  0.4963  0.0293
 6525TIP3    H119581   3.179   2.584   4.435 -1.8136  0.4187 -0.2552
 6525TIP3    H219582   3.235   2.720   4.398  0.1629 -0.6622 -1.3468
 6526TIP3   OH219583   2.174   0.801   2.213  0.0281  0.4592  0.1210
 6526TIP3    H119584   2.229   0.863   2.165 -0.4178  1.4465  0.8482
 6526TIP3    H219585   2.092   0.801   2.165  0.1691  0.0977 -0.1237
 6527TIP3   OH219586   5.490   3.119   4.507 -0.0797  0.0294 -0.4269
 6527TIP3    H119587   5.486   3.205   4.464  0.0229 -0.1429 -0.7811
 6527TIP3    H219588   5.544   3.134   4.585  2.5991 -0.3606 -2.0522
 6528TIP3   OH219589   1.178   0.306   0.679  0.4689  0.4762  0.2411
 6528TIP3    H119590   1.103   0.307   0.619 -0.3143  0.2528  1.1783
 6528TIP3    H219591   1.254   0.318   0.623 -0.0442 -1.8104 -1.0947
 6529TIP3   OH219592   2.680   5.018   2.869 -0.3628 -0.1443 -0.8533
 6529TIP3    H119593   2.674   5.067   2.952 -1.3301  2.1799 -2.1931
 6529TIP3    H219594   2.772   5.027   2.844 -0.7284  2.0541 -1.6081
 6530TIP3   OH219595   6.216   4.143   0.036 -0.5796 -0.2936 -0.1899
 6530TIP3    H119596   6.275   4.116  -0.034  0.1287  0.8522 -0.0517
 6530TIP3    H219597   6.220   4.071   0.100  1.7573  0.3506  0.4679
 6531TIP3   OH219598   4.293   3.539   4.115  0.1617  0.5354 -0.5665
 6531TIP3    H119599   4.327   3.506   4.032 -0.3354  1.6171 -1.2303
 6531TIP3    H219600   4.362   3.522   4.179 -0.3444 -2.4454 -0.6539
 6532TIP3   OH219601   1.434   4.255   0.429 -0.7250  0.0100  0.4183
 6532TIP3    H119602   1.510   4.271   0.485 -1.0424 -0.3762  0.9815
 6532TIP3    H219603   1.361   4.248   0.491 -0.6775 -3.2458  0.2738
 6533TIP3   OH219604   5.006   4.782   5.147  0.1405 -0.3346 -0.0931
 6533TIP3    H119605   5.085   4.798   5.200 -0.6195  0.5192  0.8230
 6533TIP3    H219606   5.021   4.833   5.067  1.2070 -1.4675 -0.6533
 6534TIP3   OH219607   1.934   4.122   4.759  0.3236  0.2327  0.4943
 6534TIP3    H119608   1.842   4.148   4.761 -0.0378 -0.8609 -0.6265
 6534TIP3    H219609   1.974   4.172   4.830 -1.5693 -0.8769  2.4813
 6535TIP3   OH219610   3.790   2.203   0.334  0.2736 -0.2228 -0.1085
 6535TIP3    H119611   3.699   2.230   0.346  0.2433 -0.0475 -0.6831
 6535TIP3    H219612   3.805   2.137   0.402 -1.0677 -2.1287 -1.5258
 6536TIP3   OH219613   1.345   2.137   4.684  0.0021  0.0148 -0.0534
 6536TIP3    H119614   1.256   2.119   4.714  0.3382 -0.5503  0.6437
 6536TIP3    H219615   1.342   2.127   4.589 -0.8155  0.6150 -0.0948
 6537TIP3   OH219616   5.070   5.952   0.206  0.0666 -0.5369 -0.0833
 6537TIP3    H119617   5.075   5.865   0.247 -2.9463 -0.1411  1.3538
 6537TIP3    H219618   5.113   5.940   0.121 -2.0006 -4.0405 -0.8407
 6538TIP3   OH219619   4.322   5.009   4.767 -0.9712  0.0205  0.4617
 6538TIP3    H119620   4.402   5.041   4.807 -1.1434 -0.2669  1.0460
 6538TIP3    H219621   4.255   5.073   4.793 -1.0755 -0.1433  0.5965
 6539TIP3   OH219622   1.043   5.259   5.054 -0.4945  0.9369 -0.5440
 6539TIP3    H119623   1.069   5.200   4.983  0.6142  2.0464 -1.0951
 6539TIP3    H219624   1.095   5.229   5.129  0.0209  1.1567 -0.8060
 6540TIP3   OH219625   3.938   0.546   2.210 -0.0198  0.5418  0.1948
 6540TIP3    H119626   3.981   0.486   2.149 -0.9321 -0.8654  0.8730
 6540TIP3    H219627   3.868   0.493   2.250 -0.4176  1.8680  1.3301
 6541TIP3   OH219628   3.836   5.532   4.457 -0.2545 -0.0116 -0.2974
 6541TIP3    H119629   3.861   5.444   4.428  0.8891  1.0729 -2.9774
 6541TIP3    H219630   3.897   5.590   4.410 -2.1139  2.2969 -0.0186
 6542TIP3   OH219631   4.738   1.980   4.578  0.3493  0.0202  0.7955
 6542TIP3    H119632   4.825   1.985   4.536  1.4630  0.5135  3.0388
 6542TIP3    H219633   4.755   1.994   4.671 -2.1217 -0.2851  1.3593
 6543TIP3   OH219634   4.535   4.274   0.245 -0.1417 -0.0821 -0.2041
 6543TIP3    H119635   4.609   4.227   0.207  0.8353  1.6906 -0.6498
 6543TIP3    H219636   4.552   4.275   0.339  1.2914  1.5802 -0.4081
 6544TIP3   OH219637   1.549   5.018   3.433  0.4293  0.4236 -0.4805
 6544TIP3    H119638   1.567   5.071   3.355 -0.6931  0.1816 -0.9184
 6544TIP3    H219639   1.609   4.943   3.425  2.0093  1.5617  0.1322
 6545TIP3   OH219640   4.711   4.073   4.604  0.7269  0.2018  0.7485
 6545TIP3    H119641   4.758   4.140   4.555  0.3071 -0.5233 -0.6848
 6545TIP3    H219642   4.743   3.990   4.568 -1.4266 -0.3248 -0.0925
 6546TIP3   OH219643   4.140   2.207   3.239  0.3069  0.0883 -0.3194
 6546TIP3    H119644   4.071   2.160   3.287 -1.2667  0.9292 -1.6473
 6546TIP3    H219645   4.160   2.150   3.165  0.6487  0.0992 -0.2355
 6547TIP3   OH219646   2.883   0.577   4.407 -0.0385 -0.1391 -0.3317
 6547TIP3    H119647   2.905   0.670   4.402 -3.5119  0.8503  0.1057
 6547TIP3    H219648   2.923   0.546   4.488  0.0398  1.3695  0.2325
 6548TIP3   OH219649   0.659   0.554   1.433 -1.3486 -0.1672  0.0442
 6548TIP3    H119650   0.587   0.617   1.431  0.1619  1.6063 -1.3229
 6548TIP3    H219651   0.717   0.581   1.362  1.4058 -0.6484  1.9679
 6549TIP3   OH219652   3.217   4.620   3.368 -0.1200 -0.1646 -0.1297
 6549TIP3    H119653   3.245   4.553   3.430 -0.3954  0.8083  1.0969
 6549TIP3    H219654   3.233   4.703   3.414  1.3361  0.6895 -2.0382
 6550TIP3   OH219655   3.755   1.030   3.893 -0.0361 -0.1722 -0.3834
 6550TIP3    H119656   3.763   1.085   3.816 -0.8225 -0.0530 -0.3891
 6550TIP3    H219657   3.845   1.009   3.917  0.3266  1.6410  0.0091
 6551TIP3   OH219658   5.322   0.547   1.845 -0.0304 -0.1188 -0.4119
 6551TIP3    H119659   5.387   0.479   1.865  1.3272  1.7913  2.5558
 6551TIP3    H219660   5.248   0.527   1.903  0.5278  0.9944  0.7579
 6552TIP3   OH219661   0.994   1.823   3.150 -0.2135  0.0243 -0.3075
 6552TIP3    H119662   1.088   1.843   3.154  0.6118 -3.2060 -0.5334
 6552TIP3    H219663   0.966   1.823   3.241  0.3704 -0.3936 -0.1199
 6553TIP3   OH219664   5.532   5.857   4.274 -0.4906  0.1159  0.3354
 6553TIP3    H119665   5.486   5.886   4.353  2.1400  0.9757  1.6821
 6553TIP3    H219666   5.611   5.911   4.271 -0.4417  0.0529 -2.8955
 6554TIP3   OH219667   6.110   5.271   0.011  0.3690 -0.3966 -0.0116
 6554TIP3    H119668   6.041   5.330  -0.018  0.9362  0.7967  0.9840
 6554TIP3    H219669   6.073   5.227   0.088  0.6662  0.1731  0.4646
 6555TIP3   OH219670   5.088   3.992   5.095 -0.2107  0.7278 -0.3449
 6555TIP3    H119671   5.148   3.922   5.070 -0.7063  0.0041  0.4645
 6555TIP3    H219672   5.141   4.072   5.088 -0.2848  0.6232 -3.6000
 6556TIP3   OH219673   3.272   5.417   0.994  0.1242 -0.2386  0.1072
 6556TIP3    H119674   3.222   5.482   1.044 -1.0407  1.5737 -3.1349
 6556TIP3    H219675   3.205   5.362   0.954  1.0032 -1.2621  0.0101
 6557TIP3   OH219676   1.171   3.798   4.836  0.2940 -0.3887 -0.3606
 6557TIP3    H119677   1.196   3.854   4.763  1.1737 -1.9192 -1.2688
 6557TIP3    H219678   1.203   3.844   4.914 -1.8018  1.9138 -0.7315
 6558TIP3   OH219679   0.874   2.179   0.391  0.1388 -0.1116  0.7418
 6558TIP3    H119680   0.800   2.227   0.352 -0.2179  0.1060  1.6593
 6558TIP3    H219681   0.908   2.238   0.458  0.7979 -0.4470  0.7106
 6559TIP3   OH219682   2.051   5.573   4.960 -0.2170  0.4416 -0.6078
 6559TIP3    H119683   1.982   5.531   4.909 -1.0941  1.2024 -0.0762
 6559TIP3    H219684   2.095   5.630   4.898 -2.2787  2.5719 -0.2540
 6560TIP3   OH219685   5.355   1.009   1.424  0.6227  0.5993 -0.2225
 6560TIP3    H119686   5.335   1.102   1.430  2.0716  0.8784  0.5660
 6560TIP3    H219687   5.444   1.001   1.457  0.7063 -1.0033 -0.7557
 6561TIP3   OH219688   0.664   5.397   4.940  0.4405  0.1579  0.5517
 6561TIP3    H119689   0.687   5.315   4.895  0.3013 -0.8368  2.1907
 6561TIP3    H219690   0.568   5.401   4.935 -0.0364 -2.0689  3.9674
 6562TIP3   OH219691   1.591   1.114   2.030  0.0473 -0.8405  0.5819
 6562TIP3    H119692   1.627   1.151   2.111 -0.4639  1.2784 -0.0953
 6562TIP3    H219693   1.550   1.188   1.986  1.8925 -1.4860 -2.5027
 6563TIP3   OH219694   0.876   5.738   3.502  0.1478  0.3193  0.4309
 6563TIP3    H119695   0.792   5.734   3.458  0.3962 -1.0305  0.0574
 6563TIP3    H219696   0.859   5.790   3.581 -0.3304  2.7092 -1.1343
 6564TIP3   OH219697   0.949   3.453   1.671 -0.0472 -0.4244 -0.1669
 6564TIP3    H119698   0.908   3.535   1.699  2.2756  1.6425 -2.2288
 6564TIP3    H219699   1.043   3.469   1.681  0.7270 -1.2028 -4.2422
 6565TIP3   OH219700   6.159   2.573   2.210 -0.5133  0.5638 -0.6766
 6565TIP3    H119701   6.099   2.513   2.165  0.3793 -1.4350  0.6066
 6565TIP3    H219702   6.122   2.580   2.298  1.3230 -1.1859  0.3247
 6566TIP3   OH219703   4.863   5.392   4.249  0.5628 -0.6783 -0.1912
 6566TIP3    H119704   4.909   5.341   4.183  0.7600 -1.6877  0.6907
 6566TIP3    H219705   4.924   5.397   4.323 -0.4527 -1.4652  0.7436
 6567TIP3   OH219706   3.179   3.732   1.848 -0.4608  0.2778 -0.3078
 6567TIP3    H119707   3.094   3.745   1.806  0.6530  0.4018 -2.7367
 6567TIP3    H219708   3.209   3.820   1.870 -1.0325  0.2167  0.7485
 6568TIP3   OH219709   1.286   5.400   3.918 -0.3051 -0.2328  0.1576
 6568TIP3    H119710   1.271   5.319   3.966  0.6298 -0.9636 -0.7368
 6568TIP3    H219711   1.208   5.409   3.863 -0.7683 -0.0956  0.8228
 6569TIP3   OH219712   4.791   0.801   1.502  0.3414  0.3746 -0.1681
 6569TIP3    H119713   4.720   0.749   1.464  0.2141 -0.3761  1.0185
 6569TIP3    H219714   4.855   0.736   1.530  0.7506  0.9459  0.2382
 6570TIP3   OH219715   1.802   2.090   4.522 -0.0060  0.1670 -0.2696
 6570TIP3    H119716   1.882   2.096   4.574  0.2835  2.6507 -0.8475
 6570TIP3    H219717   1.755   2.015   4.558  2.0727 -0.7052  0.7890
 6571TIP3   OH219718   5.285   0.037   0.158  0.2441  0.1239 -0.1670
 6571TIP3    H119719   5.361   0.091   0.139  0.0812 -0.1685 -1.7858
 6571TIP3    H219720   5.217   0.067   0.098 -0.7234 -0.0625  0.7946
 6572TIP3   OH219721   5.047   2.606   3.341  0.0879  0.7277 -0.2305
 6572TIP3    H119722   5.039   2.582   3.433  0.8199  0.4581 -0.2331
 6572TIP3    H219723   5.069   2.699   3.343 -1.3367  1.0870 -0.1839
 6573TIP3   OH219724   5.240   0.610   5.011 -0.2423  0.1351  0.0879
 6573TIP3    H119725   5.308   0.676   5.027 -0.9400  0.4674  1.9317
 6573TIP3    H219726   5.169   0.659   4.971 -0.0737  0.1492 -0.1921
 6574TIP3   OH219727   5.590   1.605   2.307 -0.1483  0.2567 -0.1061
 6574TIP3    H119728   5.551   1.518   2.310  0.1493  0.1181 -0.2625
 6574TIP3    H219729   5.566   1.639   2.221  0.8395 -0.1864 -0.5687
 6575TIP3   OH219730   1.620   1.781   1.522 -0.1243  0.4812  0.8471
 6575TIP3    H119731   1.663   1.843   1.580 -0.5588  1.6384 -0.0225
 6575TIP3    H219732   1.682   1.767   1.450 -0.9730  1.8230 -0.1916
 6576TIP3   OH219733   0.573   1.790   0.002 -0.1675 -0.3167 -0.3224
 6576TIP3    H119734   0.614   1.868   0.040 -1.2166  0.1146 -0.0100
 6576TIP3    H219735   0.645   1.736  -0.029  0.5824  0.7175 -0.4024
 6577TIP3   OH219736   0.212   0.276   2.584 -0.1893  0.5652  0.1163
 6577TIP3    H119737   0.160   0.356   2.586 -0.3999  0.4286  0.1224
 6577TIP3    H219738   0.291   0.300   2.534 -0.0632  0.8844  0.4684
 6578TIP3   OH219739   5.347   0.192   0.457  0.7930 -0.0354 -0.3279
 6578TIP3    H119740   5.425   0.145   0.485  0.8393 -0.0841 -0.5450
 6578TIP3    H219741   5.302   0.132   0.398 -0.0934 -0.5447  0.8113
 6579TIP3   OH219742   1.094   0.775   3.756  0.0311 -0.5564  0.3212
 6579TIP3    H119743   1.136   0.714   3.818  0.1203 -0.4332  0.3824
 6579TIP3    H219744   1.013   0.731   3.732  0.3719 -0.9713 -0.0928
 6580TIP3   OH219745   1.370   0.247   1.513  0.5803  0.4059  0.1442
 6580TIP3    H119746   1.435   0.213   1.452  0.2813 -1.0136  0.5924
 6580TIP3    H219747   1.286   0.222   1.475  0.3951 -0.8256  1.2810
 6581TIP3   OH219748   0.778   2.859   4.099 -0.0827 -0.1196 -0.4175
 6581TIP3    H119749   0.828   2.913   4.039  0.9752 -0.3756  0.2164
 6581TIP3    H219750   0.839   2.790   4.127 -0.3958  0.2555  1.2983
 6582TIP3   OH219751   3.467   0.469   0.988  0.1652 -0.1361 -0.1331
 6582TIP3    H119752   3.515   0.506   1.062 -0.9690  1.1584 -0.0208
 6582TIP3    H219753   3.452   0.542   0.929  0.5531 -1.0370 -1.3992
 6583TIP3   OH219754   0.126   3.514   0.723 -0.6075  0.6767  0.0587
 6583TIP3    H119755   0.046   3.477   0.686 -0.4810  0.6264 -0.1629
 6583TIP3    H219756   0.110   3.513   0.818  0.0846 -1.6178  0.2225
 6584TIP3   OH219757   5.944   0.189   1.195 -0.3121  0.5481 -0.1240
 6584TIP3    H119758   6.029   0.157   1.227 -0.0528  1.0923 -0.2643
 6584TIP3    H219759   5.880   0.148   1.253 -0.1173 -1.5991 -1.3396
 6585TIP3   OH219760   3.583   0.529   5.011  0.4982 -0.6654 -0.0819
 6585TIP3    H119761   3.490   0.505   5.017 -0.3823  1.7879 -2.2185
 6585TIP3    H219762   3.625   0.451   4.974 -0.9465 -1.3590 -0.3477
 6586TIP3   OH219763   5.434   1.574   4.913  0.6194  0.2568 -0.8834
 6586TIP3    H119764   5.506   1.531   4.866 -0.8110 -0.7180 -2.2766
 6586TIP3    H219765   5.370   1.594   4.845 -1.9160 -1.9244  0.6341
 6587TIP3   OH219766   4.022   4.924   3.635 -0.1981 -0.1299  0.4282
 6587TIP3    H119767   4.009   4.908   3.541  1.2483  0.3570  0.1044
 6587TIP3    H219768   4.117   4.915   3.647 -0.1605  1.3248  1.5284
 6588TIP3   OH219769   5.896   2.649   4.130 -0.3218  0.9186  0.4465
 6588TIP3    H119770   5.923   2.706   4.202 -0.6777  2.2880 -0.4605
 6588TIP3    H219771   5.803   2.668   4.117 -0.6277 -0.3897  0.5563
 6589TIP3   OH219772   0.611   2.196   4.233 -0.3524  0.1568  0.9051
 6589TIP3    H119773   0.673   2.124   4.247 -1.9023 -1.4781 -0.2490
 6589TIP3    H219774   0.544   2.183   4.300 -1.2914 -0.2748 -0.0865
 6590TIP3   OH219775   6.183   1.601   3.213  0.4803  0.0028 -0.0376
 6590TIP3    H119776   6.141   1.686   3.223  0.3601 -0.0281 -0.2727
 6590TIP3    H219777   6.275   1.621   3.196  0.1504  0.1585 -1.8533
 6591TIP3   OH219778   2.216   3.933   1.504 -0.4031 -0.5790  0.1005
 6591TIP3    H119779   2.145   3.954   1.565 -0.0092 -0.0864  0.4061
 6591TIP3    H219780   2.294   3.970   1.546 -0.0573 -0.6249 -0.4956
 6592TIP3   OH219781   3.315   3.074   3.361  0.1267 -0.0254 -0.0764
 6592TIP3    H119782   3.310   3.166   3.335 -0.0811 -0.0494 -0.1219
 6592TIP3    H219783   3.298   3.075   3.456 -3.1575 -0.3208 -0.5592
 6593TIP3   OH219784   3.468   0.842   2.290  0.0482  0.4796 -0.1919
 6593TIP3    H119785   3.431   0.902   2.354  1.2634 -1.3763  2.4352
 6593TIP3    H219786   3.394   0.818   2.234 -1.9555 -0.2950  2.5542
 6594TIP3   OH219787   0.670   5.711   0.233  1.0291  0.2066 -0.5981
 6594TIP3    H119788   0.755   5.750   0.212  2.1967 -2.0874 -0.3913
 6594TIP3    H219789   0.656   5.645   0.164  0.8554 -1.4783  0.9842
 6595TIP3   OH219790   4.024   5.650   1.818 -0.4890 -0.1654 -0.1361
 6595TIP3    H119791   3.962   5.584   1.787 -1.8614  0.7247  0.5865
 6595TIP3    H219792   4.027   5.715   1.748 -0.8410  0.0798  0.0718
 6596TIP3   OH219793   4.360   2.523   1.531  0.2282 -0.3026  0.7186
 6596TIP3    H119794   4.412   2.592   1.488 -2.4641  0.3581 -1.7735
 6596TIP3    H219795   4.412   2.443   1.519  1.8488  0.7137  0.6772
 6597TIP3   OH219796   4.002   5.884   2.984 -0.2708 -0.1310  0.3645
 6597TIP3    H119797   3.931   5.833   2.944  1.2059 -0.2934 -2.2025
 6597TIP3    H219798   4.049   5.820   3.038 -0.6205 -0.6026  0.1249
 6598TIP3   OH219799   3.803   3.242   0.309  0.1992  0.2270  0.3419
 6598TIP3    H119800   3.882   3.223   0.259 -0.8008 -0.1645 -1.1463
 6598TIP3    H219801   3.805   3.337   0.322 -0.4235  0.6348 -2.0910
 6599TIP3   OH219802   5.352   3.979   1.947  0.0789  1.0711  0.0642
 6599TIP3    H119803   5.412   3.916   1.987 -0.4021  0.6789  0.1961
 6599TIP3    H219804   5.322   4.033   2.020  1.0906  1.9730 -0.1753
 6600TIP3   OH219805   3.518   3.489   0.738 -0.3017  0.3849 -0.0961
 6600TIP3    H119806   3.577   3.448   0.801 -0.2886 -0.3363 -0.5609
 6600TIP3    H219807   3.552   3.578   0.726  0.0228  0.3394  0.4823
 6601TIP3   OH219808   3.796   5.185   1.432  0.6222 -0.3667 -0.5579
 6601TIP3    H119809   3.713   5.139   1.415  0.7097 -0.2910 -1.2172
 6601TIP3    H219810   3.777   5.276   1.411  1.8366 -0.8217 -4.4311
 6602TIP3   OH219811   3.417   1.841   3.273  0.5872  0.0442  0.4085
 6602TIP3    H119812   3.405   1.901   3.199  1.9617  0.7346  0.7125
 6602TIP3    H219813   3.365   1.764   3.251 -1.7664  1.5827  0.2963
 6603TIP3   OH219814   2.224   5.766   1.997 -0.2002  0.5803 -0.5205
 6603TIP3    H119815   2.276   5.791   1.921 -0.1291  0.0514 -0.6504
 6603TIP3    H219816   2.242   5.673   2.009  1.3559  1.0535  1.3479
 6604TIP3   OH219817   5.132   3.642   3.567 -0.6501 -0.0120 -0.0215
 6604TIP3    H119818   5.099   3.702   3.634 -0.9119  0.7647 -0.8326
 6604TIP3    H219819   5.072   3.568   3.569 -1.0811  0.3357  0.1070
 6605TIP3   OH219820   1.134   0.288   0.101 -0.2901  0.2834 -0.2060
 6605TIP3    H119821   1.165   0.200   0.078  1.5530  0.7480  0.2796
 6605TIP3    H219822   1.056   0.273   0.154  0.4687 -1.1023  0.5951
 6606TIP3   OH219823   2.618   1.225   4.158 -0.1895 -0.0094 -0.2523
 6606TIP3    H119824   2.644   1.220   4.250 -0.5494  0.1478 -0.1407
 6606TIP3    H219825   2.685   1.279   4.117 -0.4619  0.5911  0.0835
 6607TIP3   OH219826   6.196   1.242   4.519  0.5021  0.3695  0.2776
 6607TIP3    H119827   6.218   1.153   4.494  2.3163  0.7137  0.5151
 6607TIP3    H219828   6.225   1.296   4.446  1.5111  0.9493  1.0765
 6608TIP3   OH219829   5.819   4.578   0.395  0.0662 -0.3344  0.0513
 6608TIP3    H119830   5.858   4.609   0.476  0.8633 -1.4858  0.1359
 6608TIP3    H219831   5.893   4.564   0.336 -0.0646 -3.0705  0.3888
 6609TIP3   OH219832   2.137   0.659   1.587  0.1607 -0.0929  0.2540
 6609TIP3    H119833   2.196   0.732   1.606 -0.8586  0.5093  1.1956
 6609TIP3    H219834   2.054   0.700   1.565  0.0047 -0.9418 -0.7764
 6610TIP3   OH219835   0.770   4.745   3.073 -0.1275 -0.0408 -0.2299
 6610TIP3    H119836   0.835   4.677   3.053 -0.7037 -0.7921  0.4015
 6610TIP3    H219837   0.697   4.727   3.015 -0.6373 -0.5015  0.5390
 6611TIP3   OH219838   0.650   5.600   3.246 -0.4655 -0.0400 -0.4098
 6611TIP3    H119839   0.668   5.687   3.282  0.5660 -0.2096 -0.4726
 6611TIP3    H219840   0.648   5.542   3.322 -0.0343 -0.1291 -0.4634
 6612TIP3   OH219841   4.156   5.471   0.383  0.2276  0.8825 -0.1125
 6612TIP3    H119842   4.242   5.432   0.404 -0.1373  0.4888  0.7002
 6612TIP3    H219843   4.096   5.431   0.446 -0.1794  2.7055  0.7073
 6613TIP3   OH219844   0.229   0.942   1.898 -0.2098  0.3415 -0.3820
 6613TIP3    H119845   0.221   0.928   1.804  0.6639  1.7637 -0.6923
 6613TIP3    H219846   0.319   0.972   1.911 -0.5733  0.9876  0.7987
 6614TIP3   OH219847   0.813   4.753   4.271  0.5114  0.7029 -0.1328
 6614TIP3    H119848   0.752   4.767   4.198  0.7121  1.6289 -0.1316
 6614TIP3    H219849   0.882   4.698   4.234  0.4147  0.8423 -0.5290
 6615TIP3   OH219850   2.763   3.495   1.179  0.0790  0.3043 -0.0575
 6615TIP3    H119851   2.774   3.508   1.273  3.6838 -1.1959 -0.1334
 6615TIP3    H219852   2.704   3.420   1.172  0.0492  0.2190  0.9885
 6616TIP3   OH219853   2.024   2.003   0.527 -0.4657 -0.1673  0.3561
 6616TIP3    H119854   2.075   1.929   0.562 -2.1689 -1.5270  0.1113
 6616TIP3    H219855   1.999   2.054   0.604 -1.0468 -1.0533  0.7720
 6617TIP3   OH219856   3.314   5.709   1.812 -0.2874  0.2274  0.0634
 6617TIP3    H119857   3.318   5.722   1.907  0.6750  0.6530 -0.0135
 6617TIP3    H219858   3.261   5.782   1.780 -1.1085 -0.2440  0.3151
 6618TIP3   OH219859   0.757   1.907   2.064 -0.5139 -0.2435 -0.3137
 6618TIP3    H119860   0.771   2.000   2.081 -0.1070 -0.2421 -0.6334
 6618TIP3    H219861   0.668   1.901   2.030 -1.5310 -0.2876  2.1354
 6619TIP3   OH219862   2.533   5.486   4.152 -0.4493  0.3381  0.0713
 6619TIP3    H119863   2.628   5.488   4.140 -0.3230 -0.9827  0.7035
 6619TIP3    H219864   2.512   5.572   4.189  0.1455  1.5677 -2.2341
 6620TIP3   OH219865   2.988   3.129   0.698  0.0005  0.4980 -0.4012
 6620TIP3    H119866   3.079   3.143   0.722  0.9234 -1.0812 -2.6583
 6620TIP3    H219867   2.960   3.211   0.657  1.1847  0.2598 -1.7649
 6621TIP3   OH219868   5.137   0.680   3.168  0.2156 -0.2830 -0.3407
 6621TIP3    H119869   5.171   0.676   3.257 -0.9947  2.2957  0.3374
 6621TIP3    H219870   5.068   0.614   3.166 -0.9475  0.7902  1.2722
 6622TIP3   OH219871   5.828   4.944   0.450 -0.8048  0.1129  0.1463
 6622TIP3    H119872   5.777   4.945   0.531  0.1573 -1.4350  0.8066
 6622TIP3    H219873   5.763   4.954   0.381 -1.9191 -0.9676  0.9999
 6623TIP3   OH219874   2.409   1.082   0.592 -0.1809 -0.4933  0.6562
 6623TIP3    H119875   2.364   1.007   0.553  0.4303 -0.1787 -0.7262
 6623TIP3    H219876   2.442   1.131   0.517  0.6925  0.3777  1.5855
 6624TIP3   OH219877   1.611   5.098   3.176  0.4130 -0.2977 -0.2840
 6624TIP3    H119878   1.667   5.077   3.101 -2.6951 -1.3000 -2.5099
 6624TIP3    H219879   1.595   5.192   3.167  0.0708 -0.4075 -0.9073
 6625TIP3   OH219880   4.680   0.824   4.763 -0.3798 -0.3085 -0.3143
 6625TIP3    H119881   4.664   0.769   4.686  1.2292  0.7238 -1.4473
 6625TIP3    H219882   4.775   0.830   4.770 -0.5011  0.5381  1.1004
 6626TIP3   OH219883   5.391   5.613   2.587  0.3013 -0.3667  0.2510
 6626TIP3    H119884   5.312   5.560   2.578  1.5559 -2.1743 -0.5950
 6626TIP3    H219885   5.418   5.599   2.678  0.1646 -0.4928  0.2743
 6627TIP3   OH219886   5.293   5.019   1.837 -0.2196 -0.0254 -0.2763
 6627TIP3    H119887   5.299   4.930   1.872 -1.1507 -1.2297 -2.8400
 6627TIP3    H219888   5.216   5.056   1.879 -0.6474 -0.9677 -0.1954
 6628TIP3   OH219889   2.513   2.520   3.281  0.0397  0.7141 -0.1976
 6628TIP3    H119890   2.554   2.534   3.366  1.1630  2.9339 -0.9999
 6628TIP3    H219891   2.500   2.426   3.275 -0.7876  0.5692  2.7142
 6629TIP3   OH219892   1.616   0.566   2.935  0.4049 -0.3194 -0.2319
 6629TIP3    H119893   1.645   0.657   2.935 -0.7347  0.0727  0.7466
 6629TIP3    H219894   1.679   0.520   2.880 -0.2023  1.4357 -2.5351
 6630TIP3   OH219895   4.953   2.199   0.983  0.0335  0.1497  0.2937
 6630TIP3    H119896   4.891   2.214   0.912  0.1728 -0.7600 -0.0375
 6630TIP3    H219897   4.972   2.105   0.978 -0.1988  0.0131  1.7412
 6631TIP3   OH219898   5.962   3.865   3.813  0.4845 -0.0193  0.2785
 6631TIP3    H119899   5.920   3.950   3.823 -0.8556 -0.3143 -2.0215
 6631TIP3    H219900   5.893   3.801   3.829  0.7892 -0.5945 -0.5966
 6632TIP3   OH219901   3.865   4.840   4.301  0.0364 -0.4811 -0.1294
 6632TIP3    H119902   3.918   4.780   4.249 -0.1712 -0.0441 -0.8722
 6632TIP3    H219903   3.775   4.820   4.276 -0.3287 -2.3182  2.3024
 6633TIP3   OH219904   0.712   2.264   2.399  0.6387 -0.0328 -0.1433
 6633TIP3    H119905   0.644   2.223   2.452 -0.8372  1.2994 -0.9287
 6633TIP3    H219906   0.709   2.356   2.423 -0.0202  0.5999 -2.4164
 6634TIP3   OH219907   1.004   3.589   2.354  0.8607  0.1452  0.5511
 6634TIP3    H119908   1.086   3.577   2.305  0.7974 -0.0215  0.4867
 6634TIP3    H219909   1.010   3.526   2.426  0.1747 -0.8492 -0.2380
 6635TIP3   OH219910   3.312   2.523   4.881 -0.7050  0.0344 -0.3111
 6635TIP3    H119911   3.306   2.550   4.972  0.8479  1.1083 -0.4871
 6635TIP3    H219912   3.224   2.492   4.859 -1.0208 -0.6011  1.6363
 6636TIP3   OH219913   4.444   3.049   0.445  0.1917  0.2056 -0.1776
 6636TIP3    H119914   4.421   2.964   0.406  0.4346  0.3459 -0.6404
 6636TIP3    H219915   4.487   3.027   0.527 -0.3958 -0.0985  0.0494
 6637TIP3   OH219916   5.084   3.002   0.029  0.6065 -0.4045 -0.3391
 6637TIP3    H119917   5.177   3.013   0.048  0.9119 -1.7666 -0.9244
 6637TIP3    H219918   5.063   2.914   0.062 -0.7592  0.3069  0.8029
 6638TIP3   OH219919   0.443   4.003   0.723  0.7247  0.1107 -0.3800
 6638TIP3    H119920   0.423   4.093   0.695 -2.2889 -0.8979 -1.9298
 6638TIP3    H219921   0.377   3.984   0.790  1.7004 -0.7863  0.3496
 6639TIP3   OH219922   0.632   3.721   3.265 -0.0975  0.4520 -0.5025
 6639TIP3    H119923   0.619   3.643   3.319  1.1564 -0.2070 -1.0914
 6639TIP3    H219924   0.623   3.794   3.326 -0.5611 -0.1787  0.2096
 6640TIP3   OH219925   3.703   5.805   3.227  0.0168  0.0825  0.1142
 6640TIP3    H119926   3.626   5.750   3.241 -0.9747  1.7612  1.6765
 6640TIP3    H219927   3.667   5.893   3.213  1.6473  1.0025  1.4113
 6641TIP3   OH219928   1.633   1.001   2.619 -0.0826 -0.0278  0.0967
 6641TIP3    H119929   1.562   1.063   2.606  0.0591  0.2030  0.4080
 6641TIP3    H219930   1.659   0.975   2.530 -1.8255 -1.5916 -0.0204
 6642TIP3   OH219931   4.846   1.840   1.373  1.1852 -0.1830  0.1328
 6642TIP3    H119932   4.816   1.929   1.390  1.2295 -0.1795  0.1928
 6642TIP3    H219933   4.918   1.827   1.435  0.7420 -0.4973  0.5918
 6643TIP3   OH219934   1.258   3.735   3.752  0.7702 -0.0178 -0.1781
 6643TIP3    H119935   1.275   3.645   3.779  1.6187 -0.1195 -0.9699
 6643TIP3    H219936   1.215   3.776   3.827  2.6231 -0.3922  1.1580
 6644TIP3   OH219937   1.915   2.891   0.059  0.1384 -0.7260 -0.1668
 6644TIP3    H119938   1.905   2.890  -0.036  0.1666 -1.5133 -0.1626
 6644TIP3    H219939   1.972   2.967   0.075  0.3976 -0.7748 -0.8036
 6645TIP3   OH219940   4.887   4.461   0.577 -0.2118 -0.1668  0.0794
 6645TIP3    H119941   4.851   4.393   0.634  0.4310  0.4440  1.2760
 6645TIP3    H219942   4.965   4.421   0.539 -0.9714 -0.7807 -0.8587
   6.33721   5.97477   5.17430   0.00000   0.00000  -2.11241   0.00000  -2.11241  -2.98739
