Title t= 481.00000 step= 240500
44469
    1GLY      N    1   6.504   5.434   3.878
    1GLY    HT1    2   6.523   5.519   3.821
    1GLY    HT2    3   6.575   5.441   3.954
    1GLY    HT3    4   6.413   5.460   3.921
    1GLY     CA    5   6.501   5.313   3.780
    1GLY    HA1    6   6.448   5.237   3.835
    1GLY    HA2    7   6.599   5.295   3.737
    1GLY      C    8   6.399   5.346   3.670
    1GLY      O    9   6.307   5.422   3.691
    2PRO      N   10   6.414   5.296   3.550
    2PRO     CD   11   6.513   5.196   3.513
    2PRO    HD1   12   6.494   5.102   3.568
    2PRO    HD2   13   6.618   5.227   3.536
    2PRO     CA   14   6.349   5.352   3.436
    2PRO     HA   15   6.332   5.457   3.454
    2PRO     CB   16   6.448   5.321   3.327
    2PRO    HB1   17   6.522   5.403   3.333
    2PRO    HB2   18   6.417   5.310   3.221
    2PRO     CG   19   6.497   5.183   3.362
    2PRO    HG1   20   6.420   5.106   3.342
    2PRO    HG2   21   6.598   5.164   3.319
    2PRO      C   22   6.211   5.284   3.405
    2PRO      O   23   6.142   5.331   3.316
    3GLY      N   24   6.177   5.171   3.466
    3GLY     HN   25   6.246   5.130   3.525
    3GLY     CA   26   6.046   5.110   3.450
    3GLY    HA1   27   6.056   5.003   3.438
    3GLY    HA2   28   5.993   5.156   3.368
    3GLY      C   29   5.963   5.133   3.570
    3GLY      O   30   5.859   5.072   3.591
    4ASN      N   31   6.011   5.221   3.661
    4ASN     HN   32   6.084   5.284   3.636
    4ASN     CA   33   5.956   5.220   3.795
    4ASN     HA   34   5.941   5.116   3.822
    4ASN     CB   35   6.037   5.293   3.909
    4ASN    HB1   36   5.967   5.323   3.990
    4ASN    HB2   37   6.084   5.388   3.874
    4ASN     CG   38   6.155   5.225   3.976
    4ASN    OD1   39   6.214   5.130   3.931
    4ASN    ND2   40   6.185   5.277   4.096
    4ASN   HD21   41   6.266   5.246   4.146
    4ASN   HD22   42   6.157   5.371   4.111
    4ASN      C   43   5.821   5.304   3.790
    4ASN      O   44   5.810   5.388   3.705
    5PRO      N   45   5.732   5.279   3.876
    5PRO     CD   46   5.733   5.158   3.962
    5PRO    HD1   47   5.818   5.172   4.032
    5PRO    HD2   48   5.752   5.063   3.907
    5PRO     CA   49   5.614   5.366   3.907
    5PRO     HA   50   5.538   5.323   3.843
    5PRO     CB   51   5.566   5.313   4.045
    5PRO    HB1   52   5.459   5.335   4.063
    5PRO    HB2   53   5.616   5.367   4.129
    5PRO     CG   54   5.600   5.164   4.042
    5PRO    HG1   55   5.619   5.126   4.144
    5PRO    HG2   56   5.526   5.096   3.994
    5PRO      C   57   5.621   5.512   3.896
    5PRO      O   58   5.722   5.568   3.939
    6GLY      N   59   5.506   5.576   3.842
    6GLY     HN   60   5.446   5.520   3.785
    6GLY     CA   61   5.489   5.717   3.825
    6GLY    HA1   62   5.394   5.727   3.773
    6GLY    HA2   63   5.574   5.757   3.773
    6GLY      C   64   5.466   5.799   3.951
    6GLY      O   65   5.467   5.743   4.061
    7PRO      N   66   5.463   5.938   3.941
    7PRO     CD   67   5.474   6.011   3.812
    7PRO    HD1   68   5.403   5.975   3.734
    7PRO    HD2   69   5.580   6.013   3.780
    7PRO     CA   70   5.439   6.020   4.059
    7PRO     HA   71   5.505   5.981   4.135
    7PRO     CB   72   5.476   6.156   4.003
    7PRO    HB1   73   5.586   6.169   4.009
    7PRO    HB2   74   5.426   6.241   4.054
    7PRO     CG   75   5.438   6.152   3.857
    7PRO    HG1   76   5.330   6.178   3.860
    7PRO    HG2   77   5.482   6.231   3.792
    7PRO      C   78   5.303   6.019   4.125
    7PRO      O   79   5.292   6.036   4.244
    8GLY      N   80   5.196   5.988   4.047
    8GLY     HN   81   5.214   5.970   3.950
    8GLY     CA   82   5.057   5.982   4.088
    8GLY    HA1   83   5.062   6.010   4.192
    8GLY    HA2   84   5.020   5.882   4.068
    8GLY      C   85   4.977   6.077   4.010
    8GLY      O   86   5.021   6.154   3.924
    9ASN      N   87   4.848   6.068   4.030
    9ASN     HN   88   4.821   6.018   4.112
    9ASN     CA   89   4.740   6.137   3.968
    9ASN     HA   90   4.754   6.115   3.863
    9ASN     CB   91   4.605   6.075   4.017
    9ASN    HB1   92   4.516   6.126   3.975
    9ASN    HB2   93   4.606   6.074   4.128
    9ASN     CG   94   4.602   5.929   3.970
    9ASN    OD1   95   4.680   5.884   3.880
    9ASN    ND2   96   4.498   5.852   4.007
    9ASN   HD21   97   4.497   5.759   3.971
    9ASN   HD22   98   4.427   5.890   4.067
    9ASN      C   99   4.736   6.292   3.987
    9ASN      O  100   4.778   6.337   4.095
   10PRO      N  101   4.694   6.370   3.885
   10PRO     CD  102   4.669   6.317   3.754
   10PRO    HD1  103   4.579   6.252   3.751
   10PRO    HD2  104   4.762   6.266   3.722
   10PRO     CA  105   4.635   6.495   3.902
   10PRO     HA  106   4.720   6.559   3.921
   10PRO     CB  107   4.565   6.532   3.769
   10PRO    HB1  108   4.576   6.638   3.737
   10PRO    HB2  109   4.461   6.494   3.770
   10PRO     CG  110   4.646   6.447   3.671
   10PRO    HG1  111   4.592   6.428   3.575
   10PRO    HG2  112   4.746   6.476   3.631
   10PRO      C  113   4.538   6.510   4.026
   10PRO      O  114   4.462   6.421   4.058
   11GLY      N  115   4.538   6.627   4.095
   11GLY     HN  116   4.608   6.696   4.080
   11GLY     CA  117   4.447   6.657   4.203
   11GLY    HA1  118   4.496   6.741   4.251
   11GLY    HA2  119   4.437   6.567   4.262
   11GLY      C  120   4.310   6.702   4.159
   11GLY      O  121   4.285   6.708   4.038
   12PRO      N  122   4.212   6.743   4.246
   12PRO     CD  123   4.221   6.708   4.388
   12PRO    HD1  124   4.264   6.787   4.453
   12PRO    HD2  125   4.280   6.615   4.407
   12PRO     CA  126   4.071   6.752   4.208
   12PRO     HA  127   4.049   6.714   4.110
   12PRO     CB  128   4.004   6.671   4.312
   12PRO    HB1  129   4.019   6.565   4.281
   12PRO    HB2  130   3.898   6.696   4.334
   12PRO     CG  131   4.082   6.683   4.437
   12PRO    HG1  132   4.049   6.774   4.491
   12PRO    HG2  133   4.091   6.590   4.496
   12PRO      C  134   4.024   6.900   4.210
   12PRO      O  135   3.914   6.931   4.153
   13GLY      N  136   4.098   6.978   4.288
   13GLY     HN  137   4.176   6.935   4.332
   13GLY     CA  138   4.080   7.119   4.309
   13GLY    HA1  139   4.055   7.167   4.215
   13GLY    HA2  140   4.179   7.149   4.339
   13GLY      C  141   3.983   7.156   4.411
   13GLY      O  142   3.883   7.088   4.427
   14ASN      N  143   4.005   7.278   4.474
   14ASN     HN  144   4.090   7.327   4.454
   14ASN     CA  145   3.904   7.332   4.567
   14ASN     HA  146   3.882   7.249   4.633
   14ASN     CB  147   3.953   7.450   4.655
   14ASN    HB1  148   3.869   7.481   4.721
   14ASN    HB2  149   3.968   7.541   4.593
   14ASN     CG  150   4.089   7.418   4.722
   14ASN    OD1  151   4.091   7.326   4.800
   14ASN    ND2  152   4.195   7.494   4.685
   14ASN   HD21  153   4.279   7.475   4.737
   14ASN   HD22  154   4.193   7.566   4.616
   14ASN      C  155   3.776   7.387   4.493
   14ASN      O  156   3.800   7.461   4.396
   15PRO      N  157   3.648   7.355   4.533
   15PRO     CD  158   3.619   7.272   4.646
   15PRO    HD1  159   3.672   7.325   4.729
   15PRO    HD2  160   3.662   7.173   4.621
   15PRO     CA  161   3.531   7.421   4.466
   15PRO     HA  162   3.553   7.433   4.360
   15PRO     CB  163   3.419   7.330   4.516
   15PRO    HB1  164   3.417   7.255   4.434
   15PRO    HB2  165   3.322   7.382   4.537
   15PRO     CG  166   3.464   7.271   4.658
   15PRO    HG1  167   3.428   7.341   4.736
   15PRO    HG2  168   3.429   7.166   4.671
   15PRO      C  169   3.506   7.561   4.519
   15PRO    OT1  170   3.466   7.647   4.437
   15PRO    OT2  171   3.528   7.589   4.635
   16LIT    LIT  172   1.687   6.417   4.040
   17LIT    LIT  173   4.237   2.109   1.134
   18LIT    LIT  174   6.368   3.839   6.633
   19LIT    LIT  175   1.246   6.131   4.760
   20LIT    LIT  176   3.617   1.684   5.205
   21LIT    LIT  177   1.517   6.007   6.591
   22LIT    LIT  178   5.429   7.636   3.424
   23LIT    LIT  179   3.547   0.966   5.666
   24LIT    LIT  180   3.931   6.359   0.623
   25LIT    LIT  181   5.798   6.143   4.910
   26LIT    LIT  182   4.743   7.219   2.591
   27LIT    LIT  183   1.476   1.422   1.590
   28LIT    LIT  184   2.024   2.864   5.977
   29LIT    LIT  185   7.710   0.646   1.510
   30LIT    LIT  186   6.360   2.078   6.415
   31LIT    LIT  187   0.182   2.210   1.090
   32LIT    LIT  188   5.334   1.738   2.626
   33LIT    LIT  189   0.730   5.557   4.516
   34LIT    LIT  190   7.933   1.758   2.146
   35LIT    LIT  191   6.892   5.374   4.897
   36LIT    LIT  192   5.603   4.036   0.991
   37LIT    LIT  193   2.532   1.615   6.651
   38LIT    LIT  194   2.258   1.112   3.332
   39LIT    LIT  195   3.875   5.656   6.625
   40LIT    LIT  196   5.133   0.788   6.367
   41LIT    LIT  197   1.449   7.143   5.320
   42LIT    LIT  198   0.630   2.328   3.759
   43LIT    LIT  199   5.948   0.028   4.583
   44LIT    LIT  200   3.772   3.712   4.388
   45LIT    LIT  201   3.671   2.855   5.466
   46LIT    LIT  202   5.356   4.312   5.943
   47LIT    LIT  203   5.826   3.712   3.996
   48LIT    LIT  204   0.365   7.442   6.511
   49LIT    LIT  205   0.686   3.349   3.034
   50LIT    LIT  206   2.255   4.715   0.587
   51LIT    LIT  207   4.395   1.772   2.257
   52LIT    LIT  208   4.706   3.243   1.568
   53LIT    LIT  209   4.901   2.964   6.363
   54LIT    LIT  210   3.911   7.514   3.182
   55LIT    LIT  211   7.715   3.972   0.123
   56LIT    LIT  212   0.356   3.650   0.032
   57LIT    LIT  213   7.572   4.639   3.638
   58CLA    CLA  214   2.248   1.424   3.015
   59CLA    CLA  215   6.296   0.099   2.100
   60CLA    CLA  216   1.074   1.065   3.492
   61CLA    CLA  217   5.129   5.256   4.534
   62CLA    CLA  218   5.791   6.317   1.423
   63CLA    CLA  219   1.544   0.062   2.789
   64CLA    CLA  220   1.033   5.720   3.813
   65CLA    CLA  221   3.372   0.109   5.877
   66CLA    CLA  222   5.636   2.883   5.755
   67CLA    CLA  223   8.199   4.689   4.115
   68CLA    CLA  224   1.069   5.862   4.433
   69CLA    CLA  225   5.600   4.075   1.426
   70CLA    CLA  226   2.745   0.972   6.661
   71CLA    CLA  227   0.163   4.894   4.739
   72CLA    CLA  228   3.665   2.547   1.046
   73CLA    CLA  229   0.796   1.805   2.594
   74CLA    CLA  230   3.545   3.040   5.428
   75CLA    CLA  231   2.309   3.840   5.177
   76CLA    CLA  232   4.174   3.328   4.124
   77CLA    CLA  233   5.793   3.992   4.303
   78CLA    CLA  234   2.454   0.266   5.601
   79CLA    CLA  235   5.812   0.061   4.160
   80CLA    CLA  236   1.055   5.075   2.072
   81CLA    CLA  237   4.499   3.076   0.511
   82CLA    CLA  238   7.685   2.378   2.280
   83CLA    CLA  239   4.705   5.590   1.638
   84CLA    CLA  240   2.595   6.498   1.584
   85CLA    CLA  241   8.018   0.905   0.846
   86CLA    CLA  242   6.761   0.905   3.944
   87CLA    CLA  243   0.365   2.403   3.331
   88CLA    CLA  244   4.179   5.002   4.419
   89CLA    CLA  245   7.032   4.893   2.799
   90CLA    CLA  246   0.349   7.813   6.713
   91CLA    CLA  247   3.694   0.411   1.115
   92CLA    CLA  248   7.364   0.893   1.316
   93CLA    CLA  249   6.309   6.195   0.871
   94CLA    CLA  250   1.569   5.098   2.947
   95CLA    CLA  251   0.263   2.636   5.535
   96CLA    CLA  252   1.105   1.342   0.418
   97CLA    CLA  253   4.501   0.085   6.188
   98CLA    CLA  254   0.453   5.439   5.485
   99CLA    CLA  255   6.969   3.730   0.161
  100TIP3   OH2  256   5.054   1.159   4.703
  100TIP3    H1  257   5.091   1.166   4.791
  100TIP3    H2  258   5.130   1.142   4.647
  101TIP3   OH2  259   6.322   2.548   1.716
  101TIP3    H1  260   6.380   2.561   1.641
  101TIP3    H2  261   6.286   2.460   1.704
  102TIP3   OH2  262   6.264   4.833   6.637
  102TIP3    H1  263   6.174   4.863   6.624
  102TIP3    H2  264   6.304   4.839   6.551
  103TIP3   OH2  265   2.146   4.452   5.890
  103TIP3    H1  266   2.113   4.391   5.824
  103TIP3    H2  267   2.153   4.535   5.843
  104TIP3   OH2  268   4.687   6.822   6.577
  104TIP3    H1  269   4.713   6.735   6.607
  104TIP3    H2  270   4.708   6.823   6.484
  105TIP3   OH2  271   6.266   2.601   5.561
  105TIP3    H1  272   6.345   2.635   5.518
  105TIP3    H2  273   6.244   2.523   5.511
  106TIP3   OH2  274   3.259   5.501   0.942
  106TIP3    H1  275   3.189   5.532   0.999
  106TIP3    H2  276   3.252   5.556   0.864
  107TIP3   OH2  277   3.675   1.819   0.204
  107TIP3    H1  278   3.604   1.794   0.145
  107TIP3    H2  279   3.749   1.766   0.175
  108TIP3   OH2  280   6.952   2.365   4.470
  108TIP3    H1  281   7.043   2.338   4.480
  108TIP3    H2  282   6.950   2.413   4.388
  109TIP3   OH2  283   0.244   3.555   1.017
  109TIP3    H1  284   0.172   3.535   1.078
  109TIP3    H2  285   0.200   3.587   0.938
  110TIP3   OH2  286   3.060   0.108   1.731
  110TIP3    H1  287   2.988   0.046   1.739
  110TIP3    H2  288   3.100   0.110   1.818
  111TIP3   OH2  289   7.244   0.955   4.697
  111TIP3    H1  290   7.259   0.984   4.607
  111TIP3    H2  291   7.196   1.026   4.738
  112TIP3   OH2  292   6.931   4.775   3.628
  112TIP3    H1  293   6.933   4.869   3.612
  112TIP3    H2  294   6.981   4.737   3.556
  113TIP3   OH2  295   6.926   1.689   3.760
  113TIP3    H1  296   6.885   1.767   3.723
  113TIP3    H2  297   7.011   1.683   3.717
  114TIP3   OH2  298   6.486   5.818   0.290
  114TIP3    H1  299   6.468   5.769   0.370
  114TIP3    H2  300   6.572   5.857   0.304
  115TIP3   OH2  301   2.376   5.117   1.369
  115TIP3    H1  302   2.306   5.181   1.385
  115TIP3    H2  303   2.433   5.160   1.306
  116TIP3   OH2  304   5.176   2.528   4.179
  116TIP3    H1  305   5.211   2.519   4.091
  116TIP3    H2  306   5.099   2.585   4.169
  117TIP3   OH2  307   5.833   4.304   4.185
  117TIP3    H1  308   5.791   4.235   4.235
  117TIP3    H2  309   5.789   4.384   4.213
  118TIP3   OH2  310   0.253   1.289   2.366
  118TIP3    H1  311   0.172   1.246   2.394
  118TIP3    H2  312   0.236   1.315   2.275
  119TIP3   OH2  313   4.961   7.240   0.027
  119TIP3    H1  314   4.927   7.154   0.053
  119TIP3    H2  315   5.033   7.256   0.088
  120TIP3   OH2  316   2.046   4.485   0.876
  120TIP3    H1  317   2.012   4.530   0.953
  120TIP3    H2  318   1.968   4.457   0.828
  121TIP3   OH2  319   2.290   4.090   0.989
  121TIP3    H1  320   2.297   4.002   1.027
  121TIP3    H2  321   2.216   4.084   0.929
  122TIP3   OH2  322   4.154   6.597   6.008
  122TIP3    H1  323   4.233   6.597   5.955
  122TIP3    H2  324   4.138   6.690   6.027
  123TIP3   OH2  325   3.444   4.959   1.633
  123TIP3    H1  326   3.482   5.001   1.711
  123TIP3    H2  327   3.513   4.900   1.603
  124TIP3   OH2  328   4.459   6.413   1.886
  124TIP3    H1  329   4.527   6.404   1.952
  124TIP3    H2  330   4.507   6.426   1.804
  125TIP3   OH2  331   6.684   0.161   2.102
  125TIP3    H1  332   6.729   0.125   2.179
  125TIP3    H2  333   6.630   0.232   2.138
  126TIP3   OH2  334   4.781   7.268   4.032
  126TIP3    H1  335   4.753   7.222   3.953
  126TIP3    H2  336   4.756   7.359   4.016
  127TIP3   OH2  337   7.267   6.558   2.639
  127TIP3    H1  338   7.184   6.580   2.597
  127TIP3    H2  339   7.277   6.464   2.625
  128TIP3   OH2  340   8.142   2.039   5.216
  128TIP3    H1  341   8.092   1.961   5.191
  128TIP3    H2  342   8.228   2.004   5.241
  129TIP3   OH2  343   4.411   6.171   1.130
  129TIP3    H1  344   4.420   6.083   1.092
  129TIP3    H2  345   4.446   6.162   1.218
  130TIP3   OH2  346   7.435   7.043   2.854
  130TIP3    H1  347   7.432   6.957   2.894
  130TIP3    H2  348   7.472   7.100   2.922
  131TIP3   OH2  349   0.031   2.210   3.796
  131TIP3    H1  350   0.062   2.122   3.819
  131TIP3    H2  351   0.078   2.232   3.716
  132TIP3   OH2  352   7.079   3.579   3.580
  132TIP3    H1  353   7.028   3.502   3.553
  132TIP3    H2  354   7.152   3.543   3.630
  133TIP3   OH2  355   1.025   1.889   0.716
  133TIP3    H1  356   1.075   1.942   0.778
  133TIP3    H2  357   1.084   1.817   0.693
  134TIP3   OH2  358   4.086   6.710   6.713
  134TIP3    H1  359   4.167   6.678   6.754
  134TIP3    H2  360   4.087   6.672   6.626
  135TIP3   OH2  361   6.257   2.544   2.244
  135TIP3    H1  362   6.184   2.499   2.201
  135TIP3    H2  363   6.310   2.578   2.173
  136TIP3   OH2  364   4.788   7.408   0.349
  136TIP3    H1  365   4.861   7.347   0.355
  136TIP3    H2  366   4.813   7.468   0.279
  137TIP3   OH2  367   2.606   5.435   3.403
  137TIP3    H1  368   2.559   5.442   3.320
  137TIP3    H2  369   2.578   5.350   3.439
  138TIP3   OH2  370   3.924   3.774   2.102
  138TIP3    H1  371   3.841   3.746   2.140
  138TIP3    H2  372   3.963   3.693   2.069
  139TIP3   OH2  373   8.214   2.214   4.589
  139TIP3    H1  374   8.214   2.135   4.535
  139TIP3    H2  375   8.283   2.269   4.551
  140TIP3   OH2  376   0.304   6.801   4.040
  140TIP3    H1  377   0.297   6.846   3.956
  140TIP3    H2  378   0.394   6.770   4.044
  141TIP3   OH2  379   6.487   1.776   4.282
  141TIP3    H1  380   6.399   1.806   4.264
  141TIP3    H2  381   6.501   1.704   4.221
  142TIP3   OH2  382   4.091   2.173   0.496
  142TIP3    H1  383   4.004   2.146   0.468
  142TIP3    H2  384   4.118   2.238   0.432
  143TIP3   OH2  385   2.274   4.979   5.759
  143TIP3    H1  386   2.285   5.073   5.771
  143TIP3    H2  387   2.317   4.940   5.835
  144TIP3   OH2  388   0.360   0.053   5.579
  144TIP3    H1  389   0.327   0.018   5.662
  144TIP3    H2  390   0.298   0.021   5.513
  145TIP3   OH2  391   5.725   1.985   3.723
  145TIP3    H1  392   5.811   1.968   3.686
  145TIP3    H2  393   5.733   1.964   3.816
  146TIP3   OH2  394   2.541   5.260   1.792
  146TIP3    H1  395   2.628   5.226   1.812
  146TIP3    H2  396   2.548   5.354   1.806
  147TIP3   OH2  397   7.355   5.542   6.720
  147TIP3    H1  398   7.435   5.541   6.667
  147TIP3    H2  399   7.316   5.627   6.703
  148TIP3   OH2  400   5.307   0.183   3.243
  148TIP3    H1  401   5.382   0.214   3.193
  148TIP3    H2  402   5.340   0.171   3.332
  149TIP3   OH2  403   2.573   2.376   4.225
  149TIP3    H1  404   2.598   2.330   4.145
  149TIP3    H2  405   2.627   2.455   4.225
  150TIP3   OH2  406   0.291   7.059   1.523
  150TIP3    H1  407   0.370   7.112   1.531
  150TIP3    H2  408   0.301   6.991   1.590
  151TIP3   OH2  409   3.598   7.149   2.291
  151TIP3    H1  410   3.586   7.174   2.200
  151TIP3    H2  411   3.672   7.202   2.321
  152TIP3   OH2  412   4.313   1.688   1.605
  152TIP3    H1  413   4.287   1.619   1.543
  152TIP3    H2  414   4.396   1.657   1.641
  153TIP3   OH2  415   6.635   0.188   4.762
  153TIP3    H1  416   6.542   0.168   4.753
  153TIP3    H2  417   6.657   0.238   4.684
  154TIP3   OH2  418   0.230   0.258   3.615
  154TIP3    H1  419   0.142   0.230   3.642
  154TIP3    H2  420   0.226   0.256   3.519
  155TIP3   OH2  421   0.761   2.128   2.214
  155TIP3    H1  422   0.780   2.141   2.307
  155TIP3    H2  423   0.670   2.156   2.205
  156TIP3   OH2  424   8.258   2.933   2.094
  156TIP3    H1  425   8.350   2.945   2.070
  156TIP3    H2  426   8.219   3.019   2.083
  157TIP3   OH2  427   5.481   0.878   2.305
  157TIP3    H1  428   5.573   0.866   2.281
  157TIP3    H2  429   5.444   0.790   2.307
  158TIP3   OH2  430   0.011   0.870   4.216
  158TIP3    H1  431   0.057   0.812   4.276
  158TIP3    H2  432   0.028   0.958   4.250
  159TIP3   OH2  433   2.156   0.404   6.693
  159TIP3    H1  434   2.062   0.395   6.708
  159TIP3    H2  435   2.186   0.459   6.765
  160TIP3   OH2  436   6.830   7.199   6.489
  160TIP3    H1  437   6.827   7.133   6.558
  160TIP3    H2  438   6.738   7.219   6.471
  161TIP3   OH2  439   4.673   4.534   3.813
  161TIP3    H1  440   4.653   4.448   3.848
  161TIP3    H2  441   4.698   4.586   3.890
  162TIP3   OH2  442   1.541   7.032   4.728
  162TIP3    H1  443   1.503   6.957   4.681
  162TIP3    H2  444   1.615   7.059   4.673
  163TIP3   OH2  445   7.019   7.380   4.999
  163TIP3    H1  446   7.106   7.413   4.976
  163TIP3    H2  447   7.034   7.290   5.028
  164TIP3   OH2  448   8.164   4.567   1.165
  164TIP3    H1  449   8.156   4.607   1.079
  164TIP3    H2  450   8.255   4.535   1.168
  165TIP3   OH2  451   3.822   2.101   5.922
  165TIP3    H1  452   3.910   2.079   5.952
  165TIP3    H2  453   3.832   2.124   5.830
  166TIP3   OH2  454   5.945   3.482   3.225
  166TIP3    H1  455   5.958   3.513   3.135
  166TIP3    H2  456   5.978   3.392   3.225
  167TIP3   OH2  457   4.651   4.536   0.499
  167TIP3    H1  458   4.641   4.542   0.594
  167TIP3    H2  459   4.746   4.533   0.486
  168TIP3   OH2  460   5.866   2.804   2.643
  168TIP3    H1  461   5.851   2.767   2.730
  168TIP3    H2  462   5.956   2.779   2.622
  169TIP3   OH2  463   4.982   6.087   1.495
  169TIP3    H1  464   5.010   6.001   1.462
  169TIP3    H2  465   5.063   6.133   1.514
  170TIP3   OH2  466   0.490   7.297   6.460
  170TIP3    H1  467   0.584   7.312   6.457
  170TIP3    H2  468   0.481   7.206   6.488
  171TIP3   OH2  469   3.302   2.881   2.656
  171TIP3    H1  470   3.273   2.792   2.677
  171TIP3    H2  471   3.391   2.886   2.690
  172TIP3   OH2  472   3.046   2.535   5.603
  172TIP3    H1  473   3.046   2.484   5.522
  172TIP3    H2  474   2.955   2.559   5.617
  173TIP3   OH2  475   6.342   3.505   2.641
  173TIP3    H1  476   6.320   3.598   2.649
  173TIP3    H2  477   6.345   3.489   2.547
  174TIP3   OH2  478   6.997   5.570   3.685
  174TIP3    H1  479   7.055   5.587   3.759
  174TIP3    H2  480   6.948   5.651   3.672
  175TIP3   OH2  481   2.973   1.701   3.234
  175TIP3    H1  482   2.998   1.674   3.322
  175TIP3    H2  483   2.878   1.696   3.233
  176TIP3   OH2  484   1.364   1.607   5.836
  176TIP3    H1  485   1.354   1.513   5.819
  176TIP3    H2  486   1.289   1.647   5.791
  177TIP3   OH2  487   6.838   4.153   0.288
  177TIP3    H1  488   6.901   4.141   0.218
  177TIP3    H2  489   6.786   4.229   0.261
  178TIP3   OH2  490   8.092   4.963   3.567
  178TIP3    H1  491   8.178   5.005   3.574
  178TIP3    H2  492   8.065   4.947   3.658
  179TIP3   OH2  493   3.498   5.230   5.131
  179TIP3    H1  494   3.534   5.261   5.214
  179TIP3    H2  495   3.528   5.140   5.125
  180TIP3   OH2  496   0.544   3.044   0.957
  180TIP3    H1  497   0.461   3.016   0.995
  180TIP3    H2  498   0.532   3.035   0.863
  181TIP3   OH2  499   5.801   0.806   3.910
  181TIP3    H1  500   5.839   0.763   3.834
  181TIP3    H2  501   5.733   0.864   3.874
  182TIP3   OH2  502   1.919   5.020   1.849
  182TIP3    H1  503   1.994   5.002   1.793
  182TIP3    H2  504   1.877   4.935   1.861
  183TIP3   OH2  505   5.706   0.331   3.449
  183TIP3    H1  506   5.626   0.381   3.468
  183TIP3    H2  507   5.775   0.377   3.498
  184TIP3   OH2  508   5.488   5.920   1.765
  184TIP3    H1  509   5.500   5.997   1.708
  184TIP3    H2  510   5.410   5.877   1.730
  185TIP3   OH2  511   8.211   0.378   1.179
  185TIP3    H1  512   8.255   0.390   1.264
  185TIP3    H2  513   8.281   0.389   1.114
  186TIP3   OH2  514   2.244   4.793   1.685
  186TIP3    H1  515   2.317   4.853   1.667
  186TIP3    H2  516   2.254   4.771   1.778
  187TIP3   OH2  517   5.796   0.292   5.372
  187TIP3    H1  518   5.761   0.241   5.445
  187TIP3    H2  519   5.782   0.236   5.295
  188TIP3   OH2  520   6.308   6.064   3.355
  188TIP3    H1  521   6.394   6.039   3.324
  188TIP3    H2  522   6.261   6.090   3.276
  189TIP3   OH2  523   4.213   5.680   2.125
  189TIP3    H1  524   4.194   5.769   2.154
  189TIP3    H2  525   4.308   5.675   2.125
  190TIP3   OH2  526   2.607   2.770   4.538
  190TIP3    H1  527   2.657   2.740   4.614
  190TIP3    H2  528   2.575   2.857   4.563
  191TIP3   OH2  529   3.170   6.176   2.539
  191TIP3    H1  530   3.216   6.223   2.609
  191TIP3    H2  531   3.229   6.106   2.513
  192TIP3   OH2  532   1.701   4.094   0.966
  192TIP3    H1  533   1.752   4.160   1.013
  192TIP3    H2  534   1.703   4.017   1.023
  193TIP3   OH2  535   5.793   5.038   0.262
  193TIP3    H1  536   5.839   5.119   0.242
  193TIP3    H2  537   5.716   5.039   0.205
  194TIP3   OH2  538   2.631   1.574   6.291
  194TIP3    H1  539   2.609   1.603   6.203
  194TIP3    H2  540   2.633   1.654   6.343
  195TIP3   OH2  541   3.273   5.128   1.531
  195TIP3    H1  542   3.308   5.049   1.572
  195TIP3    H2  543   3.308   5.200   1.584
  196TIP3   OH2  544   0.232   6.906   2.512
  196TIP3    H1  545   0.220   6.989   2.467
  196TIP3    H2  546   0.272   6.849   2.446
  197TIP3   OH2  547   5.712   3.188   3.730
  197TIP3    H1  548   5.637   3.132   3.710
  197TIP3    H2  549   5.675   3.260   3.781
  198TIP3   OH2  550   6.388   6.375   2.862
  198TIP3    H1  551   6.445   6.303   2.834
  198TIP3    H2  552   6.430   6.411   2.939
  199TIP3   OH2  553   7.721   1.845   4.324
  199TIP3    H1  554   7.705   1.934   4.355
  199TIP3    H2  555   7.688   1.789   4.394
  200TIP3   OH2  556   0.233   0.131   4.582
  200TIP3    H1  557   0.281   0.214   4.593
  200TIP3    H2  558   0.231   0.117   4.487
  201TIP3   OH2  559   5.041   3.391   5.655
  201TIP3    H1  560   5.133   3.397   5.680
  201TIP3    H2  561   5.020   3.478   5.621
  202TIP3   OH2  562   4.406   4.313   1.242
  202TIP3    H1  563   4.321   4.346   1.214
  202TIP3    H2  564   4.409   4.223   1.208
  203TIP3   OH2  565   4.099   2.765   6.292
  203TIP3    H1  566   4.132   2.701   6.355
  203TIP3    H2  567   4.003   2.760   6.301
  204TIP3   OH2  568   6.832   0.218   1.076
  204TIP3    H1  569   6.761   0.267   1.034
  204TIP3    H2  570   6.905   0.280   1.080
  205TIP3   OH2  571   6.135   3.290   5.378
  205TIP3    H1  572   6.098   3.205   5.402
  205TIP3    H2  573   6.097   3.308   5.292
  206TIP3   OH2  574   0.598   0.341   3.021
  206TIP3    H1  575   0.503   0.347   3.013
  206TIP3    H2  576   0.615   0.358   3.114
  207TIP3   OH2  577   0.168   4.479   5.604
  207TIP3    H1  578   0.149   4.390   5.575
  207TIP3    H2  579   0.251   4.471   5.650
  208TIP3   OH2  580   4.318   2.666   0.785
  208TIP3    H1  581   4.408   2.644   0.810
  208TIP3    H2  582   4.316   2.652   0.690
  209TIP3   OH2  583   1.082   2.287   5.016
  209TIP3    H1  584   1.094   2.355   4.949
  209TIP3    H2  585   1.139   2.315   5.088
  210TIP3   OH2  586   3.620   7.740   5.207
  210TIP3    H1  587   3.619   7.715   5.299
  210TIP3    H2  588   3.540   7.792   5.195
  211TIP3   OH2  589   7.731   2.862   0.915
  211TIP3    H1  590   7.641   2.841   0.891
  211TIP3    H2  591   7.731   2.956   0.929
  212TIP3   OH2  592   3.182   7.407   3.424
  212TIP3    H1  593   3.160   7.466   3.496
  212TIP3    H2  594   3.248   7.455   3.374
  213TIP3   OH2  595   7.867   4.042   5.566
  213TIP3    H1  596   7.787   4.067   5.614
  213TIP3    H2  597   7.904   3.971   5.618
  214TIP3   OH2  598   6.740   7.626   0.859
  214TIP3    H1  599   6.814   7.566   0.852
  214TIP3    H2  600   6.689   7.611   0.780
  215TIP3   OH2  601   5.438   2.849   1.580
  215TIP3    H1  602   5.524   2.873   1.612
  215TIP3    H2  603   5.451   2.828   1.488
  216TIP3   OH2  604   5.948   6.553   3.932
  216TIP3    H1  605   6.035   6.589   3.944
  216TIP3    H2  606   5.963   6.461   3.909
  217TIP3   OH2  607   5.953   6.038   1.132
  217TIP3    H1  608   5.994   6.017   1.048
  217TIP3    H2  609   6.011   6.103   1.171
  218TIP3   OH2  610   4.932   0.750   2.801
  218TIP3    H1  611   5.014   0.714   2.768
  218TIP3    H2  612   4.880   0.767   2.723
  219TIP3   OH2  613   4.294   0.468   4.862
  219TIP3    H1  614   4.286   0.379   4.898
  219TIP3    H2  615   4.280   0.526   4.936
  220TIP3   OH2  616   2.987   6.016   0.403
  220TIP3    H1  617   2.998   5.928   0.438
  220TIP3    H2  618   2.904   6.047   0.440
  221TIP3   OH2  619   3.359   1.188   4.110
  221TIP3    H1  620   3.328   1.274   4.141
  221TIP3    H2  621   3.312   1.125   4.164
  222TIP3   OH2  622   3.102   3.370   0.612
  222TIP3    H1  623   3.162   3.424   0.663
  222TIP3    H2  624   3.155   3.337   0.540
  223TIP3   OH2  625   4.468   0.957   6.013
  223TIP3    H1  626   4.426   0.874   6.032
  223TIP3    H2  627   4.405   1.023   6.042
  224TIP3   OH2  628   2.468   3.650   4.286
  224TIP3    H1  629   2.464   3.685   4.375
  224TIP3    H2  630   2.560   3.660   4.260
  225TIP3   OH2  631   2.453   0.610   1.468
  225TIP3    H1  632   2.468   0.640   1.558
  225TIP3    H2  633   2.437   0.516   1.477
  226TIP3   OH2  634   5.391   5.778   6.608
  226TIP3    H1  635   5.328   5.715   6.644
  226TIP3    H2  636   5.377   5.774   6.514
  227TIP3   OH2  637   4.442   1.553   2.952
  227TIP3    H1  638   4.474   1.640   2.974
  227TIP3    H2  639   4.351   1.552   2.982
  228TIP3   OH2  640   0.971   2.597   3.771
  228TIP3    H1  641   0.998   2.629   3.858
  228TIP3    H2  642   1.039   2.535   3.746
  229TIP3   OH2  643   6.182   3.344   4.596
  229TIP3    H1  644   6.247   3.315   4.661
  229TIP3    H2  645   6.234   3.369   4.520
  230TIP3   OH2  646   3.443   4.146   5.321
  230TIP3    H1  647   3.506   4.075   5.310
  230TIP3    H2  648   3.423   4.147   5.414
  231TIP3   OH2  649   7.562   0.301   4.205
  231TIP3    H1  650   7.518   0.363   4.264
  231TIP3    H2  651   7.621   0.356   4.153
  232TIP3   OH2  652   3.578   3.570   0.088
  232TIP3    H1  653   3.484   3.572   0.107
  232TIP3    H2  654   3.618   3.531   0.166
  233TIP3   OH2  655   4.429   3.517   5.728
  233TIP3    H1  656   4.480   3.463   5.667
  233TIP3    H2  657   4.361   3.556   5.673
  234TIP3   OH2  658   3.600   4.135   3.431
  234TIP3    H1  659   3.595   4.230   3.423
  234TIP3    H2  660   3.693   4.115   3.426
  235TIP3   OH2  661   6.904   3.316   4.542
  235TIP3    H1  662   6.904   3.322   4.446
  235TIP3    H2  663   6.961   3.241   4.561
  236TIP3   OH2  664   6.001   6.452   3.338
  236TIP3    H1  665   5.956   6.382   3.290
  236TIP3    H2  666   5.930   6.506   3.372
  237TIP3   OH2  667   3.674   0.245   3.759
  237TIP3    H1  668   3.748   0.304   3.762
  237TIP3    H2  669   3.691   0.189   3.682
  238TIP3   OH2  670   7.514   6.965   1.823
  238TIP3    H1  671   7.603   6.955   1.787
  238TIP3    H2  672   7.521   7.039   1.882
  239TIP3   OH2  673   2.035   3.928   5.073
  239TIP3    H1  674   1.999   3.851   5.116
  239TIP3    H2  675   2.128   3.926   5.095
  240TIP3   OH2  676   0.825   4.686   3.622
  240TIP3    H1  677   0.777   4.681   3.705
  240TIP3    H2  678   0.790   4.614   3.570
  241TIP3   OH2  679   6.718   3.077   0.410
  241TIP3    H1  680   6.685   3.161   0.375
  241TIP3    H2  681   6.650   3.014   0.387
  242TIP3   OH2  682   4.706   0.483   1.990
  242TIP3    H1  683   4.698   0.449   1.901
  242TIP3    H2  684   4.647   0.557   1.994
  243TIP3   OH2  685   5.116   3.266   0.059
  243TIP3    H1  686   5.167   3.185   0.060
  243TIP3    H2  687   5.116   3.292  -0.033
  244TIP3   OH2  688   2.171   3.507   2.222
  244TIP3    H1  689   2.264   3.497   2.198
  244TIP3    H2  690   2.166   3.595   2.261
  245TIP3   OH2  691   1.934   4.530   2.585
  245TIP3    H1  692   1.963   4.553   2.673
  245TIP3    H2  693   1.974   4.596   2.529
  246TIP3   OH2  694   3.344   4.415   6.679
  246TIP3    H1  695   3.263   4.422   6.730
  246TIP3    H2  696   3.413   4.406   6.744
  247TIP3   OH2  697   7.876   0.718   5.134
  247TIP3    H1  698   7.859   0.777   5.060
  247TIP3    H2  699   7.971   0.726   5.149
  248TIP3   OH2  700   0.638   6.134   6.211
  248TIP3    H1  701   0.625   6.127   6.306
  248TIP3    H2  702   0.699   6.207   6.201
  249TIP3   OH2  703   7.110   4.389   0.681
  249TIP3    H1  704   7.050   4.464   0.686
  249TIP3    H2  705   7.073   4.334   0.613
  250TIP3   OH2  706   0.072   0.446   6.492
  250TIP3    H1  707   0.075   0.362   6.538
  250TIP3    H2  708   0.060   0.511   6.562
  251TIP3   OH2  709   4.685   1.267   2.616
  251TIP3    H1  710   4.603   1.239   2.576
  251TIP3    H2  711   4.660   1.336   2.678
  252TIP3   OH2  712   2.285   6.116   4.166
  252TIP3    H1  713   2.278   6.174   4.090
  252TIP3    H2  714   2.286   6.028   4.130
  253TIP3   OH2  715   0.799   3.547   2.553
  253TIP3    H1  716   0.848   3.588   2.624
  253TIP3    H2  717   0.839   3.583   2.473
  254TIP3   OH2  718   0.450   5.666   4.823
  254TIP3    H1  719   0.402   5.584   4.835
  254TIP3    H2  720   0.382   5.730   4.802
  255TIP3   OH2  721   5.796   4.074   5.834
  255TIP3    H1  722   5.795   3.978   5.829
  255TIP3    H2  723   5.887   4.098   5.817
  256TIP3   OH2  724   0.348   0.614  -0.014
  256TIP3    H1  725   0.309   0.641   0.069
  256TIP3    H2  726   0.286   0.646  -0.080
  257TIP3   OH2  727   1.066   1.987   2.162
  257TIP3    H1  728   1.025   2.022   2.242
  257TIP3    H2  729   1.021   1.904   2.147
  258TIP3   OH2  730   0.507   3.548   3.270
  258TIP3    H1  731   0.513   3.534   3.364
  258TIP3    H2  732   0.596   3.575   3.244
  259TIP3   OH2  733   4.767   4.625   1.084
  259TIP3    H1  734   4.788   4.697   1.144
  259TIP3    H2  735   4.737   4.554   1.142
  260TIP3   OH2  736   4.887   6.436   2.866
  260TIP3    H1  737   4.815   6.481   2.821
  260TIP3    H2  738   4.845   6.363   2.911
  261TIP3   OH2  739   2.524   4.717   2.107
  261TIP3    H1  740   2.617   4.735   2.094
  261TIP3    H2  741   2.520   4.678   2.194
  262TIP3   OH2  742   5.414   2.924   4.863
  262TIP3    H1  743   5.440   2.837   4.833
  262TIP3    H2  744   5.398   2.974   4.783
  263TIP3   OH2  745   0.596   6.875   5.915
  263TIP3    H1  746   0.508   6.860   5.881
  263TIP3    H2  747   0.651   6.881   5.837
  264TIP3   OH2  748   3.700   1.960   3.753
  264TIP3    H1  749   3.707   2.032   3.816
  264TIP3    H2  750   3.755   1.987   3.680
  265TIP3   OH2  751   0.016   4.186   1.084
  265TIP3    H1  752   0.014   4.258   1.022
  265TIP3    H2  753   0.055   4.223   1.163
  266TIP3   OH2  754   4.450   7.535   5.417
  266TIP3    H1  755   4.364   7.555   5.380
  266TIP3    H2  756   4.506   7.522   5.341
  267TIP3   OH2  757   8.027   4.921   2.753
  267TIP3    H1  758   7.996   4.984   2.688
  267TIP3    H2  759   8.059   4.847   2.701
  268TIP3   OH2  760   5.126   6.725   1.745
  268TIP3    H1  761   5.144   6.652   1.804
  268TIP3    H2  762   5.050   6.695   1.694
  269TIP3   OH2  763   2.419   2.377   3.217
  269TIP3    H1  764   2.410   2.421   3.132
  269TIP3    H2  765   2.483   2.308   3.203
  270TIP3   OH2  766   7.053   3.418   4.840
  270TIP3    H1  767   7.114   3.349   4.812
  270TIP3    H2  768   7.075   3.492   4.784
  271TIP3   OH2  769   2.375   0.194   2.022
  271TIP3    H1  770   2.385   0.169   1.931
  271TIP3    H2  771   2.286   0.168   2.045
  272TIP3   OH2  772   2.786   7.712   6.408
  272TIP3    H1  773   2.783   7.733   6.501
  272TIP3    H2  774   2.831   7.628   6.403
  273TIP3   OH2  775   4.033   7.117   0.640
  273TIP3    H1  776   4.104   7.091   0.700
  273TIP3    H2  777   3.988   7.035   0.620
  274TIP3   OH2  778   5.523   4.432   3.946
  274TIP3    H1  779   5.537   4.344   3.913
  274TIP3    H2  780   5.432   4.433   3.975
  275TIP3   OH2  781   7.436   7.249   4.618
  275TIP3    H1  782   7.517   7.277   4.575
  275TIP3    H2  783   7.458   7.250   4.711
  276TIP3   OH2  784   5.975   6.861   5.510
  276TIP3    H1  785   5.925   6.859   5.428
  276TIP3    H2  786   5.912   6.833   5.577
  277TIP3   OH2  787   4.974   3.670   2.603
  277TIP3    H1  788   4.960   3.725   2.526
  277TIP3    H2  789   5.004   3.587   2.568
  278TIP3   OH2  790   0.077   0.026   1.878
  278TIP3    H1  791   0.168  -0.001   1.866
  278TIP3    H2  792   0.025  -0.048   1.845
  279TIP3   OH2  793   3.603   0.785   0.838
  279TIP3    H1  794   3.677   0.724   0.836
  279TIP3    H2  795   3.583   0.796   0.931
  280TIP3   OH2  796   4.667   1.770   3.731
  280TIP3    H1  797   4.744   1.827   3.724
  280TIP3    H2  798   4.606   1.820   3.785
  281TIP3   OH2  799   2.545   7.607   6.259
  281TIP3    H1  800   2.625   7.634   6.304
  281TIP3    H2  801   2.532   7.673   6.191
  282TIP3   OH2  802   1.485   3.110   4.898
  282TIP3    H1  803   1.415   3.164   4.860
  282TIP3    H2  804   1.562   3.130   4.845
  283TIP3   OH2  805   6.201   0.203   6.054
  283TIP3    H1  806   6.243   0.119   6.074
  283TIP3    H2  807   6.166   0.192   5.965
  284TIP3   OH2  808   2.588   5.176   1.213
  284TIP3    H1  809   2.629   5.090   1.205
  284TIP3    H2  810   2.641   5.234   1.159
  285TIP3   OH2  811   7.315   2.813   6.077
  285TIP3    H1  812   7.355   2.837   6.160
  285TIP3    H2  813   7.320   2.718   6.073
  286TIP3   OH2  814   0.356   2.087   4.014
  286TIP3    H1  815   0.282   2.099   4.074
  286TIP3    H2  816   0.316   2.062   3.931
  287TIP3   OH2  817   3.846   6.283   6.208
  287TIP3    H1  818   3.927   6.327   6.183
  287TIP3    H2  819   3.782   6.353   6.219
  288TIP3   OH2  820   5.603   2.709   5.106
  288TIP3    H1  821   5.547   2.769   5.156
  288TIP3    H2  822   5.541   2.649   5.064
  289TIP3   OH2  823   3.206   5.235   3.861
  289TIP3    H1  824   3.251   5.286   3.929
  289TIP3    H2  825   3.142   5.182   3.909
  290TIP3   OH2  826   7.238   3.688   1.172
  290TIP3    H1  827   7.176   3.680   1.099
  290TIP3    H2  828   7.290   3.766   1.150
  291TIP3   OH2  829   7.702   6.622   4.350
  291TIP3    H1  830   7.640   6.691   4.325
  291TIP3    H2  831   7.648   6.544   4.360
  292TIP3   OH2  832   2.396   3.041   5.793
  292TIP3    H1  833   2.309   3.072   5.766
  292TIP3    H2  834   2.415   2.969   5.733
  293TIP3   OH2  835   8.031   1.768   1.679
  293TIP3    H1  836   8.125   1.785   1.689
  293TIP3    H2  837   8.002   1.832   1.614
  294TIP3   OH2  838   2.584   7.145   0.146
  294TIP3    H1  839   2.668   7.109   0.174
  294TIP3    H2  840   2.553   7.195   0.222
  295TIP3   OH2  841   2.311   2.831   4.148
  295TIP3    H1  842   2.294   2.919   4.182
  295TIP3    H2  843   2.375   2.794   4.209
  296TIP3   OH2  844   3.266   4.025   3.890
  296TIP3    H1  845   3.203   4.027   3.818
  296TIP3    H2  846   3.266   4.114   3.924
  297TIP3   OH2  847   2.880   1.314   4.562
  297TIP3    H1  848   2.899   1.305   4.656
  297TIP3    H2  849   2.870   1.224   4.532
  298TIP3   OH2  850   2.748   5.604   5.962
  298TIP3    H1  851   2.732   5.528   6.018
  298TIP3    H2  852   2.687   5.595   5.890
  299TIP3   OH2  853   6.042   6.139   0.326
  299TIP3    H1  854   6.096   6.217   0.337
  299TIP3    H2  855   6.071   6.102   0.242
  300TIP3   OH2  856   8.057   1.700   0.959
  300TIP3    H1  857   8.078   1.769   0.895
  300TIP3    H2  858   8.018   1.747   1.033
  301TIP3   OH2  859   2.625   7.087   5.499
  301TIP3    H1  860   2.628   7.165   5.444
  301TIP3    H2  861   2.587   7.117   5.582
  302TIP3   OH2  862   6.329   1.377   6.636
  302TIP3    H1  863   6.340   1.402   6.544
  302TIP3    H2  864   6.387   1.302   6.647
  303TIP3   OH2  865   4.868   0.369   3.746
  303TIP3    H1  866   4.800   0.395   3.684
  303TIP3    H2  867   4.880   0.445   3.803
  304TIP3   OH2  868   5.501   3.742   6.063
  304TIP3    H1  869   5.406   3.728   6.067
  304TIP3    H2  870   5.512   3.813   6.000
  305TIP3   OH2  871   7.538   1.801   0.411
  305TIP3    H1  872   7.532   1.812   0.316
  305TIP3    H2  873   7.561   1.888   0.443
  306TIP3   OH2  874   6.738   7.769   4.623
  306TIP3    H1  875   6.791   7.807   4.553
  306TIP3    H2  876   6.756   7.823   4.700
  307TIP3   OH2  877   4.394   2.457   6.349
  307TIP3    H1  878   4.436   2.451   6.435
  307TIP3    H2  879   4.451   2.515   6.298
  308TIP3   OH2  880   6.825   3.427   2.137
  308TIP3    H1  881   6.736   3.402   2.115
  308TIP3    H2  882   6.879   3.390   2.067
  309TIP3   OH2  883   4.945   6.986   4.823
  309TIP3    H1  884   4.891   6.976   4.901
  309TIP3    H2  885   4.899   7.051   4.771
  310TIP3   OH2  886   3.409   4.125   4.340
  310TIP3    H1  887   3.392   4.116   4.434
  310TIP3    H2  888   3.500   4.153   4.334
  311TIP3   OH2  889   6.567   7.403   2.596
  311TIP3    H1  890   6.600   7.408   2.686
  311TIP3    H2  891   6.505   7.330   2.597
  312TIP3   OH2  892   4.413   0.343   3.668
  312TIP3    H1  893   4.368   0.392   3.599
  312TIP3    H2  894   4.478   0.290   3.621
  313TIP3   OH2  895   7.635   0.871   6.705
  313TIP3    H1  896   7.549   0.895   6.671
  313TIP3    H2  897   7.697   0.912   6.645
  314TIP3   OH2  898   4.006   7.671   6.184
  314TIP3    H1  899   3.971   7.678   6.273
  314TIP3    H2  900   4.101   7.672   6.196
  315TIP3   OH2  901   5.271   7.600   3.322
  315TIP3    H1  902   5.275   7.516   3.276
  315TIP3    H2  903   5.186   7.637   3.298
  316TIP3   OH2  904   3.328   6.961   5.744
  316TIP3    H1  905   3.405   6.993   5.792
  316TIP3    H2  906   3.347   6.983   5.653
  317TIP3   OH2  907   2.189   3.641   5.364
  317TIP3    H1  908   2.250   3.700   5.318
  317TIP3    H2  909   2.104   3.685   5.358
  318TIP3   OH2  910   3.820   2.322   5.113
  318TIP3    H1  911   3.865   2.290   5.035
  318TIP3    H2  912   3.761   2.251   5.139
  319TIP3   OH2  913   3.954   0.189   2.599
  319TIP3    H1  914   4.015   0.173   2.671
  319TIP3    H2  915   3.873   0.145   2.625
  320TIP3   OH2  916   6.698   6.139   0.879
  320TIP3    H1  917   6.656   6.134   0.965
  320TIP3    H2  918   6.639   6.193   0.827
  321TIP3   OH2  919   4.496   0.689   1.982
  321TIP3    H1  920   4.408   0.711   2.013
  321TIP3    H2  921   4.483   0.650   1.896
  322TIP3   OH2  922   2.705   3.725   6.183
  322TIP3    H1  923   2.642   3.742   6.253
  322TIP3    H2  924   2.696   3.632   6.164
  323TIP3   OH2  925   3.563   4.119   4.916
  323TIP3    H1  926   3.542   4.123   5.009
  323TIP3    H2  927   3.532   4.203   4.881
  324TIP3   OH2  928   1.041   2.943   4.998
  324TIP3    H1  929   0.955   2.903   5.016
  324TIP3    H2  930   1.023   3.037   4.994
  325TIP3   OH2  931   2.027   2.259   1.764
  325TIP3    H1  932   2.016   2.341   1.715
  325TIP3    H2  933   1.977   2.273   1.844
  326TIP3   OH2  934   3.287   7.468   2.058
  326TIP3    H1  935   3.299   7.400   2.124
  326TIP3    H2  936   3.291   7.550   2.107
  327TIP3   OH2  937   0.236   6.028   5.890
  327TIP3    H1  938   0.303   6.037   5.822
  327TIP3    H2  939   0.241   5.937   5.917
  328TIP3   OH2  940   7.702   1.186   0.375
  328TIP3    H1  941   7.732   1.104   0.412
  328TIP3    H2  942   7.777   1.245   0.383
  329TIP3   OH2  943   3.190   2.379   1.825
  329TIP3    H1  944   3.186   2.286   1.807
  329TIP3    H2  945   3.263   2.389   1.887
  330TIP3   OH2  946   5.762   5.283   5.993
  330TIP3    H1  947   5.791   5.194   5.977
  330TIP3    H2  948   5.679   5.274   6.040
  331TIP3   OH2  949   7.254   0.818   4.919
  331TIP3    H1  950   7.269   0.853   4.831
  331TIP3    H2  951   7.225   0.892   4.970
  332TIP3   OH2  952   3.932   5.408   1.792
  332TIP3    H1  953   3.926   5.495   1.832
  332TIP3    H2  954   4.022   5.403   1.760
  333TIP3   OH2  955   7.032   7.727   5.845
  333TIP3    H1  956   7.095   7.795   5.822
  333TIP3    H2  957   6.998   7.753   5.931
  334TIP3   OH2  958   1.873   6.100   4.422
  334TIP3    H1  959   1.919   6.082   4.340
  334TIP3    H2  960   1.906   6.186   4.449
  335TIP3   OH2  961   0.112   4.156   6.298
  335TIP3    H1  962   0.165   4.088   6.255
  335TIP3    H2  963   0.071   4.204   6.226
  336TIP3   OH2  964   3.414   1.993   4.017
  336TIP3    H1  965   3.423   1.984   4.112
  336TIP3    H2  966   3.323   2.020   4.004
  337TIP3   OH2  967   3.953   3.310   6.476
  337TIP3    H1  968   3.922   3.271   6.395
  337TIP3    H2  969   4.044   3.283   6.483
  338TIP3   OH2  970   8.184   1.599   2.403
  338TIP3    H1  971   8.167   1.684   2.445
  338TIP3    H2  972   8.263   1.566   2.445
  339TIP3   OH2  973   3.244   1.463   5.138
  339TIP3    H1  974   3.271   1.439   5.227
  339TIP3    H2  975   3.151   1.439   5.135
  340TIP3   OH2  976   7.376   5.198   2.639
  340TIP3    H1  977   7.308   5.242   2.690
  340TIP3    H2  978   7.350   5.106   2.638
  341TIP3   OH2  979   7.124   5.878   6.471
  341TIP3    H1  980   7.065   5.949   6.499
  341TIP3    H2  981   7.084   5.844   6.391
  342TIP3   OH2  982   7.522   4.685   4.887
  342TIP3    H1  983   7.559   4.712   4.803
  342TIP3    H2  984   7.436   4.726   4.890
  343TIP3   OH2  985   8.144   7.226   5.890
  343TIP3    H1  986   8.184   7.155   5.839
  343TIP3    H2  987   8.209   7.248   5.956
  344TIP3   OH2  988   6.825   5.358   1.178
  344TIP3    H1  989   6.911   5.396   1.197
  344TIP3    H2  990   6.842   5.293   1.110
  345TIP3   OH2  991   7.523   2.240   5.790
  345TIP3    H1  992   7.567   2.236   5.875
  345TIP3    H2  993   7.459   2.311   5.800
  346TIP3   OH2  994   0.362   2.080   2.942
  346TIP3    H1  995   0.417   2.034   2.880
  346TIP3    H2  996   0.424   2.127   2.999
  347TIP3   OH2  997   1.642   6.119   5.476
  347TIP3    H1  998   1.583   6.169   5.419
  347TIP3    H2  999   1.691   6.185   5.525
  348TIP3   OH2 1000   4.943   5.240   3.976
  348TIP3    H1 1001   4.959   5.185   4.053
  348TIP3    H2 1002   4.849   5.228   3.958
  349TIP3   OH2 1003   0.134   6.552   3.695
  349TIP3    H1 1004   0.145   6.533   3.788
  349TIP3    H2 1005   0.107   6.644   3.692
  350TIP3   OH2 1006   7.812   2.417   0.074
  350TIP3    H1 1007   7.745   2.349   0.063
  350TIP3    H2 1008   7.797   2.476   0.000
  351TIP3   OH2 1009   3.086   3.527   4.374
  351TIP3    H1 1010   3.137   3.596   4.417
  351TIP3    H2 1011   3.150   3.459   4.353
  352TIP3   OH2 1012   0.372   5.968   2.749
  352TIP3    H1 1013   0.420   6.051   2.747
  352TIP3    H2 1014   0.397   5.925   2.667
  353TIP3   OH2 1015   7.331   1.352   2.215
  353TIP3    H1 1016   7.274   1.417   2.174
  353TIP3    H2 1017   7.356   1.293   2.143
  354TIP3   OH2 1018   4.632   2.344   0.495
  354TIP3    H1 1019   4.716   2.336   0.540
  354TIP3    H2 1020   4.654   2.380   0.409
  355TIP3   OH2 1021   2.107   3.510   5.817
  355TIP3    H1 1022   2.178   3.549   5.868
  355TIP3    H2 1023   2.034   3.571   5.827
  356TIP3   OH2 1024   5.462   3.586   5.701
  356TIP3    H1 1025   5.511   3.667   5.686
  356TIP3    H2 1026   5.519   3.534   5.757
  357TIP3   OH2 1027   7.304   0.572   0.901
  357TIP3    H1 1028   7.261   0.576   0.816
  357TIP3    H2 1029   7.292   0.659   0.939
  358TIP3   OH2 1030   6.551   1.549   4.103
  358TIP3    H1 1031   6.592   1.519   4.184
  358TIP3    H2 1032   6.623   1.557   4.041
  359TIP3   OH2 1033   5.267   7.187   2.081
  359TIP3    H1 1034   5.311   7.261   2.039
  359TIP3    H2 1035   5.176   7.217   2.093
  360TIP3   OH2 1036   5.079   7.132   2.813
  360TIP3    H1 1037   5.147   7.076   2.850
  360TIP3    H2 1038   5.047   7.182   2.888
  361TIP3   OH2 1039   0.804   6.254   0.645
  361TIP3    H1 1040   0.888   6.299   0.633
  361TIP3    H2 1041   0.771   6.240   0.556
  362TIP3   OH2 1042   4.272   6.072   5.080
  362TIP3    H1 1043   4.271   6.148   5.021
  362TIP3    H2 1044   4.350   6.086   5.135
  363TIP3   OH2 1045   1.952   4.215   0.684
  363TIP3    H1 1046   1.887   4.263   0.736
  363TIP3    H2 1047   2.024   4.199   0.745
  364TIP3   OH2 1048   7.350   5.208   6.046
  364TIP3    H1 1049   7.275   5.263   6.070
  364TIP3    H2 1050   7.400   5.199   6.127
  365TIP3   OH2 1051   2.854   6.688   1.643
  365TIP3    H1 1052   2.900   6.609   1.674
  365TIP3    H2 1053   2.765   6.658   1.627
  366TIP3   OH2 1054   4.565   3.611   6.131
  366TIP3    H1 1055   4.577   3.579   6.221
  366TIP3    H2 1056   4.512   3.543   6.089
  367TIP3   OH2 1057   1.771   6.940   0.479
  367TIP3    H1 1058   1.814   6.947   0.565
  367TIP3    H2 1059   1.679   6.961   0.497
  368TIP3   OH2 1060   8.245   6.186   5.897
  368TIP3    H1 1061   8.150   6.178   5.890
  368TIP3    H2 1062   8.271   6.113   5.953
  369TIP3   OH2 1063   2.585   2.375   2.079
  369TIP3    H1 1064   2.616   2.333   2.159
  369TIP3    H2 1065   2.541   2.304   2.031
  370TIP3   OH2 1066   0.460   3.124   2.690
  370TIP3    H1 1067   0.520   3.196   2.675
  370TIP3    H2 1068   0.373   3.164   2.691
  371TIP3   OH2 1069   2.492   4.633   5.883
  371TIP3    H1 1070   2.528   4.658   5.798
  371TIP3    H2 1071   2.567   4.600   5.932
  372TIP3   OH2 1072   0.627   0.671   0.232
  372TIP3    H1 1073   0.635   0.743   0.294
  372TIP3    H2 1074   0.563   0.612   0.271
  373TIP3   OH2 1075   7.101   2.718   0.124
  373TIP3    H1 1076   7.148   2.671   0.194
  373TIP3    H2 1077   7.025   2.756   0.168
  374TIP3   OH2 1078   6.664   5.748   2.685
  374TIP3    H1 1079   6.748   5.785   2.711
  374TIP3    H2 1080   6.687   5.675   2.628
  375TIP3   OH2 1081   8.134   3.662   6.236
  375TIP3    H1 1082   8.114   3.703   6.320
  375TIP3    H2 1083   8.192   3.725   6.192
  376TIP3   OH2 1084   2.151   1.405   6.275
  376TIP3    H1 1085   2.141   1.311   6.258
  376TIP3    H2 1086   2.094   1.422   6.350
  377TIP3   OH2 1087   3.844   7.096   6.642
  377TIP3    H1 1088   3.914   7.108   6.705
  377TIP3    H2 1089   3.845   7.002   6.622
  378TIP3   OH2 1090   8.226   0.095   1.031
  378TIP3    H1 1091   8.223   0.189   1.044
  378TIP3    H2 1092   8.135   0.069   1.018
  379TIP3   OH2 1093   3.931   4.918   2.789
  379TIP3    H1 1094   4.002   4.887   2.846
  379TIP3    H2 1095   3.963   4.901   2.700
  380TIP3   OH2 1096   4.663   5.806   4.751
  380TIP3    H1 1097   4.726   5.878   4.745
  380TIP3    H2 1098   4.688   5.759   4.831
  381TIP3   OH2 1099   5.916   0.638   5.694
  381TIP3    H1 1100   5.882   0.592   5.617
  381TIP3    H2 1101   5.946   0.569   5.753
  382TIP3   OH2 1102   7.368   0.632   0.056
  382TIP3    H1 1103   7.301   0.599   0.116
  382TIP3    H2 1104   7.323   0.698   0.004
  383TIP3   OH2 1105   8.130   1.735   4.847
  383TIP3    H1 1106   8.106   1.735   4.754
  383TIP3    H2 1107   8.225   1.731   4.846
  384TIP3   OH2 1108   5.016   4.773   6.189
  384TIP3    H1 1109   4.965   4.742   6.265
  384TIP3    H2 1110   4.985   4.862   6.175
  385TIP3   OH2 1111   8.290   2.048   3.079
  385TIP3    H1 1112   8.346   1.978   3.113
  385TIP3    H2 1113   8.309   2.123   3.135
  386TIP3   OH2 1114   4.958   5.059   4.181
  386TIP3    H1 1115   5.036   5.013   4.213
  386TIP3    H2 1116   4.887   4.997   4.194
  387TIP3   OH2 1117   1.330   7.203   1.183
  387TIP3    H1 1118   1.386   7.262   1.233
  387TIP3    H2 1119   1.263   7.259   1.146
  388TIP3   OH2 1120   4.666   6.590   2.096
  388TIP3    H1 1121   4.678   6.639   2.015
  388TIP3    H2 1122   4.701   6.503   2.077
  389TIP3   OH2 1123   0.058   5.748   0.670
  389TIP3    H1 1124   0.152   5.729   0.665
  389TIP3    H2 1125   0.051   5.823   0.729
  390TIP3   OH2 1126   6.543   4.188   3.526
  390TIP3    H1 1127   6.630   4.149   3.538
  390TIP3    H2 1128   6.553   4.278   3.559
  391TIP3   OH2 1129   7.107   0.184   6.166
  391TIP3    H1 1130   7.014   0.202   6.154
  391TIP3    H2 1131   7.116   0.165   6.259
  392TIP3   OH2 1132   4.117   4.645   4.714
  392TIP3    H1 1133   4.089   4.553   4.710
  392TIP3    H2 1134   4.170   4.657   4.635
  393TIP3   OH2 1135   0.855   2.269   0.809
  393TIP3    H1 1136   0.782   2.287   0.868
  393TIP3    H2 1137   0.878   2.355   0.773
  394TIP3   OH2 1138   6.113   0.431   0.447
  394TIP3    H1 1139   6.182   0.396   0.504
  394TIP3    H2 1140   6.147   0.420   0.358
  395TIP3   OH2 1141   1.404   6.757   0.485
  395TIP3    H1 1142   1.355   6.698   0.427
  395TIP3    H2 1143   1.370   6.844   0.464
  396TIP3   OH2 1144   3.531   1.675   4.902
  396TIP3    H1 1145   3.473   1.600   4.915
  396TIP3    H2 1146   3.475   1.741   4.861
  397TIP3   OH2 1147   1.189   4.051   3.288
  397TIP3    H1 1148   1.264   4.110   3.291
  397TIP3    H2 1149   1.168   4.035   3.380
  398TIP3   OH2 1150   6.266   5.514   6.430
  398TIP3    H1 1151   6.205   5.536   6.501
  398TIP3    H2 1152   6.352   5.514   6.472
  399TIP3   OH2 1153   5.421   7.080   3.738
  399TIP3    H1 1154   5.382   7.005   3.693
  399TIP3    H2 1155   5.372   7.086   3.820
  400TIP3   OH2 1156   6.365   6.798   1.848
  400TIP3    H1 1157   6.450   6.756   1.858
  400TIP3    H2 1158   6.370   6.877   1.901
  401TIP3   OH2 1159   1.737   5.137   3.216
  401TIP3    H1 1160   1.776   5.053   3.239
  401TIP3    H2 1161   1.706   5.125   3.126
  402TIP3   OH2 1162   7.601   3.599   6.683
  402TIP3    H1 1163   7.596   3.694   6.673
  402TIP3    H2 1164   7.695   3.580   6.687
  403TIP3   OH2 1165   1.304   4.804   3.983
  403TIP3    H1 1166   1.387   4.776   3.944
  403TIP3    H2 1167   1.249   4.725   3.981
  404TIP3   OH2 1168   1.594   7.561   0.794
  404TIP3    H1 1169   1.649   7.486   0.771
  404TIP3    H2 1170   1.605   7.622   0.721
  405TIP3   OH2 1171   7.986   0.905   5.334
  405TIP3    H1 1172   8.056   0.840   5.330
  405TIP3    H2 1173   7.905   0.853   5.335
  406TIP3   OH2 1174   6.115   3.416   4.162
  406TIP3    H1 1175   6.155   3.379   4.241
  406TIP3    H2 1176   6.189   3.441   4.107
  407TIP3   OH2 1177   4.861   3.715   6.593
  407TIP3    H1 1178   4.786   3.661   6.567
  407TIP3    H2 1179   4.903   3.738   6.510
  408TIP3   OH2 1180   0.700   0.998   1.932
  408TIP3    H1 1181   0.660   0.991   2.019
  408TIP3    H2 1182   0.774   1.057   1.946
  409TIP3   OH2 1183   2.251   0.361   3.614
  409TIP3    H1 1184   2.289   0.379   3.700
  409TIP3    H2 1185   2.318   0.389   3.552
  410TIP3   OH2 1186   4.001   5.162   1.481
  410TIP3    H1 1187   4.075   5.220   1.504
  410TIP3    H2 1188   3.941   5.218   1.433
  411TIP3   OH2 1189   7.868   0.346   2.600
  411TIP3    H1 1190   7.940   0.290   2.570
  411TIP3    H2 1191   7.791   0.289   2.600
  412TIP3   OH2 1192   6.501   2.531   4.585
  412TIP3    H1 1193   6.483   2.438   4.593
  412TIP3    H2 1194   6.470   2.569   4.667
  413TIP3   OH2 1195   4.664   5.296   5.689
  413TIP3    H1 1196   4.617   5.220   5.721
  413TIP3    H2 1197   4.756   5.270   5.691
  414TIP3   OH2 1198   3.488   3.060   4.827
  414TIP3    H1 1199   3.420   3.073   4.761
  414TIP3    H2 1200   3.518   2.970   4.813
  415TIP3   OH2 1201   5.024   7.335   2.078
  415TIP3    H1 1202   5.049   7.365   1.990
  415TIP3    H2 1203   4.929   7.351   2.082
  416TIP3   OH2 1204   5.478   6.891   0.671
  416TIP3    H1 1205   5.542   6.827   0.702
  416TIP3    H2 1206   5.430   6.846   0.602
  417TIP3   OH2 1207   1.843   1.830   1.395
  417TIP3    H1 1208   1.807   1.819   1.483
  417TIP3    H2 1209   1.913   1.766   1.389
  418TIP3   OH2 1210   5.020   0.719   1.501
  418TIP3    H1 1211   4.991   0.654   1.437
  418TIP3    H2 1212   4.957   0.791   1.491
  419TIP3   OH2 1213   2.262   4.136   4.335
  419TIP3    H1 1214   2.220   4.221   4.323
  419TIP3    H2 1215   2.317   4.126   4.257
  420TIP3   OH2 1216   1.569   1.115   2.607
  420TIP3    H1 1217   1.491   1.082   2.561
  420TIP3    H2 1218   1.593   1.044   2.666
  421TIP3   OH2 1219   8.216   7.237   4.777
  421TIP3    H1 1220   8.267   7.308   4.738
  421TIP3    H2 1221   8.137   7.279   4.809
  422TIP3   OH2 1222   4.508   2.905   4.084
  422TIP3    H1 1223   4.529   2.998   4.077
  422TIP3    H2 1224   4.573   2.870   4.145
  423TIP3   OH2 1225   1.848   3.000   3.468
  423TIP3    H1 1226   1.902   3.019   3.392
  423TIP3    H2 1227   1.901   2.940   3.521
  424TIP3   OH2 1228   2.953   4.959   2.177
  424TIP3    H1 1229   2.949   5.033   2.237
  424TIP3    H2 1230   3.041   4.962   2.139
  425TIP3   OH2 1231   4.600   7.408   3.205
  425TIP3    H1 1232   4.517   7.394   3.159
  425TIP3    H2 1233   4.649   7.327   3.193
  426TIP3   OH2 1234   2.065   0.860   1.306
  426TIP3    H1 1235   1.984   0.856   1.356
  426TIP3    H2 1236   2.106   0.941   1.334
  427TIP3   OH2 1237   1.156   6.099   4.272
  427TIP3    H1 1238   1.140   6.023   4.328
  427TIP3    H2 1239   1.110   6.079   4.190
  428TIP3   OH2 1240   4.713   0.820   5.645
  428TIP3    H1 1241   4.784   0.851   5.589
  428TIP3    H2 1242   4.757   0.768   5.713
  429TIP3   OH2 1243   7.016   0.269   5.099
  429TIP3    H1 1244   6.958   0.318   5.041
  429TIP3    H2 1245   7.035   0.187   5.052
  430TIP3   OH2 1246   3.838   4.205   4.922
  430TIP3    H1 1247   3.744   4.189   4.931
  430TIP3    H2 1248   3.873   4.192   5.010
  431TIP3   OH2 1249   3.136   1.788   5.034
  431TIP3    H1 1250   3.076   1.769   4.962
  431TIP3    H2 1251   3.195   1.855   4.999
  432TIP3   OH2 1252   1.033   1.396   0.991
  432TIP3    H1 1253   0.945   1.388   0.955
  432TIP3    H2 1254   1.021   1.382   1.085
  433TIP3   OH2 1255   7.291   7.135   1.810
  433TIP3    H1 1256   7.227   7.114   1.878
  433TIP3    H2 1257   7.354   7.063   1.814
  434TIP3   OH2 1258   7.257   0.222   4.084
  434TIP3    H1 1259   7.225   0.202   3.996
  434TIP3    H2 1260   7.349   0.195   4.083
  435TIP3   OH2 1261   5.657   1.516   2.542
  435TIP3    H1 1262   5.736   1.478   2.504
  435TIP3    H2 1263   5.610   1.441   2.579
  436TIP3   OH2 1264   4.902   7.754   4.828
  436TIP3    H1 1265   4.924   7.770   4.737
  436TIP3    H2 1266   4.911   7.840   4.870
  437TIP3   OH2 1267   6.492   0.798   2.791
  437TIP3    H1 1268   6.473   0.764   2.879
  437TIP3    H2 1269   6.439   0.744   2.733
  438TIP3   OH2 1270   0.778   5.141   4.356
  438TIP3    H1 1271   0.729   5.063   4.382
  438TIP3    H2 1272   0.800   5.184   4.439
  439TIP3   OH2 1273   4.551   1.983   3.231
  439TIP3    H1 1274   4.567   1.936   3.312
  439TIP3    H2 1275   4.564   2.075   3.254
  440TIP3   OH2 1276   7.628   6.914   4.656
  440TIP3    H1 1277   7.624   6.893   4.562
  440TIP3    H2 1278   7.563   6.856   4.696
  441TIP3   OH2 1279   7.520   2.649   0.243
  441TIP3    H1 1280   7.505   2.556   0.225
  441TIP3    H2 1281   7.436   2.691   0.223
  442TIP3   OH2 1282   1.861   5.756   5.289
  442TIP3    H1 1283   1.906   5.838   5.308
  442TIP3    H2 1284   1.932   5.692   5.280
  443TIP3   OH2 1285   4.756   2.912   0.423
  443TIP3    H1 1286   4.815   2.975   0.464
  443TIP3    H2 1287   4.668   2.950   0.434
  444TIP3   OH2 1288   0.146   4.366   1.785
  444TIP3    H1 1289   0.185   4.376   1.698
  444TIP3    H2 1290   0.214   4.394   1.845
  445TIP3   OH2 1291   4.708   0.177   6.616
  445TIP3    H1 1292   4.677   0.107   6.674
  445TIP3    H2 1293   4.630   0.205   6.568
  446TIP3   OH2 1294   5.911   5.661   3.745
  446TIP3    H1 1295   5.857   5.593   3.783
  446TIP3    H2 1296   5.986   5.614   3.707
  447TIP3   OH2 1297   6.545   0.845   1.825
  447TIP3    H1 1298   6.509   0.884   1.745
  447TIP3    H2 1299   6.472   0.844   1.886
  448TIP3   OH2 1300   2.040   4.872   2.662
  448TIP3    H1 1301   1.950   4.839   2.662
  448TIP3    H2 1302   2.059   4.887   2.569
  449TIP3   OH2 1303   7.859   2.930   1.740
  449TIP3    H1 1304   7.783   2.905   1.687
  449TIP3    H2 1305   7.866   2.861   1.805
  450TIP3   OH2 1306   1.601   0.847   4.632
  450TIP3    H1 1307   1.523   0.832   4.686
  450TIP3    H2 1308   1.566   0.882   4.550
  451TIP3   OH2 1309   5.662   7.618   6.175
  451TIP3    H1 1310   5.738   7.674   6.155
  451TIP3    H2 1311   5.675   7.540   6.121
  452TIP3   OH2 1312   4.619   6.063   3.483
  452TIP3    H1 1313   4.542   6.006   3.474
  452TIP3    H2 1314   4.586   6.151   3.470
  453TIP3   OH2 1315   3.756   0.030   5.577
  453TIP3    H1 1316   3.704   0.110   5.580
  453TIP3    H2 1317   3.730  -0.012   5.495
  454TIP3   OH2 1318   5.518   3.457   4.888
  454TIP3    H1 1319   5.595   3.416   4.928
  454TIP3    H2 1320   5.553   3.507   4.815
  455TIP3   OH2 1321   3.427   1.418   0.972
  455TIP3    H1 1322   3.353   1.425   0.911
  455TIP3    H2 1323   3.413   1.335   1.017
  456TIP3   OH2 1324   1.093   4.201   6.522
  456TIP3    H1 1325   1.153   4.144   6.570
  456TIP3    H2 1326   1.140   4.224   6.442
  457TIP3   OH2 1327   6.318   4.489   1.600
  457TIP3    H1 1328   6.357   4.534   1.525
  457TIP3    H2 1329   6.377   4.508   1.673
  458TIP3   OH2 1330   0.723   0.041   3.545
  458TIP3    H1 1331   0.735   0.010   3.634
  458TIP3    H2 1332   0.802   0.092   3.526
  459TIP3   OH2 1333   5.127   7.144   6.127
  459TIP3    H1 1334   5.189   7.147   6.054
  459TIP3    H2 1335   5.045   7.115   6.087
  460TIP3   OH2 1336   5.930   7.515   4.833
  460TIP3    H1 1337   5.963   7.599   4.802
  460TIP3    H2 1338   5.856   7.538   4.889
  461TIP3   OH2 1339   1.972   5.737   4.168
  461TIP3    H1 1340   1.913   5.720   4.241
  461TIP3    H2 1341   1.946   5.674   4.101
  462TIP3   OH2 1342   0.145   5.188   1.791
  462TIP3    H1 1343   0.099   5.224   1.715
  462TIP3    H2 1344   0.201   5.259   1.821
  463TIP3   OH2 1345   7.874   4.357   5.889
  463TIP3    H1 1346   7.794   4.396   5.855
  463TIP3    H2 1347   7.845   4.275   5.930
  464TIP3   OH2 1348   1.385   7.602   6.537
  464TIP3    H1 1349   1.347   7.616   6.450
  464TIP3    H2 1350   1.344   7.669   6.592
  465TIP3   OH2 1351   4.488   4.705   4.527
  465TIP3    H1 1352   4.422   4.748   4.473
  465TIP3    H2 1353   4.551   4.775   4.548
  466TIP3   OH2 1354   8.175   0.022   0.112
  466TIP3    H1 1355   8.153   0.013   0.205
  466TIP3    H2 1356   8.181   0.116   0.098
  467TIP3   OH2 1357   1.074   0.545   0.463
  467TIP3    H1 1358   1.057   0.637   0.484
  467TIP3    H2 1359   1.046   0.497   0.540
  468TIP3   OH2 1360   6.025   3.538   1.536
  468TIP3    H1 1361   6.073   3.555   1.617
  468TIP3    H2 1362   5.941   3.502   1.565
  469TIP3   OH2 1363   3.607   2.727   5.340
  469TIP3    H1 1364   3.519   2.695   5.321
  469TIP3    H2 1365   3.663   2.650   5.329
  470TIP3   OH2 1366   6.159   6.715   3.301
  470TIP3    H1 1367   6.191   6.723   3.211
  470TIP3    H2 1368   6.106   6.636   3.301
  471TIP3   OH2 1369   2.771   4.290   2.975
  471TIP3    H1 1370   2.730   4.360   2.925
  471TIP3    H2 1371   2.857   4.325   2.999
  472TIP3   OH2 1372   7.190   1.315   6.471
  472TIP3    H1 1373   7.225   1.402   6.452
  472TIP3    H2 1374   7.108   1.311   6.422
  473TIP3   OH2 1375   7.316   4.133   2.587
  473TIP3    H1 1376   7.412   4.142   2.584
  473TIP3    H2 1377   7.296   4.126   2.680
  474TIP3   OH2 1378   3.497   3.742   3.090
  474TIP3    H1 1379   3.531   3.714   3.005
  474TIP3    H2 1380   3.469   3.661   3.133
  475TIP3   OH2 1381   0.869   4.753   2.638
  475TIP3    H1 1382   0.958   4.751   2.604
  475TIP3    H2 1383   0.879   4.778   2.730
  476TIP3   OH2 1384   7.066   4.066   6.741
  476TIP3    H1 1385   7.088   4.035   6.654
  476TIP3    H2 1386   6.977   4.102   6.732
  477TIP3   OH2 1387   6.035   7.283   4.935
  477TIP3    H1 1388   6.020   7.256   5.026
  477TIP3    H2 1389   6.014   7.377   4.935
  478TIP3   OH2 1390   3.963   7.622   1.475
  478TIP3    H1 1391   4.003   7.637   1.561
  478TIP3    H2 1392   4.033   7.637   1.412
  479TIP3   OH2 1393   3.665   2.664   0.761
  479TIP3    H1 1394   3.661   2.629   0.850
  479TIP3    H2 1395   3.579   2.644   0.724
  480TIP3   OH2 1396   4.244   0.428   5.777
  480TIP3    H1 1397   4.249   0.355   5.839
  480TIP3    H2 1398   4.153   0.429   5.748
  481TIP3   OH2 1399   4.204   1.217   0.029
  481TIP3    H1 1400   4.243   1.295  -0.012
  481TIP3    H2 1401   4.112   1.241   0.041
  482TIP3   OH2 1402   1.223   1.070   5.850
  482TIP3    H1 1403   1.254   0.998   5.906
  482TIP3    H2 1404   1.287   1.140   5.863
  483TIP3   OH2 1405   2.858   4.755   2.360
  483TIP3    H1 1406   2.900   4.799   2.286
  483TIP3    H2 1407   2.821   4.675   2.323
  484TIP3   OH2 1408   2.723   5.252   0.438
  484TIP3    H1 1409   2.650   5.243   0.499
  484TIP3    H2 1410   2.796   5.279   0.493
  485TIP3   OH2 1411   3.127   0.607   2.080
  485TIP3    H1 1412   3.181   0.542   2.126
  485TIP3    H2 1413   3.053   0.623   2.138
  486TIP3   OH2 1414   0.092   2.053   2.152
  486TIP3    H1 1415   0.154   2.023   2.219
  486TIP3    H2 1416   0.031   2.109   2.200
  487TIP3   OH2 1417   3.199   1.518   1.915
  487TIP3    H1 1418   3.139   1.592   1.916
  487TIP3    H2 1419   3.209   1.495   1.822
  488TIP3   OH2 1420   7.721   6.719   1.011
  488TIP3    H1 1421   7.709   6.810   1.037
  488TIP3    H2 1422   7.685   6.668   1.084
  489TIP3   OH2 1423   3.251   2.338   5.305
  489TIP3    H1 1424   3.166   2.371   5.333
  489TIP3    H2 1425   3.230   2.264   5.247
  490TIP3   OH2 1426   0.608   7.186   1.357
  490TIP3    H1 1427   0.635   7.260   1.411
  490TIP3    H2 1428   0.536   7.220   1.304
  491TIP3   OH2 1429   0.067   0.134   0.326
  491TIP3    H1 1430   0.015   0.191   0.383
  491TIP3    H2 1431   0.056   0.170   0.238
  492TIP3   OH2 1432   2.920   1.283   1.669
  492TIP3    H1 1433   2.979   1.261   1.597
  492TIP3    H2 1434   2.833   1.262   1.637
  493TIP3   OH2 1435   3.546   6.160   2.923
  493TIP3    H1 1436   3.605   6.093   2.956
  493TIP3    H2 1437   3.517   6.208   3.001
  494TIP3   OH2 1438   6.374   5.873   6.479
  494TIP3    H1 1439   6.292   5.837   6.445
  494TIP3    H2 1440   6.350   5.912   6.563
  495TIP3   OH2 1441   1.496   7.577   4.483
  495TIP3    H1 1442   1.459   7.562   4.396
  495TIP3    H2 1443   1.431   7.542   4.543
  496TIP3   OH2 1444   6.345   7.407   5.141
  496TIP3    H1 1445   6.414   7.467   5.113
  496TIP3    H2 1446   6.297   7.455   5.208
  497TIP3   OH2 1447   5.933   0.470   3.106
  497TIP3    H1 1448   6.014   0.513   3.135
  497TIP3    H2 1449   5.963   0.392   3.060
  498TIP3   OH2 1450   2.971   6.918   5.003
  498TIP3    H1 1451   2.919   6.979   5.054
  498TIP3    H2 1452   3.052   6.908   5.053
  499TIP3   OH2 1453   5.935   7.642   3.820
  499TIP3    H1 1454   5.867   7.705   3.841
  499TIP3    H2 1455   5.945   7.590   3.899
  500TIP3   OH2 1456   2.335   5.744   5.722
  500TIP3    H1 1457   2.287   5.815   5.680
  500TIP3    H2 1458   2.365   5.688   5.651
  501TIP3   OH2 1459   1.894   0.160   0.162
  501TIP3    H1 1460   1.871   0.227   0.226
  501TIP3    H2 1461   1.989   0.165   0.155
  502TIP3   OH2 1462   3.971   3.228   1.066
  502TIP3    H1 1463   3.986   3.216   1.159
  502TIP3    H2 1464   3.927   3.147   1.038
  503TIP3   OH2 1465   2.015   6.315   3.887
  503TIP3    H1 1466   2.034   6.381   3.821
  503TIP3    H2 1467   2.078   6.245   3.871
  504TIP3   OH2 1468   0.836   6.341   6.145
  504TIP3    H1 1469   0.769   6.401   6.113
  504TIP3    H2 1470   0.876   6.387   6.219
  505TIP3   OH2 1471   3.916   7.556   0.510
  505TIP3    H1 1472   3.838   7.561   0.455
  505TIP3    H2 1473   3.925   7.644   0.548
  506TIP3   OH2 1474   1.761   5.382   1.042
  506TIP3    H1 1475   1.793   5.383   0.952
  506TIP3    H2 1476   1.810   5.452   1.085
  507TIP3   OH2 1477   0.540   7.588   4.714
  507TIP3    H1 1478   0.478   7.623   4.778
  507TIP3    H2 1479   0.498   7.510   4.680
  508TIP3   OH2 1480   3.714   4.949   0.713
  508TIP3    H1 1481   3.749   4.977   0.798
  508TIP3    H2 1482   3.635   4.901   0.736
  509TIP3   OH2 1483   2.784   7.100   5.930
  509TIP3    H1 1484   2.768   7.192   5.951
  509TIP3    H2 1485   2.834   7.103   5.848
  510TIP3   OH2 1486   0.097   2.447   3.181
  510TIP3    H1 1487   0.182   2.432   3.221
  510TIP3    H2 1488   0.043   2.483   3.251
  511TIP3   OH2 1489   7.564   5.336   4.140
  511TIP3    H1 1490   7.559   5.419   4.189
  511TIP3    H2 1491   7.508   5.350   4.064
  512TIP3   OH2 1492   8.001   7.653   1.398
  512TIP3    H1 1493   8.021   7.564   1.369
  512TIP3    H2 1494   8.084   7.699   1.396
  513TIP3   OH2 1495   5.793   3.901   2.950
  513TIP3    H1 1496   5.742   3.937   3.023
  513TIP3    H2 1497   5.768   3.809   2.946
  514TIP3   OH2 1498   7.698   3.089   6.171
  514TIP3    H1 1499   7.791   3.068   6.182
  514TIP3    H2 1500   7.667   3.107   6.260
  515TIP3   OH2 1501   1.794   5.776   5.004
  515TIP3    H1 1502   1.729   5.777   4.934
  515TIP3    H2 1503   1.777   5.856   5.054
  516TIP3   OH2 1504   0.762   0.144   4.130
  516TIP3    H1 1505   0.763   0.112   4.040
  516TIP3    H2 1506   0.722   0.231   4.123
  517TIP3   OH2 1507   0.538   5.951   0.307
  517TIP3    H1 1508   0.486   5.935   0.228
  517TIP3    H2 1509   0.549   5.865   0.347
  518TIP3   OH2 1510   6.914   1.728   6.075
  518TIP3    H1 1511   6.936   1.820   6.062
  518TIP3    H2 1512   6.937   1.711   6.167
  519TIP3   OH2 1513   1.988   2.803   3.217
  519TIP3    H1 1514   2.041   2.788   3.139
  519TIP3    H2 1515   2.032   2.876   3.262
  520TIP3   OH2 1516   3.064   4.912   4.438
  520TIP3    H1 1517   3.038   4.915   4.530
  520TIP3    H2 1518   3.159   4.905   4.441
  521TIP3   OH2 1519   1.601   0.108   0.350
  521TIP3    H1 1520   1.631   0.154   0.272
  521TIP3    H2 1521   1.626   0.165   0.423
  522TIP3   OH2 1522   5.294   6.403   0.048
  522TIP3    H1 1523   5.379   6.363   0.032
  522TIP3    H2 1524   5.270   6.377   0.137
  523TIP3   OH2 1525   5.195   5.218   2.493
  523TIP3    H1 1526   5.117   5.270   2.514
  523TIP3    H2 1527   5.163   5.127   2.491
  524TIP3   OH2 1528   1.616   5.895   6.730
  524TIP3    H1 1529   1.662   5.934   6.804
  524TIP3    H2 1530   1.642   5.803   6.731
  525TIP3   OH2 1531   5.736   7.162   0.862
  525TIP3    H1 1532   5.721   7.256   0.872
  525TIP3    H2 1533   5.781   7.136   0.943
  526TIP3   OH2 1534   7.153   6.331   6.044
  526TIP3    H1 1535   7.096   6.311   6.118
  526TIP3    H2 1536   7.203   6.408   6.071
  527TIP3   OH2 1537   1.292   3.607   6.023
  527TIP3    H1 1538   1.319   3.637   6.110
  527TIP3    H2 1539   1.210   3.653   6.006
  528TIP3   OH2 1540   6.564   2.785   2.105
  528TIP3    H1 1541   6.583   2.793   2.198
  528TIP3    H2 1542   6.522   2.699   2.097
  529TIP3   OH2 1543   3.653   6.306   6.646
  529TIP3    H1 1544   3.620   6.216   6.641
  529TIP3    H2 1545   3.578   6.358   6.675
  530TIP3   OH2 1546   0.371   2.639   2.193
  530TIP3    H1 1547   0.342   2.653   2.283
  530TIP3    H2 1548   0.451   2.587   2.201
  531TIP3   OH2 1549   0.476   4.273   5.418
  531TIP3    H1 1550   0.480   4.314   5.331
  531TIP3    H2 1551   0.430   4.338   5.472
  532TIP3   OH2 1552   2.313   6.553   0.775
  532TIP3    H1 1553   2.369   6.564   0.698
  532TIP3    H2 1554   2.303   6.641   0.810
  533TIP3   OH2 1555   4.402   2.589   0.085
  533TIP3    H1 1556   4.381   2.679   0.057
  533TIP3    H2 1557   4.344   2.573   0.159
  534TIP3   OH2 1558   4.731   0.314   6.164
  534TIP3    H1 1559   4.641   0.286   6.181
  534TIP3    H2 1560   4.728   0.353   6.077
  535TIP3   OH2 1561   3.238   2.776   4.705
  535TIP3    H1 1562   3.173   2.738   4.645
  535TIP3    H2 1563   3.191   2.785   4.788
  536TIP3   OH2 1564   4.691   0.763   3.657
  536TIP3    H1 1565   4.719   0.735   3.744
  536TIP3    H2 1566   4.596   0.768   3.662
  537TIP3   OH2 1567   1.016   7.567   1.464
  537TIP3    H1 1568   0.957   7.538   1.534
  537TIP3    H2 1569   1.086   7.501   1.464
  538TIP3   OH2 1570   5.537   4.721   1.157
  538TIP3    H1 1571   5.530   4.630   1.185
  538TIP3    H2 1572   5.597   4.761   1.220
  539TIP3   OH2 1573   2.688   1.927   2.558
  539TIP3    H1 1574   2.673   2.021   2.547
  539TIP3    H2 1575   2.605   1.894   2.592
  540TIP3   OH2 1576   3.578   1.971   0.444
  540TIP3    H1 1577   3.609   1.933   0.362
  540TIP3    H2 1578   3.530   1.900   0.486
  541TIP3   OH2 1579   6.994   4.910   0.201
  541TIP3    H1 1580   6.951   4.973   0.143
  541TIP3    H2 1581   6.943   4.913   0.282
  542TIP3   OH2 1582   2.090   3.836   0.625
  542TIP3    H1 1583   2.078   3.743   0.646
  542TIP3    H2 1584   2.007   3.862   0.587
  543TIP3   OH2 1585   0.086   2.612   3.599
  543TIP3    H1 1586   0.039   2.585   3.678
  543TIP3    H2 1587   0.025   2.670   3.554
  544TIP3   OH2 1588   7.009   5.676   2.610
  544TIP3    H1 1589   6.995   5.763   2.647
  544TIP3    H2 1590   7.095   5.681   2.568
  545TIP3   OH2 1591   4.548   3.145   6.155
  545TIP3    H1 1592   4.531   3.189   6.238
  545TIP3    H2 1593   4.634   3.103   6.167
  546TIP3   OH2 1594   5.313   3.495   3.995
  546TIP3    H1 1595   5.237   3.439   4.011
  546TIP3    H2 1596   5.292   3.576   4.043
  547TIP3   OH2 1597   2.933   2.867   5.514
  547TIP3    H1 1598   2.890   2.784   5.534
  547TIP3    H2 1599   2.861   2.927   5.496
  548TIP3   OH2 1600   6.333   7.307   0.052
  548TIP3    H1 1601   6.376   7.297  -0.033
  548TIP3    H2 1602   6.367   7.390   0.086
  549TIP3   OH2 1603   2.622   7.021   2.803
  549TIP3    H1 1604   2.571   6.995   2.879
  549TIP3    H2 1605   2.666   6.941   2.775
  550TIP3   OH2 1606   7.555   7.176   5.485
  550TIP3    H1 1607   7.619   7.238   5.521
  550TIP3    H2 1608   7.542   7.113   5.556
  551TIP3   OH2 1609   7.453   0.133   5.021
  551TIP3    H1 1610   7.527   0.178   5.063
  551TIP3    H2 1611   7.388   0.202   5.008
  552TIP3   OH2 1612   6.891   6.489   1.988
  552TIP3    H1 1613   6.922   6.483   2.078
  552TIP3    H2 1614   6.820   6.552   1.991
  553TIP3   OH2 1615   6.083   2.588   0.358
  553TIP3    H1 1616   6.069   2.567   0.450
  553TIP3    H2 1617   6.122   2.509   0.321
  554TIP3   OH2 1618   3.187   0.827   2.455
  554TIP3    H1 1619   3.226   0.893   2.398
  554TIP3    H2 1620   3.092   0.834   2.438
  555TIP3   OH2 1621   4.254   7.391   3.649
  555TIP3    H1 1622   4.340   7.372   3.611
  555TIP3    H2 1623   4.258   7.483   3.673
  556TIP3   OH2 1624   4.914   7.752   3.970
  556TIP3    H1 1625   4.961   7.798   4.040
  556TIP3    H2 1626   4.979   7.692   3.934
  557TIP3   OH2 1627   5.164   3.128   5.506
  557TIP3    H1 1628   5.170   3.037   5.536
  557TIP3    H2 1629   5.207   3.179   5.575
  558TIP3   OH2 1630   8.187   3.485   3.652
  558TIP3    H1 1631   8.253   3.548   3.621
  558TIP3    H2 1632   8.155   3.443   3.573
  559TIP3   OH2 1633   4.993   1.895   5.657
  559TIP3    H1 1634   5.034   1.827   5.603
  559TIP3    H2 1635   5.064   1.925   5.714
  560TIP3   OH2 1636   5.652   5.881   4.418
  560TIP3    H1 1637   5.705   5.956   4.391
  560TIP3    H2 1638   5.661   5.819   4.346
  561TIP3   OH2 1639   5.268   4.585   5.203
  561TIP3    H1 1640   5.319   4.615   5.127
  561TIP3    H2 1641   5.193   4.541   5.165
  562TIP3   OH2 1642   8.038   5.505   3.528
  562TIP3    H1 1643   8.012   5.524   3.619
  562TIP3    H2 1644   7.955   5.498   3.481
  563TIP3   OH2 1645   2.216   6.304   0.033
  563TIP3    H1 1646   2.159   6.344   0.099
  563TIP3    H2 1647   2.208   6.210   0.047
  564TIP3   OH2 1648   2.437   1.125   0.622
  564TIP3    H1 1649   2.399   1.052   0.572
  564TIP3    H2 1650   2.439   1.094   0.712
  565TIP3   OH2 1651   3.320   4.104   0.596
  565TIP3    H1 1652   3.374   4.071   0.667
  565TIP3    H2 1653   3.343   4.197   0.590
  566TIP3   OH2 1654   0.147   6.630   2.760
  566TIP3    H1 1655   0.145   6.578   2.680
  566TIP3    H2 1656   0.081   6.589   2.816
  567TIP3   OH2 1657   5.117   4.016   1.113
  567TIP3    H1 1658   5.148   4.014   1.022
  567TIP3    H2 1659   5.196   4.035   1.164
  568TIP3   OH2 1660   0.755   5.708   5.711
  568TIP3    H1 1661   0.791   5.632   5.666
  568TIP3    H2 1662   0.667   5.681   5.737
  569TIP3   OH2 1663   6.915   2.413   4.843
  569TIP3    H1 1664   7.011   2.416   4.839
  569TIP3    H2 1665   6.891   2.341   4.785
  570TIP3   OH2 1666   2.500   3.698   2.841
  570TIP3    H1 1667   2.516   3.762   2.910
  570TIP3    H2 1668   2.561   3.626   2.860
  571TIP3   OH2 1669   8.154   1.830   0.474
  571TIP3    H1 1670   8.244   1.845   0.502
  571TIP3    H2 1671   8.145   1.735   0.470
  572TIP3   OH2 1672   4.878   3.309   4.569
  572TIP3    H1 1673   4.950   3.254   4.600
  572TIP3    H2 1674   4.803   3.283   4.623
  573TIP3   OH2 1675   4.709   2.885   6.007
  573TIP3    H1 1676   4.627   2.835   6.008
  573TIP3    H2 1677   4.771   2.830   5.959
  574TIP3   OH2 1678   2.411   7.815   5.725
  574TIP3    H1 1679   2.321   7.824   5.755
  574TIP3    H2 1680   2.404   7.775   5.639
  575TIP3   OH2 1681   7.705   2.207   2.919
  575TIP3    H1 1682   7.759   2.160   2.981
  575TIP3    H2 1683   7.755   2.286   2.898
  576TIP3   OH2 1684   1.080   4.163   1.383
  576TIP3    H1 1685   1.159   4.212   1.404
  576TIP3    H2 1686   1.058   4.189   1.294
  577TIP3   OH2 1687   2.431   2.370   6.412
  577TIP3    H1 1688   2.348   2.418   6.415
  577TIP3    H2 1689   2.475   2.401   6.333
  578TIP3   OH2 1690   5.412   0.164   5.760
  578TIP3    H1 1691   5.411   0.178   5.854
  578TIP3    H2 1692   5.335   0.110   5.743
  579TIP3   OH2 1693   0.365   7.259   1.248
  579TIP3    H1 1694   0.374   7.334   1.189
  579TIP3    H2 1695   0.350   7.298   1.334
  580TIP3   OH2 1696   0.436   5.222   0.374
  580TIP3    H1 1697   0.531   5.233   0.378
  580TIP3    H2 1698   0.411   5.192   0.461
  581TIP3   OH2 1699   5.004   7.547   3.341
  581TIP3    H1 1700   4.950   7.585   3.272
  581TIP3    H2 1701   4.954   7.472   3.373
  582TIP3   OH2 1702   7.134   2.514   5.121
  582TIP3    H1 1703   7.134   2.430   5.166
  582TIP3    H2 1704   7.133   2.492   5.028
  583TIP3   OH2 1705   4.186   0.053   0.799
  583TIP3    H1 1706   4.276   0.052   0.832
  583TIP3    H2 1707   4.146   0.129   0.842
  584TIP3   OH2 1708   5.797   0.244   3.909
  584TIP3    H1 1709   5.846   0.183   3.853
  584TIP3    H2 1710   5.806   0.208   3.997
  585TIP3   OH2 1711   1.365   6.975   1.500
  585TIP3    H1 1712   1.350   6.967   1.406
  585TIP3    H2 1713   1.459   6.967   1.511
  586TIP3   OH2 1714   7.079   6.352   4.920
  586TIP3    H1 1715   7.148   6.418   4.908
  586TIP3    H2 1716   7.114   6.293   4.987
  587TIP3   OH2 1717   0.839   1.422   6.359
  587TIP3    H1 1718   0.812   1.482   6.289
  587TIP3    H2 1719   0.905   1.366   6.319
  588TIP3   OH2 1720   7.949   6.397   3.762
  588TIP3    H1 1721   7.879   6.343   3.800
  588TIP3    H2 1722   7.902   6.464   3.713
  589TIP3   OH2 1723   6.751   0.324   1.533
  589TIP3    H1 1724   6.708   0.239   1.531
  589TIP3    H2 1725   6.706   0.375   1.466
  590TIP3   OH2 1726   1.401   7.682   3.346
  590TIP3    H1 1727   1.414   7.756   3.288
  590TIP3    H2 1728   1.381   7.721   3.431
  591TIP3   OH2 1729   7.211   0.074   1.290
  591TIP3    H1 1730   7.202  -0.010   1.245
  591TIP3    H2 1731   7.305   0.087   1.297
  592TIP3   OH2 1732   6.083   2.779   5.418
  592TIP3    H1 1733   6.086   2.708   5.482
  592TIP3    H2 1734   6.139   2.749   5.346
  593TIP3   OH2 1735   0.611   4.031   4.900
  593TIP3    H1 1736   0.679   3.965   4.906
  593TIP3    H2 1737   0.537   3.995   4.950
  594TIP3   OH2 1738   3.641   6.889   2.209
  594TIP3    H1 1739   3.641   6.944   2.130
  594TIP3    H2 1740   3.548   6.878   2.231
  595TIP3   OH2 1741  -0.034   7.685   0.378
  595TIP3    H1 1742   0.022   7.761   0.361
  595TIP3    H2 1743  -0.001   7.617   0.320
  596TIP3   OH2 1744   6.179   5.873   4.669
  596TIP3    H1 1745   6.087   5.847   4.664
  596TIP3    H2 1746   6.187   5.915   4.755
  597TIP3   OH2 1747   0.439   6.726   4.420
  597TIP3    H1 1748   0.529   6.746   4.447
  597TIP3    H2 1749   0.441   6.733   4.325
  598TIP3   OH2 1750   0.914   5.964   2.288
  598TIP3    H1 1751   0.958   6.013   2.218
  598TIP3    H2 1752   0.889   6.031   2.352
  599TIP3   OH2 1753   8.038   7.262   1.604
  599TIP3    H1 1754   8.111   7.318   1.578
  599TIP3    H2 1755   7.960   7.307   1.573
  600TIP3   OH2 1756   0.043   5.781   6.734
  600TIP3    H1 1757  -0.041   5.739   6.750
  600TIP3    H2 1758   0.040   5.808   6.642
  601TIP3   OH2 1759   0.937   4.944   4.835
  601TIP3    H1 1760   0.928   5.039   4.830
  601TIP3    H2 1761   0.861   4.910   4.786
  602TIP3   OH2 1762   5.776   4.743   1.291
  602TIP3    H1 1763   5.861   4.740   1.247
  602TIP3    H2 1764   5.788   4.689   1.369
  603TIP3   OH2 1765   3.436   0.587   5.785
  603TIP3    H1 1766   3.468   0.676   5.773
  603TIP3    H2 1767   3.360   0.596   5.842
  604TIP3   OH2 1768   0.110   3.669   3.788
  604TIP3    H1 1769   0.067   3.717   3.858
  604TIP3    H2 1770   0.082   3.713   3.708
  605TIP3   OH2 1771   5.961   4.463   1.028
  605TIP3    H1 1772   5.970   4.531   0.962
  605TIP3    H2 1773   6.033   4.479   1.089
  606TIP3   OH2 1774   5.208   7.231   5.411
  606TIP3    H1 1775   5.126   7.192   5.442
  606TIP3    H2 1776   5.184   7.320   5.387
  607TIP3   OH2 1777   3.818   5.312   4.763
  607TIP3    H1 1778   3.864   5.245   4.712
  607TIP3    H2 1779   3.887   5.372   4.791
  608TIP3   OH2 1780   5.209   4.038   5.681
  608TIP3    H1 1781   5.256   3.989   5.614
  608TIP3    H2 1782   5.121   4.050   5.646
  609TIP3   OH2 1783   7.258   2.016   5.201
  609TIP3    H1 1784   7.219   2.025   5.114
  609TIP3    H2 1785   7.258   1.922   5.217
  610TIP3   OH2 1786   6.689   6.345   5.449
  610TIP3    H1 1787   6.711   6.313   5.362
  610TIP3    H2 1788   6.595   6.331   5.458
  611TIP3   OH2 1789   2.803   2.979   5.142
  611TIP3    H1 1790   2.752   2.982   5.223
  611TIP3    H2 1791   2.802   3.069   5.110
  612TIP3   OH2 1792   4.750   1.064   3.641
  612TIP3    H1 1793   4.669   1.012   3.639
  612TIP3    H2 1794   4.815   1.005   3.679
  613TIP3   OH2 1795   0.337   2.824   6.437
  613TIP3    H1 1796   0.419   2.804   6.392
  613TIP3    H2 1797   0.270   2.779   6.385
  614TIP3   OH2 1798   3.995   0.270   0.799
  614TIP3    H1 1799   3.943   0.214   0.742
  614TIP3    H2 1800   3.989   0.357   0.760
  615TIP3   OH2 1801   0.937   0.713   5.276
  615TIP3    H1 1802   1.012   0.757   5.237
  615TIP3    H2 1803   0.864   0.772   5.260
  616TIP3   OH2 1804   7.370   6.015   0.385
  616TIP3    H1 1805   7.452   5.966   0.389
  616TIP3    H2 1806   7.398   6.106   0.376
  617TIP3   OH2 1807   6.295   0.491   2.926
  617TIP3    H1 1808   6.212   0.479   2.879
  617TIP3    H2 1809   6.270   0.539   3.005
  618TIP3   OH2 1810   4.293   1.639   4.542
  618TIP3    H1 1811   4.367   1.627   4.482
  618TIP3    H2 1812   4.221   1.593   4.499
  619TIP3   OH2 1813   8.109   5.096   1.973
  619TIP3    H1 1814   8.025   5.128   1.940
  619TIP3    H2 1815   8.133   5.026   1.912
  620TIP3   OH2 1816   1.014   7.317   5.629
  620TIP3    H1 1817   0.928   7.291   5.598
  620TIP3    H2 1818   1.038   7.391   5.573
  621TIP3   OH2 1819   7.827   7.586   5.859
  621TIP3    H1 1820   7.892   7.531   5.816
  621TIP3    H2 1821   7.781   7.527   5.918
  622TIP3   OH2 1822   2.232   6.536   4.218
  622TIP3    H1 1823   2.261   6.627   4.214
  622TIP3    H2 1824   2.285   6.491   4.152
  623TIP3   OH2 1825   0.489   4.456   5.215
  623TIP3    H1 1826   0.421   4.519   5.192
  623TIP3    H2 1827   0.549   4.505   5.271
  624TIP3   OH2 1828   4.704   5.365   0.234
  624TIP3    H1 1829   4.720   5.414   0.153
  624TIP3    H2 1830   4.636   5.415   0.279
  625TIP3   OH2 1831   2.820   6.110   2.835
  625TIP3    H1 1832   2.790   6.019   2.842
  625TIP3    H2 1833   2.830   6.125   2.741
  626TIP3   OH2 1834   2.210   3.266   5.937
  626TIP3    H1 1835   2.266   3.308   5.872
  626TIP3    H2 1836   2.127   3.312   5.930
  627TIP3   OH2 1837   6.068   1.860   0.468
  627TIP3    H1 1838   6.079   1.955   0.466
  627TIP3    H2 1839   6.017   1.840   0.389
  628TIP3   OH2 1840   3.560   6.470   4.383
  628TIP3    H1 1841   3.499   6.536   4.349
  628TIP3    H2 1842   3.601   6.513   4.458
  629TIP3   OH2 1843   0.129   3.394   0.629
  629TIP3    H1 1844   0.108   3.470   0.684
  629TIP3    H2 1845   0.213   3.363   0.663
  630TIP3   OH2 1846   5.811   5.945   6.030
  630TIP3    H1 1847   5.780   5.973   6.116
  630TIP3    H2 1848   5.886   6.002   6.012
  631TIP3   OH2 1849   4.331   0.339   1.411
  631TIP3    H1 1850   4.406   0.384   1.372
  631TIP3    H2 1851   4.264   0.406   1.420
  632TIP3   OH2 1852   3.948   3.634   3.579
  632TIP3    H1 1853   4.008   3.705   3.554
  632TIP3    H2 1854   3.868   3.679   3.604
  633TIP3   OH2 1855   3.666   7.447   1.670
  633TIP3    H1 1856   3.703   7.531   1.644
  633TIP3    H2 1857   3.586   7.470   1.718
  634TIP3   OH2 1858   7.536   5.847   3.592
  634TIP3    H1 1859   7.578   5.766   3.620
  634TIP3    H2 1860   7.586   5.875   3.515
  635TIP3   OH2 1861   3.782   2.256   0.141
  635TIP3    H1 1862   3.796   2.260   0.235
  635TIP3    H2 1863   3.821   2.173   0.114
  636TIP3   OH2 1864   1.910   6.309   1.847
  636TIP3    H1 1865   1.833   6.327   1.901
  636TIP3    H2 1866   1.955   6.237   1.892
  637TIP3   OH2 1867   5.724   2.333   5.391
  637TIP3    H1 1868   5.769   2.297   5.316
  637TIP3    H2 1869   5.644   2.280   5.399
  638TIP3   OH2 1870   1.732   7.527   0.538
  638TIP3    H1 1871   1.747   7.433   0.524
  638TIP3    H2 1872   1.810   7.569   0.502
  639TIP3   OH2 1873   5.757   0.542   2.180
  639TIP3    H1 1874   5.682   0.489   2.153
  639TIP3    H2 1875   5.832   0.500   2.138
  640TIP3   OH2 1876   3.596   5.334   5.400
  640TIP3    H1 1877   3.588   5.420   5.359
  640TIP3    H2 1878   3.616   5.353   5.492
  641TIP3   OH2 1879   7.197   2.543   5.579
  641TIP3    H1 1880   7.211   2.580   5.492
  641TIP3    H2 1881   7.187   2.619   5.637
  642TIP3   OH2 1882   6.217   2.954   2.720
  642TIP3    H1 1883   6.168   2.940   2.640
  642TIP3    H2 1884   6.238   3.048   2.719
  643TIP3   OH2 1885   7.043   4.043   1.968
  643TIP3    H1 1886   7.002   3.971   1.919
  643TIP3    H2 1887   7.128   4.008   1.995
  644TIP3   OH2 1888   6.418   2.847   5.930
  644TIP3    H1 1889   6.334   2.849   5.976
  644TIP3    H2 1890   6.395   2.834   5.838
  645TIP3   OH2 1891   3.746   5.315   6.289
  645TIP3    H1 1892   3.818   5.307   6.227
  645TIP3    H2 1893   3.705   5.228   6.289
  646TIP3   OH2 1894   6.256   0.815   1.656
  646TIP3    H1 1895   6.310   0.863   1.593
  646TIP3    H2 1896   6.289   0.725   1.651
  647TIP3   OH2 1897   4.717   0.377   1.751
  647TIP3    H1 1898   4.697   0.398   1.659
  647TIP3    H2 1899   4.747   0.286   1.749
  648TIP3   OH2 1900   0.018   6.094   6.309
  648TIP3    H1 1901   0.066   6.177   6.303
  648TIP3    H2 1902   0.005   6.066   6.219
  649TIP3   OH2 1903   3.008   3.439   1.007
  649TIP3    H1 1904   3.083   3.496   0.992
  649TIP3    H2 1905   3.036   3.353   0.975
  650TIP3   OH2 1906   0.178   7.336   1.693
  650TIP3    H1 1907   0.162   7.242   1.701
  650TIP3    H2 1908   0.107   7.368   1.638
  651TIP3   OH2 1909   5.664   4.254   4.905
  651TIP3    H1 1910   5.690   4.261   4.997
  651TIP3    H2 1911   5.743   4.223   4.860
  652TIP3   OH2 1912   4.872   5.106   3.001
  652TIP3    H1 1913   4.855   5.017   3.031
  652TIP3    H2 1914   4.793   5.155   3.022
  653TIP3   OH2 1915   2.375   3.958   4.682
  653TIP3    H1 1916   2.283   3.978   4.666
  653TIP3    H2 1917   2.376   3.926   4.773
  654TIP3   OH2 1918   3.056   7.593   3.620
  654TIP3    H1 1919   3.041   7.606   3.713
  654TIP3    H2 1920   3.034   7.678   3.580
  655TIP3   OH2 1921   7.363   1.890   2.512
  655TIP3    H1 1922   7.341   1.803   2.480
  655TIP3    H2 1923   7.447   1.878   2.556
  656TIP3   OH2 1924   3.803   1.262   6.466
  656TIP3    H1 1925   3.874   1.212   6.425
  656TIP3    H2 1926   3.762   1.201   6.527
  657TIP3   OH2 1927   4.559   5.055   3.687
  657TIP3    H1 1928   4.628   5.101   3.637
  657TIP3    H2 1929   4.584   4.963   3.681
  658TIP3   OH2 1930   1.337   2.049   3.216
  658TIP3    H1 1931   1.372   2.109   3.282
  658TIP3    H2 1932   1.311   2.106   3.143
  659TIP3   OH2 1933   6.034   3.963   0.669
  659TIP3    H1 1934   5.972   4.036   0.671
  659TIP3    H2 1935   5.996   3.900   0.608
  660TIP3   OH2 1936   6.872   6.624   5.408
  660TIP3    H1 1937   6.831   6.635   5.494
  660TIP3    H2 1938   6.802   6.647   5.346
  661TIP3   OH2 1939   0.664   6.445   2.444
  661TIP3    H1 1940   0.683   6.526   2.491
  661TIP3    H2 1941   0.643   6.382   2.512
  662TIP3   OH2 1942   3.421   6.722   5.268
  662TIP3    H1 1943   3.427   6.772   5.350
  662TIP3    H2 1944   3.328   6.722   5.246
  663TIP3   OH2 1945   0.686   6.860   5.665
  663TIP3    H1 1946   0.752   6.819   5.610
  663TIP3    H2 1947   0.707   6.954   5.664
  664TIP3   OH2 1948   2.228   2.625   2.761
  664TIP3    H1 1949   2.309   2.603   2.807
  664TIP3    H2 1950   2.171   2.550   2.776
  665TIP3   OH2 1951   3.291   0.067   2.865
  665TIP3    H1 1952   3.244   0.081   2.948
  665TIP3    H2 1953   3.382   0.055   2.892
  666TIP3   OH2 1954   2.490   3.994   0.258
  666TIP3    H1 1955   2.517   4.071   0.307
  666TIP3    H2 1956   2.449   4.028   0.179
  667TIP3   OH2 1957   0.227   4.782   6.548
  667TIP3    H1 1958   0.228   4.875   6.526
  667TIP3    H2 1959   0.292   4.743   6.490
  668TIP3   OH2 1960   0.741   4.351   0.588
  668TIP3    H1 1961   0.752   4.415   0.659
  668TIP3    H2 1962   0.818   4.364   0.532
  669TIP3   OH2 1963   7.778   5.869   5.154
  669TIP3    H1 1964   7.862   5.833   5.181
  669TIP3    H2 1965   7.800   5.937   5.091
  670TIP3   OH2 1966   0.109   0.169   1.302
  670TIP3    H1 1967   0.081   0.090   1.256
  670TIP3    H2 1968   0.070   0.161   1.389
  671TIP3   OH2 1969   0.149   0.098   2.376
  671TIP3    H1 1970   0.153   0.100   2.472
  671TIP3    H2 1971   0.165   0.007   2.353
  672TIP3   OH2 1972   4.414   3.151   3.532
  672TIP3    H1 1973   4.376   3.124   3.615
  672TIP3    H2 1974   4.345   3.202   3.489
  673TIP3   OH2 1975   3.025   7.642   0.963
  673TIP3    H1 1976   3.024   7.611   0.873
  673TIP3    H2 1977   3.009   7.564   1.016
  674TIP3   OH2 1978   2.402   2.041   6.244
  674TIP3    H1 1979   2.343   1.967   6.229
  674TIP3    H2 1980   2.369   2.081   6.325
  675TIP3   OH2 1981   4.777   2.093   5.819
  675TIP3    H1 1982   4.856   2.140   5.848
  675TIP3    H2 1983   4.787   2.006   5.856
  676TIP3   OH2 1984   5.777   3.939   4.796
  676TIP3    H1 1985   5.871   3.922   4.785
  676TIP3    H2 1986   5.754   3.999   4.726
  677TIP3   OH2 1987   3.912   5.836   4.224
  677TIP3    H1 1988   3.847   5.783   4.178
  677TIP3    H2 1989   3.873   5.924   4.228
  678TIP3   OH2 1990   2.083   2.051   0.351
  678TIP3    H1 1991   2.023   1.990   0.394
  678TIP3    H2 1992   2.170   2.021   0.378
  679TIP3   OH2 1993   1.669   6.747   3.890
  679TIP3    H1 1994   1.710   6.711   3.811
  679TIP3    H2 1995   1.614   6.675   3.923
  680TIP3   OH2 1996   3.099   7.223   0.016
  680TIP3    H1 1997   3.051   7.159  -0.037
  680TIP3    H2 1998   3.186   7.226  -0.024
  681TIP3   OH2 1999   5.279   6.295   4.656
  681TIP3    H1 2000   5.294   6.218   4.710
  681TIP3    H2 2001   5.288   6.369   4.716
  682TIP3   OH2 2002   3.315   7.329   2.946
  682TIP3    H1 2003   3.365   7.408   2.967
  682TIP3    H2 2004   3.229   7.344   2.987
  683TIP3   OH2 2005   5.515   2.506   5.325
  683TIP3    H1 2006   5.609   2.490   5.323
  683TIP3    H2 2007   5.506   2.594   5.363
  684TIP3   OH2 2008   6.661   0.386   3.934
  684TIP3    H1 2009   6.754   0.372   3.951
  684TIP3    H2 2010   6.617   0.317   3.984
  685TIP3   OH2 2011   6.940   4.565   0.531
  685TIP3    H1 2012   6.877   4.611   0.475
  685TIP3    H2 2013   7.007   4.534   0.470
  686TIP3   OH2 2014   6.099   4.067   3.089
  686TIP3    H1 2015   6.015   4.112   3.091
  686TIP3    H2 2016   6.127   4.064   3.180
  687TIP3   OH2 2017   2.065   6.940   0.144
  687TIP3    H1 2018   2.044   6.934   0.238
  687TIP3    H2 2019   2.084   7.032   0.130
  688TIP3   OH2 2020   3.662   4.313   6.187
  688TIP3    H1 2021   3.657   4.257   6.264
  688TIP3    H2 2022   3.588   4.284   6.132
  689TIP3   OH2 2023   7.040   5.123   3.258
  689TIP3    H1 2024   7.064   5.216   3.260
  689TIP3    H2 2025   6.960   5.121   3.206
  690TIP3   OH2 2026   6.689   4.948   4.307
  690TIP3    H1 2027   6.691   4.870   4.252
  690TIP3    H2 2028   6.737   5.014   4.257
  691TIP3   OH2 2029   1.733   6.184   2.603
  691TIP3    H1 2030   1.699   6.098   2.628
  691TIP3    H2 2031   1.750   6.177   2.510
  692TIP3   OH2 2032   3.453   7.006   6.002
  692TIP3    H1 2033   3.404   7.084   6.027
  692TIP3    H2 2034   3.543   7.036   5.993
  693TIP3   OH2 2035   4.709   1.084   1.118
  693TIP3    H1 2036   4.776   1.029   1.158
  693TIP3    H2 2037   4.631   1.069   1.171
  694TIP3   OH2 2038   2.173   4.892   3.934
  694TIP3    H1 2039   2.205   4.893   3.844
  694TIP3    H2 2040   2.206   4.810   3.971
  695TIP3   OH2 2041   3.322   0.873   3.998
  695TIP3    H1 2042   3.337   0.813   3.925
  695TIP3    H2 2043   3.405   0.919   4.009
  696TIP3   OH2 2044   2.373   5.176   2.951
  696TIP3    H1 2045   2.349   5.102   2.896
  696TIP3    H2 2046   2.318   5.167   3.029
  697TIP3   OH2 2047   2.782   1.262   3.238
  697TIP3    H1 2048   2.733   1.203   3.296
  697TIP3    H2 2049   2.716   1.303   3.183
  698TIP3   OH2 2050   5.187   1.140   5.783
  698TIP3    H1 2051   5.217   1.230   5.774
  698TIP3    H2 2052   5.259   1.094   5.827
  699TIP3   OH2 2053   6.194   7.134   3.531
  699TIP3    H1 2054   6.246   7.146   3.610
  699TIP3    H2 2055   6.145   7.053   3.546
  700TIP3   OH2 2056   4.549   0.466   1.289
  700TIP3    H1 2057   4.599   0.398   1.244
  700TIP3    H2 2058   4.482   0.493   1.226
  701TIP3   OH2 2059   2.805   3.329   0.869
  701TIP3    H1 2060   2.763   3.386   0.804
  701TIP3    H2 2061   2.859   3.388   0.922
  702TIP3   OH2 2062   6.476   2.141   6.253
  702TIP3    H1 2063   6.457   2.211   6.189
  702TIP3    H2 2064   6.571   2.141   6.260
  703TIP3   OH2 2065   0.762   0.975   5.723
  703TIP3    H1 2066   0.675   1.005   5.696
  703TIP3    H2 2067   0.793   0.921   5.651
  704TIP3   OH2 2068   4.187   4.181   4.356
  704TIP3    H1 2069   4.262   4.154   4.409
  704TIP3    H2 2070   4.178   4.275   4.373
  705TIP3   OH2 2071   3.475   3.707   1.929
  705TIP3    H1 2072   3.503   3.796   1.909
  705TIP3    H2 2073   3.379   3.712   1.929
  706TIP3   OH2 2074   3.799   1.714   6.464
  706TIP3    H1 2075   3.867   1.647   6.471
  706TIP3    H2 2076   3.722   1.667   6.432
  707TIP3   OH2 2077   8.327   0.710   1.275
  707TIP3    H1 2078   8.266   0.726   1.204
  707TIP3    H2 2079   8.305   0.622   1.307
  708TIP3   OH2 2080   7.824   2.353   5.519
  708TIP3    H1 2081   7.754   2.288   5.524
  708TIP3    H2 2082   7.903   2.302   5.501
  709TIP3   OH2 2083   3.130   2.723   4.247
  709TIP3    H1 2084   3.106   2.640   4.206
  709TIP3    H2 2085   3.047   2.767   4.263
  710TIP3   OH2 2086   6.124   0.935   3.601
  710TIP3    H1 2087   6.172   0.984   3.668
  710TIP3    H2 2088   6.177   0.942   3.523
  711TIP3   OH2 2089   3.320   7.712   0.727
  711TIP3    H1 2090   3.318   7.696   0.633
  711TIP3    H2 2091   3.331   7.807   0.734
  712TIP3   OH2 2092   5.976   5.765   6.200
  712TIP3    H1 2093   5.936   5.837   6.151
  712TIP3    H2 2094   5.937   5.686   6.162
  713TIP3   OH2 2095   1.259   1.744   0.747
  713TIP3    H1 2096   1.271   1.674   0.682
  713TIP3    H2 2097   1.329   1.807   0.728
  714TIP3   OH2 2098   4.781   0.706   5.195
  714TIP3    H1 2099   4.701   0.654   5.187
  714TIP3    H2 2100   4.818   0.708   5.107
  715TIP3   OH2 2101   0.859   7.036   4.443
  715TIP3    H1 2102   0.850   7.037   4.538
  715TIP3    H2 2103   0.953   7.023   4.428
  716TIP3   OH2 2104   0.207   5.201   1.018
  716TIP3    H1 2105   0.286   5.152   1.039
  716TIP3    H2 2106   0.176   5.164   0.935
  717TIP3   OH2 2107   5.805   3.791   5.883
  717TIP3    H1 2108   5.890   3.774   5.841
  717TIP3    H2 2109   5.804   3.732   5.959
  718TIP3   OH2 2110   4.547   2.696   2.946
  718TIP3    H1 2111   4.512   2.759   2.882
  718TIP3    H2 2112   4.565   2.748   3.024
  719TIP3   OH2 2113   2.286   5.510   2.347
  719TIP3    H1 2114   2.226   5.546   2.282
  719TIP3    H2 2115   2.247   5.534   2.432
  720TIP3   OH2 2116   3.364   5.902   1.700
  720TIP3    H1 2117   3.446   5.855   1.687
  720TIP3    H2 2118   3.337   5.928   1.612
  721TIP3   OH2 2119   1.346   6.991   4.923
  721TIP3    H1 2120   1.259   6.986   4.886
  721TIP3    H2 2121   1.404   7.007   4.848
  722TIP3   OH2 2122   0.514   5.767   5.524
  722TIP3    H1 2123   0.606   5.786   5.542
  722TIP3    H2 2124   0.505   5.673   5.543
  723TIP3   OH2 2125   1.002   3.053   6.356
  723TIP3    H1 2126   0.921   3.065   6.307
  723TIP3    H2 2127   0.979   2.990   6.424
  724TIP3   OH2 2128   1.069   1.606   1.621
  724TIP3    H1 2129   0.976   1.587   1.638
  724TIP3    H2 2130   1.094   1.666   1.691
  725TIP3   OH2 2131   1.128   1.692   6.628
  725TIP3    H1 2132   1.202   1.666   6.573
  725TIP3    H2 2133   1.163   1.695   6.717
  726TIP3   OH2 2134   1.508   3.393   2.537
  726TIP3    H1 2135   1.471   3.306   2.548
  726TIP3    H2 2136   1.512   3.429   2.626
  727TIP3   OH2 2137   1.881   6.396   4.812
  727TIP3    H1 2138   1.904   6.432   4.898
  727TIP3    H2 2139   1.961   6.356   4.780
  728TIP3   OH2 2140   5.867   7.773   6.118
  728TIP3    H1 2141   5.924   7.717   6.171
  728TIP3    H2 2142   5.917   7.789   6.038
  729TIP3   OH2 2143   6.793   3.301   4.849
  729TIP3    H1 2144   6.873   3.354   4.843
  729TIP3    H2 2145   6.754   3.306   4.761
  730TIP3   OH2 2146   6.961   2.378   5.540
  730TIP3    H1 2147   7.034   2.440   5.537
  730TIP3    H2 2148   6.901   2.409   5.472
  731TIP3   OH2 2149   7.149   2.281   5.272
  731TIP3    H1 2150   7.163   2.208   5.210
  731TIP3    H2 2151   7.108   2.240   5.348
  732TIP3   OH2 2152   2.894   7.693   1.335
  732TIP3    H1 2153   2.806   7.731   1.338
  732TIP3    H2 2154   2.951   7.761   1.372
  733TIP3   OH2 2155   0.650   1.706   3.510
  733TIP3    H1 2156   0.555   1.714   3.504
  733TIP3    H2 2157   0.672   1.632   3.454
  734TIP3   OH2 2158   3.592   5.746   1.982
  734TIP3    H1 2159   3.527   5.684   1.950
  734TIP3    H2 2160   3.664   5.741   1.919
  735TIP3   OH2 2161   3.675   4.189   4.283
  735TIP3    H1 2162   3.664   4.279   4.315
  735TIP3    H2 2163   3.763   4.165   4.310
  736TIP3   OH2 2164   1.669   7.220   2.988
  736TIP3    H1 2165   1.599   7.268   2.943
  736TIP3    H2 2166   1.724   7.186   2.918
  737TIP3   OH2 2167   6.826   0.110   3.804
  737TIP3    H1 2168   6.849   0.018   3.792
  737TIP3    H2 2169   6.889   0.142   3.869
  738TIP3   OH2 2170   2.476   6.794   1.653
  738TIP3    H1 2171   2.535   6.719   1.644
  738TIP3    H2 2172   2.413   6.784   1.581
  739TIP3   OH2 2173   4.638   5.126   2.485
  739TIP3    H1 2174   4.654   5.049   2.430
  739TIP3    H2 2175   4.680   5.106   2.569
  740TIP3   OH2 2176   4.963   6.052   0.543
  740TIP3    H1 2177   4.954   5.985   0.610
  740TIP3    H2 2178   5.020   6.013   0.476
  741TIP3   OH2 2179   3.763   3.389   1.664
  741TIP3    H1 2180   3.832   3.452   1.644
  741TIP3    H2 2181   3.722   3.423   1.744
  742TIP3   OH2 2182   3.159   4.364   4.697
  742TIP3    H1 2183   3.167   4.389   4.605
  742TIP3    H2 2184   3.138   4.271   4.695
  743TIP3   OH2 2185   7.876   7.254   6.561
  743TIP3    H1 2186   7.863   7.249   6.467
  743TIP3    H2 2187   7.902   7.344   6.578
  744TIP3   OH2 2188   1.945   6.912   6.336
  744TIP3    H1 2189   1.977   6.860   6.410
  744TIP3    H2 2190   1.905   6.989   6.377
  745TIP3   OH2 2191   2.354   1.116   0.098
  745TIP3    H1 2192   2.381   1.027   0.073
  745TIP3    H2 2193   2.259   1.116   0.087
  746TIP3   OH2 2194   5.210   4.971   2.982
  746TIP3    H1 2195   5.162   4.941   2.904
  746TIP3    H2 2196   5.217   4.893   3.037
  747TIP3   OH2 2197   1.514   4.054   4.423
  747TIP3    H1 2198   1.529   4.084   4.513
  747TIP3    H2 2199   1.479   3.966   4.433
  748TIP3   OH2 2200   6.441   0.170   5.421
  748TIP3    H1 2201   6.374   0.231   5.393
  748TIP3    H2 2202   6.463   0.196   5.510
  749TIP3   OH2 2203   3.894   5.258   4.067
  749TIP3    H1 2204   3.894   5.283   4.159
  749TIP3    H2 2205   3.969   5.200   4.057
  750TIP3   OH2 2206   1.347   3.629   1.759
  750TIP3    H1 2207   1.279   3.565   1.778
  750TIP3    H2 2208   1.299   3.711   1.744
  751TIP3   OH2 2209   1.164   7.580   0.534
  751TIP3    H1 2210   1.256   7.553   0.524
  751TIP3    H2 2211   1.165   7.674   0.512
  752TIP3   OH2 2212   3.236   6.255   2.031
  752TIP3    H1 2213   3.193   6.170   2.037
  752TIP3    H2 2214   3.212   6.289   1.945
  753TIP3   OH2 2215   3.083   1.738   0.796
  753TIP3    H1 2216   3.013   1.750   0.732
  753TIP3    H2 2217   3.137   1.817   0.786
  754TIP3   OH2 2218   3.105   6.442   1.780
  754TIP3    H1 2219   3.152   6.508   1.832
  754TIP3    H2 2220   3.013   6.453   1.805
  755TIP3   OH2 2221   5.323   4.127   1.300
  755TIP3    H1 2222   5.376   4.089   1.370
  755TIP3    H2 2223   5.258   4.181   1.345
  756TIP3   OH2 2224   7.406   5.023   3.914
  756TIP3    H1 2225   7.490   4.984   3.888
  756TIP3    H2 2226   7.396   5.098   3.855
  757TIP3   OH2 2227   6.573   1.774   3.390
  757TIP3    H1 2228   6.544   1.696   3.438
  757TIP3    H2 2229   6.641   1.741   3.331
  758TIP3   OH2 2230   2.843   0.545   5.670
  758TIP3    H1 2231   2.860   0.631   5.631
  758TIP3    H2 2232   2.823   0.488   5.596
  759TIP3   OH2 2233   2.059   4.754   0.223
  759TIP3    H1 2234   2.054   4.771   0.128
  759TIP3    H2 2235   2.152   4.739   0.240
  760TIP3   OH2 2236   7.220   1.928   4.945
  760TIP3    H1 2237   7.167   1.908   4.868
  760TIP3    H2 2238   7.292   1.981   4.911
  761TIP3   OH2 2239   7.955   1.794   1.958
  761TIP3    H1 2240   7.975   1.887   1.950
  761TIP3    H2 2241   7.962   1.760   1.869
  762TIP3   OH2 2242   7.466   0.672   3.213
  762TIP3    H1 2243   7.480   0.641   3.302
  762TIP3    H2 2244   7.483   0.596   3.158
  763TIP3   OH2 2245   3.502   0.084   3.308
  763TIP3    H1 2246   3.447   0.103   3.385
  763TIP3    H2 2247   3.462   0.006   3.270
  764TIP3   OH2 2248   1.741   0.146   4.032
  764TIP3    H1 2249   1.828   0.167   3.997
  764TIP3    H2 2250   1.752   0.061   4.075
  765TIP3   OH2 2251   4.925   1.279   1.026
  765TIP3    H1 2252   4.849   1.257   0.971
  765TIP3    H2 2253   4.962   1.195   1.051
  766TIP3   OH2 2254   3.243   6.152   0.427
  766TIP3    H1 2255   3.163   6.101   0.411
  766TIP3    H2 2256   3.269   6.130   0.516
  767TIP3   OH2 2257   2.078   2.681   2.066
  767TIP3    H1 2258   2.170   2.655   2.055
  767TIP3    H2 2259   2.082   2.760   2.120
  768TIP3   OH2 2260   3.024   1.741   1.185
  768TIP3    H1 2261   3.039   1.646   1.181
  768TIP3    H2 2262   3.101   1.775   1.230
  769TIP3   OH2 2263   5.093   2.208   0.423
  769TIP3    H1 2264   5.127   2.213   0.334
  769TIP3    H2 2265   5.077   2.115   0.437
  770TIP3   OH2 2266   8.056   5.364   2.133
  770TIP3    H1 2267   8.121   5.434   2.124
  770TIP3    H2 2268   8.088   5.294   2.077
  771TIP3   OH2 2269   1.250   2.378   3.055
  771TIP3    H1 2270   1.189   2.310   3.028
  771TIP3    H2 2271   1.196   2.441   3.102
  772TIP3   OH2 2272   1.558   6.823   1.311
  772TIP3    H1 2273   1.543   6.732   1.335
  772TIP3    H2 2274   1.474   6.852   1.274
  773TIP3   OH2 2275   7.911   7.743   4.829
  773TIP3    H1 2276   7.847   7.704   4.888
  773TIP3    H2 2277   7.950   7.668   4.784
  774TIP3   OH2 2278   3.205   0.514   0.854
  774TIP3    H1 2279   3.281   0.554   0.812
  774TIP3    H2 2280   3.131   0.569   0.828
  775TIP3   OH2 2281   3.075   4.905   2.653
  775TIP3    H1 2282   3.120   4.973   2.604
  775TIP3    H2 2283   3.004   4.951   2.698
  776TIP3   OH2 2284   7.474   2.933   4.160
  776TIP3    H1 2285   7.557   2.912   4.117
  776TIP3    H2 2286   7.499   2.975   4.242
  777TIP3   OH2 2287   0.997   4.588   2.056
  777TIP3    H1 2288   0.959   4.657   2.110
  777TIP3    H2 2289   0.947   4.510   2.079
  778TIP3   OH2 2290   3.245   4.860   2.285
  778TIP3    H1 2291   3.228   4.954   2.282
  778TIP3    H2 2292   3.326   4.852   2.334
  779TIP3   OH2 2293   5.345   2.152   1.571
  779TIP3    H1 2294   5.297   2.118   1.495
  779TIP3    H2 2295   5.429   2.108   1.567
  780TIP3   OH2 2296   6.381   6.325   4.712
  780TIP3    H1 2297   6.339   6.308   4.628
  780TIP3    H2 2298   6.403   6.238   4.746
  781TIP3   OH2 2299   0.336   1.430   1.474
  781TIP3    H1 2300   0.248   1.462   1.453
  781TIP3    H2 2301   0.325   1.335   1.484
  782TIP3   OH2 2302   2.173   3.070   2.040
  782TIP3    H1 2303   2.128   3.142   1.996
  782TIP3    H2 2304   2.248   3.112   2.083
  783TIP3   OH2 2305   1.360   2.142   2.277
  783TIP3    H1 2306   1.419   2.217   2.286
  783TIP3    H2 2307   1.385   2.102   2.193
  784TIP3   OH2 2308   2.261   3.014   2.780
  784TIP3    H1 2309   2.319   3.085   2.753
  784TIP3    H2 2310   2.173   3.042   2.753
  785TIP3   OH2 2311   1.424   5.246   3.475
  785TIP3    H1 2312   1.383   5.164   3.447
  785TIP3    H2 2313   1.449   5.289   3.394
  786TIP3   OH2 2314   1.053   6.083   3.216
  786TIP3    H1 2315   0.990   6.012   3.227
  786TIP3    H2 2316   1.138   6.043   3.230
  787TIP3   OH2 2317   4.131   2.417   0.382
  787TIP3    H1 2318   4.216   2.452   0.409
  787TIP3    H2 2319   4.098   2.482   0.319
  788TIP3   OH2 2320   6.055   3.660   5.242
  788TIP3    H1 2321   6.126   3.676   5.180
  788TIP3    H2 2322   6.007   3.586   5.206
  789TIP3   OH2 2323   1.071   2.691   1.701
  789TIP3    H1 2324   0.993   2.731   1.739
  789TIP3    H2 2325   1.080   2.734   1.616
  790TIP3   OH2 2326   6.911   7.682   5.215
  790TIP3    H1 2327   6.824   7.640   5.214
  790TIP3    H2 2328   6.937   7.680   5.307
  791TIP3   OH2 2329   8.140   3.300   4.219
  791TIP3    H1 2330   8.203   3.278   4.287
  791TIP3    H2 2331   8.094   3.218   4.201
  792TIP3   OH2 2332   1.595   4.565   2.654
  792TIP3    H1 2333   1.561   4.565   2.564
  792TIP3    H2 2334   1.545   4.496   2.697
  793TIP3   OH2 2335   2.096   6.533   3.718
  793TIP3    H1 2336   2.171   6.549   3.775
  793TIP3    H2 2337   2.086   6.614   3.668
  794TIP3   OH2 2338   6.448   2.579   2.606
  794TIP3    H1 2339   6.460   2.674   2.616
  794TIP3    H2 2340   6.531   2.541   2.636
  795TIP3   OH2 2341   6.294   5.195   0.342
  795TIP3    H1 2342   6.300   5.158   0.430
  795TIP3    H2 2343   6.254   5.125   0.290
  796TIP3   OH2 2344   4.973   5.667   0.192
  796TIP3    H1 2345   4.926   5.679   0.275
  796TIP3    H2 2346   4.908   5.689   0.125
  797TIP3   OH2 2347   4.607   5.540   5.796
  797TIP3    H1 2348   4.653   5.582   5.869
  797TIP3    H2 2349   4.652   5.456   5.785
  798TIP3   OH2 2350   4.682   0.601   5.919
  798TIP3    H1 2351   4.709   0.509   5.916
  798TIP3    H2 2352   4.612   0.607   5.853
  799TIP3   OH2 2353   0.029   2.451   0.794
  799TIP3    H1 2354   0.110   2.436   0.744
  799TIP3    H2 2355   0.050   2.525   0.851
  800TIP3   OH2 2356   1.477   1.693   5.512
  800TIP3    H1 2357   1.385   1.715   5.498
  800TIP3    H2 2358   1.483   1.601   5.489
  801TIP3   OH2 2359   4.244   3.311   3.365
  801TIP3    H1 2360   4.185   3.263   3.424
  801TIP3    H2 2361   4.207   3.399   3.361
  802TIP3   OH2 2362   8.053   1.219   0.468
  802TIP3    H1 2363   8.121   1.245   0.530
  802TIP3    H2 2364   7.997   1.296   0.460
  803TIP3   OH2 2365   0.029   7.197   6.309
  803TIP3    H1 2366   0.031   7.174   6.402
  803TIP3    H2 2367  -0.021   7.126   6.268
  804TIP3   OH2 2368   3.153   6.651   0.800
  804TIP3    H1 2369   3.083   6.699   0.756
  804TIP3    H2 2370   3.109   6.608   0.874
  805TIP3   OH2 2371   3.012   4.408   2.981
  805TIP3    H1 2372   3.011   4.457   3.064
  805TIP3    H2 2373   3.090   4.441   2.936
  806TIP3   OH2 2374   2.374   4.417   0.258
  806TIP3    H1 2375   2.373   4.434   0.164
  806TIP3    H2 2376   2.317   4.340   0.269
  807TIP3   OH2 2377   4.651   5.584   2.719
  807TIP3    H1 2378   4.635   5.592   2.625
  807TIP3    H2 2379   4.727   5.526   2.726
  808TIP3   OH2 2380   5.566   4.200   4.248
  808TIP3    H1 2381   5.598   4.276   4.297
  808TIP3    H2 2382   5.615   4.126   4.283
  809TIP3   OH2 2383   8.019   5.600   4.605
  809TIP3    H1 2384   8.080   5.543   4.653
  809TIP3    H2 2385   8.003   5.674   4.664
  810TIP3   OH2 2386   0.632   7.242   1.012
  810TIP3    H1 2387   0.622   7.152   1.041
  810TIP3    H2 2388   0.543   7.272   0.994
  811TIP3   OH2 2389   6.980   1.032   4.409
  811TIP3    H1 2390   6.918   1.023   4.481
  811TIP3    H2 2391   6.950   0.971   4.342
  812TIP3   OH2 2392   3.919   0.092   3.888
  812TIP3    H1 2393   4.001   0.066   3.848
  812TIP3    H2 2394   3.852   0.066   3.825
  813TIP3   OH2 2395   0.525   4.723   5.569
  813TIP3    H1 2396   0.437   4.720   5.532
  813TIP3    H2 2397   0.579   4.671   5.509
  814TIP3   OH2 2398   3.954   0.310   4.784
  814TIP3    H1 2399   4.022   0.374   4.802
  814TIP3    H2 2400   3.940   0.265   4.867
  815TIP3   OH2 2401   3.620   1.709   1.338
  815TIP3    H1 2402   3.670   1.763   1.276
  815TIP3    H2 2403   3.588   1.771   1.403
  816TIP3   OH2 2404   4.038   5.479   2.242
  816TIP3    H1 2405   4.089   5.559   2.229
  816TIP3    H2 2406   4.045   5.432   2.158
  817TIP3   OH2 2407   5.760   4.715   5.361
  817TIP3    H1 2408   5.841   4.676   5.327
  817TIP3    H2 2409   5.690   4.675   5.308
  818TIP3   OH2 2410   2.276   4.193   0.418
  818TIP3    H1 2411   2.294   4.102   0.442
  818TIP3    H2 2412   2.317   4.244   0.487
  819TIP3   OH2 2413   2.433   6.421   4.046
  819TIP3    H1 2414   2.510   6.408   4.102
  819TIP3    H2 2415   2.452   6.370   3.968
  820TIP3   OH2 2416   7.232   5.620   1.070
  820TIP3    H1 2417   7.163   5.656   1.125
  820TIP3    H2 2418   7.198   5.629   0.981
  821TIP3   OH2 2419   5.322   4.884   4.950
  821TIP3    H1 2420   5.325   4.790   4.934
  821TIP3    H2 2421   5.231   4.908   4.937
  822TIP3   OH2 2422   5.341   2.059   1.021
  822TIP3    H1 2423   5.318   1.981   1.071
  822TIP3    H2 2424   5.315   2.038   0.931
  823TIP3   OH2 2425   0.948   3.690   2.729
  823TIP3    H1 2426   1.037   3.673   2.699
  823TIP3    H2 2427   0.948   3.665   2.822
  824TIP3   OH2 2428   0.420   3.101   1.803
  824TIP3    H1 2429   0.511   3.125   1.785
  824TIP3    H2 2430   0.422   3.006   1.815
  825TIP3   OH2 2431   6.973   1.571   5.577
  825TIP3    H1 2432   7.012   1.574   5.490
  825TIP3    H2 2433   6.992   1.657   5.615
  826TIP3   OH2 2434   0.126   6.196   1.343
  826TIP3    H1 2435   0.134   6.144   1.263
  826TIP3    H2 2436   0.190   6.157   1.403
  827TIP3   OH2 2437   3.029   0.885   1.442
  827TIP3    H1 2438   2.998   0.906   1.354
  827TIP3    H2 2439   2.975   0.811   1.469
  828TIP3   OH2 2440   4.062   4.053   3.689
  828TIP3    H1 2441   4.077   4.028   3.780
  828TIP3    H2 2442   3.975   4.016   3.669
  829TIP3   OH2 2443   3.126   0.050   4.707
  829TIP3    H1 2444   3.156  -0.019   4.766
  829TIP3    H2 2445   3.048   0.085   4.749
  830TIP3   OH2 2446   3.780   2.156   3.023
  830TIP3    H1 2447   3.710   2.091   3.026
  830TIP3    H2 2448   3.849   2.120   3.079
  831TIP3   OH2 2449   7.283   7.298   2.608
  831TIP3    H1 2450   7.282   7.392   2.628
  831TIP3    H2 2451   7.354   7.288   2.544
  832TIP3   OH2 2452   0.256   3.302   2.688
  832TIP3    H1 2453   0.169   3.338   2.706
  832TIP3    H2 2454   0.264   3.304   2.592
  833TIP3   OH2 2455   2.797   6.890   6.207
  833TIP3    H1 2456   2.732   6.955   6.231
  833TIP3    H2 2457   2.776   6.867   6.116
  834TIP3   OH2 2458   5.417   3.984   3.462
  834TIP3    H1 2459   5.434   3.898   3.502
  834TIP3    H2 2460   5.454   4.047   3.523
  835TIP3   OH2 2461   2.511   6.927  -0.016
  835TIP3    H1 2462   2.492   6.865   0.055
  835TIP3    H2 2463   2.537   7.008   0.028
  836TIP3   OH2 2464   8.110   0.036   3.123
  836TIP3    H1 2465   8.160  -0.032   3.078
  836TIP3    H2 2466   8.056   0.076   3.055
  837TIP3   OH2 2467   4.204   4.208   6.527
  837TIP3    H1 2468   4.112   4.188   6.510
  837TIP3    H2 2469   4.235   4.137   6.582
  838TIP3   OH2 2470   0.074   5.077   3.064
  838TIP3    H1 2471   0.063   5.028   2.983
  838TIP3    H2 2472  -0.007   5.128   3.073
  839TIP3   OH2 2473   5.445   4.639   5.581
  839TIP3    H1 2474   5.431   4.674   5.492
  839TIP3    H2 2475   5.359   4.607   5.608
  840TIP3   OH2 2476   4.794   1.235   4.145
  840TIP3    H1 2477   4.740   1.260   4.069
  840TIP3    H2 2478   4.814   1.143   4.130
  841TIP3   OH2 2479   5.049   2.180   2.784
  841TIP3    H1 2480   5.005   2.110   2.833
  841TIP3    H2 2481   5.086   2.236   2.851
  842TIP3   OH2 2482   2.500   5.368   2.090
  842TIP3    H1 2483   2.409   5.346   2.108
  842TIP3    H2 2484   2.496   5.436   2.023
  843TIP3   OH2 2485   2.562   4.930   5.538
  843TIP3    H1 2486   2.486   4.918   5.595
  843TIP3    H2 2487   2.542   5.009   5.488
  844TIP3   OH2 2488   7.177   2.577   3.773
  844TIP3    H1 2489   7.135   2.534   3.698
  844TIP3    H2 2490   7.137   2.663   3.778
  845TIP3   OH2 2491   2.666   6.285   6.424
  845TIP3    H1 2492   2.587   6.311   6.470
  845TIP3    H2 2493   2.737   6.312   6.482
  846TIP3   OH2 2494   0.631   4.296   6.064
  846TIP3    H1 2495   0.692   4.339   6.124
  846TIP3    H2 2496   0.628   4.353   5.987
  847TIP3   OH2 2497   1.817   5.861   4.564
  847TIP3    H1 2498   1.802   5.795   4.496
  847TIP3    H2 2499   1.832   5.942   4.515
  848TIP3   OH2 2500   1.799   6.675   6.260
  848TIP3    H1 2501   1.818   6.757   6.306
  848TIP3    H2 2502   1.755   6.702   6.179
  849TIP3   OH2 2503   4.910   1.267   2.422
  849TIP3    H1 2504   4.966   1.197   2.454
  849TIP3    H2 2505   4.837   1.269   2.484
  850TIP3   OH2 2506   6.216   4.081   1.111
  850TIP3    H1 2507   6.256   4.114   1.191
  850TIP3    H2 2508   6.153   4.149   1.086
  851TIP3   OH2 2509   4.445   2.309   3.344
  851TIP3    H1 2510   4.373   2.342   3.291
  851TIP3    H2 2511   4.420   2.329   3.434
  852TIP3   OH2 2512   0.659   4.532   6.529
  852TIP3    H1 2513   0.575   4.539   6.575
  852TIP3    H2 2514   0.710   4.470   6.582
  853TIP3   OH2 2515   8.221   2.862   3.526
  853TIP3    H1 2516   8.244   2.907   3.444
  853TIP3    H2 2517   8.243   2.925   3.594
  854TIP3   OH2 2518   8.265   7.861   1.555
  854TIP3    H1 2519   8.259   7.869   1.650
  854TIP3    H2 2520   8.327   7.789   1.541
  855TIP3   OH2 2521   7.598   3.645   3.150
  855TIP3    H1 2522   7.683   3.601   3.148
  855TIP3    H2 2523   7.536   3.577   3.177
  856TIP3   OH2 2524   3.177   6.226   4.335
  856TIP3    H1 2525   3.217   6.229   4.422
  856TIP3    H2 2526   3.129   6.144   4.334
  857TIP3   OH2 2527   5.057   7.614   5.632
  857TIP3    H1 2528   5.140   7.597   5.676
  857TIP3    H2 2529   4.997   7.640   5.703
  858TIP3   OH2 2530   6.158   0.642   3.173
  858TIP3    H1 2531   6.153   0.581   3.246
  858TIP3    H2 2532   6.109   0.719   3.203
  859TIP3   OH2 2533   4.061   6.441   6.214
  859TIP3    H1 2534   4.045   6.500   6.287
  859TIP3    H2 2535   4.088   6.499   6.142
  860TIP3   OH2 2536   3.659   5.018   5.967
  860TIP3    H1 2537   3.601   5.095   5.960
  860TIP3    H2 2538   3.657   4.995   6.060
  861TIP3   OH2 2539   6.305   1.358   0.153
  861TIP3    H1 2540   6.226   1.410   0.138
  861TIP3    H2 2541   6.305   1.343   0.248
  862TIP3   OH2 2542   2.114   0.788   5.062
  862TIP3    H1 2543   2.191   0.845   5.060
  862TIP3    H2 2544   2.075   0.798   4.975
  863TIP3   OH2 2545   6.776   5.405   2.167
  863TIP3    H1 2546   6.801   5.315   2.188
  863TIP3    H2 2547   6.852   5.458   2.190
  864TIP3   OH2 2548   7.949   4.627   0.337
  864TIP3    H1 2549   8.039   4.611   0.307
  864TIP3    H2 2550   7.960   4.683   0.414
  865TIP3   OH2 2551   1.163   3.064   0.604
  865TIP3    H1 2552   1.143   3.157   0.606
  865TIP3    H2 2553   1.129   3.030   0.687
  866TIP3   OH2 2554   6.393   5.265   4.389
  866TIP3    H1 2555   6.433   5.216   4.461
  866TIP3    H2 2556   6.316   5.305   4.427
  867TIP3   OH2 2557   7.223   0.221   2.962
  867TIP3    H1 2558   7.299   0.277   2.980
  867TIP3    H2 2559   7.176   0.216   3.045
  868TIP3   OH2 2560   3.347   5.976   1.337
  868TIP3    H1 2561   3.428   6.013   1.303
  868TIP3    H2 2562   3.307   6.048   1.387
  869TIP3   OH2 2563   5.805   7.640   1.063
  869TIP3    H1 2564   5.810   7.717   1.007
  869TIP3    H2 2565   5.889   7.638   1.110
  870TIP3   OH2 2566   3.926   1.034   2.774
  870TIP3    H1 2567   4.018   1.042   2.750
  870TIP3    H2 2568   3.909   1.111   2.829
  871TIP3   OH2 2569   0.053   5.108   3.712
  871TIP3    H1 2570   0.119   5.171   3.741
  871TIP3    H2 2571  -0.030   5.148   3.737
  872TIP3   OH2 2572   0.182   6.102   3.590
  872TIP3    H1 2573   0.144   6.160   3.657
  872TIP3    H2 2574   0.187   6.156   3.511
  873TIP3   OH2 2575   7.280   1.338   0.013
  873TIP3    H1 2576   7.238   1.400   0.072
  873TIP3    H2 2577   7.368   1.328   0.047
  874TIP3   OH2 2578   2.307   7.222   4.314
  874TIP3    H1 2579   2.308   7.126   4.312
  874TIP3    H2 2580   2.222   7.244   4.352
  875TIP3   OH2 2581   6.839   4.034   3.236
  875TIP3    H1 2582   6.760   3.991   3.268
  875TIP3    H2 2583   6.879   3.970   3.178
  876TIP3   OH2 2584   2.894   2.610   2.816
  876TIP3    H1 2585   2.883   2.671   2.743
  876TIP3    H2 2586   2.968   2.646   2.866
  877TIP3   OH2 2587   6.519   6.698   0.516
  877TIP3    H1 2588   6.583   6.630   0.537
  877TIP3    H2 2589   6.437   6.651   0.502
  878TIP3   OH2 2590   2.678   4.266   3.651
  878TIP3    H1 2591   2.656   4.347   3.604
  878TIP3    H2 2592   2.640   4.277   3.737
  879TIP3   OH2 2593   1.068   6.291   5.751
  879TIP3    H1 2594   1.087   6.294   5.845
  879TIP3    H2 2595   1.078   6.199   5.727
  880TIP3   OH2 2596   2.039   5.266   0.833
  880TIP3    H1 2597   2.067   5.293   0.920
  880TIP3    H2 2598   1.968   5.325   0.810
  881TIP3   OH2 2599   3.428   4.563   2.648
  881TIP3    H1 2600   3.485   4.495   2.614
  881TIP3    H2 2601   3.486   4.620   2.699
  882TIP3   OH2 2602   5.726   2.405   1.050
  882TIP3    H1 2603   5.632   2.424   1.051
  882TIP3    H2 2604   5.767   2.483   1.087
  883TIP3   OH2 2605   2.488   4.381   2.875
  883TIP3    H1 2606   2.513   4.364   2.965
  883TIP3    H2 2607   2.540   4.457   2.849
  884TIP3   OH2 2608   3.217   5.788   5.572
  884TIP3    H1 2609   3.255   5.803   5.485
  884TIP3    H2 2610   3.277   5.726   5.614
  885TIP3   OH2 2611   7.148   3.490   6.652
  885TIP3    H1 2612   7.080   3.481   6.586
  885TIP3    H2 2613   7.103   3.528   6.728
  886TIP3   OH2 2614   5.121   2.709   4.758
  886TIP3    H1 2615   5.113   2.616   4.738
  886TIP3    H2 2616   5.197   2.715   4.816
  887TIP3   OH2 2617   6.318   7.731   4.577
  887TIP3    H1 2618   6.388   7.674   4.546
  887TIP3    H2 2619   6.239   7.677   4.572
  888TIP3   OH2 2620   7.690   2.157   2.616
  888TIP3    H1 2621   7.677   2.067   2.585
  888TIP3    H2 2622   7.722   2.147   2.705
  889TIP3   OH2 2623   5.849   4.340   2.334
  889TIP3    H1 2624   5.794   4.265   2.355
  889TIP3    H2 2625   5.911   4.307   2.270
  890TIP3   OH2 2626   4.548   4.232   4.233
  890TIP3    H1 2627   4.518   4.260   4.319
  890TIP3    H2 2628   4.502   4.149   4.218
  891TIP3   OH2 2629   7.503   0.801   5.012
  891TIP3    H1 2630   7.409   0.797   4.994
  891TIP3    H2 2631   7.537   0.861   4.946
  892TIP3   OH2 2632   3.833   0.619   0.875
  892TIP3    H1 2633   3.796   0.544   0.921
  892TIP3    H2 2634   3.846   0.686   0.942
  893TIP3   OH2 2635   4.991   6.251   1.840
  893TIP3    H1 2636   4.946   6.168   1.852
  893TIP3    H2 2637   5.080   6.237   1.873
  894TIP3   OH2 2638   6.486   5.483   5.136
  894TIP3    H1 2639   6.503   5.392   5.160
  894TIP3    H2 2640   6.564   5.531   5.164
  895TIP3   OH2 2641   5.943   4.060   3.856
  895TIP3    H1 2642   5.892   4.140   3.867
  895TIP3    H2 2643   5.930   4.036   3.764
  896TIP3   OH2 2644   3.475   0.950   3.719
  896TIP3    H1 2645   3.448   1.000   3.643
  896TIP3    H2 2646   3.402   0.892   3.738
  897TIP3   OH2 2647   5.793   2.502   4.441
  897TIP3    H1 2648   5.811   2.594   4.423
  897TIP3    H2 2649   5.853   2.480   4.513
  898TIP3   OH2 2650   2.889   1.033   0.371
  898TIP3    H1 2651   2.875   1.010   0.279
  898TIP3    H2 2652   2.854   1.122   0.379
  899TIP3   OH2 2653   3.007   2.204   4.263
  899TIP3    H1 2654   3.051   2.178   4.345
  899TIP3    H2 2655   2.914   2.188   4.281
  900TIP3   OH2 2656   0.864   1.044   3.251
  900TIP3    H1 2657   0.937   1.006   3.299
  900TIP3    H2 2658   0.825   0.971   3.204
  901TIP3   OH2 2659   6.865   7.724   1.569
  901TIP3    H1 2660   6.781   7.730   1.614
  901TIP3    H2 2661   6.854   7.654   1.505
  902TIP3   OH2 2662   4.764   6.465   0.214
  902TIP3    H1 2663   4.701   6.413   0.163
  902TIP3    H2 2664   4.845   6.414   0.211
  903TIP3   OH2 2665   3.279   3.596   0.193
  903TIP3    H1 2666   3.213   3.556   0.135
  903TIP3    H2 2667   3.235   3.602   0.278
  904TIP3   OH2 2668   1.825   0.639   5.188
  904TIP3    H1 2669   1.740   0.683   5.192
  904TIP3    H2 2670   1.858   0.660   5.100
  905TIP3   OH2 2671   0.983   6.825   5.082
  905TIP3    H1 2672   0.921   6.898   5.085
  905TIP3    H2 2673   1.057   6.854   5.135
  906TIP3   OH2 2674   6.458   0.407   4.211
  906TIP3    H1 2675   6.430   0.493   4.180
  906TIP3    H2 2676   6.377   0.363   4.238
  907TIP3   OH2 2677   2.433   1.681   3.229
  907TIP3    H1 2678   2.346   1.683   3.188
  907TIP3    H2 2679   2.417   1.644   3.316
  908TIP3   OH2 2680   6.730   4.515   1.713
  908TIP3    H1 2681   6.819   4.482   1.701
  908TIP3    H2 2682   6.739   4.610   1.712
  909TIP3   OH2 2683   7.073   4.778   4.605
  909TIP3    H1 2684   7.060   4.773   4.510
  909TIP3    H2 2685   7.016   4.709   4.641
  910TIP3   OH2 2686   2.227   3.880   0.100
  910TIP3    H1 2687   2.255   3.971   0.096
  910TIP3    H2 2688   2.195   3.861   0.012
  911TIP3   OH2 2689   2.084   4.015   5.774
  911TIP3    H1 2690   2.175   4.018   5.743
  911TIP3    H2 2691   2.041   3.952   5.717
  912TIP3   OH2 2692   6.879   3.053   2.514
  912TIP3    H1 2693   6.910   2.970   2.551
  912TIP3    H2 2694   6.848   3.102   2.590
  913TIP3   OH2 2695   3.174   7.240   4.954
  913TIP3    H1 2696   3.189   7.148   4.932
  913TIP3    H2 2697   3.117   7.237   5.031
  914TIP3   OH2 2698   2.214   5.788   1.813
  914TIP3    H1 2699   2.303   5.786   1.849
  914TIP3    H2 2700   2.178   5.702   1.833
  915TIP3   OH2 2701   4.115   0.169   5.370
  915TIP3    H1 2702   4.084   0.143   5.457
  915TIP3    H2 2703   4.063   0.246   5.349
  916TIP3   OH2 2704   4.661   3.275   3.352
  916TIP3    H1 2705   4.724   3.256   3.422
  916TIP3    H2 2706   4.602   3.200   3.353
  917TIP3   OH2 2707   4.565   2.826   0.851
  917TIP3    H1 2708   4.503   2.836   0.923
  917TIP3    H2 2709   4.592   2.916   0.831
  918TIP3   OH2 2710   5.125   4.805   1.734
  918TIP3    H1 2711   5.202   4.839   1.689
  918TIP3    H2 2712   5.052   4.822   1.674
  919TIP3   OH2 2713   5.656   7.029   5.581
  919TIP3    H1 2714   5.581   6.995   5.531
  919TIP3    H2 2715   5.710   7.074   5.516
  920TIP3   OH2 2716   3.647   3.651   4.596
  920TIP3    H1 2717   3.649   3.633   4.690
  920TIP3    H2 2718   3.557   3.634   4.570
  921TIP3   OH2 2719   6.502   4.012   5.235
  921TIP3    H1 2720   6.570   4.050   5.291
  921TIP3    H2 2721   6.489   3.924   5.270
  922TIP3   OH2 2722   3.063   7.652   2.682
  922TIP3    H1 2723   3.085   7.575   2.630
  922TIP3    H2 2724   3.022   7.617   2.761
  923TIP3   OH2 2725   5.005   3.648   0.598
  923TIP3    H1 2726   4.946   3.697   0.655
  923TIP3    H2 2727   5.052   3.715   0.548
  924TIP3   OH2 2728   5.533   7.590   0.079
  924TIP3    H1 2729   5.450   7.544   0.068
  924TIP3    H2 2730   5.509   7.682   0.087
  925TIP3   OH2 2731   8.168   6.932   1.929
  925TIP3    H1 2732   8.241   6.963   1.982
  925TIP3    H2 2733   8.116   6.878   1.989
  926TIP3   OH2 2734   7.008   1.113   5.805
  926TIP3    H1 2735   7.048   1.059   5.873
  926TIP3    H2 2736   7.051   1.085   5.724
  927TIP3   OH2 2737   5.631   1.356   6.571
  927TIP3    H1 2738   5.554   1.356   6.514
  927TIP3    H2 2739   5.596   1.365   6.659
  928TIP3   OH2 2740   4.465   0.903   5.241
  928TIP3    H1 2741   4.538   0.953   5.278
  928TIP3    H2 2742   4.473   0.916   5.146
  929TIP3   OH2 2743   2.312   4.827   3.714
  929TIP3    H1 2744   2.262   4.747   3.699
  929TIP3    H2 2745   2.381   4.826   3.648
  930TIP3   OH2 2746   6.096   6.188   4.164
  930TIP3    H1 2747   6.018   6.220   4.119
  930TIP3    H2 2748   6.082   6.208   4.256
  931TIP3   OH2 2749   7.236   5.962   5.651
  931TIP3    H1 2750   7.176   5.957   5.576
  931TIP3    H2 2751   7.285   6.043   5.636
  932TIP3   OH2 2752   1.580   6.595   6.600
  932TIP3    H1 2753   1.666   6.553   6.605
  932TIP3    H2 2754   1.561   6.621   6.689
  933TIP3   OH2 2755   3.338   6.367   0.985
  933TIP3    H1 2756   3.315   6.354   0.893
  933TIP3    H2 2757   3.403   6.300   1.003
  934TIP3   OH2 2758   1.649   4.745   0.447
  934TIP3    H1 2759   1.726   4.691   0.429
  934TIP3    H2 2760   1.621   4.776   0.361
  935TIP3   OH2 2761   1.485   2.454   1.488
  935TIP3    H1 2762   1.436   2.386   1.535
  935TIP3    H2 2763   1.537   2.497   1.555
  936TIP3   OH2 2764   2.738   0.882   4.148
  936TIP3    H1 2765   2.704   0.923   4.228
  936TIP3    H2 2766   2.674   0.814   4.127
  937TIP3   OH2 2767   5.082   1.649   4.735
  937TIP3    H1 2768   5.172   1.675   4.712
  937TIP3    H2 2769   5.028   1.682   4.663
  938TIP3   OH2 2770   4.089   3.857   6.342
  938TIP3    H1 2771   4.070   3.885   6.431
  938TIP3    H2 2772   4.035   3.780   6.329
  939TIP3   OH2 2773   4.273   6.558   2.204
  939TIP3    H1 2774   4.315   6.601   2.130
  939TIP3    H2 2775   4.198   6.512   2.166
  940TIP3   OH2 2776   8.272   7.578   2.635
  940TIP3    H1 2777   8.352   7.562   2.585
  940TIP3    H2 2778   8.287   7.661   2.679
  941TIP3   OH2 2779   3.690   5.105   1.465
  941TIP3    H1 2780   3.673   5.063   1.381
  941TIP3    H2 2781   3.608   5.095   1.514
  942TIP3   OH2 2782   1.130   3.627   1.977
  942TIP3    H1 2783   1.173   3.657   2.058
  942TIP3    H2 2784   1.168   3.541   1.960
  943TIP3   OH2 2785   8.087   1.195   1.981
  943TIP3    H1 2786   8.116   1.148   1.903
  943TIP3    H2 2787   8.137   1.155   2.052
  944TIP3   OH2 2788   5.175   5.987   2.521
  944TIP3    H1 2789   5.151   5.949   2.606
  944TIP3    H2 2790   5.102   6.044   2.498
  945TIP3   OH2 2791   4.910   2.163   5.539
  945TIP3    H1 2792   4.834   2.114   5.509
  945TIP3    H2 2793   4.962   2.100   5.589
  946TIP3   OH2 2794   3.692   6.738   6.041
  946TIP3    H1 2795   3.763   6.797   6.017
  946TIP3    H2 2796   3.644   6.783   6.111
  947TIP3   OH2 2797   1.939   3.606   0.033
  947TIP3    H1 2798   2.023   3.559   0.029
  947TIP3    H2 2799   1.873   3.539   0.014
  948TIP3   OH2 2800   8.125   2.717   4.714
  948TIP3    H1 2801   8.140   2.764   4.796
  948TIP3    H2 2802   8.031   2.702   4.712
  949TIP3   OH2 2803   4.835   5.969   1.694
  949TIP3    H1 2804   4.863   6.010   1.612
  949TIP3    H2 2805   4.901   5.903   1.712
  950TIP3   OH2 2806   0.994   4.166   6.148
  950TIP3    H1 2807   1.022   4.077   6.172
  950TIP3    H2 2808   0.904   4.172   6.181
  951TIP3   OH2 2809   0.453   4.053   1.239
  951TIP3    H1 2810   0.525   4.010   1.193
  951TIP3    H2 2811   0.457   4.144   1.208
  952TIP3   OH2 2812   1.215   0.717   6.181
  952TIP3    H1 2813   1.249   0.675   6.260
  952TIP3    H2 2814   1.130   0.752   6.207
  953TIP3   OH2 2815   0.078   5.286   0.126
  953TIP3    H1 2816   0.122   5.204   0.104
  953TIP3    H2 2817   0.038   5.269   0.212
  954TIP3   OH2 2818   2.822   4.150   6.448
  954TIP3    H1 2819   2.750   4.213   6.449
  954TIP3    H2 2820   2.896   4.198   6.412
  955TIP3   OH2 2821   6.195   1.883   3.979
  955TIP3    H1 2822   6.235   1.796   3.979
  955TIP3    H2 2823   6.183   1.904   4.072
  956TIP3   OH2 2824   7.614   0.472   0.079
  956TIP3    H1 2825   7.671   0.497   0.007
  956TIP3    H2 2826   7.542   0.534   0.076
  957TIP3   OH2 2827   6.384   4.044   0.891
  957TIP3    H1 2828   6.318   4.053   0.960
  957TIP3    H2 2829   6.355   4.104   0.822
  958TIP3   OH2 2830   2.701   0.879   0.474
  958TIP3    H1 2831   2.624   0.870   0.418
  958TIP3    H2 2832   2.759   0.938   0.425
  959TIP3   OH2 2833   3.062   6.841   6.130
  959TIP3    H1 2834   3.031   6.836   6.040
  959TIP3    H2 2835   2.983   6.854   6.182
  960TIP3   OH2 2836   6.190   4.639   5.895
  960TIP3    H1 2837   6.250   4.659   5.966
  960TIP3    H2 2838   6.160   4.724   5.863
  961TIP3   OH2 2839   6.990   1.475   0.845
  961TIP3    H1 2840   7.084   1.480   0.858
  961TIP3    H2 2841   6.971   1.381   0.839
  962TIP3   OH2 2842   3.614   2.905   5.938
  962TIP3    H1 2843   3.698   2.909   5.985
  962TIP3    H2 2844   3.567   2.982   5.968
  963TIP3   OH2 2845   1.927   4.120   2.298
  963TIP3    H1 2846   1.919   4.037   2.251
  963TIP3    H2 2847   1.895   4.186   2.237
  964TIP3   OH2 2848   3.729   4.231   0.661
  964TIP3    H1 2849   3.652   4.275   0.696
  964TIP3    H2 2850   3.712   4.138   0.675
  965TIP3   OH2 2851   3.722   4.487   6.599
  965TIP3    H1 2852   3.698   4.579   6.600
  965TIP3    H2 2853   3.669   4.448   6.668
  966TIP3   OH2 2854   4.055   2.239   3.586
  966TIP3    H1 2855   4.146   2.214   3.596
  966TIP3    H2 2856   4.058   2.321   3.538
  967TIP3   OH2 2857   7.293   5.702   5.751
  967TIP3    H1 2858   7.271   5.782   5.703
  967TIP3    H2 2859   7.356   5.657   5.694
  968TIP3   OH2 2860   3.970   7.329   1.347
  968TIP3    H1 2861   3.884   7.334   1.389
  968TIP3    H2 2862   3.951   7.340   1.254
  969TIP3   OH2 2863   3.424   5.492   5.864
  969TIP3    H1 2864   3.436   5.511   5.957
  969TIP3    H2 2865   3.443   5.575   5.820
  970TIP3   OH2 2866   5.922   6.505   4.459
  970TIP3    H1 2867   5.991   6.527   4.521
  970TIP3    H2 2868   5.955   6.535   4.375
  971TIP3   OH2 2869   0.557   6.903   0.736
  971TIP3    H1 2870   0.494   6.922   0.806
  971TIP3    H2 2871   0.548   6.809   0.721
  972TIP3   OH2 2872   3.391   7.210   0.383
  972TIP3    H1 2873   3.432   7.128   0.412
  972TIP3    H2 2874   3.307   7.183   0.346
  973TIP3   OH2 2875   1.302   5.360   0.150
  973TIP3    H1 2876   1.221   5.408   0.133
  973TIP3    H2 2877   1.319   5.313   0.068
  974TIP3   OH2 2878   7.223   4.343   1.002
  974TIP3    H1 2879   7.305   4.378   1.035
  974TIP3    H2 2880   7.168   4.420   0.986
  975TIP3   OH2 2881   2.138   5.656   6.585
  975TIP3    H1 2882   2.222   5.686   6.620
  975TIP3    H2 2883   2.105   5.594   6.650
  976TIP3   OH2 2884   5.342   6.223   5.524
  976TIP3    H1 2885   5.270   6.224   5.461
  976TIP3    H2 2886   5.360   6.129   5.537
  977TIP3   OH2 2887   2.647   6.330   2.898
  977TIP3    H1 2888   2.675   6.422   2.898
  977TIP3    H2 2889   2.728   6.280   2.900
  978TIP3   OH2 2890   5.740   0.937   4.421
  978TIP3    H1 2891   5.759   0.862   4.364
  978TIP3    H2 2892   5.734   1.011   4.361
  979TIP3   OH2 2893   5.478   1.200   4.943
  979TIP3    H1 2894   5.388   1.221   4.968
  979TIP3    H2 2895   5.524   1.190   5.027
  980TIP3   OH2 2896   7.332   0.099   4.486
  980TIP3    H1 2897   7.401   0.045   4.447
  980TIP3    H2 2898   7.251   0.050   4.470
  981TIP3   OH2 2899   7.477   2.985   4.892
  981TIP3    H1 2900   7.450   2.898   4.863
  981TIP3    H2 2901   7.508   3.029   4.812
  982TIP3   OH2 2902   3.516   0.318   1.339
  982TIP3    H1 2903   3.549   0.339   1.252
  982TIP3    H2 2904   3.583   0.261   1.377
  983TIP3   OH2 2905   1.802   1.879   0.897
  983TIP3    H1 2906   1.844   1.951   0.850
  983TIP3    H2 2907   1.848   1.801   0.869
  984TIP3   OH2 2908   4.222   5.661   5.322
  984TIP3    H1 2909   4.161   5.707   5.380
  984TIP3    H2 2910   4.176   5.580   5.299
  985TIP3   OH2 2911   2.715   1.680   6.576
  985TIP3    H1 2912   2.776   1.711   6.509
  985TIP3    H2 2913   2.770   1.664   6.653
  986TIP3   OH2 2914   0.203   0.162   0.664
  986TIP3    H1 2915   0.156   0.241   0.693
  986TIP3    H2 2916   0.144   0.090   0.685
  987TIP3   OH2 2917   7.092   3.876   6.274
  987TIP3    H1 2918   7.095   3.932   6.351
  987TIP3    H2 2919   7.003   3.889   6.239
  988TIP3   OH2 2920   0.445   7.603   6.488
  988TIP3    H1 2921   0.423   7.656   6.564
  988TIP3    H2 2922   0.504   7.658   6.436
  989TIP3   OH2 2923   1.765   2.694   2.053
  989TIP3    H1 2924   1.829   2.696   2.124
  989TIP3    H2 2925   1.680   2.692   2.097
  990TIP3   OH2 2926   0.650   4.740   3.895
  990TIP3    H1 2927   0.570   4.698   3.864
  990TIP3    H2 2928   0.624   4.830   3.914
  991TIP3   OH2 2929   8.289   1.866   1.675
  991TIP3    H1 2930   8.340   1.901   1.601
  991TIP3    H2 2931   8.272   1.943   1.730
  992TIP3   OH2 2932   1.259   6.380   1.197
  992TIP3    H1 2933   1.311   6.305   1.167
  992TIP3    H2 2934   1.183   6.341   1.239
  993TIP3   OH2 2935   3.130   2.123   5.129
  993TIP3    H1 2936   3.038   2.121   5.156
  993TIP3    H2 2937   3.128   2.106   5.034
  994TIP3   OH2 2938   3.157   1.464   5.638
  994TIP3    H1 2939   3.107   1.497   5.713
  994TIP3    H2 2940   3.247   1.457   5.670
  995TIP3   OH2 2941   6.231   4.242   1.627
  995TIP3    H1 2942   6.288   4.165   1.628
  995TIP3    H2 2943   6.291   4.316   1.630
  996TIP3   OH2 2944   5.379   3.757   4.530
  996TIP3    H1 2945   5.335   3.719   4.606
  996TIP3    H2 2946   5.313   3.814   4.491
  997TIP3   OH2 2947   1.947   7.598   3.247
  997TIP3    H1 2948   1.883   7.527   3.242
  997TIP3    H2 2949   1.989   7.598   3.161
  998TIP3   OH2 2950   6.773   7.283   3.449
  998TIP3    H1 2951   6.769   7.367   3.496
  998TIP3    H2 2952   6.713   7.295   3.375
  999TIP3   OH2 2953   4.781   2.580   2.987
  999TIP3    H1 2954   4.784   2.505   3.047
  999TIP3    H2 2955   4.693   2.579   2.952
 1000TIP3   OH2 2956   1.018   5.491   1.445
 1000TIP3    H1 2957   1.013   5.527   1.534
 1000TIP3    H2 2958   1.112   5.481   1.429
 1001TIP3   OH2 2959   7.952   0.038   1.087
 1001TIP3    H1 2960   7.975   0.076   1.171
 1001TIP3    H2 2961   7.892  -0.033   1.108
 1002TIP3   OH2 2962   6.236   6.509   3.642
 1002TIP3    H1 2963   6.237   6.480   3.551
 1002TIP3    H2 2964   6.173   6.581   3.644
 1003TIP3   OH2 2965   7.860   0.101   5.768
 1003TIP3    H1 2966   7.782   0.060   5.805
 1003TIP3    H2 2967   7.864   0.187   5.808
 1004TIP3   OH2 2968   0.788   0.168   0.581
 1004TIP3    H1 2969   0.703   0.210   0.589
 1004TIP3    H2 2970   0.799   0.121   0.664
 1005TIP3   OH2 2971   1.991   7.425   1.261
 1005TIP3    H1 2972   1.920   7.368   1.230
 1005TIP3    H2 2973   2.060   7.414   1.196
 1006TIP3   OH2 2974   6.338   3.731   3.735
 1006TIP3    H1 2975   6.335   3.729   3.640
 1006TIP3    H2 2976   6.300   3.816   3.759
 1007TIP3   OH2 2977   2.050   0.232   3.438
 1007TIP3    H1 2978   2.134   0.267   3.467
 1007TIP3    H2 2979   1.988   0.303   3.452
 1008TIP3   OH2 2980   0.928   3.783   1.620
 1008TIP3    H1 2981   0.969   3.858   1.663
 1008TIP3    H2 2982   0.932   3.803   1.527
 1009TIP3   OH2 2983   7.488   2.031   1.170
 1009TIP3    H1 2984   7.526   2.089   1.105
 1009TIP3    H2 2985   7.393   2.040   1.159
 1010TIP3   OH2 2986   0.732   1.245   2.939
 1010TIP3    H1 2987   0.693   1.243   3.026
 1010TIP3    H2 2988   0.824   1.267   2.954
 1011TIP3   OH2 2989   7.461   1.456   2.710
 1011TIP3    H1 2990   7.410   1.537   2.715
 1011TIP3    H2 2991   7.437   1.418   2.625
 1012TIP3   OH2 2992   6.141   2.784   4.933
 1012TIP3    H1 2993   6.179   2.869   4.910
 1012TIP3    H2 2994   6.046   2.798   4.927
 1013TIP3   OH2 2995   4.410   5.546   1.584
 1013TIP3    H1 2996   4.355   5.607   1.633
 1013TIP3    H2 2997   4.499   5.566   1.613
 1014TIP3   OH2 2998   1.831   6.042   3.807
 1014TIP3    H1 2999   1.760   6.023   3.746
 1014TIP3    H2 3000   1.788   6.048   3.892
 1015TIP3   OH2 3001   6.577   7.298   6.461
 1015TIP3    H1 3002   6.573   7.363   6.531
 1015TIP3    H2 3003   6.487   7.267   6.451
 1016TIP3   OH2 3004   7.021   2.512   6.241
 1016TIP3    H1 3005   7.023   2.608   6.236
 1016TIP3    H2 3006   7.098   2.489   6.293
 1017TIP3   OH2 3007   3.375   5.105   1.272
 1017TIP3    H1 3008   3.329   5.091   1.355
 1017TIP3    H2 3009   3.418   5.190   1.283
 1018TIP3   OH2 3010   3.215   2.454   4.535
 1018TIP3    H1 3011   3.258   2.476   4.452
 1018TIP3    H2 3012   3.144   2.517   4.543
 1019TIP3   OH2 3013   7.806   1.439   3.209
 1019TIP3    H1 3014   7.787   1.360   3.159
 1019TIP3    H2 3015   7.755   1.430   3.290
 1020TIP3   OH2 3016   2.684   2.667   3.963
 1020TIP3    H1 3017   2.596   2.688   3.932
 1020TIP3    H2 3018   2.683   2.686   4.056
 1021TIP3   OH2 3019   2.923   5.095   1.576
 1021TIP3    H1 3020   2.830   5.112   1.563
 1021TIP3    H2 3021   2.967   5.165   1.528
 1022TIP3   OH2 3022   5.187   2.066   5.222
 1022TIP3    H1 3023   5.271   2.069   5.177
 1022TIP3    H2 3024   5.150   1.981   5.197
 1023TIP3   OH2 3025   2.695   2.765   2.461
 1023TIP3    H1 3026   2.662   2.828   2.525
 1023TIP3    H2 3027   2.789   2.783   2.457
 1024TIP3   OH2 3028   2.507   5.895   1.846
 1024TIP3    H1 3029   2.566   5.916   1.919
 1024TIP3    H2 3030   2.563   5.860   1.778
 1025TIP3   OH2 3031   5.078   0.131   3.592
 1025TIP3    H1 3032   5.093   0.225   3.589
 1025TIP3    H2 3033   5.009   0.119   3.657
 1026TIP3   OH2 3034   7.671   0.481   3.161
 1026TIP3    H1 3035   7.739   0.488   3.228
 1026TIP3    H2 3036   7.683   0.559   3.107
 1027TIP3   OH2 3037   3.021   6.126   5.125
 1027TIP3    H1 3038   2.970   6.056   5.167
 1027TIP3    H2 3039   2.961   6.199   5.118
 1028TIP3   OH2 3040   6.520   4.615   2.773
 1028TIP3    H1 3041   6.575   4.693   2.767
 1028TIP3    H2 3042   6.527   4.587   2.864
 1029TIP3   OH2 3043   4.645   4.208   1.685
 1029TIP3    H1 3044   4.560   4.246   1.664
 1029TIP3    H2 3045   4.698   4.223   1.607
 1030TIP3   OH2 3046   4.025   5.767   4.477
 1030TIP3    H1 3047   3.959   5.809   4.533
 1030TIP3    H2 3048   4.005   5.798   4.389
 1031TIP3   OH2 3049   0.363   4.376   6.252
 1031TIP3    H1 3050   0.356   4.328   6.169
 1031TIP3    H2 3051   0.405   4.314   6.311
 1032TIP3   OH2 3052   1.254   7.329   0.733
 1032TIP3    H1 3053   1.234   7.420   0.752
 1032TIP3    H2 3054   1.343   7.330   0.697
 1033TIP3   OH2 3055   4.297   3.281   0.099
 1033TIP3    H1 3056   4.271   3.299   0.009
 1033TIP3    H2 3057   4.269   3.191   0.115
 1034TIP3   OH2 3058   5.277   4.980   4.555
 1034TIP3    H1 3059   5.351   5.041   4.561
 1034TIP3    H2 3060   5.200   5.035   4.563
 1035TIP3   OH2 3061   4.170   2.993   5.403
 1035TIP3    H1 3062   4.196   2.904   5.426
 1035TIP3    H2 3063   4.108   3.019   5.471
 1036TIP3   OH2 3064   0.159   1.087   4.879
 1036TIP3    H1 3065   0.140   1.147   4.952
 1036TIP3    H2 3066   0.167   1.145   4.803
 1037TIP3   OH2 3067   7.833   6.832   2.858
 1037TIP3    H1 3068   7.776   6.811   2.784
 1037TIP3    H2 3069   7.786   6.797   2.934
 1038TIP3   OH2 3070   0.270   6.202   5.601
 1038TIP3    H1 3071   0.178   6.180   5.615
 1038TIP3    H2 3072   0.318   6.125   5.630
 1039TIP3   OH2 3073   5.007   0.017   3.373
 1039TIP3    H1 3074   4.934   0.078   3.364
 1039TIP3    H2 3075   5.059   0.053   3.445
 1040TIP3   OH2 3076   2.411   7.483   3.201
 1040TIP3    H1 3077   2.482   7.433   3.241
 1040TIP3    H2 3078   2.357   7.513   3.274
 1041TIP3   OH2 3079   3.436   3.878   3.328
 1041TIP3    H1 3080   3.494   3.953   3.326
 1041TIP3    H2 3081   3.447   3.836   3.243
 1042TIP3   OH2 3082   3.966   5.230   6.128
 1042TIP3    H1 3083   4.050   5.184   6.125
 1042TIP3    H2 3084   3.906   5.174   6.078
 1043TIP3   OH2 3085   0.730   3.892   4.528
 1043TIP3    H1 3086   0.790   3.857   4.461
 1043TIP3    H2 3087   0.763   3.857   4.610
 1044TIP3   OH2 3088   2.144   6.229   2.020
 1044TIP3    H1 3089   2.229   6.251   1.981
 1044TIP3    H2 3090   2.116   6.310   2.063
 1045TIP3   OH2 3091   7.677   6.870   3.777
 1045TIP3    H1 3092   7.602   6.930   3.772
 1045TIP3    H2 3093   7.715   6.871   3.689
 1046TIP3   OH2 3094   1.753   4.848   4.342
 1046TIP3    H1 3095   1.815   4.911   4.305
 1046TIP3    H2 3096   1.667   4.885   4.322
 1047TIP3   OH2 3097   0.816   5.299   1.378
 1047TIP3    H1 3098   0.869   5.365   1.424
 1047TIP3    H2 3099   0.761   5.261   1.446
 1048TIP3   OH2 3100   3.028   6.833   3.648
 1048TIP3    H1 3101   3.042   6.790   3.564
 1048TIP3    H2 3102   2.997   6.762   3.705
 1049TIP3   OH2 3103   0.592   6.688   1.039
 1049TIP3    H1 3104   0.559   6.662   0.953
 1049TIP3    H2 3105   0.517   6.678   1.097
 1050TIP3   OH2 3106   1.929   3.682   5.970
 1050TIP3    H1 3107   1.976   3.645   6.045
 1050TIP3    H2 3108   1.891   3.763   6.003
 1051TIP3   OH2 3109   8.175   0.936   3.197
 1051TIP3    H1 3110   8.151   0.986   3.275
 1051TIP3    H2 3111   8.271   0.934   3.198
 1052TIP3   OH2 3112   2.933   7.003   2.591
 1052TIP3    H1 3113   2.886   6.931   2.633
 1052TIP3    H2 3114   3.025   6.979   2.599
 1053TIP3   OH2 3115   3.033   3.800   2.934
 1053TIP3    H1 3116   3.024   3.894   2.918
 1053TIP3    H2 3117   3.124   3.781   2.912
 1054TIP3   OH2 3118   3.884   4.850   4.415
 1054TIP3    H1 3119   3.962   4.884   4.457
 1054TIP3    H2 3120   3.914   4.775   4.364
 1055TIP3   OH2 3121   1.322   0.059   1.962
 1055TIP3    H1 3122   1.352   0.074   2.052
 1055TIP3    H2 3123   1.402   0.042   1.913
 1056TIP3   OH2 3124   1.805   6.136   2.312
 1056TIP3    H1 3125   1.759   6.055   2.290
 1056TIP3    H2 3126   1.825   6.175   2.227
 1057TIP3   OH2 3127   0.916   1.061   0.177
 1057TIP3    H1 3128   0.942   1.098   0.262
 1057TIP3    H2 3129   0.986   0.999   0.157
 1058TIP3   OH2 3130   4.112   6.417   5.127
 1058TIP3    H1 3131   4.088   6.485   5.190
 1058TIP3    H2 3132   4.098   6.335   5.174
 1059TIP3   OH2 3133   6.243   1.272   0.404
 1059TIP3    H1 3134   6.162   1.277   0.455
 1059TIP3    H2 3135   6.312   1.259   0.469
 1060TIP3   OH2 3136   5.740   7.430   0.885
 1060TIP3    H1 3137   5.673   7.484   0.843
 1060TIP3    H2 3138   5.777   7.486   0.953
 1061TIP3   OH2 3139   1.157   5.639   1.876
 1061TIP3    H1 3140   1.195   5.591   1.950
 1061TIP3    H2 3141   1.105   5.709   1.918
 1062TIP3   OH2 3142   0.490   2.459   0.278
 1062TIP3    H1 3143   0.555   2.524   0.305
 1062TIP3    H2 3144   0.477   2.475   0.185
 1063TIP3   OH2 3145   6.153   4.132   2.377
 1063TIP3    H1 3146   6.121   4.176   2.298
 1063TIP3    H2 3147   6.139   4.196   2.447
 1064TIP3   OH2 3148   0.192   2.269   6.469
 1064TIP3    H1 3149   0.237   2.207   6.525
 1064TIP3    H2 3150   0.179   2.222   6.387
 1065TIP3   OH2 3151   7.569   7.468   1.727
 1065TIP3    H1 3152   7.483   7.441   1.694
 1065TIP3    H2 3153   7.622   7.388   1.723
 1066TIP3   OH2 3154   6.332   7.650   6.098
 1066TIP3    H1 3155   6.269   7.687   6.159
 1066TIP3    H2 3156   6.283   7.639   6.016
 1067TIP3   OH2 3157   1.056   5.718  -0.015
 1067TIP3    H1 3158   1.087   5.634  -0.049
 1067TIP3    H2 3159   1.116   5.738   0.057
 1068TIP3   OH2 3160   4.175   3.770   1.264
 1068TIP3    H1 3161   4.139   3.685   1.289
 1068TIP3    H2 3162   4.251   3.749   1.211
 1069TIP3   OH2 3163   5.959   5.728   3.314
 1069TIP3    H1 3164   6.015   5.772   3.378
 1069TIP3    H2 3165   5.895   5.794   3.290
 1070TIP3   OH2 3166   5.269   7.702   2.353
 1070TIP3    H1 3167   5.186   7.680   2.396
 1070TIP3    H2 3168   5.301   7.779   2.401
 1071TIP3   OH2 3169   4.877   3.968   5.004
 1071TIP3    H1 3170   4.881   3.916   4.924
 1071TIP3    H2 3171   4.844   3.907   5.070
 1072TIP3   OH2 3172   2.310   4.102   6.644
 1072TIP3    H1 3173   2.394   4.149   6.640
 1072TIP3    H2 3174   2.328   4.025   6.697
 1073TIP3   OH2 3175   3.181   5.146   1.097
 1073TIP3    H1 3176   3.255   5.146   1.157
 1073TIP3    H2 3177   3.214   5.189   1.018
 1074TIP3   OH2 3178   3.792   2.253   4.574
 1074TIP3    H1 3179   3.833   2.229   4.491
 1074TIP3    H2 3180   3.730   2.322   4.551
 1075TIP3   OH2 3181   0.847   0.662   5.800
 1075TIP3    H1 3182   0.901   0.738   5.823
 1075TIP3    H2 3183   0.812   0.683   5.714
 1076TIP3   OH2 3184   3.000   0.550   0.455
 1076TIP3    H1 3185   3.082   0.597   0.441
 1076TIP3    H2 3186   2.951   0.563   0.374
 1077TIP3   OH2 3187   6.688   1.980   0.605
 1077TIP3    H1 3188   6.609   2.034   0.601
 1077TIP3    H2 3189   6.656   1.892   0.625
 1078TIP3   OH2 3190   4.683   0.447   4.428
 1078TIP3    H1 3191   4.712   0.529   4.388
 1078TIP3    H2 3192   4.588   0.448   4.421
 1079TIP3   OH2 3193   6.383   3.181   3.229
 1079TIP3    H1 3194   6.391   3.123   3.305
 1079TIP3    H2 3195   6.355   3.124   3.158
 1080TIP3   OH2 3196   3.979   1.962   2.580
 1080TIP3    H1 3197   3.974   1.962   2.675
 1080TIP3    H2 3198   4.027   2.041   2.558
 1081TIP3   OH2 3199   7.251   7.742   3.109
 1081TIP3    H1 3200   7.274   7.774   3.022
 1081TIP3    H2 3201   7.258   7.820   3.165
 1082TIP3   OH2 3202   4.356   2.820   6.201
 1082TIP3    H1 3203   4.264   2.821   6.225
 1082TIP3    H2 3204   4.361   2.761   6.126
 1083TIP3   OH2 3205   7.248   5.440   2.973
 1083TIP3    H1 3206   7.218   5.398   2.892
 1083TIP3    H2 3207   7.316   5.381   3.006
 1084TIP3   OH2 3208   1.141   0.329   1.510
 1084TIP3    H1 3209   1.192   0.310   1.589
 1084TIP3    H2 3210   1.150   0.251   1.456
 1085TIP3   OH2 3211   1.391   2.255   3.899
 1085TIP3    H1 3212   1.390   2.238   3.994
 1085TIP3    H2 3213   1.397   2.350   3.892
 1086TIP3   OH2 3214   5.910   5.748   4.830
 1086TIP3    H1 3215   5.928   5.657   4.808
 1086TIP3    H2 3216   5.818   5.750   4.854
 1087TIP3   OH2 3217   0.187   6.184   4.017
 1087TIP3    H1 3218   0.206   6.277   4.006
 1087TIP3    H2 3219   0.271   6.146   4.042
 1088TIP3   OH2 3220   3.297   3.443   2.910
 1088TIP3    H1 3221   3.343   3.422   2.991
 1088TIP3    H2 3222   3.258   3.360   2.882
 1089TIP3   OH2 3223   2.350   2.033   0.476
 1089TIP3    H1 3224   2.305   2.077   0.548
 1089TIP3    H2 3225   2.438   2.071   0.477
 1090TIP3   OH2 3226   6.911   6.045   3.736
 1090TIP3    H1 3227   6.989   6.083   3.696
 1090TIP3    H2 3228   6.909   6.083   3.824
 1091TIP3   OH2 3229   2.875   0.316   2.702
 1091TIP3    H1 3230   2.882   0.410   2.717
 1091TIP3    H2 3231   2.954   0.279   2.741
 1092TIP3   OH2 3232   6.675   2.524   4.087
 1092TIP3    H1 3233   6.736   2.479   4.029
 1092TIP3    H2 3234   6.607   2.558   4.028
 1093TIP3   OH2 3235   6.386   5.009   5.228
 1093TIP3    H1 3236   6.333   4.952   5.284
 1093TIP3    H2 3237   6.379   4.971   5.141
 1094TIP3   OH2 3238   4.977   6.416   3.495
 1094TIP3    H1 3239   4.957   6.417   3.402
 1094TIP3    H2 3240   5.043   6.346   3.504
 1095TIP3   OH2 3241   0.174   5.428   0.618
 1095TIP3    H1 3242   0.108   5.403   0.681
 1095TIP3    H2 3243   0.256   5.428   0.667
 1096TIP3   OH2 3244   3.134   5.781   2.397
 1096TIP3    H1 3245   3.128   5.703   2.341
 1096TIP3    H2 3246   3.125   5.747   2.486
 1097TIP3   OH2 3247   2.100   7.046   2.492
 1097TIP3    H1 3248   2.080   6.979   2.557
 1097TIP3    H2 3249   2.071   7.128   2.532
 1098TIP3   OH2 3250   7.868   1.845   3.151
 1098TIP3    H1 3251   7.940   1.855   3.214
 1098TIP3    H2 3252   7.874   1.754   3.123
 1099TIP3   OH2 3253   1.070   1.612   2.224
 1099TIP3    H1 3254   1.135   1.645   2.286
 1099TIP3    H2 3255   1.111   1.536   2.184
 1100TIP3   OH2 3256   4.048   2.386   0.024
 1100TIP3    H1 3257   3.954   2.388   0.037
 1100TIP3    H2 3258   4.072   2.476   0.003
 1101TIP3   OH2 3259   3.886   5.475   3.288
 1101TIP3    H1 3260   3.892   5.562   3.329
 1101TIP3    H2 3261   3.792   5.461   3.275
 1102TIP3   OH2 3262   1.873   1.139   4.801
 1102TIP3    H1 3263   1.842   1.075   4.865
 1102TIP3    H2 3264   1.857   1.097   4.716
 1103TIP3   OH2 3265   6.506   2.364   2.340
 1103TIP3    H1 3266   6.489   2.422   2.414
 1103TIP3    H2 3267   6.573   2.410   2.289
 1104TIP3   OH2 3268   4.025   5.225   2.770
 1104TIP3    H1 3269   4.036   5.145   2.821
 1104TIP3    H2 3270   4.044   5.199   2.680
 1105TIP3   OH2 3271   7.796   1.578   3.890
 1105TIP3    H1 3272   7.779   1.632   3.968
 1105TIP3    H2 3273   7.765   1.490   3.915
 1106TIP3   OH2 3274   7.649   4.445   5.559
 1106TIP3    H1 3275   7.688   4.421   5.475
 1106TIP3    H2 3276   7.668   4.538   5.569
 1107TIP3   OH2 3277   3.737   3.918   5.709
 1107TIP3    H1 3278   3.691   3.956   5.783
 1107TIP3    H2 3279   3.703   3.829   5.702
 1108TIP3   OH2 3280   5.026   6.000   0.206
 1108TIP3    H1 3281   5.055   5.932   0.266
 1108TIP3    H2 3282   5.101   6.059   0.200
 1109TIP3   OH2 3283   7.170   0.598   0.652
 1109TIP3    H1 3284   7.075   0.596   0.662
 1109TIP3    H2 3285   7.194   0.508   0.628
 1110TIP3   OH2 3286   2.445   5.954   6.007
 1110TIP3    H1 3287   2.387   5.893   6.054
 1110TIP3    H2 3288   2.526   5.953   6.057
 1111TIP3   OH2 3289   7.134   5.822   2.251
 1111TIP3    H1 3290   7.190   5.792   2.179
 1111TIP3    H2 3291   7.185   5.805   2.330
 1112TIP3   OH2 3292   6.930   7.171   6.237
 1112TIP3    H1 3293   6.915   7.181   6.331
 1112TIP3    H2 3294   6.978   7.089   6.229
 1113TIP3   OH2 3295   1.393   0.046   6.167
 1113TIP3    H1 3296   1.416   0.135   6.141
 1113TIP3    H2 3297   1.343   0.056   6.248
 1114TIP3   OH2 3298   7.349   1.995   3.744
 1114TIP3    H1 3299   7.307   2.008   3.829
 1114TIP3    H2 3300   7.442   1.982   3.765
 1115TIP3   OH2 3301   2.749   1.621   0.578
 1115TIP3    H1 3302   2.718   1.709   0.559
 1115TIP3    H2 3303   2.678   1.564   0.550
 1116TIP3   OH2 3304   0.055   3.425   1.476
 1116TIP3    H1 3305   0.032   3.514   1.501
 1116TIP3    H2 3306   0.065   3.378   1.560
 1117TIP3   OH2 3307   3.954   1.043   0.982
 1117TIP3    H1 3308   3.924   0.969   1.036
 1117TIP3    H2 3309   3.890   1.112   0.998
 1118TIP3   OH2 3310   5.969   1.421   5.656
 1118TIP3    H1 3311   5.984   1.342   5.604
 1118TIP3    H2 3312   6.038   1.481   5.629
 1119TIP3   OH2 3313   5.895   2.049   2.326
 1119TIP3    H1 3314   5.985   2.037   2.356
 1119TIP3    H2 3315   5.892   2.005   2.241
 1120TIP3   OH2 3316   4.475   3.201   5.277
 1120TIP3    H1 3317   4.563   3.177   5.251
 1120TIP3    H2 3318   4.419   3.131   5.242
 1121TIP3   OH2 3319   5.970   6.718   5.882
 1121TIP3    H1 3320   6.026   6.681   5.813
 1121TIP3    H2 3321   5.915   6.782   5.836
 1122TIP3   OH2 3322   1.330   5.653   3.774
 1122TIP3    H1 3323   1.244   5.688   3.797
 1122TIP3    H2 3324   1.315   5.606   3.691
 1123TIP3   OH2 3325   6.910   2.184   3.841
 1123TIP3    H1 3326   6.832   2.129   3.840
 1123TIP3    H2 3327   6.970   2.142   3.779
 1124TIP3   OH2 3328   2.254   3.354   3.035
 1124TIP3    H1 3329   2.342   3.390   3.047
 1124TIP3    H2 3330   2.258   3.267   3.076
 1125TIP3   OH2 3331   3.051   5.360   1.593
 1125TIP3    H1 3332   3.070   5.278   1.639
 1125TIP3    H2 3333   3.109   5.358   1.517
 1126TIP3   OH2 3334   2.554   3.630   2.568
 1126TIP3    H1 3335   2.535   3.675   2.650
 1126TIP3    H2 3336   2.607   3.692   2.518
 1127TIP3   OH2 3337   6.893   7.373   1.897
 1127TIP3    H1 3338   6.963   7.418   1.944
 1127TIP3    H2 3339   6.850   7.319   1.963
 1128TIP3   OH2 3340   0.795   6.942   0.579
 1128TIP3    H1 3341   0.859   6.912   0.644
 1128TIP3    H2 3342   0.710   6.927   0.620
 1129TIP3   OH2 3343   5.376   0.645   3.583
 1129TIP3    H1 3344   5.295   0.598   3.564
 1129TIP3    H2 3345   5.443   0.577   3.586
 1130TIP3   OH2 3346   3.885   1.711   0.055
 1130TIP3    H1 3347   3.962   1.668   0.094
 1130TIP3    H2 3348   3.854   1.649  -0.011
 1131TIP3   OH2 3349   2.870   1.533   0.794
 1131TIP3    H1 3350   2.854   1.580   0.712
 1131TIP3    H2 3351   2.950   1.571   0.829
 1132TIP3   OH2 3352   2.009   1.772   6.780
 1132TIP3    H1 3353   2.015   1.812   6.693
 1132TIP3    H2 3354   1.916   1.749   6.789
 1133TIP3   OH2 3355   7.156   0.550   2.661
 1133TIP3    H1 3356   7.141   0.593   2.745
 1133TIP3    H2 3357   7.144   0.620   2.597
 1134TIP3   OH2 3358   6.965   1.783   3.023
 1134TIP3    H1 3359   6.968   1.688   3.024
 1134TIP3    H2 3360   6.937   1.807   3.112
 1135TIP3   OH2 3361   7.814   1.539   6.646
 1135TIP3    H1 3362   7.823   1.612   6.586
 1135TIP3    H2 3363   7.854   1.569   6.728
 1136TIP3   OH2 3364   0.819   5.323   6.537
 1136TIP3    H1 3365   0.793   5.235   6.565
 1136TIP3    H2 3366   0.904   5.309   6.494
 1137TIP3   OH2 3367   4.296   2.067   5.095
 1137TIP3    H1 3368   4.289   2.132   5.025
 1137TIP3    H2 3369   4.237   2.100   5.163
 1138TIP3   OH2 3370   7.272   0.099   5.446
 1138TIP3    H1 3371   7.315   0.183   5.430
 1138TIP3    H2 3372   7.306   0.041   5.378
 1139TIP3   OH2 3373   3.572   4.886   5.378
 1139TIP3    H1 3374   3.644   4.940   5.345
 1139TIP3    H2 3375   3.560   4.916   5.468
 1140TIP3   OH2 3376   6.840   2.598   5.412
 1140TIP3    H1 3377   6.841   2.620   5.319
 1140TIP3    H2 3378   6.810   2.678   5.455
 1141TIP3   OH2 3379   4.554   6.263   2.240
 1141TIP3    H1 3380   4.618   6.269   2.311
 1141TIP3    H2 3381   4.605   6.275   2.161
 1142TIP3   OH2 3382   8.010   6.781   3.796
 1142TIP3    H1 3383   7.934   6.746   3.751
 1142TIP3    H2 3384   8.039   6.854   3.742
 1143TIP3   OH2 3385   6.422   0.203   1.624
 1143TIP3    H1 3386   6.496   0.180   1.567
 1143TIP3    H2 3387   6.397   0.121   1.665
 1144TIP3   OH2 3388   8.127   3.570   1.915
 1144TIP3    H1 3389   8.099   3.532   1.832
 1144TIP3    H2 3390   8.116   3.500   1.980
 1145TIP3   OH2 3391   2.500   0.458   1.919
 1145TIP3    H1 3392   2.483   0.412   1.837
 1145TIP3    H2 3393   2.473   0.396   1.987
 1146TIP3   OH2 3394   1.331   3.297   1.581
 1146TIP3    H1 3395   1.297   3.363   1.521
 1146TIP3    H2 3396   1.281   3.218   1.560
 1147TIP3   OH2 3397   5.165   1.310   3.416
 1147TIP3    H1 3398   5.079   1.273   3.431
 1147TIP3    H2 3399   5.218   1.281   3.491
 1148TIP3   OH2 3400   1.953   0.356   1.579
 1148TIP3    H1 3401   2.029   0.322   1.531
 1148TIP3    H2 3402   1.965   0.324   1.668
 1149TIP3   OH2 3403   3.631   2.841   4.393
 1149TIP3    H1 3404   3.557   2.828   4.453
 1149TIP3    H2 3405   3.648   2.936   4.397
 1150TIP3   OH2 3406   3.906   0.263   1.874
 1150TIP3    H1 3407   3.898   0.227   1.962
 1150TIP3    H2 3408   3.899   0.186   1.816
 1151TIP3   OH2 3409   8.099   0.893   2.388
 1151TIP3    H1 3410   8.028   0.828   2.389
 1151TIP3    H2 3411   8.090   0.940   2.470
 1152TIP3   OH2 3412   3.112   6.365   2.349
 1152TIP3    H1 3413   3.128   6.293   2.409
 1152TIP3    H2 3414   3.049   6.330   2.286
 1153TIP3   OH2 3415   1.681   5.804   2.920
 1153TIP3    H1 3416   1.758   5.798   2.863
 1153TIP3    H2 3417   1.633   5.723   2.902
 1154TIP3   OH2 3418   7.818   5.248   3.556
 1154TIP3    H1 3419   7.848   5.254   3.647
 1154TIP3    H2 3420   7.854   5.166   3.524
 1155TIP3   OH2 3421   2.591   2.808   5.026
 1155TIP3    H1 3422   2.671   2.860   5.039
 1155TIP3    H2 3423   2.566   2.826   4.936
 1156TIP3   OH2 3424   8.199   2.793   0.529
 1156TIP3    H1 3425   8.242   2.711   0.554
 1156TIP3    H2 3426   8.131   2.768   0.468
 1157TIP3   OH2 3427   6.841   1.671   3.286
 1157TIP3    H1 3428   6.798   1.653   3.202
 1157TIP3    H2 3429   6.853   1.585   3.326
 1158TIP3   OH2 3430   0.427   7.589   3.203
 1158TIP3    H1 3431   0.413   7.543   3.120
 1158TIP3    H2 3432   0.418   7.522   3.270
 1159TIP3   OH2 3433   0.091   4.821   0.561
 1159TIP3    H1 3434   0.060   4.868   0.483
 1159TIP3    H2 3435   0.114   4.890   0.623
 1160TIP3   OH2 3436   5.026   2.672   2.679
 1160TIP3    H1 3437   4.978   2.591   2.665
 1160TIP3    H2 3438   5.056   2.667   2.770
 1161TIP3   OH2 3439   0.983   1.349   2.941
 1161TIP3    H1 3440   0.967   1.367   2.849
 1161TIP3    H2 3441   1.078   1.340   2.948
 1162TIP3   OH2 3442   3.665   0.470   6.638
 1162TIP3    H1 3443   3.652   0.549   6.586
 1162TIP3    H2 3444   3.592   0.469   6.699
 1163TIP3   OH2 3445   7.834   2.763   6.200
 1163TIP3    H1 3446   7.921   2.730   6.224
 1163TIP3    H2 3447   7.844   2.858   6.202
 1164TIP3   OH2 3448   5.169   6.264   2.190
 1164TIP3    H1 3449   5.182   6.268   2.095
 1164TIP3    H2 3450   5.082   6.227   2.201
 1165TIP3   OH2 3451   3.352   2.358   3.403
 1165TIP3    H1 3452   3.258   2.371   3.405
 1165TIP3    H2 3453   3.366   2.273   3.445
 1166TIP3   OH2 3454   3.442   6.508   2.080
 1166TIP3    H1 3455   3.361   6.534   2.125
 1166TIP3    H2 3456   3.474   6.433   2.130
 1167TIP3   OH2 3457   4.463   2.866   2.692
 1167TIP3    H1 3458   4.520   2.936   2.722
 1167TIP3    H2 3459   4.522   2.798   2.659
 1168TIP3   OH2 3460   2.720   0.955   2.300
 1168TIP3    H1 3461   2.636   0.970   2.343
 1168TIP3    H2 3462   2.701   0.966   2.206
 1169TIP3   OH2 3463   7.276   6.608   5.273
 1169TIP3    H1 3464   7.212   6.537   5.264
 1169TIP3    H2 3465   7.224   6.688   5.264
 1170TIP3   OH2 3466   6.622   0.115   6.556
 1170TIP3    H1 3467   6.680   0.161   6.496
 1170TIP3    H2 3468   6.542   0.099   6.506
 1171TIP3   OH2 3469   5.713   7.334   4.259
 1171TIP3    H1 3470   5.639   7.286   4.297
 1171TIP3    H2 3471   5.787   7.312   4.316
 1172TIP3   OH2 3472   1.958   6.546   0.584
 1172TIP3    H1 3473   2.007   6.500   0.516
 1172TIP3    H2 3474   1.915   6.477   0.634
 1173TIP3   OH2 3475   1.907   2.361   2.276
 1173TIP3    H1 3476   1.958   2.427   2.322
 1173TIP3    H2 3477   1.819   2.369   2.313
 1174TIP3   OH2 3478   6.417   5.888   2.743
 1174TIP3    H1 3479   6.471   5.812   2.720
 1174TIP3    H2 3480   6.327   5.856   2.741
 1175TIP3   OH2 3481   2.226   1.653   2.738
 1175TIP3    H1 3482   2.238   1.582   2.800
 1175TIP3    H2 3483   2.228   1.733   2.791
 1176TIP3   OH2 3484   4.293   7.746   5.278
 1176TIP3    H1 3485   4.385   7.763   5.257
 1176TIP3    H2 3486   4.244   7.792   5.209
 1177TIP3   OH2 3487   2.678   2.725   0.481
 1177TIP3    H1 3488   2.592   2.705   0.520
 1177TIP3    H2 3489   2.699   2.648   0.429
 1178TIP3   OH2 3490   7.211   4.142   5.876
 1178TIP3    H1 3491   7.185   4.188   5.797
 1178TIP3    H2 3492   7.279   4.081   5.848
 1179TIP3   OH2 3493   7.351   4.750   1.886
 1179TIP3    H1 3494   7.322   4.681   1.827
 1179TIP3    H2 3495   7.274   4.770   1.940
 1180TIP3   OH2 3496   4.084   1.668   5.540
 1180TIP3    H1 3497   4.067   1.742   5.481
 1180TIP3    H2 3498   4.170   1.635   5.512
 1181TIP3   OH2 3499   6.741   6.618   6.121
 1181TIP3    H1 3500   6.649   6.635   6.101
 1181TIP3    H2 3501   6.748   6.523   6.126
 1182TIP3   OH2 3502   5.006   0.171   3.881
 1182TIP3    H1 3503   4.956   0.090   3.888
 1182TIP3    H2 3504   4.949   0.231   3.833
 1183TIP3   OH2 3505   0.838   3.670   0.657
 1183TIP3    H1 3506   0.843   3.661   0.752
 1183TIP3    H2 3507   0.927   3.693   0.630
 1184TIP3   OH2 3508   2.086   0.894   5.333
 1184TIP3    H1 3509   2.076   0.979   5.291
 1184TIP3    H2 3510   2.050   0.832   5.271
 1185TIP3   OH2 3511   0.934   2.552   2.080
 1185TIP3    H1 3512   0.914   2.636   2.120
 1185TIP3    H2 3513   1.028   2.555   2.063
 1186TIP3   OH2 3514   2.608   7.495   3.497
 1186TIP3    H1 3515   2.683   7.462   3.548
 1186TIP3    H2 3516   2.543   7.425   3.502
 1187TIP3   OH2 3517   2.660   2.416   2.932
 1187TIP3    H1 3518   2.723   2.459   2.874
 1187TIP3    H2 3519   2.576   2.424   2.887
 1188TIP3   OH2 3520   2.477   3.484   3.092
 1188TIP3    H1 3521   2.498   3.556   3.151
 1188TIP3    H2 3522   2.541   3.493   3.020
 1189TIP3   OH2 3523   8.049   4.358   0.136
 1189TIP3    H1 3524   8.091   4.443   0.149
 1189TIP3    H2 3525   8.061   4.311   0.218
 1190TIP3   OH2 3526   0.350   2.388   5.724
 1190TIP3    H1 3527   0.318   2.474   5.698
 1190TIP3    H2 3528   0.278   2.328   5.704
 1191TIP3   OH2 3529   1.485   1.762   0.485
 1191TIP3    H1 3530   1.488   1.824   0.558
 1191TIP3    H2 3531   1.567   1.714   0.491
 1192TIP3   OH2 3532   2.258   4.734   1.366
 1192TIP3    H1 3533   2.294   4.820   1.387
 1192TIP3    H2 3534   2.296   4.713   1.280
 1193TIP3   OH2 3535   7.871   4.209   5.128
 1193TIP3    H1 3536   7.788   4.163   5.109
 1193TIP3    H2 3537   7.870   4.284   5.069
 1194TIP3   OH2 3538   5.716   6.785   0.320
 1194TIP3    H1 3539   5.759   6.704   0.347
 1194TIP3    H2 3540   5.650   6.756   0.256
 1195TIP3   OH2 3541   6.019   7.814   4.111
 1195TIP3    H1 3542   6.020   7.720   4.094
 1195TIP3    H2 3543   6.101   7.831   4.157
 1196TIP3   OH2 3544   4.400   0.702   0.435
 1196TIP3    H1 3545   4.437   0.615   0.420
 1196TIP3    H2 3546   4.371   0.731   0.348
 1197TIP3   OH2 3547   3.394   6.962   3.497
 1197TIP3    H1 3548   3.460   7.006   3.551
 1197TIP3    H2 3549   3.360   7.030   3.439
 1198TIP3   OH2 3550   2.551   3.078   4.532
 1198TIP3    H1 3551   2.455   3.069   4.535
 1198TIP3    H2 3552   2.573   3.074   4.439
 1199TIP3   OH2 3553   1.203   7.258   2.302
 1199TIP3    H1 3554   1.214   7.163   2.303
 1199TIP3    H2 3555   1.191   7.281   2.394
 1200TIP3   OH2 3556   1.088   3.634   6.394
 1200TIP3    H1 3557   1.162   3.641   6.334
 1200TIP3    H2 3558   1.061   3.542   6.390
 1201TIP3   OH2 3559   7.479   5.357   1.209
 1201TIP3    H1 3560   7.478   5.430   1.272
 1201TIP3    H2 3561   7.517   5.284   1.258
 1202TIP3   OH2 3562   3.516   3.349   5.383
 1202TIP3    H1 3563   3.422   3.349   5.396
 1202TIP3    H2 3564   3.542   3.258   5.397
 1203TIP3   OH2 3565   0.410   4.440   4.880
 1203TIP3    H1 3566   0.439   4.373   4.942
 1203TIP3    H2 3567   0.315   4.441   4.889
 1204TIP3   OH2 3568   3.394   4.732   0.490
 1204TIP3    H1 3569   3.322   4.770   0.440
 1204TIP3    H2 3570   3.467   4.792   0.475
 1205TIP3   OH2 3571   4.398   3.154   4.689
 1205TIP3    H1 3572   4.335   3.226   4.684
 1205TIP3    H2 3573   4.472   3.189   4.739
 1206TIP3   OH2 3574   4.578   1.757   3.068
 1206TIP3    H1 3575   4.568   1.823   3.136
 1206TIP3    H2 3576   4.574   1.673   3.115
 1207TIP3   OH2 3577   5.919   0.256   1.088
 1207TIP3    H1 3578   5.899   0.210   1.006
 1207TIP3    H2 3579   5.942   0.187   1.150
 1208TIP3   OH2 3580   3.393   6.946   0.179
 1208TIP3    H1 3581   3.377   6.941   0.085
 1208TIP3    H2 3582   3.485   6.972   0.187
 1209TIP3   OH2 3583   1.588   4.974   0.724
 1209TIP3    H1 3584   1.536   4.943   0.651
 1209TIP3    H2 3585   1.661   5.020   0.683
 1210TIP3   OH2 3586   4.217   3.693   0.101
 1210TIP3    H1 3587   4.260   3.751   0.038
 1210TIP3    H2 3588   4.241   3.730   0.186
 1211TIP3   OH2 3589   6.531   5.090   1.332
 1211TIP3    H1 3590   6.612   5.040   1.328
 1211TIP3    H2 3591   6.555   5.172   1.376
 1212TIP3   OH2 3592   6.246   5.953   2.509
 1212TIP3    H1 3593   6.299   5.878   2.536
 1212TIP3    H2 3594   6.309   6.016   2.474
 1213TIP3   OH2 3595   2.358   6.225   0.391
 1213TIP3    H1 3596   2.308   6.161   0.341
 1213TIP3    H2 3597   2.423   6.258   0.329
 1214TIP3   OH2 3598   3.995   4.011   0.356
 1214TIP3    H1 3599   4.022   4.021   0.447
 1214TIP3    H2 3600   3.956   3.924   0.352
 1215TIP3   OH2 3601   0.762   0.172   0.140
 1215TIP3    H1 3602   0.800   0.226   0.209
 1215TIP3    H2 3603   0.722   0.098   0.185
 1216TIP3   OH2 3604   5.341   6.223   3.495
 1216TIP3    H1 3605   5.366   6.143   3.449
 1216TIP3    H2 3606   5.267   6.196   3.550
 1217TIP3   OH2 3607   4.345   2.958   2.103
 1217TIP3    H1 3608   4.408   2.919   2.164
 1217TIP3    H2 3609   4.317   3.039   2.147
 1218TIP3   OH2 3610   7.138   0.773   2.507
 1218TIP3    H1 3611   7.118   0.755   2.416
 1218TIP3    H2 3612   7.115   0.865   2.519
 1219TIP3   OH2 3613   0.408   6.323   4.683
 1219TIP3    H1 3614   0.330   6.361   4.643
 1219TIP3    H2 3615   0.481   6.355   4.629
 1220TIP3   OH2 3616   8.231   2.466   2.718
 1220TIP3    H1 3617   8.241   2.447   2.625
 1220TIP3    H2 3618   8.268   2.390   2.763
 1221TIP3   OH2 3619   2.725   4.362   1.556
 1221TIP3    H1 3620   2.634   4.336   1.570
 1221TIP3    H2 3621   2.736   4.441   1.609
 1222TIP3   OH2 3622   6.761   0.566   0.426
 1222TIP3    H1 3623   6.829   0.621   0.463
 1222TIP3    H2 3624   6.793   0.544   0.338
 1223TIP3   OH2 3625   7.298   5.823   1.381
 1223TIP3    H1 3626   7.332   5.782   1.302
 1223TIP3    H2 3627   7.228   5.882   1.351
 1224TIP3   OH2 3628   3.361   6.905   2.227
 1224TIP3    H1 3629   3.321   6.902   2.314
 1224TIP3    H2 3630   3.290   6.931   2.169
 1225TIP3   OH2 3631   4.654   0.435   2.268
 1225TIP3    H1 3632   4.696   0.424   2.183
 1225TIP3    H2 3633   4.562   0.452   2.247
 1226TIP3   OH2 3634   1.247   2.764   1.906
 1226TIP3    H1 3635   1.334   2.779   1.871
 1226TIP3    H2 3636   1.200   2.717   1.836
 1227TIP3   OH2 3637   2.596   3.645   3.277
 1227TIP3    H1 3638   2.678   3.662   3.231
 1227TIP3    H2 3639   2.562   3.732   3.300
 1228TIP3   OH2 3640   5.311   7.123   0.283
 1228TIP3    H1 3641   5.324   7.132   0.189
 1228TIP3    H2 3642   5.223   7.087   0.292
 1229TIP3   OH2 3643   8.060   0.794   4.095
 1229TIP3    H1 3644   7.993   0.798   4.163
 1229TIP3    H2 3645   8.141   0.820   4.140
 1230TIP3   OH2 3646   5.812   7.371   4.616
 1230TIP3    H1 3647   5.738   7.431   4.604
 1230TIP3    H2 3648   5.867   7.414   4.681
 1231TIP3   OH2 3649   0.851   7.136   3.604
 1231TIP3    H1 3650   0.823   7.089   3.682
 1231TIP3    H2 3651   0.907   7.206   3.636
 1232TIP3   OH2 3652   0.369   0.262   6.420
 1232TIP3    H1 3653   0.326   0.178   6.405
 1232TIP3    H2 3654   0.393   0.260   6.513
 1233TIP3   OH2 3655   5.229   2.966   5.995
 1233TIP3    H1 3656   5.143   2.973   5.954
 1233TIP3    H2 3657   5.225   2.886   6.046
 1234TIP3   OH2 3658   8.113   1.809   4.237
 1234TIP3    H1 3659   8.132   1.731   4.289
 1234TIP3    H2 3660   8.182   1.811   4.170
 1235TIP3   OH2 3661   7.217   7.006   0.519
 1235TIP3    H1 3662   7.135   6.968   0.488
 1235TIP3    H2 3663   7.195   7.043   0.604
 1236TIP3   OH2 3664   0.384   6.310   5.093
 1236TIP3    H1 3665   0.392   6.248   5.165
 1236TIP3    H2 3666   0.318   6.272   5.035
 1237TIP3   OH2 3667   5.256   7.653   0.866
 1237TIP3    H1 3668   5.190   7.612   0.921
 1237TIP3    H2 3669   5.221   7.740   0.848
 1238TIP3   OH2 3670   6.629   2.246   5.058
 1238TIP3    H1 3671   6.636   2.329   5.010
 1238TIP3    H2 3672   6.675   2.183   5.003
 1239TIP3   OH2 3673   0.591   2.665   6.579
 1239TIP3    H1 3674   0.650   2.695   6.649
 1239TIP3    H2 3675   0.567   2.745   6.532
 1240TIP3   OH2 3676   6.219   4.960   3.086
 1240TIP3    H1 3677   6.130   4.994   3.094
 1240TIP3    H2 3678   6.245   4.940   3.177
 1241TIP3   OH2 3679   7.247   0.033   0.228
 1241TIP3    H1 3680   7.286   0.063   0.310
 1241TIP3    H2 3681   7.311   0.058   0.161
 1242TIP3   OH2 3682   4.413   1.950   2.660
 1242TIP3    H1 3683   4.386   2.015   2.595
 1242TIP3    H2 3684   4.400   1.994   2.744
 1243TIP3   OH2 3685   3.050   0.738   1.050
 1243TIP3    H1 3686   3.098   0.657   1.064
 1243TIP3    H2 3687   3.002   0.725   0.968
 1244TIP3   OH2 3688   7.089   3.965  -0.001
 1244TIP3    H1 3689   7.177   3.960   0.036
 1244TIP3    H2 3690   7.038   3.903   0.052
 1245TIP3   OH2 3691   3.210   1.153   5.755
 1245TIP3    H1 3692   3.142   1.220   5.764
 1245TIP3    H2 3693   3.268   1.167   5.830
 1246TIP3   OH2 3694   2.130   6.538   4.579
 1246TIP3    H1 3695   2.132   6.555   4.673
 1246TIP3    H2 3696   2.222   6.536   4.553
 1247TIP3   OH2 3697   7.241   0.810   3.356
 1247TIP3    H1 3698   7.219   0.885   3.301
 1247TIP3    H2 3699   7.317   0.770   3.314
 1248TIP3   OH2 3700   0.187   4.007   4.064
 1248TIP3    H1 3701   0.246   4.062   4.114
 1248TIP3    H2 3702   0.244   3.938   4.027
 1249TIP3   OH2 3703   4.913   1.402   3.679
 1249TIP3    H1 3704   4.981   1.353   3.725
 1249TIP3    H2 3705   4.848   1.336   3.654
 1250TIP3   OH2 3706   7.904   2.334   3.554
 1250TIP3    H1 3707   7.951   2.295   3.628
 1250TIP3    H2 3708   7.909   2.268   3.485
 1251TIP3   OH2 3709   6.956   4.706   4.971
 1251TIP3    H1 3710   6.928   4.735   5.058
 1251TIP3    H2 3711   6.936   4.779   4.913
 1252TIP3   OH2 3712   4.017   3.258   6.199
 1252TIP3    H1 3713   4.025   3.285   6.108
 1252TIP3    H2 3714   4.091   3.299   6.243
 1253TIP3   OH2 3715   8.251   3.402   2.659
 1253TIP3    H1 3716   8.174   3.428   2.709
 1253TIP3    H2 3717   8.278   3.482   2.614
 1254TIP3   OH2 3718   2.734   7.437   1.166
 1254TIP3    H1 3719   2.830   7.440   1.162
 1254TIP3    H2 3720   2.707   7.529   1.166
 1255TIP3   OH2 3721   3.948   2.384   6.305
 1255TIP3    H1 3722   3.875   2.366   6.364
 1255TIP3    H2 3723   4.003   2.306   6.311
 1256TIP3   OH2 3724   2.527   1.536   3.840
 1256TIP3    H1 3725   2.470   1.594   3.789
 1256TIP3    H2 3726   2.579   1.491   3.773
 1257TIP3   OH2 3727   1.514   7.482   1.059
 1257TIP3    H1 3728   1.565   7.537   1.000
 1257TIP3    H2 3729   1.447   7.442   1.003
 1258TIP3   OH2 3730   6.617   5.554   4.586
 1258TIP3    H1 3731   6.634   5.513   4.501
 1258TIP3    H2 3732   6.522   5.553   4.594
 1259TIP3   OH2 3733   4.460   0.240   4.942
 1259TIP3    H1 3734   4.519   0.180   4.986
 1259TIP3    H2 3735   4.509   0.322   4.934
 1260TIP3   OH2 3736   6.266   7.288   5.862
 1260TIP3    H1 3737   6.346   7.333   5.835
 1260TIP3    H2 3738   6.215   7.280   5.782
 1261TIP3   OH2 3739   4.402   6.139   1.430
 1261TIP3    H1 3740   4.345   6.066   1.455
 1261TIP3    H2 3741   4.479   6.129   1.486
 1262TIP3   OH2 3742   4.955   0.240   6.542
 1262TIP3    H1 3743   4.972   0.156   6.500
 1262TIP3    H2 3744   4.867   0.231   6.577
 1263TIP3   OH2 3745   6.464   2.916   1.145
 1263TIP3    H1 3746   6.498   2.976   1.212
 1263TIP3    H2 3747   6.458   2.970   1.066
 1264TIP3   OH2 3748   2.337   3.677   0.814
 1264TIP3    H1 3749   2.385   3.607   0.859
 1264TIP3    H2 3750   2.365   3.758   0.858
 1265TIP3   OH2 3751   7.198   6.448   3.469
 1265TIP3    H1 3752   7.209   6.370   3.523
 1265TIP3    H2 3753   7.265   6.440   3.401
 1266TIP3   OH2 3754   0.488   0.631   4.459
 1266TIP3    H1 3755   0.535   0.617   4.541
 1266TIP3    H2 3756   0.541   0.588   4.392
 1267TIP3   OH2 3757   5.716   1.593   5.760
 1267TIP3    H1 3758   5.797   1.565   5.717
 1267TIP3    H2 3759   5.716   1.547   5.844
 1268TIP3   OH2 3760   2.289   2.325   1.890
 1268TIP3    H1 3761   2.277   2.234   1.918
 1268TIP3    H2 3762   2.201   2.364   1.897
 1269TIP3   OH2 3763   2.149   7.618   2.122
 1269TIP3    H1 3764   2.088   7.689   2.141
 1269TIP3    H2 3765   2.098   7.538   2.132
 1270TIP3   OH2 3766   3.596   1.219   1.334
 1270TIP3    H1 3767   3.502   1.201   1.335
 1270TIP3    H2 3768   3.635   1.142   1.376
 1271TIP3   OH2 3769   1.185   1.029   1.261
 1271TIP3    H1 3770   1.272   0.996   1.285
 1271TIP3    H2 3771   1.126   0.955   1.275
 1272TIP3   OH2 3772   1.179   6.277   0.646
 1272TIP3    H1 3773   1.204   6.359   0.689
 1272TIP3    H2 3774   1.127   6.305   0.571
 1273TIP3   OH2 3775   2.802   2.113   1.380
 1273TIP3    H1 3776   2.715   2.141   1.351
 1273TIP3    H2 3777   2.791   2.021   1.405
 1274TIP3   OH2 3778   1.765   2.856   2.835
 1274TIP3    H1 3779   1.794   2.786   2.893
 1274TIP3    H2 3780   1.732   2.924   2.894
 1275TIP3   OH2 3781   6.748   2.826   5.540
 1275TIP3    H1 3782   6.759   2.900   5.480
 1275TIP3    H2 3783   6.717   2.866   5.622
 1276TIP3   OH2 3784   3.197   4.482   4.387
 1276TIP3    H1 3785   3.223   4.558   4.438
 1276TIP3    H2 3786   3.125   4.513   4.332
 1277TIP3   OH2 3787   3.264   0.381   6.568
 1277TIP3    H1 3788   3.196   0.313   6.572
 1277TIP3    H2 3789   3.342   0.335   6.538
 1278TIP3   OH2 3790   0.343   5.703   2.824
 1278TIP3    H1 3791   0.419   5.654   2.791
 1278TIP3    H2 3792   0.359   5.793   2.794
 1279TIP3   OH2 3793   5.213   1.199   0.283
 1279TIP3    H1 3794   5.231   1.144   0.358
 1279TIP3    H2 3795   5.129   1.168   0.249
 1280TIP3   OH2 3796   1.176   6.936   5.227
 1280TIP3    H1 3797   1.216   7.022   5.209
 1280TIP3    H2 3798   1.226   6.903   5.301
 1281TIP3   OH2 3799   2.189   0.881   4.165
 1281TIP3    H1 3800   2.146   0.796   4.157
 1281TIP3    H2 3801   2.183   0.919   4.077
 1282TIP3   OH2 3802   4.692   1.528   2.409
 1282TIP3    H1 3803   4.774   1.483   2.429
 1282TIP3    H2 3804   4.663   1.564   2.493
 1283TIP3   OH2 3805   0.703   4.422   2.091
 1283TIP3    H1 3806   0.717   4.383   2.004
 1283TIP3    H2 3807   0.735   4.355   2.151
 1284TIP3   OH2 3808   0.476   4.881   2.691
 1284TIP3    H1 3809   0.534   4.957   2.681
 1284TIP3    H2 3810   0.422   4.881   2.612
 1285TIP3   OH2 3811   0.188   5.751   4.998
 1285TIP3    H1 3812   0.154   5.836   5.025
 1285TIP3    H2 3813   0.177   5.749   4.903
 1286TIP3   OH2 3814   6.057   1.015   5.865
 1286TIP3    H1 3815   5.976   0.990   5.909
 1286TIP3    H2 3816   6.059   0.960   5.787
 1287TIP3   OH2 3817   8.247   1.574   4.400
 1287TIP3    H1 3818   8.275   1.558   4.310
 1287TIP3    H2 3819   8.328   1.598   4.446
 1288TIP3   OH2 3820   6.788   2.465   6.410
 1288TIP3    H1 3821   6.864   2.499   6.363
 1288TIP3    H2 3822   6.713   2.484   6.353
 1289TIP3   OH2 3823   4.067   4.419   6.305
 1289TIP3    H1 3824   4.149   4.432   6.354
 1289TIP3    H2 3825   4.001   4.407   6.373
 1290TIP3   OH2 3826   6.166   0.946   5.463
 1290TIP3    H1 3827   6.184   0.906   5.548
 1290TIP3    H2 3828   6.220   0.897   5.401
 1291TIP3   OH2 3829   5.129   3.918   3.017
 1291TIP3    H1 3830   5.091   3.995   2.974
 1291TIP3    H2 3831   5.167   3.952   3.097
 1292TIP3   OH2 3832   7.951   0.848   6.698
 1292TIP3    H1 3833   7.913   0.935   6.689
 1292TIP3    H2 3834   7.978   0.824   6.609
 1293TIP3   OH2 3835   2.634   5.937   4.121
 1293TIP3    H1 3836   2.618   5.954   4.214
 1293TIP3    H2 3837   2.551   5.902   4.089
 1294TIP3   OH2 3838   4.243   2.124   4.401
 1294TIP3    H1 3839   4.280   2.058   4.342
 1294TIP3    H2 3840   4.183   2.074   4.458
 1295TIP3   OH2 3841   7.456   6.717   6.072
 1295TIP3    H1 3842   7.521   6.746   6.009
 1295TIP3    H2 3843   7.486   6.752   6.156
 1296TIP3   OH2 3844   7.361   2.359   4.572
 1296TIP3    H1 3845   7.327   2.434   4.523
 1296TIP3    H2 3846   7.400   2.303   4.505
 1297TIP3   OH2 3847   8.048   2.682   2.343
 1297TIP3    H1 3848   8.094   2.706   2.423
 1297TIP3    H2 3849   8.115   2.683   2.275
 1298TIP3   OH2 3850   0.361   7.337   0.616
 1298TIP3    H1 3851   0.312   7.392   0.555
 1298TIP3    H2 3852   0.307   7.335   0.695
 1299TIP3   OH2 3853   6.927   3.512   6.454
 1299TIP3    H1 3854   6.893   3.570   6.523
 1299TIP3    H2 3855   6.860   3.446   6.443
 1300TIP3   OH2 3856   7.923   4.900   1.446
 1300TIP3    H1 3857   7.858   4.895   1.517
 1300TIP3    H2 3858   7.901   4.827   1.388
 1301TIP3   OH2 3859   4.249   1.368   2.350
 1301TIP3    H1 3860   4.159   1.383   2.321
 1301TIP3    H2 3861   4.303   1.381   2.272
 1302TIP3   OH2 3862   1.301   3.001   2.314
 1302TIP3    H1 3863   1.353   2.971   2.389
 1302TIP3    H2 3864   1.359   3.062   2.268
 1303TIP3   OH2 3865   0.760   5.198   5.609
 1303TIP3    H1 3866   0.790   5.219   5.520
 1303TIP3    H2 3867   0.757   5.282   5.654
 1304TIP3   OH2 3868   3.098   6.690   1.911
 1304TIP3    H1 3869   3.108   6.713   2.004
 1304TIP3    H2 3870   3.028   6.748   1.881
 1305TIP3   OH2 3871   5.225   4.801   2.206
 1305TIP3    H1 3872   5.133   4.782   2.224
 1305TIP3    H2 3873   5.238   4.891   2.233
 1306TIP3   OH2 3874   7.220   0.808   1.036
 1306TIP3    H1 3875   7.210   0.899   1.007
 1306TIP3    H2 3876   7.264   0.815   1.121
 1307TIP3   OH2 3877   7.895   5.922   0.851
 1307TIP3    H1 3878   7.829   5.966   0.799
 1307TIP3    H2 3879   7.885   5.959   0.939
 1308TIP3   OH2 3880   4.334   3.766   5.012
 1308TIP3    H1 3881   4.354   3.677   4.985
 1308TIP3    H2 3882   4.240   3.776   4.998
 1309TIP3   OH2 3883   3.986   1.657   3.636
 1309TIP3    H1 3884   3.891   1.655   3.650
 1309TIP3    H2 3885   4.010   1.749   3.648
 1310TIP3   OH2 3886   3.147   0.449   2.661
 1310TIP3    H1 3887   3.231   0.480   2.628
 1310TIP3    H2 3888   3.149   0.471   2.754
 1311TIP3   OH2 3889   6.994   0.199   2.169
 1311TIP3    H1 3890   6.986   0.256   2.092
 1311TIP3    H2 3891   6.926   0.132   2.156
 1312TIP3   OH2 3892   3.873   5.213   6.657
 1312TIP3    H1 3893   3.820   5.246   6.729
 1312TIP3    H2 3894   3.958   5.194   6.697
 1313TIP3   OH2 3895   5.357   7.784   1.385
 1313TIP3    H1 3896   5.285   7.768   1.446
 1313TIP3    H2 3897   5.436   7.761   1.434
 1314TIP3   OH2 3898   0.528   6.274   2.635
 1314TIP3    H1 3899   0.554   6.271   2.727
 1314TIP3    H2 3900   0.433   6.284   2.637
 1315TIP3   OH2 3901   4.946   3.343   1.227
 1315TIP3    H1 3902   4.914   3.418   1.277
 1315TIP3    H2 3903   5.028   3.373   1.188
 1316TIP3   OH2 3904   3.242   5.104   5.706
 1316TIP3    H1 3905   3.243   5.177   5.768
 1316TIP3    H2 3906   3.215   5.144   5.623
 1317TIP3   OH2 3907   0.190   5.921   1.740
 1317TIP3    H1 3908   0.189   5.827   1.723
 1317TIP3    H2 3909   0.106   5.940   1.780
 1318TIP3   OH2 3910   0.581   1.998   4.151
 1318TIP3    H1 3911   0.508   2.053   4.123
 1318TIP3    H2 3912   0.539   1.918   4.183
 1319TIP3   OH2 3913   3.338   0.029   6.456
 1319TIP3    H1 3914   3.279   0.046   6.529
 1319TIP3    H2 3915   3.331   0.107   6.400
 1320TIP3   OH2 3916   7.672   1.943   4.031
 1320TIP3    H1 3917   7.712   2.017   4.076
 1320TIP3    H2 3918   7.617   1.901   4.098
 1321TIP3   OH2 3919   1.030   5.027   6.538
 1321TIP3    H1 3920   1.018   5.074   6.621
 1321TIP3    H2 3921   1.097   4.961   6.558
 1322TIP3   OH2 3922   6.075   0.935   2.467
 1322TIP3    H1 3923   6.012   0.864   2.483
 1322TIP3    H2 3924   6.046   0.974   2.384
 1323TIP3   OH2 3925   7.919   3.049   6.507
 1323TIP3    H1 3926   7.968   3.131   6.498
 1323TIP3    H2 3927   7.941   3.017   6.594
 1324TIP3   OH2 3928   1.984   5.917   1.905
 1324TIP3    H1 3929   2.057   5.870   1.863
 1324TIP3    H2 3930   1.914   5.915   1.840
 1325TIP3   OH2 3931   7.549   5.182   3.632
 1325TIP3    H1 3932   7.500   5.133   3.566
 1325TIP3    H2 3933   7.616   5.229   3.582
 1326TIP3   OH2 3934   3.364   1.560   6.160
 1326TIP3    H1 3935   3.405   1.483   6.198
 1326TIP3    H2 3936   3.362   1.624   6.230
 1327TIP3   OH2 3937   4.102   0.664   5.962
 1327TIP3    H1 3938   4.163   0.725   6.004
 1327TIP3    H2 3939   4.157   0.593   5.930
 1328TIP3   OH2 3940   4.523   6.576   4.921
 1328TIP3    H1 3941   4.472   6.573   4.840
 1328TIP3    H2 3942   4.465   6.540   4.988
 1329TIP3   OH2 3943   0.841   7.594   1.215
 1329TIP3    H1 3944   0.758   7.639   1.200
 1329TIP3    H2 3945   0.877   7.637   1.293
 1330TIP3   OH2 3946   1.857   6.890   2.035
 1330TIP3    H1 3947   1.897   6.912   2.119
 1330TIP3    H2 3948   1.879   6.964   1.978
 1331TIP3   OH2 3949   0.770   7.770   6.088
 1331TIP3    H1 3950   0.832   7.715   6.040
 1331TIP3    H2 3951   0.714   7.809   6.021
 1332TIP3   OH2 3952   0.656   2.606   1.731
 1332TIP3    H1 3953   0.620   2.690   1.704
 1332TIP3    H2 3954   0.586   2.566   1.783
 1333TIP3   OH2 3955   2.318   7.571   4.646
 1333TIP3    H1 3956   2.232   7.591   4.684
 1333TIP3    H2 3957   2.334   7.641   4.584
 1334TIP3   OH2 3958   3.128   5.753   2.938
 1334TIP3    H1 3959   3.071   5.807   2.992
 1334TIP3    H2 3960   3.214   5.794   2.945
 1335TIP3   OH2 3961   8.085   2.734   6.369
 1335TIP3    H1 3962   8.049   2.654   6.406
 1335TIP3    H2 3963   8.124   2.780   6.443
 1336TIP3   OH2 3964   5.020   0.766   5.736
 1336TIP3    H1 3965   5.108   0.764   5.699
 1336TIP3    H2 3966   4.970   0.705   5.682
 1337TIP3   OH2 3967   1.645   5.998   3.545
 1337TIP3    H1 3968   1.642   6.012   3.450
 1337TIP3    H2 3969   1.628   5.905   3.556
 1338TIP3   OH2 3970   6.743   5.310   5.013
 1338TIP3    H1 3971   6.722   5.354   5.095
 1338TIP3    H2 3972   6.705   5.222   5.023
 1339TIP3   OH2 3973   5.490   2.033   6.648
 1339TIP3    H1 3974   5.404   2.064   6.677
 1339TIP3    H2 3975   5.513   1.965   6.711
 1340TIP3   OH2 3976   6.167   6.710   2.498
 1340TIP3    H1 3977   6.174   6.629   2.448
 1340TIP3    H2 3978   6.186   6.779   2.434
 1341TIP3   OH2 3979   2.638   2.865   6.708
 1341TIP3    H1 3980   2.633   2.957   6.682
 1341TIP3    H2 3981   2.547   2.839   6.722
 1342TIP3   OH2 3982   1.924   1.131   2.435
 1342TIP3    H1 3983   1.944   1.159   2.346
 1342TIP3    H2 3984   1.892   1.042   2.425
 1343TIP3   OH2 3985   5.167   7.490   1.865
 1343TIP3    H1 3986   5.258   7.506   1.891
 1343TIP3    H2 3987   5.175   7.432   1.789
 1344TIP3   OH2 3988   4.116   6.181   5.653
 1344TIP3    H1 3989   4.173   6.164   5.577
 1344TIP3    H2 3990   4.090   6.273   5.643
 1345TIP3   OH2 3991   7.039   7.385   0.280
 1345TIP3    H1 3992   7.036   7.363   0.373
 1345TIP3    H2 3993   7.105   7.454   0.274
 1346TIP3   OH2 3994   5.832   0.148   2.237
 1346TIP3    H1 3995   5.902   0.163   2.173
 1346TIP3    H2 3996   5.865   0.079   2.294
 1347TIP3   OH2 3997   5.963   4.525   4.482
 1347TIP3    H1 3998   6.057   4.534   4.498
 1347TIP3    H2 3999   5.957   4.467   4.406
 1348TIP3   OH2 4000   1.692   3.426   5.812
 1348TIP3    H1 4001   1.672   3.465   5.897
 1348TIP3    H2 4002   1.624   3.360   5.799
 1349TIP3   OH2 4003   2.788   6.075   6.295
 1349TIP3    H1 4004   2.730   6.150   6.305
 1349TIP3    H2 4005   2.855   6.105   6.233
 1350TIP3   OH2 4006   6.517   2.707   4.373
 1350TIP3    H1 4007   6.460   2.661   4.312
 1350TIP3    H2 4008   6.500   2.665   4.458
 1351TIP3   OH2 4009   4.946   0.088   5.848
 1351TIP3    H1 4010   4.878   0.041   5.896
 1351TIP3    H2 4011   5.003   0.124   5.916
 1352TIP3   OH2 4012   6.467   0.948   3.650
 1352TIP3    H1 4013   6.456   0.972   3.742
 1352TIP3    H2 4014   6.526   0.872   3.652
 1353TIP3   OH2 4015   0.235   7.380   4.859
 1353TIP3    H1 4016   0.163   7.408   4.802
 1353TIP3    H2 4017   0.265   7.297   4.821
 1354TIP3   OH2 4018   7.043   0.656   3.123
 1354TIP3    H1 4019   7.118   0.701   3.162
 1354TIP3    H2 4020   7.038   0.689   3.034
 1355TIP3   OH2 4021   5.289   5.406   1.130
 1355TIP3    H1 4022   5.329   5.368   1.208
 1355TIP3    H2 4023   5.238   5.480   1.162
 1356TIP3   OH2 4024   2.157   5.934   2.560
 1356TIP3    H1 4025   2.136   5.976   2.643
 1356TIP3    H2 4026   2.121   5.993   2.493
 1357TIP3   OH2 4027   0.752   7.749   4.808
 1357TIP3    H1 4028   0.693   7.677   4.787
 1357TIP3    H2 4029   0.699   7.828   4.796
 1358TIP3   OH2 4030   6.109   0.856   4.782
 1358TIP3    H1 4031   6.189   0.905   4.796
 1358TIP3    H2 4032   6.137   0.776   4.738
 1359TIP3   OH2 4033   6.277   1.631   4.812
 1359TIP3    H1 4034   6.318   1.586   4.738
 1359TIP3    H2 4035   6.351   1.662   4.864
 1360TIP3   OH2 4036   3.662   2.529   4.950
 1360TIP3    H1 4037   3.651   2.434   4.949
 1360TIP3    H2 4038   3.752   2.542   4.979
 1361TIP3   OH2 4039   1.517   7.250   0.700
 1361TIP3    H1 4040   1.540   7.187   0.632
 1361TIP3    H2 4041   1.591   7.249   0.760
 1362TIP3   OH2 4042   7.799   5.268   1.558
 1362TIP3    H1 4043   7.785   5.357   1.590
 1362TIP3    H2 4044   7.883   5.272   1.511
 1363TIP3   OH2 4045   5.573   6.649   0.129
 1363TIP3    H1 4046   5.504   6.682   0.071
 1363TIP3    H2 4047   5.655   6.665   0.082
 1364TIP3   OH2 4048   1.110   2.575   6.732
 1364TIP3    H1 4049   1.108   2.659   6.777
 1364TIP3    H2 4050   1.020   2.545   6.733
 1365TIP3   OH2 4051   0.857   3.352   0.472
 1365TIP3    H1 4052   0.945   3.385   0.490
 1365TIP3    H2 4053   0.859   3.328   0.379
 1366TIP3   OH2 4054   4.299   7.682   3.715
 1366TIP3    H1 4055   4.248   7.706   3.638
 1366TIP3    H2 4056   4.345   7.763   3.739
 1367TIP3   OH2 4057   2.214   0.919   2.523
 1367TIP3    H1 4058   2.167   0.986   2.571
 1367TIP3    H2 4059   2.169   0.837   2.545
 1368TIP3   OH2 4060   6.917   0.867   4.198
 1368TIP3    H1 4061   6.850   0.876   4.130
 1368TIP3    H2 4062   6.984   0.811   4.159
 1369TIP3   OH2 4063   1.288   5.258   4.230
 1369TIP3    H1 4064   1.353   5.195   4.199
 1369TIP3    H2 4065   1.254   5.220   4.311
 1370TIP3   OH2 4066   6.313   7.187   2.537
 1370TIP3    H1 4067   6.230   7.230   2.556
 1370TIP3    H2 4068   6.352   7.238   2.467
 1371TIP3   OH2 4069   7.531   5.716   5.890
 1371TIP3    H1 4070   7.441   5.696   5.861
 1371TIP3    H2 4071   7.547   5.805   5.859
 1372TIP3   OH2 4072   2.467   5.472   3.167
 1372TIP3    H1 4073   2.470   5.505   3.078
 1372TIP3    H2 4074   2.374   5.475   3.191
 1373TIP3   OH2 4075   6.843   3.925   6.512
 1373TIP3    H1 4076   6.835   3.990   6.583
 1373TIP3    H2 4077   6.819   3.974   6.433
 1374TIP3   OH2 4078   5.783   5.387   5.119
 1374TIP3    H1 4079   5.843   5.405   5.191
 1374TIP3    H2 4080   5.817   5.440   5.046
 1375TIP3   OH2 4081   5.268   4.811   5.371
 1375TIP3    H1 4082   5.326   4.859   5.311
 1375TIP3    H2 4083   5.236   4.737   5.319
 1376TIP3   OH2 4084   4.648   2.074   4.132
 1376TIP3    H1 4085   4.725   2.094   4.183
 1376TIP3    H2 4086   4.575   2.085   4.193
 1377TIP3   OH2 4087   5.527   5.641   0.837
 1377TIP3    H1 4088   5.508   5.550   0.861
 1377TIP3    H2 4089   5.451   5.668   0.786
 1378TIP3   OH2 4090   6.313   4.237   4.188
 1378TIP3    H1 4091   6.222   4.209   4.195
 1378TIP3    H2 4092   6.359   4.160   4.156
 1379TIP3   OH2 4093   7.832   0.828   1.907
 1379TIP3    H1 4094   7.925   0.823   1.927
 1379TIP3    H2 4095   7.811   0.742   1.868
 1380TIP3   OH2 4096   4.735   3.971   5.476
 1380TIP3    H1 4097   4.684   3.967   5.557
 1380TIP3    H2 4098   4.701   3.899   5.423
 1381TIP3   OH2 4099   2.688   3.471   2.891
 1381TIP3    H1 4100   2.776   3.499   2.916
 1381TIP3    H2 4101   2.700   3.419   2.812
 1382TIP3   OH2 4102   5.505   0.714   5.440
 1382TIP3    H1 4103   5.430   0.674   5.482
 1382TIP3    H2 4104   5.540   0.775   5.505
 1383TIP3   OH2 4105   7.358   6.870   2.376
 1383TIP3    H1 4106   7.291   6.925   2.416
 1383TIP3    H2 4107   7.334   6.866   2.283
 1384TIP3   OH2 4108   4.066   6.230   2.447
 1384TIP3    H1 4109   4.124   6.277   2.506
 1384TIP3    H2 4110   4.070   6.139   2.476
 1385TIP3   OH2 4111   5.309   6.122   6.507
 1385TIP3    H1 4112   5.248   6.050   6.492
 1385TIP3    H2 4113   5.282   6.160   6.591
 1386TIP3   OH2 4114   3.282   5.205   2.859
 1386TIP3    H1 4115   3.201   5.246   2.890
 1386TIP3    H2 4116   3.337   5.197   2.938
 1387TIP3   OH2 4117   4.692   0.434   4.915
 1387TIP3    H1 4118   4.688   0.511   4.859
 1387TIP3    H2 4119   4.770   0.387   4.885
 1388TIP3   OH2 4120   8.239   3.549   4.404
 1388TIP3    H1 4121   8.165   3.489   4.400
 1388TIP3    H2 4122   8.235   3.586   4.493
 1389TIP3   OH2 4123   5.773   0.622   3.268
 1389TIP3    H1 4124   5.773   0.539   3.220
 1389TIP3    H2 4125   5.786   0.596   3.360
 1390TIP3   OH2 4126   1.606   4.032   3.219
 1390TIP3    H1 4127   1.594   4.019   3.125
 1390TIP3    H2 4128   1.701   4.035   3.230
 1391TIP3   OH2 4129   2.991   6.184   6.136
 1391TIP3    H1 4130   3.032   6.173   6.050
 1391TIP3    H2 4131   2.938   6.263   6.127
 1392TIP3   OH2 4132   5.471   3.640   0.569
 1392TIP3    H1 4133   5.523   3.720   0.564
 1392TIP3    H2 4134   5.441   3.625   0.480
 1393TIP3   OH2 4135   6.218   7.037   3.242
 1393TIP3    H1 4136   6.210   7.056   3.336
 1393TIP3    H2 4137   6.179   6.951   3.231
 1394TIP3   OH2 4138   5.431   4.324   4.706
 1394TIP3    H1 4139   5.497   4.392   4.714
 1394TIP3    H2 4140   5.473   4.246   4.744
 1395TIP3   OH2 4141   2.028   3.449   6.629
 1395TIP3    H1 4142   2.117   3.480   6.612
 1395TIP3    H2 4143   2.027   3.427   6.722
 1396TIP3   OH2 4144   1.249   4.116   5.811
 1396TIP3    H1 4145   1.261   4.200   5.855
 1396TIP3    H2 4146   1.216   4.138   5.724
 1397TIP3   OH2 4147   7.954   5.765   1.856
 1397TIP3    H1 4148   7.869   5.793   1.823
 1397TIP3    H2 4149   7.998   5.726   1.780
 1398TIP3   OH2 4150   3.150   1.579   6.466
 1398TIP3    H1 4151   3.134   1.534   6.383
 1398TIP3    H2 4152   3.097   1.531   6.530
 1399TIP3   OH2 4153   1.368   0.017   4.412
 1399TIP3    H1 4154   1.440  -0.041   4.387
 1399TIP3    H2 4155   1.335   0.051   4.329
 1400TIP3   OH2 4156   3.783   4.738   0.361
 1400TIP3    H1 4157   3.806   4.658   0.313
 1400TIP3    H2 4158   3.867   4.778   0.382
 1401TIP3   OH2 4159   1.729   2.068   5.627
 1401TIP3    H1 4160   1.691   2.076   5.715
 1401TIP3    H2 4161   1.774   1.984   5.628
 1402TIP3   OH2 4162   0.025   3.896   3.011
 1402TIP3    H1 4163   0.107   3.943   2.996
 1402TIP3    H2 4164   0.038   3.810   2.971
 1403TIP3   OH2 4165   3.553   2.233   3.890
 1403TIP3    H1 4166   3.565   2.149   3.934
 1403TIP3    H2 4167   3.634   2.248   3.843
 1404TIP3   OH2 4168   2.563   5.483   5.100
 1404TIP3    H1 4169   2.494   5.533   5.055
 1404TIP3    H2 4170   2.556   5.395   5.064
 1405TIP3   OH2 4171   7.718   5.582   6.010
 1405TIP3    H1 4172   7.669   5.640   5.952
 1405TIP3    H2 4173   7.708   5.495   5.972
 1406TIP3   OH2 4174   4.780   7.279   1.589
 1406TIP3    H1 4175   4.874   7.265   1.578
 1406TIP3    H2 4176   4.742   7.246   1.508
 1407TIP3   OH2 4177   5.205   3.089   1.445
 1407TIP3    H1 4178   5.136   3.045   1.396
 1407TIP3    H2 4179   5.267   3.019   1.466
 1408TIP3   OH2 4180   7.770   7.058   5.125
 1408TIP3    H1 4181   7.734   7.142   5.153
 1408TIP3    H2 4182   7.864   7.073   5.119
 1409TIP3   OH2 4183   6.730   1.652   1.905
 1409TIP3    H1 4184   6.746   1.746   1.918
 1409TIP3    H2 4185   6.695   1.622   1.989
 1410TIP3   OH2 4186   5.178   2.028   2.087
 1410TIP3    H1 4187   5.224   2.077   2.155
 1410TIP3    H2 4188   5.239   1.960   2.061
 1411TIP3   OH2 4189   4.662   6.813   4.793
 1411TIP3    H1 4190   4.600   6.764   4.847
 1411TIP3    H2 4191   4.713   6.864   4.855
 1412TIP3   OH2 4192   5.304   2.225   1.857
 1412TIP3    H1 4193   5.255   2.307   1.857
 1412TIP3    H2 4194   5.308   2.198   1.766
 1413TIP3   OH2 4195   7.229   3.681   2.318
 1413TIP3    H1 4196   7.232   3.746   2.388
 1413TIP3    H2 4197   7.223   3.597   2.363
 1414TIP3   OH2 4198   3.849   6.764   6.352
 1414TIP3    H1 4199   3.831   6.790   6.442
 1414TIP3    H2 4200   3.779   6.806   6.301
 1415TIP3   OH2 4201   1.165   2.349   2.236
 1415TIP3    H1 4202   1.210   2.267   2.257
 1415TIP3    H2 4203   1.105   2.363   2.309
 1416TIP3   OH2 4204   0.176   0.989   0.353
 1416TIP3    H1 4205   0.166   0.911   0.407
 1416TIP3    H2 4206   0.150   1.061   0.411
 1417TIP3   OH2 4207   6.771   3.076   2.763
 1417TIP3    H1 4208   6.795   3.146   2.823
 1417TIP3    H2 4209   6.752   3.001   2.820
 1418TIP3   OH2 4210   2.257   4.662   5.256
 1418TIP3    H1 4211   2.241   4.749   5.291
 1418TIP3    H2 4212   2.245   4.604   5.331
 1419TIP3   OH2 4213   3.822   4.419   2.179
 1419TIP3    H1 4214   3.736   4.447   2.212
 1419TIP3    H2 4215   3.884   4.477   2.221
 1420TIP3   OH2 4216   3.644   6.578   5.295
 1420TIP3    H1 4217   3.653   6.539   5.208
 1420TIP3    H2 4218   3.558   6.619   5.294
 1421TIP3   OH2 4219   6.288   6.479   4.117
 1421TIP3    H1 4220   6.353   6.431   4.065
 1421TIP3    H2 4221   6.243   6.534   4.053
 1422TIP3   OH2 4222   3.895   7.259   5.086
 1422TIP3    H1 4223   3.888   7.269   5.181
 1422TIP3    H2 4224   3.989   7.249   5.070
 1423TIP3   OH2 4225   3.514   3.327   4.475
 1423TIP3    H1 4226   3.445   3.379   4.517
 1423TIP3    H2 4227   3.581   3.392   4.451
 1424TIP3   OH2 4228   7.904   0.620   3.901
 1424TIP3    H1 4229   7.837   0.686   3.884
 1424TIP3    H2 4230   7.967   0.663   3.959
 1425TIP3   OH2 4231   6.743   2.906   1.332
 1425TIP3    H1 4232   6.758   2.991   1.293
 1425TIP3    H2 4233   6.672   2.920   1.395
 1426TIP3   OH2 4234   0.641   7.103   3.379
 1426TIP3    H1 4235   0.703   7.159   3.426
 1426TIP3    H2 4236   0.658   7.015   3.413
 1427TIP3   OH2 4237   7.573   1.757   1.704
 1427TIP3    H1 4238   7.566   1.817   1.777
 1427TIP3    H2 4239   7.489   1.762   1.659
 1428TIP3   OH2 4240   1.681   2.707   1.408
 1428TIP3    H1 4241   1.690   2.758   1.489
 1428TIP3    H2 4242   1.767   2.714   1.366
 1429TIP3   OH2 4243   2.538   4.468   0.837
 1429TIP3    H1 4244   2.504   4.526   0.905
 1429TIP3    H2 4245   2.497   4.384   0.855
 1430TIP3   OH2 4246   1.034   5.366   5.884
 1430TIP3    H1 4247   1.054   5.308   5.811
 1430TIP3    H2 4248   0.940   5.378   5.880
 1431TIP3   OH2 4249   8.103   3.637   3.301
 1431TIP3    H1 4250   8.191   3.665   3.276
 1431TIP3    H2 4251   8.047   3.712   3.283
 1432TIP3   OH2 4252   7.796   2.760   1.956
 1432TIP3    H1 4253   7.806   2.728   2.046
 1432TIP3    H2 4254   7.703   2.749   1.937
 1433TIP3   OH2 4255   7.658   7.688   0.273
 1433TIP3    H1 4256   7.733   7.746   0.258
 1433TIP3    H2 4257   7.610   7.728   0.345
 1434TIP3   OH2 4258   5.297   0.292   2.862
 1434TIP3    H1 4259   5.353   0.312   2.788
 1434TIP3    H2 4260   5.358   0.263   2.931
 1435TIP3   OH2 4261   7.820   0.563   6.759
 1435TIP3    H1 4262   7.783   0.645   6.727
 1435TIP3    H2 4263   7.799   0.499   6.691
 1436TIP3   OH2 4264   5.473   5.264   6.312
 1436TIP3    H1 4265   5.460   5.237   6.222
 1436TIP3    H2 4266   5.537   5.336   6.307
 1437TIP3   OH2 4267   4.318   0.744   0.186
 1437TIP3    H1 4268   4.272   0.806   0.130
 1437TIP3    H2 4269   4.254   0.676   0.204
 1438TIP3   OH2 4270   3.774   4.009   3.661
 1438TIP3    H1 4271   3.769   3.920   3.628
 1438TIP3    H2 4272   3.694   4.020   3.712
 1439TIP3   OH2 4273   6.423   3.462   5.235
 1439TIP3    H1 4274   6.437   3.500   5.149
 1439TIP3    H2 4275   6.351   3.514   5.273
 1440TIP3   OH2 4276   1.597   1.026   1.509
 1440TIP3    H1 4277   1.528   1.046   1.447
 1440TIP3    H2 4278   1.672   1.079   1.480
 1441TIP3   OH2 4279   3.213   5.180   5.050
 1441TIP3    H1 4280   3.254   5.111   4.997
 1441TIP3    H2 4281   3.284   5.217   5.102
 1442TIP3   OH2 4282   5.473   6.482   5.936
 1442TIP3    H1 4283   5.409   6.442   5.995
 1442TIP3    H2 4284   5.492   6.414   5.871
 1443TIP3   OH2 4285   0.922   4.931   0.214
 1443TIP3    H1 4286   1.014   4.905   0.207
 1443TIP3    H2 4287   0.909   4.951   0.307
 1444TIP3   OH2 4288   7.869   7.069   4.254
 1444TIP3    H1 4289   7.860   7.060   4.159
 1444TIP3    H2 4290   7.805   7.007   4.290
 1445TIP3   OH2 4291   0.312   0.950   2.840
 1445TIP3    H1 4292   0.358   0.895   2.903
 1445TIP3    H2 4293   0.224   0.961   2.877
 1446TIP3   OH2 4294   6.194   1.254   1.336
 1446TIP3    H1 4295   6.122   1.194   1.318
 1446TIP3    H2 4296   6.154   1.325   1.386
 1447TIP3   OH2 4297   4.829   7.016   0.136
 1447TIP3    H1 4298   4.891   6.955   0.175
 1447TIP3    H2 4299   4.749   7.006   0.187
 1448TIP3   OH2 4300   2.478   6.714   6.285
 1448TIP3    H1 4301   2.459   6.789   6.229
 1448TIP3    H2 4302   2.507   6.753   6.368
 1449TIP3   OH2 4303   2.770   0.188   3.144
 1449TIP3    H1 4304   2.775   0.106   3.193
 1449TIP3    H2 4305   2.784   0.257   3.209
 1450TIP3   OH2 4306   5.815   2.971   5.333
 1450TIP3    H1 4307   5.888   2.991   5.393
 1450TIP3    H2 4308   5.737   2.993   5.384
 1451TIP3   OH2 4309   5.176   4.965   1.172
 1451TIP3    H1 4310   5.258   4.998   1.210
 1451TIP3    H2 4311   5.154   5.029   1.104
 1452TIP3   OH2 4312   2.057   5.579   1.933
 1452TIP3    H1 4313   1.963   5.595   1.936
 1452TIP3    H2 4314   2.066   5.496   1.886
 1453TIP3   OH2 4315   2.953   7.307   2.284
 1453TIP3    H1 4316   3.029   7.365   2.274
 1453TIP3    H2 4317   2.921   7.324   2.372
 1454TIP3   OH2 4318   2.403   4.193   4.044
 1454TIP3    H1 4319   2.460   4.130   4.088
 1454TIP3    H2 4320   2.328   4.141   4.015
 1455TIP3   OH2 4321   7.781   5.004   5.596
 1455TIP3    H1 4322   7.742   5.049   5.521
 1455TIP3    H2 4323   7.874   4.997   5.574
 1456TIP3   OH2 4324   3.558   5.652   2.873
 1456TIP3    H1 4325   3.584   5.734   2.916
 1456TIP3    H2 4326   3.504   5.607   2.938
 1457TIP3   OH2 4327   4.082   1.492   4.465
 1457TIP3    H1 4328   3.998   1.537   4.452
 1457TIP3    H2 4329   4.062   1.400   4.446
 1458TIP3   OH2 4330   5.184   3.206   2.627
 1458TIP3    H1 4331   5.243   3.150   2.678
 1458TIP3    H2 4332   5.219   3.294   2.640
 1459TIP3   OH2 4333   7.833   7.807   5.655
 1459TIP3    H1 4334   7.853   7.900   5.667
 1459TIP3    H2 4335   7.916   7.767   5.630
 1460TIP3   OH2 4336   6.071   0.496   2.775
 1460TIP3    H1 4337   6.090   0.491   2.682
 1460TIP3    H2 4338   6.009   0.568   2.784
 1461TIP3   OH2 4339   3.231   3.857   0.034
 1461TIP3    H1 4340   3.236   3.772   0.078
 1461TIP3    H2 4341   3.206   3.919   0.103
 1462TIP3   OH2 4342   3.310  -0.003   4.207
 1462TIP3    H1 4343   3.311  -0.035   4.297
 1462TIP3    H2 4344   3.255   0.075   4.210
 1463TIP3   OH2 4345   1.297   6.506   2.635
 1463TIP3    H1 4346   1.211   6.474   2.664
 1463TIP3    H2 4347   1.331   6.554   2.710
 1464TIP3   OH2 4348   4.016   3.228   3.480
 1464TIP3    H1 4349   4.013   3.283   3.558
 1464TIP3    H2 4350   3.930   3.239   3.440
 1465TIP3   OH2 4351   3.943   2.384   2.998
 1465TIP3    H1 4352   3.915   2.429   2.918
 1465TIP3    H2 4353   3.878   2.315   3.011
 1466TIP3   OH2 4354   8.091   4.032   1.231
 1466TIP3    H1 4355   8.141   3.984   1.297
 1466TIP3    H2 4356   8.157   4.067   1.171
 1467TIP3   OH2 4357   1.802   0.541   2.912
 1467TIP3    H1 4358   1.789   0.446   2.912
 1467TIP3    H2 4359   1.753   0.572   2.836
 1468TIP3   OH2 4360   2.171   3.950   2.450
 1468TIP3    H1 4361   2.222   3.940   2.531
 1468TIP3    H2 4362   2.148   4.043   2.448
 1469TIP3   OH2 4363   3.788   1.822   3.323
 1469TIP3    H1 4364   3.698   1.793   3.336
 1469TIP3    H2 4365   3.802   1.889   3.390
 1470TIP3   OH2 4366   6.512   0.733   6.588
 1470TIP3    H1 4367   6.526   0.782   6.507
 1470TIP3    H2 4368   6.425   0.694   6.577
 1471TIP3   OH2 4369   1.719   1.637   0.449
 1471TIP3    H1 4370   1.753   1.633   0.360
 1471TIP3    H2 4371   1.774   1.577   0.499
 1472TIP3   OH2 4372   1.996   2.472   1.622
 1472TIP3    H1 4373   1.909   2.442   1.596
 1472TIP3    H2 4374   1.991   2.568   1.615
 1473TIP3   OH2 4375   1.648   7.643   6.387
 1473TIP3    H1 4376   1.556   7.637   6.414
 1473TIP3    H2 4377   1.651   7.714   6.323
 1474TIP3   OH2 4378   7.523   3.735   5.842
 1474TIP3    H1 4379   7.458   3.709   5.776
 1474TIP3    H2 4380   7.492   3.694   5.923
 1475TIP3   OH2 4381   0.702   6.539   2.750
 1475TIP3    H1 4382   0.696   6.481   2.826
 1475TIP3    H2 4383   0.791   6.530   2.718
 1476TIP3   OH2 4384   4.495   1.587   2.242
 1476TIP3    H1 4385   4.479   1.511   2.187
 1476TIP3    H2 4386   4.566   1.560   2.300
 1477TIP3   OH2 4387   2.118   5.575   5.339
 1477TIP3    H1 4388   2.137   5.605   5.250
 1477TIP3    H2 4389   2.203   5.548   5.374
 1478TIP3   OH2 4390   6.531   2.151   1.870
 1478TIP3    H1 4391   6.498   2.235   1.903
 1478TIP3    H2 4392   6.496   2.146   1.781
 1479TIP3   OH2 4393   6.645   1.714   0.650
 1479TIP3    H1 4394   6.676   1.672   0.730
 1479TIP3    H2 4395   6.599   1.644   0.603
 1480TIP3   OH2 4396   6.086   6.221   2.080
 1480TIP3    H1 4397   6.105   6.254   2.168
 1480TIP3    H2 4398   6.133   6.281   2.022
 1481TIP3   OH2 4399   7.636   6.048   0.561
 1481TIP3    H1 4400   7.685   6.119   0.521
 1481TIP3    H2 4401   7.611   6.081   0.648
 1482TIP3   OH2 4402   5.746   0.252   3.152
 1482TIP3    H1 4403   5.732   0.264   3.246
 1482TIP3    H2 4404   5.792   0.331   3.124
 1483TIP3   OH2 4405   0.784   1.440   1.113
 1483TIP3    H1 4406   0.834   1.494   1.175
 1483TIP3    H2 4407   0.785   1.352   1.151
 1484TIP3   OH2 4408   1.779   1.473   1.316
 1484TIP3    H1 4409   1.719   1.437   1.251
 1484TIP3    H2 4410   1.833   1.535   1.267
 1485TIP3   OH2 4411   4.637   5.262   3.000
 1485TIP3    H1 4412   4.559   5.218   3.034
 1485TIP3    H2 4413   4.627   5.353   3.027
 1486TIP3   OH2 4414   0.817   1.513   3.085
 1486TIP3    H1 4415   0.884   1.483   3.023
 1486TIP3    H2 4416   0.777   1.589   3.042
 1487TIP3   OH2 4417   1.381   0.137   5.168
 1487TIP3    H1 4418   1.474   0.158   5.167
 1487TIP3    H2 4419   1.377   0.045   5.195
 1488TIP3   OH2 4420   6.327   7.617   2.606
 1488TIP3    H1 4421   6.409   7.628   2.557
 1488TIP3    H2 4422   6.332   7.528   2.640
 1489TIP3   OH2 4423   2.018   0.416   2.480
 1489TIP3    H1 4424   1.928   0.445   2.465
 1489TIP3    H2 4425   2.011   0.325   2.508
 1490TIP3   OH2 4426   2.571   4.540   0.055
 1490TIP3    H1 4427   2.636   4.610   0.046
 1490TIP3    H2 4428   2.490   4.579   0.022
 1491TIP3   OH2 4429   1.458   2.299   0.413
 1491TIP3    H1 4430   1.459   2.394   0.401
 1491TIP3    H2 4431   1.395   2.285   0.483
 1492TIP3   OH2 4432   5.708   6.654   2.267
 1492TIP3    H1 4433   5.629   6.602   2.286
 1492TIP3    H2 4434   5.763   6.595   2.216
 1493TIP3   OH2 4435   7.613   2.757   3.808
 1493TIP3    H1 4436   7.544   2.800   3.858
 1493TIP3    H2 4437   7.664   2.709   3.875
 1494TIP3   OH2 4438   8.272   7.004   3.797
 1494TIP3    H1 4439   8.321   6.970   3.722
 1494TIP3    H2 4440   8.180   6.993   3.772
 1495TIP3   OH2 4441   6.838   4.676   0.765
 1495TIP3    H1 4442   6.747   4.673   0.737
 1495TIP3    H2 4443   6.885   4.626   0.699
 1496TIP3   OH2 4444   0.478   5.925   4.564
 1496TIP3    H1 4445   0.438   5.979   4.495
 1496TIP3    H2 4446   0.418   5.935   4.638
 1497TIP3   OH2 4447   6.802   7.622   4.017
 1497TIP3    H1 4448   6.880   7.647   3.967
 1497TIP3    H2 4449   6.834   7.613   4.107
 1498TIP3   OH2 4450   6.624   7.193   3.135
 1498TIP3    H1 4451   6.656   7.157   3.053
 1498TIP3    H2 4452   6.587   7.118   3.182
 1499TIP3   OH2 4453   4.422   1.323   2.787
 1499TIP3    H1 4454   4.425   1.400   2.843
 1499TIP3    H2 4455   4.387   1.355   2.704
 1500TIP3   OH2 4456   3.711   2.333   6.517
 1500TIP3    H1 4457   3.703   2.419   6.558
 1500TIP3    H2 4458   3.621   2.309   6.495
 1501TIP3   OH2 4459   7.811   5.220   4.225
 1501TIP3    H1 4460   7.760   5.280   4.170
 1501TIP3    H2 4461   7.848   5.276   4.293
 1502TIP3   OH2 4462   3.676   5.672   6.665
 1502TIP3    H1 4463   3.614   5.714   6.725
 1502TIP3    H2 4464   3.638   5.586   6.648
 1503TIP3   OH2 4465   0.751   4.216   5.033
 1503TIP3    H1 4466   0.694   4.165   4.975
 1503TIP3    H2 4467   0.724   4.190   5.121
 1504TIP3   OH2 4468   2.167   2.372   0.327
 1504TIP3    H1 4469   2.073   2.356   0.318
 1504TIP3    H2 4470   2.198   2.299   0.382
 1505TIP3   OH2 4471   4.044   7.325   3.450
 1505TIP3    H1 4472   4.006   7.237   3.450
 1505TIP3    H2 4473   4.113   7.321   3.516
 1506TIP3   OH2 4474   7.211   1.413   3.746
 1506TIP3    H1 4475   7.145   1.389   3.811
 1506TIP3    H2 4476   7.217   1.509   3.752
 1507TIP3   OH2 4477   7.412   2.266   6.473
 1507TIP3    H1 4478   7.370   2.181   6.488
 1507TIP3    H2 4479   7.383   2.320   6.546
 1508TIP3   OH2 4480   2.028   0.938   2.930
 1508TIP3    H1 4481   1.998   0.971   2.845
 1508TIP3    H2 4482   1.972   0.982   2.994
 1509TIP3   OH2 4483   5.286   6.817   3.861
 1509TIP3    H1 4484   5.205   6.862   3.882
 1509TIP3    H2 4485   5.340   6.826   3.939
 1510TIP3   OH2 4486   0.472   1.949   3.333
 1510TIP3    H1 4487   0.446   1.857   3.336
 1510TIP3    H2 4488   0.552   1.950   3.280
 1511TIP3   OH2 4489   0.576   6.143   6.740
 1511TIP3    H1 4490   0.561   6.236   6.722
 1511TIP3    H2 4491   0.647   6.119   6.681
 1512TIP3   OH2 4492   2.012   7.812   1.954
 1512TIP3    H1 4493   1.965   7.887   1.917
 1512TIP3    H2 4494   2.002   7.743   1.888
 1513TIP3   OH2 4495   5.482   6.605   6.332
 1513TIP3    H1 4496   5.440   6.670   6.388
 1513TIP3    H2 4497   5.537   6.553   6.391
 1514TIP3   OH2 4498   0.656   5.045   3.780
 1514TIP3    H1 4499   0.640   5.024   3.872
 1514TIP3    H2 4500   0.742   5.087   3.779
 1515TIP3   OH2 4501   4.184   2.262   0.731
 1515TIP3    H1 4502   4.141   2.347   0.737
 1515TIP3    H2 4503   4.150   2.223   0.650
 1516TIP3   OH2 4504   0.843   2.190   5.357
 1516TIP3    H1 4505   0.882   2.106   5.379
 1516TIP3    H2 4506   0.769   2.198   5.417
 1517TIP3   OH2 4507   7.934   6.371   1.255
 1517TIP3    H1 4508   7.838   6.376   1.251
 1517TIP3    H2 4509   7.963   6.460   1.236
 1518TIP3   OH2 4510   2.336   2.298   6.037
 1518TIP3    H1 4511   2.318   2.342   6.121
 1518TIP3    H2 4512   2.424   2.261   6.048
 1519TIP3   OH2 4513   5.349   7.285   3.548
 1519TIP3    H1 4514   5.402   7.236   3.611
 1519TIP3    H2 4515   5.316   7.218   3.488
 1520TIP3   OH2 4516   7.499   1.724   6.317
 1520TIP3    H1 4517   7.482   1.817   6.302
 1520TIP3    H2 4518   7.593   1.714   6.305
 1521TIP3   OH2 4519   1.503   3.122   2.648
 1521TIP3    H1 4520   1.498   3.051   2.585
 1521TIP3    H2 4521   1.474   3.083   2.731
 1522TIP3   OH2 4522   5.285   5.687   1.007
 1522TIP3    H1 4523   5.259   5.633   1.082
 1522TIP3    H2 4524   5.380   5.683   1.006
 1523TIP3   OH2 4525   7.412   2.909   3.067
 1523TIP3    H1 4526   7.364   2.826   3.076
 1523TIP3    H2 4527   7.348   2.977   3.085
 1524TIP3   OH2 4528   1.505   4.437   3.410
 1524TIP3    H1 4529   1.444   4.471   3.345
 1524TIP3    H2 4530   1.481   4.482   3.491
 1525TIP3   OH2 4531   2.120   0.863   5.785
 1525TIP3    H1 4532   2.181   0.883   5.714
 1525TIP3    H2 4533   2.060   0.938   5.787
 1526TIP3   OH2 4534   7.410   6.424   1.322
 1526TIP3    H1 4535   7.404   6.367   1.245
 1526TIP3    H2 4536   7.320   6.443   1.346
 1527TIP3   OH2 4537   5.347   5.540   3.381
 1527TIP3    H1 4538   5.436   5.553   3.413
 1527TIP3    H2 4539   5.356   5.472   3.314
 1528TIP3   OH2 4540   7.341   1.671   1.164
 1528TIP3    H1 4541   7.347   1.580   1.135
 1528TIP3    H2 4542   7.430   1.706   1.151
 1529TIP3   OH2 4543   2.183   0.296   1.432
 1529TIP3    H1 4544   2.273   0.324   1.447
 1529TIP3    H2 4545   2.171   0.304   1.337
 1530TIP3   OH2 4546   3.881   2.949   1.387
 1530TIP3    H1 4547   3.892   2.892   1.464
 1530TIP3    H2 4548   3.915   2.897   1.314
 1531TIP3   OH2 4549   4.465   1.724   5.709
 1531TIP3    H1 4550   4.460   1.813   5.674
 1531TIP3    H2 4551   4.423   1.730   5.795
 1532TIP3   OH2 4552   4.185   4.444   4.443
 1532TIP3    H1 4553   4.096   4.475   4.426
 1532TIP3    H2 4554   4.185   4.418   4.535
 1533TIP3   OH2 4555   7.097   1.667   0.647
 1533TIP3    H1 4556   7.189   1.655   0.672
 1533TIP3    H2 4557   7.051   1.595   0.690
 1534TIP3   OH2 4558   8.158   6.442   5.817
 1534TIP3    H1 4559   8.099   6.437   5.892
 1534TIP3    H2 4560   8.228   6.380   5.837
 1535TIP3   OH2 4561   1.833   5.143   6.535
 1535TIP3    H1 4562   1.793   5.187   6.610
 1535TIP3    H2 4563   1.761   5.095   6.493
 1536TIP3   OH2 4564   2.547   1.027   0.282
 1536TIP3    H1 4565   2.498   1.075   0.215
 1536TIP3    H2 4566   2.612   1.090   0.312
 1537TIP3   OH2 4567   4.671   6.751   0.612
 1537TIP3    H1 4568   4.591   6.720   0.654
 1537TIP3    H2 4569   4.712   6.809   0.676
 1538TIP3   OH2 4570   0.630   4.167   2.894
 1538TIP3    H1 4571   0.667   4.168   2.806
 1538TIP3    H2 4572   0.706   4.172   2.952
 1539TIP3   OH2 4573   7.695   0.550   2.332
 1539TIP3    H1 4574   7.685   0.473   2.276
 1539TIP3    H2 4575   7.672   0.624   2.274
 1540TIP3   OH2 4576   2.002   3.147   2.865
 1540TIP3    H1 4577   1.913   3.143   2.828
 1540TIP3    H2 4578   2.043   3.221   2.820
 1541TIP3   OH2 4579   0.087   6.265   5.383
 1541TIP3    H1 4580   0.042   6.232   5.460
 1541TIP3    H2 4581   0.170   6.216   5.381
 1542TIP3   OH2 4582   2.812   6.861   0.416
 1542TIP3    H1 4583   2.880   6.889   0.354
 1542TIP3    H2 4584   2.781   6.777   0.381
 1543TIP3   OH2 4585   1.458   2.489   0.701
 1543TIP3    H1 4586   1.405   2.410   0.714
 1543TIP3    H2 4587   1.394   2.557   0.682
 1544TIP3   OH2 4588   7.106   1.768   6.308
 1544TIP3    H1 4589   7.135   1.692   6.358
 1544TIP3    H2 4590   7.021   1.792   6.348
 1545TIP3   OH2 4591   5.678   4.372   1.879
 1545TIP3    H1 4592   5.659   4.291   1.832
 1545TIP3    H2 4593   5.601   4.427   1.864
 1546TIP3   OH2 4594   4.551   1.001   4.351
 1546TIP3    H1 4595   4.509   1.076   4.393
 1546TIP3    H2 4596   4.607   1.041   4.284
 1547TIP3   OH2 4597   6.307   7.311   2.261
 1547TIP3    H1 4598   6.225   7.357   2.279
 1547TIP3    H2 4599   6.351   7.366   2.196
 1548TIP3   OH2 4600   2.377   0.491   3.380
 1548TIP3    H1 4601   2.303   0.490   3.321
 1548TIP3    H2 4602   2.368   0.571   3.431
 1549TIP3   OH2 4603   6.869   0.425   2.655
 1549TIP3    H1 4604   6.796   0.445   2.597
 1549TIP3    H2 4605   6.939   0.396   2.595
 1550TIP3   OH2 4606   6.268   4.134   0.656
 1550TIP3    H1 4607   6.311   4.082   0.588
 1550TIP3    H2 4608   6.193   4.082   0.683
 1551TIP3   OH2 4609   1.798   5.679   1.365
 1551TIP3    H1 4610   1.823   5.770   1.381
 1551TIP3    H2 4611   1.832   5.632   1.441
 1552TIP3   OH2 4612   4.854   1.636   1.785
 1552TIP3    H1 4613   4.928   1.623   1.845
 1552TIP3    H2 4614   4.857   1.561   1.726
 1553TIP3   OH2 4615   7.503   7.535   3.503
 1553TIP3    H1 4616   7.514   7.622   3.463
 1553TIP3    H2 4617   7.454   7.485   3.437
 1554TIP3   OH2 4618   0.595   5.748   6.208
 1554TIP3    H1 4619   0.617   5.661   6.175
 1554TIP3    H2 4620   0.555   5.794   6.133
 1555TIP3   OH2 4621   4.766   7.742   3.144
 1555TIP3    H1 4622   4.860   7.729   3.131
 1555TIP3    H2 4623   4.727   7.731   3.057
 1556TIP3   OH2 4624   6.181   1.834   1.974
 1556TIP3    H1 4625   6.195   1.867   1.885
 1556TIP3    H2 4626   6.234   1.891   2.029
 1557TIP3   OH2 4627   8.057   7.321   4.186
 1557TIP3    H1 4628   8.063   7.226   4.172
 1557TIP3    H2 4629   7.971   7.334   4.224
 1558TIP3   OH2 4630   4.677   6.319   5.417
 1558TIP3    H1 4631   4.666   6.397   5.471
 1558TIP3    H2 4632   4.684   6.247   5.479
 1559TIP3   OH2 4633   8.054   3.374   2.090
 1559TIP3    H1 4634   8.075   3.313   2.161
 1559TIP3    H2 4635   7.971   3.414   2.116
 1560TIP3   OH2 4636   0.064   5.139   3.431
 1560TIP3    H1 4637   0.131   5.157   3.497
 1560TIP3    H2 4638   0.005   5.214   3.435
 1561TIP3   OH2 4639   2.611   6.711   3.193
 1561TIP3    H1 4640   2.603   6.622   3.227
 1561TIP3    H2 4641   2.666   6.756   3.258
 1562TIP3   OH2 4642   3.824   6.202   1.578
 1562TIP3    H1 4643   3.853   6.138   1.512
 1562TIP3    H2 4644   3.890   6.271   1.574
 1563TIP3   OH2 4645   3.991   6.432   5.611
 1563TIP3    H1 4646   4.040   6.463   5.535
 1563TIP3    H2 4647   3.903   6.468   5.599
 1564TIP3   OH2 4648   2.326   1.341   5.263
 1564TIP3    H1 4649   2.407   1.383   5.293
 1564TIP3    H2 4650   2.256   1.391   5.305
 1565TIP3   OH2 4651   4.342   2.708   3.462
 1565TIP3    H1 4652   4.315   2.750   3.380
 1565TIP3    H2 4653   4.434   2.686   3.448
 1566TIP3   OH2 4654   1.172   3.444   1.395
 1566TIP3    H1 4655   1.122   3.525   1.383
 1566TIP3    H2 4656   1.177   3.406   1.307
 1567TIP3   OH2 4657   0.050   4.413   0.908
 1567TIP3    H1 4658  -0.022   4.458   0.863
 1567TIP3    H2 4659   0.100   4.373   0.837
 1568TIP3   OH2 4660   7.613   0.395   6.000
 1568TIP3    H1 4661   7.567   0.328   5.949
 1568TIP3    H2 4662   7.563   0.400   6.082
 1569TIP3   OH2 4663   6.720   3.876   3.535
 1569TIP3    H1 4664   6.662   3.930   3.482
 1569TIP3    H2 4665   6.711   3.788   3.500
 1570TIP3   OH2 4666   5.373   4.403   3.127
 1570TIP3    H1 4667   5.411   4.451   3.200
 1570TIP3    H2 4668   5.448   4.377   3.073
 1571TIP3   OH2 4669   2.106   7.567   5.759
 1571TIP3    H1 4670   2.039   7.636   5.760
 1571TIP3    H2 4671   2.150   7.578   5.674
 1572TIP3   OH2 4672   6.957   6.291   0.673
 1572TIP3    H1 4673   6.916   6.307   0.588
 1572TIP3    H2 4674   6.908   6.346   0.735
 1573TIP3   OH2 4675   0.685   6.727   3.872
 1573TIP3    H1 4676   0.697   6.632   3.873
 1573TIP3    H2 4677   0.774   6.763   3.871
 1574TIP3   OH2 4678   0.307   3.142   3.121
 1574TIP3    H1 4679   0.294   3.082   3.194
 1574TIP3    H2 4680   0.343   3.088   3.050
 1575TIP3   OH2 4681   5.156   6.662  -0.014
 1575TIP3    H1 4682   5.174   6.574   0.020
 1575TIP3    H2 4683   5.095   6.701   0.049
 1576TIP3   OH2 4684   6.726   3.963   2.135
 1576TIP3    H1 4685   6.715   3.869   2.151
 1576TIP3    H2 4686   6.812   3.971   2.094
 1577TIP3   OH2 4687   7.602   1.783   1.125
 1577TIP3    H1 4688   7.671   1.717   1.118
 1577TIP3    H2 4689   7.649   1.866   1.129
 1578TIP3   OH2 4690   6.950   6.006   2.080
 1578TIP3    H1 4691   6.922   5.947   2.011
 1578TIP3    H2 4692   6.981   5.949   2.150
 1579TIP3   OH2 4693   5.616   3.058   5.492
 1579TIP3    H1 4694   5.550   3.125   5.471
 1579TIP3    H2 4695   5.568   2.993   5.544
 1580TIP3   OH2 4696   6.287   7.576   4.866
 1580TIP3    H1 4697   6.219   7.529   4.818
 1580TIP3    H2 4698   6.246   7.599   4.949
 1581TIP3   OH2 4699   7.476   4.634   1.044
 1581TIP3    H1 4700   7.517   4.556   1.080
 1581TIP3    H2 4701   7.410   4.658   1.109
 1582TIP3   OH2 4702   3.256   3.219   2.738
 1582TIP3    H1 4703   3.212   3.178   2.663
 1582TIP3    H2 4704   3.349   3.215   2.716
 1583TIP3   OH2 4705   4.312   2.014   4.771
 1583TIP3    H1 4706   4.224   2.041   4.746
 1583TIP3    H2 4707   4.360   2.097   4.780
 1584TIP3   OH2 4708   4.815   2.374   0.836
 1584TIP3    H1 4709   4.801   2.467   0.852
 1584TIP3    H2 4710   4.863   2.371   0.753
 1585TIP3   OH2 4711   2.068   7.708   2.624
 1585TIP3    H1 4712   2.048   7.721   2.717
 1585TIP3    H2 4713   2.148   7.656   2.624
 1586TIP3   OH2 4714   1.658   2.617   5.187
 1586TIP3    H1 4715   1.695   2.566   5.259
 1586TIP3    H2 4716   1.733   2.660   5.147
 1587TIP3   OH2 4717   6.063   0.276   2.929
 1587TIP3    H1 4718   6.081   0.354   2.877
 1587TIP3    H2 4719   6.056   0.205   2.866
 1588TIP3   OH2 4720   2.833   2.805   3.575
 1588TIP3    H1 4721   2.836   2.826   3.481
 1588TIP3    H2 4722   2.762   2.741   3.582
 1589TIP3   OH2 4723   7.905   5.882   0.385
 1589TIP3    H1 4724   7.831   5.866   0.443
 1589TIP3    H2 4725   7.976   5.909   0.443
 1590TIP3   OH2 4726   1.000   2.308   2.439
 1590TIP3    H1 4727   0.967   2.222   2.466
 1590TIP3    H2 4728   1.042   2.343   2.517
 1591TIP3   OH2 4729   4.592   5.548   4.205
 1591TIP3    H1 4730   4.658   5.593   4.258
 1591TIP3    H2 4731   4.511   5.558   4.255
 1592TIP3   OH2 4732   5.128   3.982   1.890
 1592TIP3    H1 4733   5.033   3.986   1.901
 1592TIP3    H2 4734   5.142   3.996   1.797
 1593TIP3   OH2 4735   1.055   7.263   1.980
 1593TIP3    H1 4736   1.150   7.255   1.990
 1593TIP3    H2 4737   1.044   7.341   1.925
 1594TIP3   OH2 4738   3.616   5.417   3.402
 1594TIP3    H1 4739   3.614   5.321   3.407
 1594TIP3    H2 4740   3.571   5.446   3.481
 1595TIP3   OH2 4741   5.136   2.280   3.768
 1595TIP3    H1 4742   5.087   2.351   3.809
 1595TIP3    H2 4743   5.076   2.244   3.703
 1596TIP3   OH2 4744   1.401   2.813   3.597
 1596TIP3    H1 4745   1.424   2.741   3.657
 1596TIP3    H2 4746   1.461   2.801   3.523
 1597TIP3   OH2 4747   1.705   2.353   0.602
 1597TIP3    H1 4748   1.717   2.420   0.669
 1597TIP3    H2 4749   1.614   2.362   0.574
 1598TIP3   OH2 4750   4.953   0.884   5.991
 1598TIP3    H1 4751   4.934   0.845   5.906
 1598TIP3    H2 4752   4.917   0.972   5.986
 1599TIP3   OH2 4753   4.079   6.574   0.367
 1599TIP3    H1 4754   4.112   6.562   0.278
 1599TIP3    H2 4755   4.017   6.646   0.360
 1600TIP3   OH2 4756   1.587   3.920   3.483
 1600TIP3    H1 4757   1.672   3.964   3.475
 1600TIP3    H2 4758   1.540   3.945   3.403
 1601TIP3   OH2 4759   0.349   1.371   3.230
 1601TIP3    H1 4760   0.370   1.278   3.223
 1601TIP3    H2 4761   0.398   1.413   3.159
 1602TIP3   OH2 4762   4.283   2.726   4.005
 1602TIP3    H1 4763   4.330   2.797   4.047
 1602TIP3    H2 4764   4.237   2.767   3.932
 1603TIP3   OH2 4765   2.563   3.103   6.661
 1603TIP3    H1 4766   2.490   3.141   6.611
 1603TIP3    H2 4767   2.587   3.171   6.724
 1604TIP3   OH2 4768   0.955   3.890   3.152
 1604TIP3    H1 4769   1.043   3.916   3.175
 1604TIP3    H2 4770   0.898   3.943   3.208
 1605TIP3   OH2 4771   4.975   5.016   2.398
 1605TIP3    H1 4772   4.993   4.956   2.470
 1605TIP3    H2 4773   4.889   4.990   2.366
 1606TIP3   OH2 4774   0.785   1.639   6.190
 1606TIP3    H1 4775   0.724   1.690   6.243
 1606TIP3    H2 4776   0.845   1.704   6.153
 1607TIP3   OH2 4777   5.553   3.571   1.544
 1607TIP3    H1 4778   5.490   3.642   1.528
 1607TIP3    H2 4779   5.616   3.579   1.473
 1608TIP3   OH2 4780   1.023   0.780   6.648
 1608TIP3    H1 4781   0.985   0.693   6.641
 1608TIP3    H2 4782   1.111   0.765   6.682
 1609TIP3   OH2 4783   6.508   0.372   2.773
 1609TIP3    H1 4784   6.522   0.444   2.712
 1609TIP3    H2 4785   6.434   0.400   2.827
 1610TIP3   OH2 4786   5.464   3.430   5.214
 1610TIP3    H1 4787   5.472   3.446   5.121
 1610TIP3    H2 4788   5.417   3.346   5.220
 1611TIP3   OH2 4789   5.860   6.052   0.502
 1611TIP3    H1 4790   5.907   6.089   0.577
 1611TIP3    H2 4791   5.909   6.082   0.426
 1612TIP3   OH2 4792   0.818   7.695   5.105
 1612TIP3    H1 4793   0.789   7.605   5.095
 1612TIP3    H2 4794   0.763   7.745   5.045
 1613TIP3   OH2 4795   7.177   6.655   4.371
 1613TIP3    H1 4796   7.215   6.679   4.287
 1613TIP3    H2 4797   7.203   6.564   4.385
 1614TIP3   OH2 4798   8.229   6.026   1.789
 1614TIP3    H1 4799   8.137   6.014   1.814
 1614TIP3    H2 4800   8.226   6.088   1.717
 1615TIP3   OH2 4801   4.513   7.388   0.061
 1615TIP3    H1 4802   4.516   7.296   0.086
 1615TIP3    H2 4803   4.520   7.436   0.144
 1616TIP3   OH2 4804   1.798   4.937   6.236
 1616TIP3    H1 4805   1.864   4.872   6.262
 1616TIP3    H2 4806   1.733   4.935   6.307
 1617TIP3   OH2 4807   3.382   3.872   1.217
 1617TIP3    H1 4808   3.418   3.784   1.224
 1617TIP3    H2 4809   3.308   3.864   1.157
 1618TIP3   OH2 4810   0.315   2.364   5.054
 1618TIP3    H1 4811   0.397   2.314   5.056
 1618TIP3    H2 4812   0.249   2.303   5.088
 1619TIP3   OH2 4813   7.945   1.358   1.586
 1619TIP3    H1 4814   8.013   1.375   1.651
 1619TIP3    H2 4815   7.923   1.444   1.551
 1620TIP3   OH2 4816   0.869   2.616   3.511
 1620TIP3    H1 4817   0.913   2.609   3.596
 1620TIP3    H2 4818   0.940   2.634   3.449
 1621TIP3   OH2 4819   1.485   6.712   6.374
 1621TIP3    H1 4820   1.438   6.770   6.434
 1621TIP3    H2 4821   1.546   6.664   6.429
 1622TIP3   OH2 4822   4.287   1.028   4.640
 1622TIP3    H1 4823   4.360   1.086   4.616
 1622TIP3    H2 4824   4.324   0.940   4.638
 1623TIP3   OH2 4825   2.697   7.093   3.427
 1623TIP3    H1 4826   2.760   7.087   3.498
 1623TIP3    H2 4827   2.726   7.026   3.364
 1624TIP3   OH2 4828   5.633   1.475   6.038
 1624TIP3    H1 4829   5.642   1.389   6.080
 1624TIP3    H2 4830   5.708   1.525   6.069
 1625TIP3   OH2 4831   4.114   5.492   5.890
 1625TIP3    H1 4832   4.057   5.432   5.842
 1625TIP3    H2 4833   4.202   5.472   5.858
 1626TIP3   OH2 4834   2.560   0.842   0.738
 1626TIP3    H1 4835   2.499   0.773   0.762
 1626TIP3    H2 4836   2.614   0.803   0.669
 1627TIP3   OH2 4837   5.048   6.492   5.585
 1627TIP3    H1 4838   5.097   6.488   5.667
 1627TIP3    H2 4839   5.115   6.486   5.517
 1628TIP3   OH2 4840   2.359   0.397   6.046
 1628TIP3    H1 4841   2.394   0.311   6.023
 1628TIP3    H2 4842   2.349   0.442   5.962
 1629TIP3   OH2 4843   6.705   0.550   6.700
 1629TIP3    H1 4844   6.643   0.623   6.695
 1629TIP3    H2 4845   6.655   0.480   6.741
 1630TIP3   OH2 4846   7.208   4.892   5.880
 1630TIP3    H1 4847   7.220   4.930   5.968
 1630TIP3    H2 4848   7.129   4.840   5.888
 1631TIP3   OH2 4849   2.306   0.345   6.324
 1631TIP3    H1 4850   2.237   0.403   6.356
 1631TIP3    H2 4851   2.341   0.389   6.247
 1632TIP3   OH2 4852   0.620   4.596   4.864
 1632TIP3    H1 4853   0.547   4.534   4.870
 1632TIP3    H2 4854   0.606   4.657   4.937
 1633TIP3   OH2 4855   7.367   3.068   5.934
 1633TIP3    H1 4856   7.310   3.043   5.860
 1633TIP3    H2 4857   7.397   2.985   5.970
 1634TIP3   OH2 4858   4.965   7.033   1.413
 1634TIP3    H1 4859   5.017   7.015   1.491
 1634TIP3    H2 4860   5.018   7.096   1.364
 1635TIP3   OH2 4861   5.856   0.498   1.645
 1635TIP3    H1 4862   5.877   0.551   1.722
 1635TIP3    H2 4863   5.860   0.408   1.677
 1636TIP3   OH2 4864   8.248   7.367   1.451
 1636TIP3    H1 4865   8.184   7.392   1.385
 1636TIP3    H2 4866   8.327   7.346   1.401
 1637TIP3   OH2 4867   4.927   2.107   4.205
 1637TIP3    H1 4868   4.940   2.018   4.172
 1637TIP3    H2 4869   4.986   2.114   4.279
 1638TIP3   OH2 4870   5.258   0.804   1.352
 1638TIP3    H1 4871   5.252   0.799   1.257
 1638TIP3    H2 4872   5.211   0.726   1.383
 1639TIP3   OH2 4873   5.210   0.617   6.376
 1639TIP3    H1 4874   5.280   0.578   6.429
 1639TIP3    H2 4875   5.188   0.550   6.312
 1640TIP3   OH2 4876   5.852   6.499   0.793
 1640TIP3    H1 4877   5.926   6.449   0.828
 1640TIP3    H2 4878   5.790   6.504   0.866
 1641TIP3   OH2 4879   2.149   4.988   2.911
 1641TIP3    H1 4880   2.140   4.975   2.816
 1641TIP3    H2 4881   2.092   5.063   2.930
 1642TIP3   OH2 4882   1.000   1.200   5.884
 1642TIP3    H1 4883   1.071   1.145   5.853
 1642TIP3    H2 4884   1.023   1.222   5.974
 1643TIP3   OH2 4885   4.397   6.644   5.397
 1643TIP3    H1 4886   4.312   6.629   5.439
 1643TIP3    H2 4887   4.453   6.678   5.467
 1644TIP3   OH2 4888   3.185   4.538   0.314
 1644TIP3    H1 4889   3.165   4.511   0.225
 1644TIP3    H2 4890   3.108   4.588   0.341
 1645TIP3   OH2 4891   4.024   1.797   4.670
 1645TIP3    H1 4892   4.056   1.720   4.623
 1645TIP3    H2 4893   4.019   1.769   4.761
 1646TIP3   OH2 4894   2.859   0.250   3.856
 1646TIP3    H1 4895   2.765   0.236   3.872
 1646TIP3    H2 4896   2.877   0.198   3.778
 1647TIP3   OH2 4897   7.679   2.745   3.215
 1647TIP3    H1 4898   7.612   2.789   3.267
 1647TIP3    H2 4899   7.684   2.657   3.252
 1648TIP3   OH2 4900   1.076   6.012   0.350
 1648TIP3    H1 4901   1.062   5.932   0.300
 1648TIP3    H2 4902   1.024   6.000   0.430
 1649TIP3   OH2 4903   3.805   4.687   1.138
 1649TIP3    H1 4904   3.836   4.615   1.193
 1649TIP3    H2 4905   3.729   4.651   1.091
 1650TIP3   OH2 4906   0.023   6.155   0.186
 1650TIP3    H1 4907   0.046   6.197   0.103
 1650TIP3    H2 4908   0.056   6.065   0.177
 1651TIP3   OH2 4909   2.919   5.337   2.715
 1651TIP3    H1 4910   2.942   5.401   2.783
 1651TIP3    H2 4911   2.852   5.381   2.664
 1652TIP3   OH2 4912   2.661   7.225   4.818
 1652TIP3    H1 4913   2.753   7.232   4.842
 1652TIP3    H2 4914   2.645   7.302   4.762
 1653TIP3   OH2 4915   7.162   2.166   5.800
 1653TIP3    H1 4916   7.244   2.120   5.783
 1653TIP3    H2 4917   7.097   2.118   5.749
 1654TIP3   OH2 4918   0.138   2.920   5.259
 1654TIP3    H1 4919   0.196   2.845   5.271
 1654TIP3    H2 4920   0.160   2.980   5.331
 1655TIP3   OH2 4921   4.296   7.353   0.383
 1655TIP3    H1 4922   4.295   7.298   0.461
 1655TIP3    H2 4923   4.385   7.389   0.379
 1656TIP3   OH2 4924   1.444   6.180   6.669
 1656TIP3    H1 4925   1.421   6.270   6.646
 1656TIP3    H2 4926   1.488   6.188   6.754
 1657TIP3   OH2 4927   1.702   1.237   4.344
 1657TIP3    H1 4928   1.678   1.145   4.343
 1657TIP3    H2 4929   1.796   1.238   4.363
 1658TIP3   OH2 4930   0.922   6.880   3.887
 1658TIP3    H1 4931   0.916   6.912   3.977
 1658TIP3    H2 4932   0.990   6.933   3.846
 1659TIP3   OH2 4933   6.010   7.747   6.526
 1659TIP3    H1 4934   5.964   7.666   6.551
 1659TIP3    H2 4935   6.083   7.753   6.587
 1660TIP3   OH2 4936   0.519   1.068   5.655
 1660TIP3    H1 4937   0.436   1.046   5.697
 1660TIP3    H2 4938   0.515   1.162   5.640
 1661TIP3   OH2 4939   1.445   3.789   3.669
 1661TIP3    H1 4940   1.501   3.818   3.597
 1661TIP3    H2 4941   1.411   3.870   3.707
 1662TIP3   OH2 4942   4.203   4.578   1.030
 1662TIP3    H1 4943   4.187   4.545   1.119
 1662TIP3    H2 4944   4.229   4.501   0.980
 1663TIP3   OH2 4945   7.492   2.341   1.101
 1663TIP3    H1 4946   7.517   2.274   1.038
 1663TIP3    H2 4947   7.404   2.316   1.130
 1664TIP3   OH2 4948   3.307   0.901   2.059
 1664TIP3    H1 4949   3.213   0.896   2.044
 1664TIP3    H2 4950   3.329   0.993   2.046
 1665TIP3   OH2 4951   8.110   2.948   4.499
 1665TIP3    H1 4952   8.201   2.970   4.482
 1665TIP3    H2 4953   8.096   2.974   4.590
 1666TIP3   OH2 4954   7.299   6.839   2.111
 1666TIP3    H1 4955   7.305   6.775   2.041
 1666TIP3    H2 4956   7.383   6.885   2.109
 1667TIP3   OH2 4957   5.484   6.955   2.629
 1667TIP3    H1 4958   5.576   6.947   2.652
 1667TIP3    H2 4959   5.466   7.049   2.631
 1668TIP3   OH2 4960   6.622   3.544   4.297
 1668TIP3    H1 4961   6.562   3.581   4.233
 1668TIP3    H2 4962   6.640   3.616   4.357
 1669TIP3   OH2 4963   1.281   5.502   5.218
 1669TIP3    H1 4964   1.248   5.449   5.290
 1669TIP3    H2 4965   1.294   5.589   5.256
 1670TIP3   OH2 4966   5.066   0.427   2.928
 1670TIP3    H1 4967   5.131   0.362   2.901
 1670TIP3    H2 4968   5.042   0.472   2.847
 1671TIP3   OH2 4969   3.465   7.493   0.051
 1671TIP3    H1 4970   3.525   7.510  -0.021
 1671TIP3    H2 4971   3.450   7.579   0.091
 1672TIP3   OH2 4972   7.313   7.004   5.932
 1672TIP3    H1 4973   7.283   6.914   5.945
 1672TIP3    H2 4974   7.245   7.046   5.880
 1673TIP3   OH2 4975   3.663   4.731   2.707
 1673TIP3    H1 4976   3.677   4.680   2.627
 1673TIP3    H2 4977   3.751   4.747   2.741
 1674TIP3   OH2 4978   3.169   3.788   0.842
 1674TIP3    H1 4979   3.230   3.861   0.831
 1674TIP3    H2 4980   3.101   3.822   0.900
 1675TIP3   OH2 4981   5.660   5.758   4.980
 1675TIP3    H1 4982   5.627   5.839   4.941
 1675TIP3    H2 4983   5.583   5.702   4.990
 1676TIP3   OH2 4984   6.981   3.487   6.114
 1676TIP3    H1 4985   7.027   3.427   6.173
 1676TIP3    H2 4986   7.046   3.554   6.092
 1677TIP3   OH2 4987   6.323   1.849   5.076
 1677TIP3    H1 4988   6.251   1.787   5.081
 1677TIP3    H2 4989   6.376   1.832   5.154
 1678TIP3   OH2 4990   1.186   6.340   2.121
 1678TIP3    H1 4991   1.217   6.377   2.204
 1678TIP3    H2 4992   1.258   6.354   2.060
 1679TIP3   OH2 4993   5.428   5.377   3.145
 1679TIP3    H1 4994   5.494   5.413   3.085
 1679TIP3    H2 4995   5.345   5.395   3.101
 1680TIP3   OH2 4996   3.983   4.330   3.785
 1680TIP3    H1 4997   3.954   4.240   3.783
 1680TIP3    H2 4998   4.078   4.325   3.772
 1681TIP3   OH2 4999   5.847   5.855   5.504
 1681TIP3    H1 5000   5.755   5.841   5.529
 1681TIP3    H2 5001   5.845   5.855   5.408
 1682TIP3   OH2 5002   4.463   1.543   3.867
 1682TIP3    H1 5003   4.515   1.502   3.798
 1682TIP3    H2 5004   4.411   1.470   3.903
 1683TIP3   OH2 5005   1.024   6.053   6.233
 1683TIP3    H1 5006   0.957   5.985   6.245
 1683TIP3    H2 5007   1.037   6.089   6.321
 1684TIP3   OH2 5008   5.024   5.996   5.163
 1684TIP3    H1 5009   4.943   6.009   5.114
 1684TIP3    H2 5010   5.062   5.917   5.125
 1685TIP3   OH2 5011   0.354   3.891   1.448
 1685TIP3    H1 5012   0.379   3.941   1.371
 1685TIP3    H2 5013   0.389   3.941   1.522
 1686TIP3   OH2 5014   4.899   6.624   5.049
 1686TIP3    H1 5015   4.990   6.595   5.049
 1686TIP3    H2 5016   4.902   6.711   5.010
 1687TIP3   OH2 5017   1.182   5.352   4.627
 1687TIP3    H1 5018   1.262   5.324   4.672
 1687TIP3    H2 5019   1.111   5.329   4.687
 1688TIP3   OH2 5020   5.813   4.349   5.143
 1688TIP3    H1 5021   5.834   4.293   5.218
 1688TIP3    H2 5022   5.891   4.402   5.130
 1689TIP3   OH2 5023   3.583   6.208   0.974
 1689TIP3    H1 5024   3.608   6.257   1.052
 1689TIP3    H2 5025   3.665   6.169   0.943
 1690TIP3   OH2 5026   0.540   0.380   4.985
 1690TIP3    H1 5027   0.455   0.348   5.013
 1690TIP3    H2 5028   0.603   0.318   5.023
 1691TIP3   OH2 5029   6.167   6.591   2.250
 1691TIP3    H1 5030   6.097   6.582   2.185
 1691TIP3    H2 5031   6.229   6.652   2.210
 1692TIP3   OH2 5032   1.307   7.310   2.966
 1692TIP3    H1 5033   1.229   7.258   2.948
 1692TIP3    H2 5034   1.364   7.295   2.890
 1693TIP3   OH2 5035   7.064   3.797   4.819
 1693TIP3    H1 5036   7.149   3.761   4.845
 1693TIP3    H2 5037   7.044   3.755   4.736
 1694TIP3   OH2 5038   6.494   6.126   5.514
 1694TIP3    H1 5039   6.478   6.093   5.603
 1694TIP3    H2 5040   6.588   6.118   5.502
 1695TIP3   OH2 5041   7.925   5.792   0.133
 1695TIP3    H1 5042   7.915   5.701   0.160
 1695TIP3    H2 5043   7.926   5.842   0.215
 1696TIP3   OH2 5044   3.994   4.650   4.236
 1696TIP3    H1 5045   3.966   4.560   4.221
 1696TIP3    H2 5046   4.012   4.684   4.149
 1697TIP3   OH2 5047   1.520   6.207   3.252
 1697TIP3    H1 5048   1.574   6.277   3.289
 1697TIP3    H2 5049   1.578   6.131   3.247
 1698TIP3   OH2 5050   6.832   1.578   2.689
 1698TIP3    H1 5051   6.801   1.655   2.737
 1698TIP3    H2 5052   6.889   1.614   2.621
 1699TIP3   OH2 5053   0.716   1.592   3.843
 1699TIP3    H1 5054   0.681   1.623   3.759
 1699TIP3    H2 5055   0.736   1.672   3.891
 1700TIP3   OH2 5056   5.565   7.402   5.393
 1700TIP3    H1 5057   5.588   7.349   5.469
 1700TIP3    H2 5058   5.511   7.472   5.428
 1701TIP3   OH2 5059   6.057   3.897   0.952
 1701TIP3    H1 5060   6.069   3.914   0.859
 1701TIP3    H2 5061   6.111   3.964   0.995
 1702TIP3   OH2 5062   2.657   0.510   0.264
 1702TIP3    H1 5063   2.571   0.540   0.293
 1702TIP3    H2 5064   2.711   0.589   0.264
 1703TIP3   OH2 5065   6.074   3.086   0.952
 1703TIP3    H1 5066   6.022   3.006   0.965
 1703TIP3    H2 5067   6.010   3.155   0.937
 1704TIP3   OH2 5068   3.496   1.780   1.986
 1704TIP3    H1 5069   3.460   1.703   2.031
 1704TIP3    H2 5070   3.471   1.854   2.042
 1705TIP3   OH2 5071   4.462   4.440   5.367
 1705TIP3    H1 5072   4.370   4.421   5.386
 1705TIP3    H2 5073   4.501   4.456   5.452
 1706TIP3   OH2 5074   4.677   4.359   6.431
 1706TIP3    H1 5075   4.623   4.408   6.493
 1706TIP3    H2 5076   4.721   4.292   6.483
 1707TIP3   OH2 5077   1.065   6.689   4.712
 1707TIP3    H1 5078   1.147   6.641   4.725
 1707TIP3    H2 5079   1.051   6.688   4.617
 1708TIP3   OH2 5080   4.153   1.960   0.128
 1708TIP3    H1 5081   4.210   1.927   0.059
 1708TIP3    H2 5082   4.179   2.051   0.140
 1709TIP3   OH2 5083   4.830   3.160   0.118
 1709TIP3    H1 5084   4.898   3.226   0.131
 1709TIP3    H2 5085   4.840   3.134   0.027
 1710TIP3   OH2 5086   6.414   5.122   4.862
 1710TIP3    H1 5087   6.366   5.100   4.942
 1710TIP3    H2 5088   6.459   5.204   4.883
 1711TIP3   OH2 5089   6.758   1.728   6.524
 1711TIP3    H1 5090   6.818   1.654   6.532
 1711TIP3    H2 5091   6.812   1.801   6.494
 1712TIP3   OH2 5092   6.495   5.290   1.141
 1712TIP3    H1 5093   6.491   5.231   1.216
 1712TIP3    H2 5094   6.573   5.344   1.157
 1713TIP3   OH2 5095   3.742   0.350   0.080
 1713TIP3    H1 5096   3.764   0.257   0.092
 1713TIP3    H2 5097   3.799   0.380   0.010
 1714TIP3   OH2 5098   4.146   0.555   0.236
 1714TIP3    H1 5099   4.193   0.484   0.279
 1714TIP3    H2 5100   4.069   0.569   0.290
 1715TIP3   OH2 5101   1.658   4.074   5.199
 1715TIP3    H1 5102   1.618   4.154   5.166
 1715TIP3    H2 5103   1.646   4.010   5.129
 1716TIP3   OH2 5104   7.240   4.926   5.205
 1716TIP3    H1 5105   7.229   4.839   5.167
 1716TIP3    H2 5106   7.329   4.925   5.242
 1717TIP3   OH2 5107   3.346   0.611   6.686
 1717TIP3    H1 5108   3.319   0.538   6.629
 1717TIP3    H2 5109   3.437   0.592   6.707
 1718TIP3   OH2 5110   2.685   6.051   4.385
 1718TIP3    H1 5111   2.759   6.072   4.327
 1718TIP3    H2 5112   2.664   6.133   4.428
 1719TIP3   OH2 5113   2.618   5.618   4.043
 1719TIP3    H1 5114   2.554   5.670   3.994
 1719TIP3    H2 5115   2.605   5.643   4.134
 1720TIP3   OH2 5116   0.101   6.988   1.009
 1720TIP3    H1 5117   0.103   7.012   1.102
 1720TIP3    H2 5118   0.080   7.070   0.964
 1721TIP3   OH2 5119   6.137   7.358   4.086
 1721TIP3    H1 5120   6.122   7.358   4.180
 1721TIP3    H2 5121   6.230   7.338   4.076
 1722TIP3   OH2 5122   4.814   0.688   6.770
 1722TIP3    H1 5123   4.778   0.602   6.749
 1722TIP3    H2 5124   4.908   0.672   6.784
 1723TIP3   OH2 5125   5.741   4.022   5.201
 1723TIP3    H1 5126   5.655   4.062   5.185
 1723TIP3    H2 5127   5.794   4.093   5.237
 1724TIP3   OH2 5128   0.069   0.611   4.938
 1724TIP3    H1 5129   0.143   0.571   4.892
 1724TIP3    H2 5130   0.105   0.692   4.973
 1725TIP3   OH2 5131   6.802   7.011   5.075
 1725TIP3    H1 5132   6.796   7.105   5.057
 1725TIP3    H2 5133   6.895   6.992   5.073
 1726TIP3   OH2 5134   6.993   7.457   0.805
 1726TIP3    H1 5135   7.058   7.387   0.800
 1726TIP3    H2 5136   7.043   7.538   0.793
 1727TIP3   OH2 5137   1.858   4.654   5.365
 1727TIP3    H1 5138   1.821   4.729   5.318
 1727TIP3    H2 5139   1.790   4.586   5.360
 1728TIP3   OH2 5140   5.632   5.437   2.950
 1728TIP3    H1 5141   5.576   5.513   2.934
 1728TIP3    H2 5142   5.687   5.463   3.024
 1729TIP3   OH2 5143   1.071   6.745   5.699
 1729TIP3    H1 5144   1.165   6.737   5.679
 1729TIP3    H2 5145   1.028   6.687   5.636
 1730TIP3   OH2 5146   1.757   3.433   1.606
 1730TIP3    H1 5147   1.844   3.440   1.566
 1730TIP3    H2 5148   1.722   3.522   1.603
 1731TIP3   OH2 5149   5.404   5.093   3.180
 1731TIP3    H1 5150   5.396   5.185   3.207
 1731TIP3    H2 5151   5.397   5.095   3.085
 1732TIP3   OH2 5152   6.053   0.622   2.250
 1732TIP3    H1 5153   5.971   0.606   2.296
 1732TIP3    H2 5154   6.064   0.546   2.193
 1733TIP3   OH2 5155   7.265   1.382   0.878
 1733TIP3    H1 5156   7.290   1.356   0.967
 1733TIP3    H2 5157   7.343   1.369   0.826
 1734TIP3   OH2 5158   4.967   6.488   3.779
 1734TIP3    H1 5159   4.968   6.421   3.847
 1734TIP3    H2 5160   4.951   6.439   3.698
 1735TIP3   OH2 5161   6.549   6.840   6.397
 1735TIP3    H1 5162   6.462   6.817   6.364
 1735TIP3    H2 5163   6.560   6.932   6.372
 1736TIP3   OH2 5164   2.005   2.069   1.575
 1736TIP3    H1 5165   1.931   2.009   1.576
 1736TIP3    H2 5166   1.991   2.127   1.649
 1737TIP3   OH2 5167   0.888   0.979   4.917
 1737TIP3    H1 5168   0.815   1.008   4.862
 1737TIP3    H2 5169   0.852   0.910   4.972
 1738TIP3   OH2 5170   1.249   1.378   4.328
 1738TIP3    H1 5171   1.183   1.314   4.300
 1738TIP3    H2 5172   1.330   1.347   4.289
 1739TIP3   OH2 5173   0.825   6.549   5.785
 1739TIP3    H1 5174   0.864   6.475   5.738
 1739TIP3    H2 5175   0.794   6.607   5.717
 1740TIP3   OH2 5176   4.114   5.352   3.390
 1740TIP3    H1 5177   4.038   5.392   3.348
 1740TIP3    H2 5178   4.120   5.264   3.352
 1741TIP3   OH2 5179   1.696   1.851   4.201
 1741TIP3    H1 5180   1.654   1.850   4.115
 1741TIP3    H2 5181   1.785   1.883   4.184
 1742TIP3   OH2 5182   4.290   7.754   6.327
 1742TIP3    H1 5183   4.304   7.836   6.374
 1742TIP3    H2 5184   4.377   7.729   6.295
 1743TIP3   OH2 5185   2.618   3.104   4.007
 1743TIP3    H1 5186   2.641   3.052   3.930
 1743TIP3    H2 5187   2.672   3.183   3.999
 1744TIP3   OH2 5188   3.911   0.304   6.687
 1744TIP3    H1 5189   3.841   0.327   6.626
 1744TIP3    H2 5190   3.967   0.244   6.638
 1745TIP3   OH2 5191   0.816   1.716   4.788
 1745TIP3    H1 5192   0.773   1.791   4.745
 1745TIP3    H2 5193   0.882   1.687   4.726
 1746TIP3   OH2 5194   1.669   1.053   5.191
 1746TIP3    H1 5195   1.704   0.965   5.179
 1746TIP3    H2 5196   1.638   1.078   5.105
 1747TIP3   OH2 5197   7.897   4.291   0.795
 1747TIP3    H1 5198   7.897   4.237   0.874
 1747TIP3    H2 5199   7.890   4.381   0.827
 1748TIP3   OH2 5200   1.224   5.528   4.157
 1748TIP3    H1 5201   1.128   5.519   4.158
 1748TIP3    H2 5202   1.256   5.438   4.162
 1749TIP3   OH2 5203   5.326   0.895   0.871
 1749TIP3    H1 5204   5.301   0.862   0.785
 1749TIP3    H2 5205   5.281   0.979   0.878
 1750TIP3   OH2 5206   7.525   4.499   3.513
 1750TIP3    H1 5207   7.569   4.415   3.501
 1750TIP3    H2 5208   7.502   4.527   3.425
 1751TIP3   OH2 5209   2.575   2.622   2.746
 1751TIP3    H1 5210   2.525   2.688   2.794
 1751TIP3    H2 5211   2.578   2.655   2.656
 1752TIP3   OH2 5212   2.503   0.159   6.355
 1752TIP3    H1 5213   2.431   0.221   6.367
 1752TIP3    H2 5214   2.561   0.202   6.292
 1753TIP3   OH2 5215   7.616   6.442   2.075
 1753TIP3    H1 5216   7.634   6.366   2.130
 1753TIP3    H2 5217   7.659   6.515   2.120
 1754TIP3   OH2 5218   7.305   1.547   2.945
 1754TIP3    H1 5219   7.298   1.452   2.935
 1754TIP3    H2 5220   7.398   1.566   2.930
 1755TIP3   OH2 5221   1.991   1.856   0.130
 1755TIP3    H1 5222   2.023   1.800   0.201
 1755TIP3    H2 5223   2.025   1.943   0.151
 1756TIP3   OH2 5224   3.507   4.379   1.098
 1756TIP3    H1 5225   3.539   4.468   1.083
 1756TIP3    H2 5226   3.417   4.391   1.128
 1757TIP3   OH2 5227   4.562   6.878   0.368
 1757TIP3    H1 5228   4.469   6.856   0.374
 1757TIP3    H2 5229   4.597   6.857   0.454
 1758TIP3   OH2 5230   6.916   3.424   1.289
 1758TIP3    H1 5231   6.859   3.347   1.291
 1758TIP3    H2 5232   6.984   3.402   1.226
 1759TIP3   OH2 5233   3.344   7.696   2.219
 1759TIP3    H1 5234   3.419   7.661   2.267
 1759TIP3    H2 5235   3.382   7.763   2.162
 1760TIP3   OH2 5236   6.045   3.818   0.221
 1760TIP3    H1 5237   5.996   3.839   0.141
 1760TIP3    H2 5238   6.057   3.723   0.217
 1761TIP3   OH2 5239   5.556   6.940   6.557
 1761TIP3    H1 5240   5.511   6.856   6.555
 1761TIP3    H2 5241   5.649   6.918   6.547
 1762TIP3   OH2 5242   1.915   1.503   6.451
 1762TIP3    H1 5243   1.890   1.431   6.393
 1762TIP3    H2 5244   1.834   1.548   6.470
 1763TIP3   OH2 5245   7.030   4.799   4.348
 1763TIP3    H1 5246   7.090   4.873   4.357
 1763TIP3    H2 5247   7.001   4.803   4.257
 1764TIP3   OH2 5248   6.173   3.412   1.903
 1764TIP3    H1 5249   6.151   3.399   1.996
 1764TIP3    H2 5250   6.145   3.501   1.884
 1765TIP3   OH2 5251   3.165   1.081   1.583
 1765TIP3    H1 5252   3.232   1.130   1.533
 1765TIP3    H2 5253   3.133   1.015   1.522
 1766TIP3   OH2 5254   6.933   0.985   6.323
 1766TIP3    H1 5255   6.886   0.904   6.304
 1766TIP3    H2 5256   6.947   1.025   6.237
 1767TIP3   OH2 5257   7.428   1.859   0.871
 1767TIP3    H1 5258   7.468   1.824   0.951
 1767TIP3    H2 5259   7.369   1.928   0.902
 1768TIP3   OH2 5260   1.248   4.145   2.809
 1768TIP3    H1 5261   1.200   4.217   2.769
 1768TIP3    H2 5262   1.286   4.183   2.888
 1769TIP3   OH2 5263   7.657   3.605   1.740
 1769TIP3    H1 5264   7.705   3.583   1.661
 1769TIP3    H2 5265   7.681   3.536   1.803
 1770TIP3   OH2 5266   1.167   2.397   5.860
 1770TIP3    H1 5267   1.236   2.346   5.903
 1770TIP3    H2 5268   1.126   2.336   5.798
 1771TIP3   OH2 5269   2.616   2.988   2.271
 1771TIP3    H1 5270   2.651   2.930   2.338
 1771TIP3    H2 5271   2.625   3.076   2.308
 1772TIP3   OH2 5272   5.277   3.454   2.063
 1772TIP3    H1 5273   5.294   3.463   1.970
 1772TIP3    H2 5274   5.356   3.413   2.098
 1773TIP3   OH2 5275   1.001   1.030   1.785
 1773TIP3    H1 5276   0.929   1.092   1.792
 1773TIP3    H2 5277   0.959   0.944   1.782
 1774TIP3   OH2 5278   7.424   7.002   5.261
 1774TIP3    H1 5279   7.424   7.060   5.185
 1774TIP3    H2 5280   7.450   7.059   5.334
 1775TIP3   OH2 5281   4.328   7.406   5.023
 1775TIP3    H1 5282   4.252   7.462   5.037
 1775TIP3    H2 5283   4.361   7.431   4.937
 1776TIP3   OH2 5284   2.353   1.405   0.001
 1776TIP3    H1 5285   2.329   1.313   0.014
 1776TIP3    H2 5286   2.279   1.454   0.037
 1777TIP3   OH2 5287   0.589   5.301   6.343
 1777TIP3    H1 5288   0.650   5.271   6.410
 1777TIP3    H2 5289   0.535   5.224   6.324
 1778TIP3   OH2 5290   6.248   6.385   3.379
 1778TIP3    H1 5291   6.276   6.309   3.327
 1778TIP3    H2 5292   6.155   6.394   3.358
 1779TIP3   OH2 5293   2.983   6.569   5.588
 1779TIP3    H1 5294   2.987   6.527   5.674
 1779TIP3    H2 5295   2.924   6.513   5.537
 1780TIP3   OH2 5296   8.244   4.655   3.367
 1780TIP3    H1 5297   8.272   4.743   3.340
 1780TIP3    H2 5298   8.326   4.605   3.374
 1781TIP3   OH2 5299   7.126   2.275   2.049
 1781TIP3    H1 5300   7.073   2.215   1.995
 1781TIP3    H2 5301   7.139   2.351   1.993
 1782TIP3   OH2 5302   1.850   1.836   3.411
 1782TIP3    H1 5303   1.816   1.852   3.323
 1782TIP3    H2 5304   1.903   1.913   3.430
 1783TIP3   OH2 5305   5.410   0.419   3.834
 1783TIP3    H1 5306   5.327   0.464   3.843
 1783TIP3    H2 5307   5.406   0.346   3.896
 1784TIP3   OH2 5308   6.190   0.169   3.837
 1784TIP3    H1 5309   6.155   0.141   3.921
 1784TIP3    H2 5310   6.168   0.262   3.831
 1785TIP3   OH2 5311   4.976   5.395   6.370
 1785TIP3    H1 5312   4.923   5.474   6.380
 1785TIP3    H2 5313   5.065   5.423   6.391
 1786TIP3   OH2 5314   6.190   0.311   2.329
 1786TIP3    H1 5315   6.235   0.267   2.256
 1786TIP3    H2 5316   6.257   0.318   2.397
 1787TIP3   OH2 5317   2.070   0.652   2.939
 1787TIP3    H1 5318   1.987   0.613   2.913
 1787TIP3    H2 5319   2.048   0.742   2.962
 1788TIP3   OH2 5320   8.143   0.424   5.012
 1788TIP3    H1 5321   8.190   0.507   5.002
 1788TIP3    H2 5322   8.056   0.441   4.977
 1789TIP3   OH2 5323   6.136   6.314   2.795
 1789TIP3    H1 5324   6.230   6.307   2.811
 1789TIP3    H2 5325   6.109   6.228   2.763
 1790TIP3   OH2 5326   1.011   6.330   2.500
 1790TIP3    H1 5327   1.067   6.285   2.564
 1790TIP3    H2 5328   0.949   6.263   2.471
 1791TIP3   OH2 5329   5.413   6.027   5.220
 1791TIP3    H1 5330   5.359   6.024   5.299
 1791TIP3    H2 5331   5.427   5.936   5.197
 1792TIP3   OH2 5332   3.763   0.512   3.561
 1792TIP3    H1 5333   3.708   0.497   3.484
 1792TIP3    H2 5334   3.770   0.607   3.568
 1793TIP3   OH2 5335   4.430   1.309   3.687
 1793TIP3    H1 5336   4.355   1.368   3.687
 1793TIP3    H2 5337   4.500   1.358   3.643
 1794TIP3   OH2 5338   0.858   1.807   5.128
 1794TIP3    H1 5339   0.838   1.778   5.039
 1794TIP3    H2 5340   0.774   1.801   5.175
 1795TIP3   OH2 5341   6.396   4.308   1.101
 1795TIP3    H1 5342   6.446   4.387   1.124
 1795TIP3    H2 5343   6.443   4.272   1.026
 1796TIP3   OH2 5344   4.517   2.105   0.033
 1796TIP3    H1 5345   4.489   2.132   0.121
 1796TIP3    H2 5346   4.523   2.187  -0.016
 1797TIP3   OH2 5347   2.746   6.080   1.058
 1797TIP3    H1 5348   2.742   6.146   0.989
 1797TIP3    H2 5349   2.765   6.130   1.138
 1798TIP3   OH2 5350   7.571   3.551   2.686
 1798TIP3    H1 5351   7.664   3.539   2.668
 1798TIP3    H2 5352   7.566   3.631   2.738
 1799TIP3   OH2 5353   3.005   2.260   1.503
 1799TIP3    H1 5354   2.926   2.209   1.486
 1799TIP3    H2 5355   3.022   2.248   1.596
 1800TIP3   OH2 5356   3.188   3.700   1.965
 1800TIP3    H1 5357   3.172   3.611   1.995
 1800TIP3    H2 5358   3.139   3.707   1.883
 1801TIP3   OH2 5359   4.291   0.154   5.926
 1801TIP3    H1 5360   4.228   0.084   5.940
 1801TIP3    H2 5361   4.331   0.169   6.012
 1802TIP3   OH2 5362   0.193   3.432   6.153
 1802TIP3    H1 5363   0.270   3.488   6.147
 1802TIP3    H2 5364   0.221   3.358   6.206
 1803TIP3   OH2 5365   0.264   1.647   5.750
 1803TIP3    H1 5366   0.287   1.720   5.692
 1803TIP3    H2 5367   0.325   1.655   5.823
 1804TIP3   OH2 5368   8.094   5.851   1.395
 1804TIP3    H1 5369   8.126   5.872   1.307
 1804TIP3    H2 5370   8.118   5.928   1.448
 1805TIP3   OH2 5371   2.367   6.092   3.649
 1805TIP3    H1 5372   2.290   6.068   3.597
 1805TIP3    H2 5373   2.441   6.056   3.600
 1806TIP3   OH2 5374   7.866   7.638   4.398
 1806TIP3    H1 5375   7.882   7.709   4.336
 1806TIP3    H2 5376   7.858   7.559   4.344
 1807TIP3   OH2 5377   2.108   6.323   0.792
 1807TIP3    H1 5378   2.173   6.391   0.773
 1807TIP3    H2 5379   2.132   6.251   0.734
 1808TIP3   OH2 5380   1.765   6.163   1.069
 1808TIP3    H1 5381   1.716   6.090   1.106
 1808TIP3    H2 5382   1.754   6.234   1.132
 1809TIP3   OH2 5383   2.854   4.612   5.398
 1809TIP3    H1 5384   2.825   4.563   5.321
 1809TIP3    H2 5385   2.943   4.579   5.415
 1810TIP3   OH2 5386   6.978   0.260   5.825
 1810TIP3    H1 5387   7.066   0.223   5.816
 1810TIP3    H2 5388   6.994   0.352   5.846
 1811TIP3   OH2 5389   3.401   7.147   1.892
 1811TIP3    H1 5390   3.378   7.054   1.897
 1811TIP3    H2 5391   3.319   7.190   1.867
 1812TIP3   OH2 5392   6.115   6.979   2.858
 1812TIP3    H1 5393   6.049   6.932   2.808
 1812TIP3    H2 5394   6.070   7.007   2.938
 1813TIP3   OH2 5395   0.453   2.542   5.930
 1813TIP3    H1 5396   0.431   2.460   5.886
 1813TIP3    H2 5397   0.415   2.610   5.875
 1814TIP3   OH2 5398   1.739   3.503   4.890
 1814TIP3    H1 5399   1.785   3.586   4.878
 1814TIP3    H2 5400   1.767   3.449   4.816
 1815TIP3   OH2 5401   4.982   4.793   5.156
 1815TIP3    H1 5402   5.006   4.700   5.157
 1815TIP3    H2 5403   5.013   4.825   5.072
 1816TIP3   OH2 5404   2.894   1.095   0.967
 1816TIP3    H1 5405   2.869   1.184   0.991
 1816TIP3    H2 5406   2.833   1.071   0.897
 1817TIP3   OH2 5407   2.148   4.362   3.920
 1817TIP3    H1 5408   2.185   4.304   3.853
 1817TIP3    H2 5409   2.062   4.386   3.885
 1818TIP3   OH2 5410   7.930   2.202   1.635
 1818TIP3    H1 5411   7.915   2.237   1.723
 1818TIP3    H2 5412   7.844   2.171   1.607
 1819TIP3   OH2 5413   5.452   6.619   3.339
 1819TIP3    H1 5414   5.392   6.637   3.412
 1819TIP3    H2 5415   5.418   6.538   3.300
 1820TIP3   OH2 5416   4.926   3.130   2.327
 1820TIP3    H1 5417   4.999   3.086   2.370
 1820TIP3    H2 5418   4.965   3.171   2.249
 1821TIP3   OH2 5419   1.629   0.089   3.540
 1821TIP3    H1 5420   1.574   0.033   3.485
 1821TIP3    H2 5421   1.701   0.033   3.569
 1822TIP3   OH2 5422   2.476   2.886   0.666
 1822TIP3    H1 5423   2.532   2.811   0.647
 1822TIP3    H2 5424   2.493   2.948   0.595
 1823TIP3   OH2 5425   4.251   3.423   6.305
 1823TIP3    H1 5426   4.243   3.466   6.221
 1823TIP3    H2 5427   4.276   3.492   6.366
 1824TIP3   OH2 5428   6.973   7.539   2.563
 1824TIP3    H1 5429   6.889   7.528   2.517
 1824TIP3    H2 5430   6.965   7.484   2.641
 1825TIP3   OH2 5431   6.811   4.164   4.331
 1825TIP3    H1 5432   6.836   4.105   4.259
 1825TIP3    H2 5433   6.721   4.138   4.352
 1826TIP3   OH2 5434   0.829   2.803   2.159
 1826TIP3    H1 5435   0.765   2.782   2.227
 1826TIP3    H2 5436   0.809   2.893   2.133
 1827TIP3   OH2 5437   2.156   2.408   6.348
 1827TIP3    H1 5438   2.168   2.489   6.299
 1827TIP3    H2 5439   2.088   2.361   6.300
 1828TIP3   OH2 5440   4.035   6.152   6.701
 1828TIP3    H1 5441   4.004   6.122   6.787
 1828TIP3    H2 5442   3.956   6.176   6.654
 1829TIP3   OH2 5443   2.174   4.778   4.334
 1829TIP3    H1 5444   2.111   4.849   4.351
 1829TIP3    H2 5445   2.166   4.721   4.410
 1830TIP3   OH2 5446   6.594   4.989   1.619
 1830TIP3    H1 5447   6.521   5.034   1.662
 1830TIP3    H2 5448   6.567   4.980   1.528
 1831TIP3   OH2 5449   6.331   0.120   4.465
 1831TIP3    H1 5450   6.426   0.126   4.475
 1831TIP3    H2 5451   6.316   0.031   4.431
 1832TIP3   OH2 5452   3.509   4.081   0.180
 1832TIP3    H1 5453   3.561   4.001   0.174
 1832TIP3    H2 5454   3.556   4.135   0.244
 1833TIP3   OH2 5455   1.974   4.477   2.904
 1833TIP3    H1 5456   1.923   4.554   2.930
 1833TIP3    H2 5457   1.910   4.406   2.897
 1834TIP3   OH2 5458   7.235   4.241   2.348
 1834TIP3    H1 5459   7.247   4.169   2.286
 1834TIP3    H2 5460   7.273   4.208   2.430
 1835TIP3   OH2 5461   7.165   2.105   2.902
 1835TIP3    H1 5462   7.182   2.011   2.898
 1835TIP3    H2 5463   7.251   2.144   2.917
 1836TIP3   OH2 5464   4.572   0.393   5.396
 1836TIP3    H1 5465   4.491   0.362   5.436
 1836TIP3    H2 5466   4.597   0.470   5.447
 1837TIP3   OH2 5467   3.918   2.739   0.811
 1837TIP3    H1 5468   3.929   2.652   0.851
 1837TIP3    H2 5469   3.828   2.741   0.781
 1838TIP3   OH2 5470   5.591   3.841   5.686
 1838TIP3    H1 5471   5.668   3.796   5.720
 1838TIP3    H2 5472   5.598   3.833   5.591
 1839TIP3   OH2 5473   8.208   6.076   1.512
 1839TIP3    H1 5474   8.134   6.135   1.508
 1839TIP3    H2 5475   8.274   6.115   1.454
 1840TIP3   OH2 5476   2.727   1.485   4.938
 1840TIP3    H1 5477   2.637   1.515   4.952
 1840TIP3    H2 5478   2.755   1.528   4.857
 1841TIP3   OH2 5479   5.443   5.109   2.911
 1841TIP3    H1 5480   5.365   5.053   2.907
 1841TIP3    H2 5481   5.441   5.157   2.828
 1842TIP3   OH2 5482   7.828   5.466   1.132
 1842TIP3    H1 5483   7.886   5.493   1.061
 1842TIP3    H2 5484   7.877   5.399   1.178
 1843TIP3   OH2 5485   2.675   4.404   6.432
 1843TIP3    H1 5486   2.653   4.399   6.339
 1843TIP3    H2 5487   2.632   4.485   6.462
 1844TIP3   OH2 5488   5.429   5.749   5.198
 1844TIP3    H1 5489   5.369   5.701   5.141
 1844TIP3    H2 5490   5.458   5.685   5.263
 1845TIP3   OH2 5491   4.245   3.340   1.550
 1845TIP3    H1 5492   4.293   3.324   1.631
 1845TIP3    H2 5493   4.184   3.267   1.544
 1846TIP3   OH2 5494   4.880   6.848   3.331
 1846TIP3    H1 5495   4.786   6.839   3.315
 1846TIP3    H2 5496   4.904   6.771   3.381
 1847TIP3   OH2 5497   5.023   4.098   3.630
 1847TIP3    H1 5498   4.980   4.102   3.544
 1847TIP3    H2 5499   5.054   4.008   3.637
 1848TIP3   OH2 5500   1.200   2.430   3.893
 1848TIP3    H1 5501   1.190   2.428   3.988
 1848TIP3    H2 5502   1.158   2.350   3.862
 1849TIP3   OH2 5503   7.211   3.545   5.330
 1849TIP3    H1 5504   7.297   3.565   5.294
 1849TIP3    H2 5505   7.150   3.561   5.258
 1850TIP3   OH2 5506   3.928   6.828   3.314
 1850TIP3    H1 5507   3.859   6.892   3.332
 1850TIP3    H2 5508   3.889   6.768   3.251
 1851TIP3   OH2 5509   3.515   1.251   0.518
 1851TIP3    H1 5510   3.476   1.304   0.449
 1851TIP3    H2 5511   3.457   1.175   0.526
 1852TIP3   OH2 5512   2.482   0.764   3.863
 1852TIP3    H1 5513   2.490   0.742   3.956
 1852TIP3    H2 5514   2.530   0.694   3.818
 1853TIP3   OH2 5515   4.887   6.749   3.851
 1853TIP3    H1 5516   4.873   6.760   3.945
 1853TIP3    H2 5517   4.942   6.671   3.844
 1854TIP3   OH2 5518   5.701   0.370   0.865
 1854TIP3    H1 5519   5.644   0.296   0.846
 1854TIP3    H2 5520   5.782   0.351   0.818
 1855TIP3   OH2 5521   2.473   7.684   5.483
 1855TIP3    H1 5522   2.542   7.628   5.518
 1855TIP3    H2 5523   2.512   7.727   5.408
 1856TIP3   OH2 5524   3.743   6.994   3.456
 1856TIP3    H1 5525   3.694   7.057   3.402
 1856TIP3    H2 5526   3.730   7.026   3.545
 1857TIP3   OH2 5527   7.536   3.479   3.868
 1857TIP3    H1 5528   7.529   3.400   3.814
 1857TIP3    H2 5529   7.626   3.476   3.902
 1858TIP3   OH2 5530   3.701   1.520   2.997
 1858TIP3    H1 5531   3.644   1.562   2.932
 1858TIP3    H2 5532   3.744   1.450   2.949
 1859TIP3   OH2 5533   2.061   6.846   2.289
 1859TIP3    H1 5534   2.035   6.758   2.315
 1859TIP3    H2 5535   2.119   6.876   2.358
 1860TIP3   OH2 5536   0.532   4.820   3.624
 1860TIP3    H1 5537   0.577   4.868   3.693
 1860TIP3    H2 5538   0.439   4.836   3.640
 1861TIP3   OH2 5539   2.769   5.636   0.508
 1861TIP3    H1 5540   2.725   5.597   0.432
 1861TIP3    H2 5541   2.705   5.628   0.579
 1862TIP3   OH2 5542   2.336   7.487   2.935
 1862TIP3    H1 5543   2.359   7.479   3.028
 1862TIP3    H2 5544   2.418   7.470   2.889
 1863TIP3   OH2 5545   4.088   5.482   4.452
 1863TIP3    H1 5546   4.089   5.577   4.439
 1863TIP3    H2 5547   4.000   5.462   4.483
 1864TIP3   OH2 5548   1.043   0.541   1.719
 1864TIP3    H1 5549   1.068   0.492   1.797
 1864TIP3    H2 5550   1.065   0.483   1.646
 1865TIP3   OH2 5551   7.893   6.144   2.979
 1865TIP3    H1 5552   7.858   6.191   2.903
 1865TIP3    H2 5553   7.988   6.153   2.970
 1866TIP3   OH2 5554   2.713   2.898   1.037
 1866TIP3    H1 5555   2.730   2.954   0.961
 1866TIP3    H2 5556   2.618   2.887   1.038
 1867TIP3   OH2 5557   6.966   4.201   2.177
 1867TIP3    H1 5558   6.972   4.153   2.094
 1867TIP3    H2 5559   6.962   4.133   2.244
 1868TIP3   OH2 5560   1.951   6.541   4.338
 1868TIP3    H1 5561   1.991   6.454   4.339
 1868TIP3    H2 5562   2.025   6.601   4.351
 1869TIP3   OH2 5563   8.131   4.299   0.607
 1869TIP3    H1 5564   8.146   4.393   0.596
 1869TIP3    H2 5565   8.053   4.293   0.662
 1870TIP3   OH2 5566   4.319   0.469   3.438
 1870TIP3    H1 5567   4.370   0.550   3.439
 1870TIP3    H2 5568   4.228   0.498   3.440
 1871TIP3   OH2 5569   2.031   1.959   3.573
 1871TIP3    H1 5570   2.088   1.896   3.618
 1871TIP3    H2 5571   2.089   2.003   3.511
 1872TIP3   OH2 5572   6.898   6.783   2.869
 1872TIP3    H1 5573   6.836   6.834   2.920
 1872TIP3    H2 5574   6.937   6.846   2.809
 1873TIP3   OH2 5575   8.097   5.767   2.351
 1873TIP3    H1 5576   8.059   5.805   2.272
 1873TIP3    H2 5577   8.038   5.695   2.374
 1874TIP3   OH2 5578   5.761   0.107   2.904
 1874TIP3    H1 5579   5.747   0.159   2.983
 1874TIP3    H2 5580   5.691   0.041   2.905
 1875TIP3   OH2 5581   2.276   3.019   5.042
 1875TIP3    H1 5582   2.189   3.050   5.018
 1875TIP3    H2 5583   2.311   3.087   5.101
 1876TIP3   OH2 5584   4.895   3.140   4.038
 1876TIP3    H1 5585   4.845   3.133   4.119
 1876TIP3    H2 5586   4.834   3.178   3.975
 1877TIP3   OH2 5587   6.538   5.919   3.324
 1877TIP3    H1 5588   6.596   5.918   3.248
 1877TIP3    H2 5589   6.495   5.833   3.322
 1878TIP3   OH2 5590   7.820   2.489   3.814
 1878TIP3    H1 5591   7.779   2.424   3.870
 1878TIP3    H2 5592   7.792   2.465   3.725
 1879TIP3   OH2 5593   2.470   3.509   4.806
 1879TIP3    H1 5594   2.393   3.455   4.789
 1879TIP3    H2 5595   2.506   3.527   4.719
 1880TIP3   OH2 5596   6.928   3.027   4.673
 1880TIP3    H1 5597   6.844   3.072   4.680
 1880TIP3    H2 5598   6.949   3.030   4.580
 1881TIP3   OH2 5599   1.742   3.388   2.941
 1881TIP3    H1 5600   1.709   3.330   3.010
 1881TIP3    H2 5601   1.737   3.335   2.861
 1882TIP3   OH2 5602   4.601   7.727   4.798
 1882TIP3    H1 5603   4.692   7.738   4.822
 1882TIP3    H2 5604   4.564   7.815   4.802
 1883TIP3   OH2 5605   5.408   3.519   1.792
 1883TIP3    H1 5606   5.454   3.520   1.709
 1883TIP3    H2 5607   5.360   3.602   1.796
 1884TIP3   OH2 5608   0.799   7.728   0.363
 1884TIP3    H1 5609   0.848   7.652   0.333
 1884TIP3    H2 5610   0.733   7.692   0.422
 1885TIP3   OH2 5611   6.331   6.029   0.171
 1885TIP3    H1 5612   6.368   5.945   0.197
 1885TIP3    H2 5613   6.407   6.081   0.144
 1886TIP3   OH2 5614   1.802   5.705   3.479
 1886TIP3    H1 5615   1.719   5.680   3.438
 1886TIP3    H2 5616   1.784   5.698   3.573
 1887TIP3   OH2 5617   6.151   3.282   2.999
 1887TIP3    H1 5618   6.151   3.376   3.012
 1887TIP3    H2 5619   6.103   3.248   3.075
 1888TIP3   OH2 5620   2.236   7.501   1.026
 1888TIP3    H1 5621   2.269   7.509   0.937
 1888TIP3    H2 5622   2.217   7.591   1.053
 1889TIP3   OH2 5623   1.462   2.385   4.864
 1889TIP3    H1 5624   1.495   2.466   4.825
 1889TIP3    H2 5625   1.494   2.388   4.954
 1890TIP3   OH2 5626   6.526   2.241   3.273
 1890TIP3    H1 5627   6.515   2.146   3.276
 1890TIP3    H2 5628   6.501   2.265   3.184
 1891TIP3   OH2 5629   7.684   0.879   6.395
 1891TIP3    H1 5630   7.593   0.904   6.380
 1891TIP3    H2 5631   7.735   0.954   6.365
 1892TIP3   OH2 5632   1.905   3.915   5.582
 1892TIP3    H1 5633   1.976   3.919   5.518
 1892TIP3    H2 5634   1.829   3.884   5.532
 1893TIP3   OH2 5635   7.339   4.203   0.477
 1893TIP3    H1 5636   7.418   4.201   0.422
 1893TIP3    H2 5637   7.371   4.227   0.564
 1894TIP3   OH2 5638   2.900   6.143   2.554
 1894TIP3    H1 5639   2.994   6.160   2.548
 1894TIP3    H2 5640   2.892   6.048   2.542
 1895TIP3   OH2 5641   5.398   5.495   4.314
 1895TIP3    H1 5642   5.326   5.540   4.269
 1895TIP3    H2 5643   5.463   5.564   4.329
 1896TIP3   OH2 5644   2.555   2.244   0.423
 1896TIP3    H1 5645   2.529   2.325   0.379
 1896TIP3    H2 5646   2.562   2.268   0.516
 1897TIP3   OH2 5647   2.285   0.264   2.666
 1897TIP3    H1 5648   2.336   0.233   2.591
 1897TIP3    H2 5649   2.350   0.292   2.730
 1898TIP3   OH2 5650   4.863   3.481   6.018
 1898TIP3    H1 5651   4.837   3.553   5.961
 1898TIP3    H2 5652   4.955   3.496   6.036
 1899TIP3   OH2 5653   0.575   5.043   6.025
 1899TIP3    H1 5654   0.667   5.069   6.022
 1899TIP3    H2 5655   0.554   5.039   6.118
 1900TIP3   OH2 5656   0.992   6.663   3.509
 1900TIP3    H1 5657   1.008   6.757   3.506
 1900TIP3    H2 5658   1.076   6.623   3.487
 1901TIP3   OH2 5659   3.800   0.092   1.252
 1901TIP3    H1 5660   3.890   0.106   1.222
 1901TIP3    H2 5661   3.771   0.013   1.206
 1902TIP3   OH2 5662   0.897   7.716   0.047
 1902TIP3    H1 5663   0.973   7.760   0.083
 1902TIP3    H2 5664   0.872   7.651   0.113
 1903TIP3   OH2 5665   6.593   1.888   3.869
 1903TIP3    H1 5666   6.686   1.911   3.869
 1903TIP3    H2 5667   6.591   1.794   3.850
 1904TIP3   OH2 5668   2.886   3.267   3.366
 1904TIP3    H1 5669   2.872   3.246   3.459
 1904TIP3    H2 5670   2.895   3.182   3.324
 1905TIP3   OH2 5671   1.502   1.287   3.296
 1905TIP3    H1 5672   1.491   1.287   3.201
 1905TIP3    H2 5673   1.443   1.218   3.327
 1906TIP3   OH2 5674   7.546   4.330   6.080
 1906TIP3    H1 5675   7.524   4.243   6.048
 1906TIP3    H2 5676   7.466   4.381   6.068
 1907TIP3   OH2 5677   8.044   3.296   4.772
 1907TIP3    H1 5678   7.966   3.279   4.825
 1907TIP3    H2 5679   8.109   3.325   4.835
 1908TIP3   OH2 5680   4.470   5.541   4.883
 1908TIP3    H1 5681   4.543   5.600   4.902
 1908TIP3    H2 5682   4.420   5.585   4.815
 1909TIP3   OH2 5683   6.029   6.262   4.417
 1909TIP3    H1 5684   5.968   6.333   4.438
 1909TIP3    H2 5685   6.115   6.304   4.416
 1910TIP3   OH2 5686  -0.004   6.237   5.112
 1910TIP3    H1 5687   0.019   6.275   5.197
 1910TIP3    H2 5688  -0.098   6.222   5.116
 1911TIP3   OH2 5689   1.005   3.551   1.734
 1911TIP3    H1 5690   1.003   3.585   1.823
 1911TIP3    H2 5691   1.010   3.630   1.679
 1912TIP3   OH2 5692   6.960   4.738   5.889
 1912TIP3    H1 5693   7.002   4.681   5.954
 1912TIP3    H2 5694   6.940   4.680   5.816
 1913TIP3   OH2 5695   1.240   0.126   4.183
 1913TIP3    H1 5696   1.308   0.174   4.135
 1913TIP3    H2 5697   1.161   0.178   4.171
 1914TIP3   OH2 5698   1.527   6.644   0.700
 1914TIP3    H1 5699   1.477   6.678   0.627
 1914TIP3    H2 5700   1.512   6.706   0.771
 1915TIP3   OH2 5701   1.540   0.657   0.411
 1915TIP3    H1 5702   1.474   0.646   0.478
 1915TIP3    H2 5703   1.623   0.659   0.458
 1916TIP3   OH2 5704   2.375   5.534   5.478
 1916TIP3    H1 5705   2.386   5.453   5.527
 1916TIP3    H2 5706   2.458   5.546   5.431
 1917TIP3   OH2 5707   3.287   2.320   5.705
 1917TIP3    H1 5708   3.253   2.351   5.789
 1917TIP3    H2 5709   3.334   2.395   5.669
 1918TIP3   OH2 5710   3.894   3.609   1.111
 1918TIP3    H1 5711   3.982   3.585   1.082
 1918TIP3    H2 5712   3.882   3.699   1.082
 1919TIP3   OH2 5713   3.251   3.532   0.810
 1919TIP3    H1 5714   3.335   3.511   0.851
 1919TIP3    H2 5715   3.244   3.627   0.817
 1920TIP3   OH2 5716   7.978   7.520   0.262
 1920TIP3    H1 5717   8.062   7.555   0.230
 1920TIP3    H2 5718   7.935   7.595   0.302
 1921TIP3   OH2 5719   1.603   1.423   5.233
 1921TIP3    H1 5720   1.636   1.506   5.200
 1921TIP3    H2 5721   1.648   1.357   5.180
 1922TIP3   OH2 5722   0.567   1.616   1.146
 1922TIP3    H1 5723   0.599   1.706   1.151
 1922TIP3    H2 5724   0.646   1.562   1.143
 1923TIP3   OH2 5725   1.803   7.237   0.515
 1923TIP3    H1 5726   1.849   7.244   0.598
 1923TIP3    H2 5727   1.783   7.144   0.505
 1924TIP3   OH2 5728   1.124   0.150   4.833
 1924TIP3    H1 5729   1.059   0.083   4.812
 1924TIP3    H2 5730   1.096   0.227   4.785
 1925TIP3   OH2 5731   4.052   5.464   5.309
 1925TIP3    H1 5732   4.115   5.408   5.265
 1925TIP3    H2 5733   4.062   5.444   5.402
 1926TIP3   OH2 5734   2.941   0.571   0.802
 1926TIP3    H1 5735   2.973   0.647   0.754
 1926TIP3    H2 5736   2.907   0.513   0.733
 1927TIP3   OH2 5737   4.515   4.969   4.986
 1927TIP3    H1 5738   4.431   4.962   5.033
 1927TIP3    H2 5739   4.499   5.034   4.918
 1928TIP3   OH2 5740   0.723   0.352   3.875
 1928TIP3    H1 5741   0.774   0.275   3.852
 1928TIP3    H2 5742   0.786   0.412   3.915
 1929TIP3   OH2 5743   5.258   7.246   6.652
 1929TIP3    H1 5744   5.259   7.291   6.736
 1929TIP3    H2 5745   5.241   7.314   6.588
 1930TIP3   OH2 5746   6.161   4.548   1.252
 1930TIP3    H1 5747   6.253   4.572   1.267
 1930TIP3    H2 5748   6.158   4.454   1.269
 1931TIP3   OH2 5749   5.654   3.801   0.443
 1931TIP3    H1 5750   5.696   3.887   0.448
 1931TIP3    H2 5751   5.633   3.791   0.350
 1932TIP3   OH2 5752   5.731   6.486   5.021
 1932TIP3    H1 5753   5.815   6.521   4.994
 1932TIP3    H2 5754   5.706   6.425   4.950
 1933TIP3   OH2 5755   8.193   6.562   0.482
 1933TIP3    H1 5756   8.273   6.614   0.491
 1933TIP3    H2 5757   8.176   6.561   0.387
 1934TIP3   OH2 5758   5.824   0.896   4.685
 1934TIP3    H1 5759   5.812   0.913   4.592
 1934TIP3    H2 5760   5.918   0.886   4.696
 1935TIP3   OH2 5761   4.562   0.318   0.588
 1935TIP3    H1 5762   4.622   0.384   0.622
 1935TIP3    H2 5763   4.535   0.268   0.665
 1936TIP3   OH2 5764   4.293   3.364   6.744
 1936TIP3    H1 5765   4.281   3.294   6.808
 1936TIP3    H2 5766   4.365   3.416   6.779
 1937TIP3   OH2 5767   5.159   5.644   3.175
 1937TIP3    H1 5768   5.240   5.652   3.225
 1937TIP3    H2 5769   5.183   5.590   3.099
 1938TIP3   OH2 5770   7.328   4.463   5.934
 1938TIP3    H1 5771   7.258   4.397   5.937
 1938TIP3    H2 5772   7.330   4.492   5.842
 1939TIP3   OH2 5773   3.175   4.840   5.532
 1939TIP3    H1 5774   3.087   4.867   5.508
 1939TIP3    H2 5775   3.233   4.894   5.477
 1940TIP3   OH2 5776   6.894   4.601   5.663
 1940TIP3    H1 5777   6.871   4.513   5.692
 1940TIP3    H2 5778   6.951   4.586   5.587
 1941TIP3   OH2 5779   2.230   4.492   2.784
 1941TIP3    H1 5780   2.171   4.509   2.858
 1941TIP3    H2 5781   2.294   4.430   2.819
 1942TIP3   OH2 5782   6.750   3.004   1.822
 1942TIP3    H1 5783   6.807   2.959   1.760
 1942TIP3    H2 5784   6.800   3.006   1.904
 1943TIP3   OH2 5785   7.890   1.557   6.096
 1943TIP3    H1 5786   7.959   1.596   6.042
 1943TIP3    H2 5787   7.812   1.561   6.041
 1944TIP3   OH2 5788   2.146   1.855   4.637
 1944TIP3    H1 5789   2.234   1.828   4.665
 1944TIP3    H2 5790   2.097   1.864   4.719
 1945TIP3   OH2 5791   0.449   7.628   1.649
 1945TIP3    H1 5792   0.518   7.649   1.711
 1945TIP3    H2 5793   0.368   7.643   1.698
 1946TIP3   OH2 5794   7.759   1.475   5.153
 1946TIP3    H1 5795   7.822   1.425   5.205
 1946TIP3    H2 5796   7.692   1.502   5.216
 1947TIP3   OH2 5797   3.767   3.318   4.613
 1947TIP3    H1 5798   3.799   3.406   4.635
 1947TIP3    H2 5799   3.672   3.326   4.613
 1948TIP3   OH2 5800   6.618   3.260   1.085
 1948TIP3    H1 5801   6.636   3.353   1.100
 1948TIP3    H2 5802   6.561   3.259   1.009
 1949TIP3   OH2 5803   7.120   4.389   1.965
 1949TIP3    H1 5804   7.139   4.335   2.042
 1949TIP3    H2 5805   7.055   4.452   1.995
 1950TIP3   OH2 5806   0.407   6.669   2.100
 1950TIP3    H1 5807   0.396   6.744   2.042
 1950TIP3    H2 5808   0.327   6.617   2.087
 1951TIP3   OH2 5809   2.471   1.421   2.055
 1951TIP3    H1 5810   2.410   1.459   2.117
 1951TIP3    H2 5811   2.557   1.436   2.093
 1952TIP3   OH2 5812   0.267   4.380   1.524
 1952TIP3    H1 5813   0.358   4.353   1.508
 1952TIP3    H2 5814   0.261   4.468   1.488
 1953TIP3   OH2 5815   2.159   7.126   3.773
 1953TIP3    H1 5816   2.213   7.203   3.757
 1953TIP3    H2 5817   2.072   7.150   3.742
 1954TIP3   OH2 5818   7.348   5.346   4.674
 1954TIP3    H1 5819   7.310   5.317   4.591
 1954TIP3    H2 5820   7.364   5.265   4.722
 1955TIP3   OH2 5821   1.212   1.349   0.793
 1955TIP3    H1 5822   1.139   1.338   0.854
 1955TIP3    H2 5823   1.180   1.413   0.729
 1956TIP3   OH2 5824   0.510   3.006   2.213
 1956TIP3    H1 5825   0.479   2.926   2.171
 1956TIP3    H2 5826   0.440   3.031   2.273
 1957TIP3   OH2 5827   5.453   7.350   5.971
 1957TIP3    H1 5828   5.536   7.398   5.967
 1957TIP3    H2 5829   5.407   7.375   5.891
 1958TIP3   OH2 5830   7.947   7.740   0.836
 1958TIP3    H1 5831   8.015   7.764   0.899
 1958TIP3    H2 5832   7.944   7.644   0.839
 1959TIP3   OH2 5833   1.196   4.857   1.709
 1959TIP3    H1 5834   1.167   4.778   1.663
 1959TIP3    H2 5835   1.218   4.827   1.797
 1960TIP3   OH2 5836   4.333   6.272   0.187
 1960TIP3    H1 5837   4.260   6.223   0.224
 1960TIP3    H2 5838   4.291   6.346   0.142
 1961TIP3   OH2 5839   3.296   7.356   1.591
 1961TIP3    H1 5840   3.216   7.389   1.550
 1961TIP3    H2 5841   3.322   7.282   1.537
 1962TIP3   OH2 5842   4.024   5.507   2.530
 1962TIP3    H1 5843   4.011   5.505   2.435
 1962TIP3    H2 5844   3.962   5.443   2.564
 1963TIP3   OH2 5845   1.441   7.154   6.020
 1963TIP3    H1 5846   1.471   7.238   6.054
 1963TIP3    H2 5847   1.492   7.140   5.940
 1964TIP3   OH2 5848   7.808   5.066   2.094
 1964TIP3    H1 5849   7.855   5.031   2.019
 1964TIP3    H2 5850   7.759   4.991   2.129
 1965TIP3   OH2 5851   6.980   6.452   2.559
 1965TIP3    H1 5852   6.910   6.408   2.607
 1965TIP3    H2 5853   6.961   6.435   2.467
 1966TIP3   OH2 5854   2.167   2.193   2.226
 1966TIP3    H1 5855   2.145   2.282   2.197
 1966TIP3    H2 5856   2.103   2.173   2.295
 1967TIP3   OH2 5857   1.982   3.022   5.565
 1967TIP3    H1 5858   2.062   3.067   5.590
 1967TIP3    H2 5859   1.913   3.066   5.615
 1968TIP3   OH2 5860   8.204   2.150   5.888
 1968TIP3    H1 5861   8.136   2.114   5.832
 1968TIP3    H2 5862   8.174   2.239   5.909
 1969TIP3   OH2 5863   5.388   3.043   4.622
 1969TIP3    H1 5864   5.433   3.128   4.614
 1969TIP3    H2 5865   5.431   2.987   4.557
 1970TIP3   OH2 5866   3.026   3.797   6.672
 1970TIP3    H1 5867   3.052   3.744   6.748
 1970TIP3    H2 5868   2.946   3.755   6.640
 1971TIP3   OH2 5869   6.452   3.238   6.303
 1971TIP3    H1 5870   6.376   3.224   6.246
 1971TIP3    H2 5871   6.418   3.224   6.391
 1972TIP3   OH2 5872   5.949   3.226   6.493
 1972TIP3    H1 5873   5.951   3.276   6.411
 1972TIP3    H2 5874   5.971   3.290   6.560
 1973TIP3   OH2 5875   6.891   7.338   6.050
 1973TIP3    H1 5876   6.881   7.429   6.080
 1973TIP3    H2 5877   6.906   7.288   6.129
 1974TIP3   OH2 5878   1.143   3.518   4.801
 1974TIP3    H1 5879   1.191   3.576   4.742
 1974TIP3    H2 5880   1.178   3.538   4.888
 1975TIP3   OH2 5881   3.711   1.879   6.686
 1975TIP3    H1 5882   3.714   1.839   6.600
 1975TIP3    H2 5883   3.624   1.858   6.720
 1976TIP3   OH2 5884   1.729   4.902   2.120
 1976TIP3    H1 5885   1.706   4.848   2.196
 1976TIP3    H2 5886   1.649   4.907   2.069
 1977TIP3   OH2 5887   2.106   1.278   2.643
 1977TIP3    H1 5888   2.080   1.280   2.551
 1977TIP3    H2 5889   2.202   1.277   2.641
 1978TIP3   OH2 5890   5.461   1.599   4.931
 1978TIP3    H1 5891   5.477   1.663   4.861
 1978TIP3    H2 5892   5.403   1.534   4.891
 1979TIP3   OH2 5893   2.055   7.602   0.772
 1979TIP3    H1 5894   2.144   7.603   0.808
 1979TIP3    H2 5895   2.011   7.674   0.816
 1980TIP3   OH2 5896   7.041   5.950   1.375
 1980TIP3    H1 5897   6.954   5.986   1.357
 1980TIP3    H2 5898   7.062   5.980   1.463
 1981TIP3   OH2 5899   7.732   3.897   0.296
 1981TIP3    H1 5900   7.755   3.804   0.297
 1981TIP3    H2 5901   7.765   3.930   0.379
 1982TIP3   OH2 5902   3.317   5.858   0.302
 1982TIP3    H1 5903   3.327   5.930   0.240
 1982TIP3    H2 5904   3.371   5.882   0.377
 1983TIP3   OH2 5905   3.047   6.884   4.608
 1983TIP3    H1 5906   3.060   6.808   4.666
 1983TIP3    H2 5907   3.081   6.958   4.659
 1984TIP3   OH2 5908   3.650   6.758   0.315
 1984TIP3    H1 5909   3.573   6.704   0.332
 1984TIP3    H2 5910   3.621   6.848   0.333
 1985TIP3   OH2 5911   3.403   2.916   1.731
 1985TIP3    H1 5912   3.363   2.998   1.700
 1985TIP3    H2 5913   3.421   2.866   1.651
 1986TIP3   OH2 5914   3.777   2.536   0.196
 1986TIP3    H1 5915   3.761   2.445   0.170
 1986TIP3    H2 5916   3.750   2.540   0.287
 1987TIP3   OH2 5917   6.327   3.611   0.279
 1987TIP3    H1 5918   6.320   3.519   0.305
 1987TIP3    H2 5919   6.261   3.621   0.210
 1988TIP3   OH2 5920   5.754   1.862   5.839
 1988TIP3    H1 5921   5.796   1.917   5.773
 1988TIP3    H2 5922   5.736   1.780   5.793
 1989TIP3   OH2 5923   5.178   7.342   0.944
 1989TIP3    H1 5924   5.225   7.316   0.865
 1989TIP3    H2 5925   5.182   7.266   1.001
 1990TIP3   OH2 5926   6.771   1.214   3.490
 1990TIP3    H1 5927   6.681   1.185   3.506
 1990TIP3    H2 5928   6.819   1.188   3.569
 1991TIP3   OH2 5929   7.409   5.058   3.444
 1991TIP3    H1 5930   7.426   5.059   3.350
 1991TIP3    H2 5931   7.322   5.097   3.454
 1992TIP3   OH2 5932   7.002   6.258   6.249
 1992TIP3    H1 5933   7.084   6.213   6.267
 1992TIP3    H2 5934   7.017   6.348   6.279
 1993TIP3   OH2 5935   4.163   3.892   2.186
 1993TIP3    H1 5936   4.075   3.854   2.195
 1993TIP3    H2 5937   4.155   3.955   2.115
 1994TIP3   OH2 5938   5.685   1.082   5.159
 1994TIP3    H1 5939   5.725   1.056   5.076
 1994TIP3    H2 5940   5.711   1.013   5.221
 1995TIP3   OH2 5941   5.419   7.118   4.463
 1995TIP3    H1 5942   5.408   7.192   4.403
 1995TIP3    H2 5943   5.427   7.157   4.549
 1996TIP3   OH2 5944   0.499   5.581   3.374
 1996TIP3    H1 5945   0.466   5.524   3.304
 1996TIP3    H2 5946   0.526   5.520   3.443
 1997TIP3   OH2 5947   1.223   2.012   4.455
 1997TIP3    H1 5948   1.217   2.107   4.459
 1997TIP3    H2 5949   1.316   1.994   4.438
 1998TIP3   OH2 5950   3.866   4.966   2.488
 1998TIP3    H1 5951   3.789   4.949   2.541
 1998TIP3    H2 5952   3.929   4.899   2.515
 1999TIP3   OH2 5953   4.568   3.187   1.446
 1999TIP3    H1 5954   4.477   3.164   1.464
 1999TIP3    H2 5955   4.593   3.131   1.373
 2000TIP3   OH2 5956   3.146   2.693   1.278
 2000TIP3    H1 5957   3.183   2.772   1.318
 2000TIP3    H2 5958   3.108   2.724   1.196
 2001TIP3   OH2 5959   0.384   4.556   4.114
 2001TIP3    H1 5960   0.368   4.588   4.025
 2001TIP3    H2 5961   0.300   4.521   4.143
 2002TIP3   OH2 5962   6.541   3.714   0.427
 2002TIP3    H1 5963   6.598   3.647   0.466
 2002TIP3    H2 5964   6.480   3.664   0.374
 2003TIP3   OH2 5965   4.144   1.066   2.564
 2003TIP3    H1 5966   4.165   0.972   2.564
 2003TIP3    H2 5967   4.226   1.109   2.540
 2004TIP3   OH2 5968   7.242   3.364   1.768
 2004TIP3    H1 5969   7.183   3.302   1.723
 2004TIP3    H2 5970   7.326   3.319   1.770
 2005TIP3   OH2 5971   7.865   5.560   6.500
 2005TIP3    H1 5972   7.854   5.552   6.594
 2005TIP3    H2 5973   7.921   5.486   6.476
 2006TIP3   OH2 5974   0.806   4.322   6.607
 2006TIP3    H1 5975   0.877   4.288   6.553
 2006TIP3    H2 5976   0.808   4.268   6.687
 2007TIP3   OH2 5977   0.928   7.248   2.246
 2007TIP3    H1 5978   1.008   7.248   2.299
 2007TIP3    H2 5979   0.958   7.235   2.156
 2008TIP3   OH2 5980   1.870   5.394   5.349
 2008TIP3    H1 5981   1.822   5.371   5.270
 2008TIP3    H2 5982   1.957   5.419   5.318
 2009TIP3   OH2 5983   1.837   2.114   0.728
 2009TIP3    H1 5984   1.797   2.169   0.662
 2009TIP3    H2 5985   1.930   2.136   0.725
 2010TIP3   OH2 5986   6.561   1.824   2.276
 2010TIP3    H1 5987   6.487   1.789   2.326
 2010TIP3    H2 5988   6.591   1.900   2.327
 2011TIP3   OH2 5989   0.231   7.654   4.020
 2011TIP3    H1 5990   0.182   7.706   4.084
 2011TIP3    H2 5991   0.196   7.566   4.029
 2012TIP3   OH2 5992   7.934   2.562   0.440
 2012TIP3    H1 5993   7.888   2.586   0.521
 2012TIP3    H2 5994   8.027   2.559   0.465
 2013TIP3   OH2 5995   0.210   0.478   2.555
 2013TIP3    H1 5996   0.235   0.570   2.556
 2013TIP3    H2 5997   0.293   0.430   2.553
 2014TIP3   OH2 5998   6.151   2.234   1.942
 2014TIP3    H1 5999   6.230   2.263   1.988
 2014TIP3    H2 6000   6.090   2.209   2.012
 2015TIP3   OH2 6001   8.135   1.115   0.114
 2015TIP3    H1 6002   8.176   1.200   0.103
 2015TIP3    H2 6003   8.082   1.102   0.035
 2016TIP3   OH2 6004   8.258   4.405   6.753
 2016TIP3    H1 6005   8.286   4.347   6.682
 2016TIP3    H2 6006   8.274   4.493   6.720
 2017TIP3   OH2 6007   5.549   2.214   3.154
 2017TIP3    H1 6008   5.564   2.283   3.218
 2017TIP3    H2 6009   5.601   2.241   3.078
 2018TIP3   OH2 6010   6.378   3.979   1.507
 2018TIP3    H1 6011   6.296   3.962   1.460
 2018TIP3    H2 6012   6.375   3.918   1.581
 2019TIP3   OH2 6013   2.943   3.535   2.974
 2019TIP3    H1 6014   3.010   3.498   3.031
 2019TIP3    H2 6015   2.981   3.618   2.943
 2020TIP3   OH2 6016   3.915   5.234   2.282
 2020TIP3    H1 6017   3.963   5.316   2.285
 2020TIP3    H2 6018   3.910   5.204   2.372
 2021TIP3   OH2 6019   8.107   7.289   3.618
 2021TIP3    H1 6020   8.064   7.369   3.647
 2021TIP3    H2 6021   8.189   7.286   3.667
 2022TIP3   OH2 6022   5.030   1.247   4.276
 2022TIP3    H1 6023   5.039   1.163   4.321
 2022TIP3    H2 6024   4.943   1.243   4.236
 2023TIP3   OH2 6025   7.450   0.939   5.495
 2023TIP3    H1 6026   7.372   0.889   5.472
 2023TIP3    H2 6027   7.494   0.957   5.412
 2024TIP3   OH2 6028   0.360  -0.025   1.386
 2024TIP3    H1 6029   0.371   0.050   1.327
 2024TIP3    H2 6030   0.335   0.014   1.470
 2025TIP3   OH2 6031   3.977   7.486   5.985
 2025TIP3    H1 6032   4.071   7.471   5.983
 2025TIP3    H2 6033   3.965   7.560   6.045
 2026TIP3   OH2 6034   0.668   7.291   0.334
 2026TIP3    H1 6035   0.634   7.302   0.423
 2026TIP3    H2 6036   0.615   7.351   0.281
 2027TIP3   OH2 6037   7.026   4.605   2.672
 2027TIP3    H1 6038   7.030   4.694   2.708
 2027TIP3    H2 6039   6.934   4.593   2.648
 2028TIP3   OH2 6040   2.777   3.637   1.876
 2028TIP3    H1 6041   2.793   3.731   1.869
 2028TIP3    H2 6042   2.830   3.598   1.806
 2029TIP3   OH2 6043   0.398   0.316   5.483
 2029TIP3    H1 6044   0.382   0.225   5.508
 2029TIP3    H2 6045   0.313   0.359   5.494
 2030TIP3   OH2 6046   1.555   3.046   1.774
 2030TIP3    H1 6047   1.471   3.021   1.813
 2030TIP3    H2 6048   1.584   3.122   1.826
 2031TIP3   OH2 6049   7.879   3.778   3.611
 2031TIP3    H1 6050   7.873   3.718   3.537
 2031TIP3    H2 6051   7.951   3.836   3.589
 2032TIP3   OH2 6052   6.164   0.968   1.183
 2032TIP3    H1 6053   6.132   0.879   1.194
 2032TIP3    H2 6054   6.088   1.024   1.202
 2033TIP3   OH2 6055   3.283   7.776   5.176
 2033TIP3    H1 6056   3.257   7.807   5.090
 2033TIP3    H2 6057   3.308   7.684   5.162
 2034TIP3   OH2 6058   5.145  -0.005   2.697
 2034TIP3    H1 6059   5.153   0.008   2.603
 2034TIP3    H2 6060   5.054   0.016   2.717
 2035TIP3   OH2 6061   3.432   5.607   5.591
 2035TIP3    H1 6062   3.408   5.515   5.576
 2035TIP3    H2 6063   3.512   5.619   5.541
 2036TIP3   OH2 6064   1.840   4.289   1.106
 2036TIP3    H1 6065   1.872   4.376   1.129
 2036TIP3    H2 6066   1.904   4.229   1.145
 2037TIP3   OH2 6067   5.882   4.805   4.408
 2037TIP3    H1 6068   5.849   4.731   4.458
 2037TIP3    H2 6069   5.932   4.766   4.336
 2038TIP3   OH2 6070   1.955   7.523   1.648
 2038TIP3    H1 6071   1.875   7.511   1.699
 2038TIP3    H2 6072   1.928   7.578   1.575
 2039TIP3   OH2 6073   3.685   6.024   5.881
 2039TIP3    H1 6074   3.612   5.965   5.863
 2039TIP3    H2 6075   3.679   6.091   5.812
 2040TIP3   OH2 6076   6.524   4.486   3.603
 2040TIP3    H1 6077   6.464   4.471   3.676
 2040TIP3    H2 6078   6.608   4.455   3.635
 2041TIP3   OH2 6079   3.851   5.788   6.459
 2041TIP3    H1 6080   3.795   5.863   6.440
 2041TIP3    H2 6081   3.921   5.794   6.394
 2042TIP3   OH2 6082   7.455   0.854   3.979
 2042TIP3    H1 6083   7.406   0.802   3.917
 2042TIP3    H2 6084   7.397   0.864   4.054
 2043TIP3   OH2 6085   7.331   3.845   6.133
 2043TIP3    H1 6086   7.365   3.881   6.215
 2043TIP3    H2 6087   7.237   3.857   6.138
 2044TIP3   OH2 6088   6.545   5.218   0.662
 2044TIP3    H1 6089   6.575   5.183   0.746
 2044TIP3    H2 6090   6.574   5.309   0.662
 2045TIP3   OH2 6091   6.196   1.286   4.142
 2045TIP3    H1 6092   6.162   1.242   4.065
 2045TIP3    H2 6093   6.141   1.255   4.214
 2046TIP3   OH2 6094   0.115   3.524   5.801
 2046TIP3    H1 6095   0.128   3.431   5.816
 2046TIP3    H2 6096   0.074   3.556   5.881
 2047TIP3   OH2 6097   4.613   4.612   6.548
 2047TIP3    H1 6098   4.569   4.578   6.626
 2047TIP3    H2 6099   4.569   4.696   6.531
 2048TIP3   OH2 6100   7.015   7.316   4.721
 2048TIP3    H1 6101   6.963   7.242   4.751
 2048TIP3    H2 6102   7.053   7.353   4.800
 2049TIP3   OH2 6103   2.171   7.720   1.667
 2049TIP3    H1 6104   2.261   7.687   1.669
 2049TIP3    H2 6105   2.118   7.646   1.696
 2050TIP3   OH2 6106   6.372   4.342   6.613
 2050TIP3    H1 6107   6.400   4.306   6.697
 2050TIP3    H2 6108   6.277   4.349   6.620
 2051TIP3   OH2 6109   6.853   2.905   2.251
 2051TIP3    H1 6110   6.925   2.947   2.299
 2051TIP3    H2 6111   6.839   2.960   2.175
 2052TIP3   OH2 6112   7.467   2.601   3.428
 2052TIP3    H1 6113   7.536   2.537   3.444
 2052TIP3    H2 6114   7.499   2.681   3.472
 2053TIP3   OH2 6115   7.543   4.057   4.605
 2053TIP3    H1 6116   7.592   4.138   4.617
 2053TIP3    H2 6117   7.537   4.046   4.510
 2054TIP3   OH2 6118   0.426   0.924   3.797
 2054TIP3    H1 6119   0.340   0.965   3.791
 2054TIP3    H2 6120   0.460   0.953   3.881
 2055TIP3   OH2 6121   2.839   5.586   1.032
 2055TIP3    H1 6122   2.761   5.560   1.082
 2055TIP3    H2 6123   2.826   5.679   1.013
 2056TIP3   OH2 6124   4.408   2.206   3.641
 2056TIP3    H1 6125   4.480   2.187   3.701
 2056TIP3    H2 6126   4.377   2.293   3.669
 2057TIP3   OH2 6127   6.788   3.485   2.655
 2057TIP3    H1 6128   6.712   3.458   2.707
 2057TIP3    H2 6129   6.751   3.521   2.575
 2058TIP3   OH2 6130   7.105   7.099   3.349
 2058TIP3    H1 6131   7.116   7.092   3.254
 2058TIP3    H2 6132   7.048   7.026   3.372
 2059TIP3   OH2 6133   3.667   1.965   1.191
 2059TIP3    H1 6134   3.654   2.029   1.262
 2059TIP3    H2 6135   3.759   1.974   1.168
 2060TIP3   OH2 6136   6.179   3.916   6.616
 2060TIP3    H1 6137   6.125   3.983   6.657
 2060TIP3    H2 6138   6.151   3.914   6.524
 2061TIP3   OH2 6139   7.236   2.270   1.170
 2061TIP3    H1 6140   7.169   2.292   1.105
 2061TIP3    H2 6141   7.205   2.190   1.211
 2062TIP3   OH2 6142   3.562   5.885   0.940
 2062TIP3    H1 6143   3.571   5.970   0.982
 2062TIP3    H2 6144   3.558   5.823   1.013
 2063TIP3   OH2 6145   0.823   5.116   5.891
 2063TIP3    H1 6146   0.847   5.024   5.886
 2063TIP3    H2 6147   0.791   5.138   5.803
 2064TIP3   OH2 6148   6.044   1.435   0.135
 2064TIP3    H1 6149   5.997   1.362   0.174
 2064TIP3    H2 6150   5.975   1.497   0.109
 2065TIP3   OH2 6151   5.702   2.043   2.936
 2065TIP3    H1 6152   5.624   1.988   2.937
 2065TIP3    H2 6153   5.670   2.130   2.909
 2066TIP3   OH2 6154   4.289   4.246   0.249
 2066TIP3    H1 6155   4.324   4.162   0.278
 2066TIP3    H2 6156   4.325   4.310   0.310
 2067TIP3   OH2 6157   0.303   2.752   4.719
 2067TIP3    H1 6158   0.290   2.737   4.812
 2067TIP3    H2 6159   0.218   2.779   4.687
 2068TIP3   OH2 6160   3.296   7.185   3.349
 2068TIP3    H1 6161   3.281   7.268   3.393
 2068TIP3    H2 6162   3.212   7.164   3.306
 2069TIP3   OH2 6163   1.532   4.014   5.951
 2069TIP3    H1 6164   1.457   3.965   5.985
 2069TIP3    H2 6165   1.503   4.046   5.865
 2070TIP3   OH2 6166   7.497   0.995   6.006
 2070TIP3    H1 6167   7.581   1.008   6.050
 2070TIP3    H2 6168   7.512   1.025   5.916
 2071TIP3   OH2 6169   0.626   3.433   0.602
 2071TIP3    H1 6170   0.683   3.388   0.540
 2071TIP3    H2 6171   0.685   3.470   0.667
 2072TIP3   OH2 6172   3.476   4.064   6.628
 2072TIP3    H1 6173   3.397   4.020   6.597
 2072TIP3    H2 6174   3.463   4.073   6.722
 2073TIP3   OH2 6175   8.042   1.395   1.270
 2073TIP3    H1 6176   7.971   1.330   1.268
 2073TIP3    H2 6177   8.006   1.468   1.321
 2074TIP3   OH2 6178   4.055   7.649   5.413
 2074TIP3    H1 6179   4.099   7.713   5.358
 2074TIP3    H2 6180   4.086   7.666   5.501
 2075TIP3   OH2 6181   4.932   5.136   1.542
 2075TIP3    H1 6182   5.024   5.123   1.517
 2075TIP3    H2 6183   4.906   5.052   1.582
 2076TIP3   OH2 6184   5.234   7.483   1.538
 2076TIP3    H1 6185   5.284   7.484   1.456
 2076TIP3    H2 6186   5.200   7.572   1.546
 2077TIP3   OH2 6187   6.922   1.107   2.293
 2077TIP3    H1 6188   6.954   1.024   2.259
 2077TIP3    H2 6189   6.999   1.148   2.332
 2078TIP3   OH2 6190   0.303   6.394   2.295
 2078TIP3    H1 6191   0.292   6.299   2.285
 2078TIP3    H2 6192   0.248   6.432   2.226
 2079TIP3   OH2 6193   1.682   1.629   2.898
 2079TIP3    H1 6194   1.729   1.591   2.973
 2079TIP3    H2 6195   1.752   1.651   2.836
 2080TIP3   OH2 6196   2.788   1.453   3.633
 2080TIP3    H1 6197   2.733   1.375   3.625
 2080TIP3    H2 6198   2.824   1.447   3.721
 2081TIP3   OH2 6199   6.304   0.987   1.875
 2081TIP3    H1 6200   6.266   0.948   1.797
 2081TIP3    H2 6201   6.248   1.062   1.895
 2082TIP3   OH2 6202   7.367   3.967   1.498
 2082TIP3    H1 6203   7.291   3.910   1.490
 2082TIP3    H2 6204   7.355   4.012   1.581
 2083TIP3   OH2 6205   4.841   1.966   5.104
 2083TIP3    H1 6206   4.863   2.056   5.077
 2083TIP3    H2 6207   4.760   1.975   5.154
 2084TIP3   OH2 6208   3.374   2.857   4.172
 2084TIP3    H1 6209   3.290   2.812   4.181
 2084TIP3    H2 6210   3.379   2.913   4.249
 2085TIP3   OH2 6211   1.147   7.373   0.190
 2085TIP3    H1 6212   1.228   7.321   0.194
 2085TIP3    H2 6213   1.099   7.348   0.269
 2086TIP3   OH2 6214   3.859   3.420   2.265
 2086TIP3    H1 6215   3.803   3.408   2.341
 2086TIP3    H2 6216   3.927   3.481   2.294
 2087TIP3   OH2 6217   6.401   0.466   3.236
 2087TIP3    H1 6218   6.450   0.420   3.304
 2087TIP3    H2 6219   6.326   0.504   3.282
 2088TIP3   OH2 6220   1.957   6.361   6.540
 2088TIP3    H1 6221   2.051   6.379   6.544
 2088TIP3    H2 6222   1.950   6.273   6.505
 2089TIP3   OH2 6223   5.597   1.174   1.888
 2089TIP3    H1 6224   5.665   1.109   1.903
 2089TIP3    H2 6225   5.584   1.175   1.793
 2090TIP3   OH2 6226   1.818   0.881   3.640
 2090TIP3    H1 6227   1.775   0.803   3.607
 2090TIP3    H2 6228   1.771   0.954   3.599
 2091TIP3   OH2 6229   6.505   7.397   2.054
 2091TIP3    H1 6230   6.545   7.310   2.047
 2091TIP3    H2 6231   6.461   7.409   1.970
 2092TIP3   OH2 6232   5.183   1.665   0.787
 2092TIP3    H1 6233   5.109   1.693   0.733
 2092TIP3    H2 6234   5.143   1.635   0.868
 2093TIP3   OH2 6235   4.057   5.350   5.568
 2093TIP3    H1 6236   4.151   5.331   5.563
 2093TIP3    H2 6237   4.016   5.263   5.574
 2094TIP3   OH2 6238   8.081   7.374   1.877
 2094TIP3    H1 6239   8.043   7.324   1.805
 2094TIP3    H2 6240   8.017   7.443   1.895
 2095TIP3   OH2 6241   4.308   2.698   5.398
 2095TIP3    H1 6242   4.263   2.696   5.483
 2095TIP3    H2 6243   4.400   2.708   5.420
 2096TIP3   OH2 6244   0.642   3.994   5.233
 2096TIP3    H1 6245   0.547   3.989   5.219
 2096TIP3    H2 6246   0.661   3.920   5.291
 2097TIP3   OH2 6247   0.846   3.986   0.894
 2097TIP3    H1 6248   0.809   3.955   0.812
 2097TIP3    H2 6249   0.932   4.020   0.871
 2098TIP3   OH2 6250   2.784   0.177   6.777
 2098TIP3    H1 6251   2.869   0.195   6.736
 2098TIP3    H2 6252   2.720   0.206   6.712
 2099TIP3   OH2 6253   4.498   5.662   2.146
 2099TIP3    H1 6254   4.479   5.725   2.215
 2099TIP3    H2 6255   4.562   5.706   2.090
 2100TIP3   OH2 6256   6.720   4.692   4.212
 2100TIP3    H1 6257   6.649   4.677   4.149
 2100TIP3    H2 6258   6.777   4.616   4.202
 2101TIP3   OH2 6259   3.688   4.611   4.903
 2101TIP3    H1 6260   3.713   4.685   4.847
 2101TIP3    H2 6261   3.671   4.650   4.989
 2102TIP3   OH2 6262   7.685   0.142   2.589
 2102TIP3    H1 6263   7.644   0.072   2.640
 2102TIP3    H2 6264   7.649   0.133   2.501
 2103TIP3   OH2 6265   1.442   1.513   2.855
 2103TIP3    H1 6266   1.421   1.529   2.763
 2103TIP3    H2 6267   1.529   1.552   2.867
 2104TIP3   OH2 6268   5.033   2.347   5.368
 2104TIP3    H1 6269   5.020   2.312   5.280
 2104TIP3    H2 6270   5.007   2.275   5.426
 2105TIP3   OH2 6271   6.382   5.554   0.547
 2105TIP3    H1 6272   6.459   5.609   0.564
 2105TIP3    H2 6273   6.403   5.508   0.465
 2106TIP3   OH2 6274   7.721   2.351   5.141
 2106TIP3    H1 6275   7.730   2.444   5.121
 2106TIP3    H2 6276   7.701   2.348   5.234
 2107TIP3   OH2 6277   3.437   4.230   6.021
 2107TIP3    H1 6278   3.364   4.170   6.009
 2107TIP3    H2 6279   3.443   4.278   5.938
 2108TIP3   OH2 6280   6.197   2.030   1.741
 2108TIP3    H1 6281   6.178   2.067   1.654
 2108TIP3    H2 6282   6.181   2.102   1.802
 2109TIP3   OH2 6283   5.306   5.683   5.729
 2109TIP3    H1 6284   5.268   5.771   5.732
 2109TIP3    H2 6285   5.292   5.648   5.818
 2110TIP3   OH2 6286   6.718   0.152   1.815
 2110TIP3    H1 6287   6.731   0.240   1.780
 2110TIP3    H2 6288   6.695   0.166   1.907
 2111TIP3   OH2 6289   1.501   5.813   1.728
 2111TIP3    H1 6290   1.443   5.879   1.764
 2111TIP3    H2 6291   1.444   5.753   1.681
 2112TIP3   OH2 6292   7.851   1.576   2.143
 2112TIP3    H1 6293   7.762   1.554   2.170
 2112TIP3    H2 6294   7.883   1.497   2.098
 2113TIP3   OH2 6295   1.062   4.165   4.536
 2113TIP3    H1 6296   1.065   4.218   4.456
 2113TIP3    H2 6297   1.069   4.229   4.607
 2114TIP3   OH2 6298   3.150   7.066   5.899
 2114TIP3    H1 6299   3.065   7.033   5.868
 2114TIP3    H2 6300   3.215   7.021   5.845
 2115TIP3   OH2 6301   7.203   2.450   4.806
 2115TIP3    H1 6302   7.190   2.533   4.759
 2115TIP3    H2 6303   7.290   2.457   4.843
 2116TIP3   OH2 6304   4.987   2.188   4.607
 2116TIP3    H1 6305   5.014   2.120   4.669
 2116TIP3    H2 6306   5.024   2.160   4.523
 2117TIP3   OH2 6307   5.416   2.216   3.741
 2117TIP3    H1 6308   5.431   2.200   3.648
 2117TIP3    H2 6309   5.323   2.197   3.754
 2118TIP3   OH2 6310   2.810   5.349   2.198
 2118TIP3    H1 6311   2.742   5.299   2.243
 2118TIP3    H2 6312   2.875   5.284   2.172
 2119TIP3   OH2 6313   0.703   2.294   6.544
 2119TIP3    H1 6314   0.750   2.329   6.468
 2119TIP3    H2 6315   0.744   2.209   6.561
 2120TIP3   OH2 6316   4.688   1.912   2.595
 2120TIP3    H1 6317   4.597   1.908   2.624
 2120TIP3    H2 6318   4.693   1.992   2.542
 2121TIP3   OH2 6319   1.391   5.980   3.062
 2121TIP3    H1 6320   1.450   6.049   3.032
 2121TIP3    H2 6321   1.370   5.930   2.983
 2122TIP3   OH2 6322   7.567   0.871   0.166
 2122TIP3    H1 6323   7.653   0.844   0.133
 2122TIP3    H2 6324   7.569   0.847   0.259
 2123TIP3   OH2 6325   1.206   0.843   1.880
 2123TIP3    H1 6326   1.134   0.904   1.865
 2123TIP3    H2 6327   1.163   0.761   1.906
 2124TIP3   OH2 6328   5.939   4.365   0.105
 2124TIP3    H1 6329   5.846   4.369   0.081
 2124TIP3    H2 6330   5.983   4.416   0.037
 2125TIP3   OH2 6331   0.325   7.106   2.300
 2125TIP3    H1 6332   0.333   7.183   2.245
 2125TIP3    H2 6333   0.402   7.053   2.279
 2126TIP3   OH2 6334   1.424   3.732   2.939
 2126TIP3    H1 6335   1.370   3.654   2.947
 2126TIP3    H2 6336   1.513   3.699   2.931
 2127TIP3   OH2 6337   5.488   1.511   2.216
 2127TIP3    H1 6338   5.535   1.551   2.143
 2127TIP3    H2 6339   5.478   1.419   2.191
 2128TIP3   OH2 6340   0.849   7.048   5.852
 2128TIP3    H1 6341   0.919   7.106   5.882
 2128TIP3    H2 6342   0.886   6.960   5.860
 2129TIP3   OH2 6343   0.519   0.322   3.539
 2129TIP3    H1 6344   0.504   0.229   3.558
 2129TIP3    H2 6345   0.586   0.322   3.471
 2130TIP3   OH2 6346   3.863   4.654   1.659
 2130TIP3    H1 6347   3.936   4.644   1.721
 2130TIP3    H2 6348   3.882   4.736   1.614
 2131TIP3   OH2 6349   4.791   2.613   0.499
 2131TIP3    H1 6350   4.800   2.701   0.463
 2131TIP3    H2 6351   4.704   2.612   0.540
 2132TIP3   OH2 6352   2.473   1.429   4.319
 2132TIP3    H1 6353   2.438   1.514   4.347
 2132TIP3    H2 6354   2.567   1.441   4.317
 2133TIP3   OH2 6355   6.156   0.783   5.685
 2133TIP3    H1 6356   6.222   0.752   5.748
 2133TIP3    H2 6357   6.083   0.722   5.697
 2134TIP3   OH2 6358   0.182   3.746   4.565
 2134TIP3    H1 6359   0.134   3.784   4.491
 2134TIP3    H2 6360   0.270   3.783   4.558
 2135TIP3   OH2 6361   5.769   0.644   0.947
 2135TIP3    H1 6362   5.748   0.555   0.919
 2135TIP3    H2 6363   5.710   0.700   0.896
 2136TIP3   OH2 6364   5.677   0.392   4.635
 2136TIP3    H1 6365   5.679   0.481   4.600
 2136TIP3    H2 6366   5.668   0.336   4.557
 2137TIP3   OH2 6367   0.301   5.787   0.872
 2137TIP3    H1 6368   0.293   5.779   0.967
 2137TIP3    H2 6369   0.266   5.874   0.852
 2138TIP3   OH2 6370   5.156   7.698   4.492
 2138TIP3    H1 6371   5.118   7.770   4.543
 2138TIP3    H2 6372   5.090   7.629   4.495
 2139TIP3   OH2 6373   3.982   4.375   2.933
 2139TIP3    H1 6374   3.944   4.403   3.016
 2139TIP3    H2 6375   3.932   4.297   2.908
 2140TIP3   OH2 6376   2.224   7.597   3.676
 2140TIP3    H1 6377   2.162   7.536   3.634
 2140TIP3    H2 6378   2.292   7.611   3.610
 2141TIP3   OH2 6379   4.873   1.432   5.606
 2141TIP3    H1 6380   4.810   1.365   5.632
 2141TIP3    H2 6381   4.897   1.476   5.688
 2142TIP3   OH2 6382   1.372   0.299   4.900
 2142TIP3    H1 6383   1.299   0.237   4.894
 2142TIP3    H2 6384   1.450   0.244   4.900
 2143TIP3   OH2 6385   7.787   4.646   2.370
 2143TIP3    H1 6386   7.766   4.557   2.342
 2143TIP3    H2 6387   7.752   4.652   2.459
 2144TIP3   OH2 6388   5.539   3.099   0.421
 2144TIP3    H1 6389   5.610   3.080   0.359
 2144TIP3    H2 6390   5.569   3.061   0.504
 2145TIP3   OH2 6391   4.468   0.844   2.641
 2145TIP3    H1 6392   4.462   0.921   2.699
 2145TIP3    H2 6393   4.396   0.855   2.579
 2146TIP3   OH2 6394   0.296   6.955   5.047
 2146TIP3    H1 6395   0.230   7.025   5.042
 2146TIP3    H2 6396   0.265   6.890   4.984
 2147TIP3   OH2 6397   4.542   1.572   1.002
 2147TIP3    H1 6398   4.580   1.516   0.935
 2147TIP3    H2 6399   4.573   1.534   1.085
 2148TIP3   OH2 6400   6.179   2.163   3.817
 2148TIP3    H1 6401   6.160   2.081   3.864
 2148TIP3    H2 6402   6.269   2.153   3.786
 2149TIP3   OH2 6403   5.060   2.134   3.499
 2149TIP3    H1 6404   5.150   2.162   3.479
 2149TIP3    H2 6405   5.052   2.048   3.459
 2150TIP3   OH2 6406   6.368   7.561   0.112
 2150TIP3    H1 6407   6.434   7.607   0.164
 2150TIP3    H2 6408   6.368   7.606   0.028
 2151TIP3   OH2 6409   3.975   4.797   0.675
 2151TIP3    H1 6410   3.891   4.840   0.691
 2151TIP3    H2 6411   4.036   4.843   0.733
 2152TIP3   OH2 6412   5.871   0.074   6.248
 2152TIP3    H1 6413   5.916  -0.002   6.285
 2152TIP3    H2 6414   5.906   0.148   6.298
 2153TIP3   OH2 6415   3.179   1.084   3.293
 2153TIP3    H1 6416   3.088   1.056   3.280
 2153TIP3    H2 6417   3.199   1.136   3.216
 2154TIP3   OH2 6418   5.287   2.499   3.475
 2154TIP3    H1 6419   5.355   2.565   3.485
 2154TIP3    H2 6420   5.219   2.526   3.537
 2155TIP3   OH2 6421   3.498   6.562   3.280
 2155TIP3    H1 6422   3.593   6.564   3.289
 2155TIP3    H2 6423   3.473   6.654   3.270
 2156TIP3   OH2 6424   0.576   3.334   2.043
 2156TIP3    H1 6425   0.552   3.423   2.067
 2156TIP3    H2 6426   0.563   3.283   2.123
 2157TIP3   OH2 6427   7.750   3.667   5.210
 2157TIP3    H1 6428   7.811   3.737   5.230
 2157TIP3    H2 6429   7.794   3.587   5.242
 2158TIP3   OH2 6430   1.390   0.562   2.873
 2158TIP3    H1 6431   1.297   0.546   2.856
 2158TIP3    H2 6432   1.395   0.582   2.966
 2159TIP3   OH2 6433   3.923   1.005   4.305
 2159TIP3    H1 6434   3.947   0.919   4.338
 2159TIP3    H2 6435   3.829   1.012   4.323
 2160TIP3   OH2 6436   3.017   3.614   0.164
 2160TIP3    H1 6437   2.944   3.669   0.138
 2160TIP3    H2 6438   3.005   3.601   0.258
 2161TIP3   OH2 6439   2.769   4.650   0.827
 2161TIP3    H1 6440   2.854   4.608   0.812
 2161TIP3    H2 6441   2.707   4.577   0.836
 2162TIP3   OH2 6442   2.148   5.159   6.018
 2162TIP3    H1 6443   2.196   5.190   5.941
 2162TIP3    H2 6444   2.129   5.239   6.067
 2163TIP3   OH2 6445   0.702   1.096   6.625
 2163TIP3    H1 6446   0.737   1.058   6.705
 2163TIP3    H2 6447   0.623   1.046   6.607
 2164TIP3   OH2 6448   7.306   0.625   2.243
 2164TIP3    H1 6449   7.262   0.609   2.160
 2164TIP3    H2 6450   7.381   0.681   2.220
 2165TIP3   OH2 6451   2.962   1.198   1.296
 2165TIP3    H1 6452   2.971   1.184   1.202
 2165TIP3    H2 6453   3.049   1.181   1.331
 2166TIP3   OH2 6454   5.248   3.682   6.390
 2166TIP3    H1 6455   5.232   3.616   6.322
 2166TIP3    H2 6456   5.206   3.645   6.469
 2167TIP3   OH2 6457   2.349   1.604   1.154
 2167TIP3    H1 6458   2.435   1.606   1.114
 2167TIP3    H2 6459   2.336   1.693   1.187
 2168TIP3   OH2 6460   1.097   1.648   5.448
 2168TIP3    H1 6461   1.118   1.736   5.479
 2168TIP3    H2 6462   1.053   1.661   5.364
 2169TIP3   OH2 6463   5.352   0.358   4.135
 2169TIP3    H1 6464   5.390   0.309   4.208
 2169TIP3    H2 6465   5.326   0.291   4.072
 2170TIP3   OH2 6466   3.468   5.826   3.872
 2170TIP3    H1 6467   3.471   5.914   3.910
 2170TIP3    H2 6468   3.483   5.839   3.779
 2171TIP3   OH2 6469   1.589   0.293   0.582
 2171TIP3    H1 6470   1.579   0.352   0.657
 2171TIP3    H2 6471   1.503   0.291   0.540
 2172TIP3   OH2 6472   8.246   3.807   2.044
 2172TIP3    H1 6473   8.271   3.896   2.019
 2172TIP3    H2 6474   8.160   3.795   2.004
 2173TIP3   OH2 6475   4.211   2.375   5.488
 2173TIP3    H1 6476   4.190   2.343   5.576
 2173TIP3    H2 6477   4.303   2.355   5.476
 2174TIP3   OH2 6478   1.650   5.289   0.082
 2174TIP3    H1 6479   1.615   5.375   0.060
 2174TIP3    H2 6480   1.744   5.303   0.091
 2175TIP3   OH2 6481   4.360   5.578   1.152
 2175TIP3    H1 6482   4.439   5.603   1.105
 2175TIP3    H2 6483   4.288   5.613   1.100
 2176TIP3   OH2 6484   5.466   5.465   5.590
 2176TIP3    H1 6485   5.481   5.500   5.502
 2176TIP3    H2 6486   5.400   5.523   5.628
 2177TIP3   OH2 6487   3.737   6.359   1.142
 2177TIP3    H1 6488   3.672   6.423   1.112
 2177TIP3    H2 6489   3.811   6.412   1.172
 2178TIP3   OH2 6490   0.332   3.985   6.371
 2178TIP3    H1 6491   0.367   4.004   6.458
 2178TIP3    H2 6492   0.369   4.053   6.315
 2179TIP3   OH2 6493   3.505   6.866   3.253
 2179TIP3    H1 6494   3.489   6.906   3.338
 2179TIP3    H2 6495   3.571   6.922   3.212
 2180TIP3   OH2 6496   2.457   0.988   6.084
 2180TIP3    H1 6497   2.380   0.967   6.030
 2180TIP3    H2 6498   2.487   0.904   6.117
 2181TIP3   OH2 6499   0.406   0.367   0.979
 2181TIP3    H1 6500   0.460   0.399   1.051
 2181TIP3    H2 6501   0.452   0.289   0.948
 2182TIP3   OH2 6502   2.997   6.401   5.255
 2182TIP3    H1 6503   2.960   6.441   5.334
 2182TIP3    H2 6504   3.087   6.380   5.280
 2183TIP3   OH2 6505   5.596   7.784   6.599
 2183TIP3    H1 6506   5.532   7.726   6.559
 2183TIP3    H2 6507   5.663   7.797   6.532
 2184TIP3   OH2 6508   1.696   0.076   6.218
 2184TIP3    H1 6509   1.612   0.030   6.225
 2184TIP3    H2 6510   1.691   0.144   6.285
 2185TIP3   OH2 6511   7.307   3.035   6.582
 2185TIP3    H1 6512   7.288   3.129   6.579
 2185TIP3    H2 6513   7.222   2.993   6.594
 2186TIP3   OH2 6514   0.956   0.791   2.842
 2186TIP3    H1 6515   0.898   0.860   2.810
 2186TIP3    H2 6516   0.976   0.816   2.932
 2187TIP3   OH2 6517   2.065   3.097   0.509
 2187TIP3    H1 6518   2.091   3.060   0.593
 2187TIP3    H2 6519   2.147   3.123   0.468
 2188TIP3   OH2 6520   5.894   1.338   2.174
 2188TIP3    H1 6521   5.839   1.286   2.232
 2188TIP3    H2 6522   5.863   1.316   2.086
 2189TIP3   OH2 6523   2.009   5.956   1.197
 2189TIP3    H1 6524   2.001   6.042   1.240
 2189TIP3    H2 6525   1.986   5.973   1.106
 2190TIP3   OH2 6526   1.196   3.959   6.673
 2190TIP3    H1 6527   1.292   3.961   6.678
 2190TIP3    H2 6528   1.174   3.866   6.685
 2191TIP3   OH2 6529   3.648   3.792   0.914
 2191TIP3    H1 6530   3.674   3.823   1.000
 2191TIP3    H2 6531   3.707   3.719   0.895
 2192TIP3   OH2 6532   4.892   7.335   5.714
 2192TIP3    H1 6533   4.809   7.320   5.759
 2192TIP3    H2 6534   4.948   7.375   5.780
 2193TIP3   OH2 6535   3.241   4.875   5.105
 2193TIP3    H1 6536   3.182   4.812   5.146
 2193TIP3    H2 6537   3.283   4.827   5.034
 2194TIP3   OH2 6538   2.951   3.182   0.342
 2194TIP3    H1 6539   2.999   3.242   0.397
 2194TIP3    H2 6540   2.917   3.116   0.402
 2195TIP3   OH2 6541   6.370   1.959   4.826
 2195TIP3    H1 6542   6.296   2.010   4.795
 2195TIP3    H2 6543   6.343   1.926   4.912
 2196TIP3   OH2 6544   4.958   0.144   2.843
 2196TIP3    H1 6545   5.049   0.131   2.869
 2196TIP3    H2 6546   4.961   0.214   2.778
 2197TIP3   OH2 6547   4.562   1.643   1.664
 2197TIP3    H1 6548   4.630   1.639   1.597
 2197TIP3    H2 6549   4.584   1.572   1.724
 2198TIP3   OH2 6550   0.136   0.357   5.591
 2198TIP3    H1 6551   0.158   0.349   5.684
 2198TIP3    H2 6552   0.096   0.444   5.584
 2199TIP3   OH2 6553   5.832   6.491   6.417
 2199TIP3    H1 6554   5.753   6.486   6.363
 2199TIP3    H2 6555   5.799   6.506   6.505
 2200TIP3   OH2 6556   1.818   3.176   5.327
 2200TIP3    H1 6557   1.889   3.209   5.273
 2200TIP3    H2 6558   1.838   3.207   5.415
 2201TIP3   OH2 6559   4.766   4.413   1.845
 2201TIP3    H1 6560   4.696   4.354   1.818
 2201TIP3    H2 6561   4.845   4.360   1.839
 2202TIP3   OH2 6562   0.555   3.501   2.351
 2202TIP3    H1 6563   0.641   3.464   2.369
 2202TIP3    H2 6564   0.551   3.508   2.256
 2203TIP3   OH2 6565   7.390   4.538   2.923
 2203TIP3    H1 6566   7.301   4.564   2.950
 2203TIP3    H2 6567   7.434   4.621   2.903
 2204TIP3   OH2 6568   2.135   5.367   1.082
 2204TIP3    H1 6569   2.208   5.409   1.036
 2204TIP3    H2 6570   2.107   5.432   1.146
 2205TIP3   OH2 6571   4.544   2.312   5.140
 2205TIP3    H1 6572   4.548   2.361   5.057
 2205TIP3    H2 6573   4.453   2.324   5.169
 2206TIP3   OH2 6574   3.196   1.522   2.292
 2206TIP3    H1 6575   3.122   1.493   2.239
 2206TIP3    H2 6576   3.161   1.595   2.343
 2207TIP3   OH2 6577   1.857   0.144   2.250
 2207TIP3    H1 6578   1.794   0.180   2.312
 2207TIP3    H2 6579   1.939   0.139   2.299
 2208TIP3   OH2 6580   4.234   3.456   3.812
 2208TIP3    H1 6581   4.230   3.408   3.895
 2208TIP3    H2 6582   4.171   3.411   3.756
 2209TIP3   OH2 6583   7.491   4.794   0.830
 2209TIP3    H1 6584   7.580   4.829   0.838
 2209TIP3    H2 6585   7.486   4.727   0.899
 2210TIP3   OH2 6586   8.196   1.860   6.137
 2210TIP3    H1 6587   8.103   1.882   6.149
 2210TIP3    H2 6588   8.200   1.814   6.054
 2211TIP3   OH2 6589   5.339   1.196   5.397
 2211TIP3    H1 6590   5.263   1.189   5.454
 2211TIP3    H2 6591   5.358   1.105   5.372
 2212TIP3   OH2 6592   3.629   7.329   2.941
 2212TIP3    H1 6593   3.563   7.318   2.872
 2212TIP3    H2 6594   3.601   7.407   2.989
 2213TIP3   OH2 6595   1.715   3.791   5.799
 2213TIP3    H1 6596   1.779   3.722   5.782
 2213TIP3    H2 6597   1.656   3.754   5.865
 2214TIP3   OH2 6598   4.015   1.537   6.560
 2214TIP3    H1 6599   4.045   1.449   6.583
 2214TIP3    H2 6600   4.091   1.579   6.520
 2215TIP3   OH2 6601   7.084   1.835   4.035
 2215TIP3    H1 6602   7.042   1.786   4.106
 2215TIP3    H2 6603   7.163   1.785   4.015
 2216TIP3   OH2 6604   3.141   6.737   5.192
 2216TIP3    H1 6605   3.060   6.685   5.200
 2216TIP3    H2 6606   3.122   6.818   5.240
 2217TIP3   OH2 6607   3.944   4.412   3.374
 2217TIP3    H1 6608   3.906   4.338   3.327
 2217TIP3    H2 6609   3.874   4.478   3.375
 2218TIP3   OH2 6610   0.200   7.648   5.497
 2218TIP3    H1 6611   0.197   7.679   5.588
 2218TIP3    H2 6612   0.180   7.726   5.445
 2219TIP3   OH2 6613   5.876   3.645   4.503
 2219TIP3    H1 6614   5.929   3.642   4.424
 2219TIP3    H2 6615   5.812   3.714   4.486
 2220TIP3   OH2 6616   4.104   0.784   5.318
 2220TIP3    H1 6617   4.190   0.761   5.353
 2220TIP3    H2 6618   4.088   0.872   5.350
 2221TIP3   OH2 6619   2.776   2.169   0.274
 2221TIP3    H1 6620   2.695   2.185   0.322
 2221TIP3    H2 6621   2.844   2.164   0.342
 2222TIP3   OH2 6622   4.180   4.090   5.821
 2222TIP3    H1 6623   4.086   4.074   5.818
 2222TIP3    H2 6624   4.219   4.003   5.830
 2223TIP3   OH2 6625   4.411   2.539   1.805
 2223TIP3    H1 6626   4.448   2.451   1.810
 2223TIP3    H2 6627   4.465   2.591   1.864
 2224TIP3   OH2 6628   1.798   3.096   1.439
 2224TIP3    H1 6629   1.726   3.154   1.417
 2224TIP3    H2 6630   1.758   3.025   1.490
 2225TIP3   OH2 6631   2.370   0.671   0.789
 2225TIP3    H1 6632   2.310   0.610   0.747
 2225TIP3    H2 6633   2.374   0.642   0.880
 2226TIP3   OH2 6634   3.891   2.389   6.021
 2226TIP3    H1 6635   3.871   2.407   6.113
 2226TIP3    H2 6636   3.878   2.294   6.012
 2227TIP3   OH2 6637   6.307   1.851   3.576
 2227TIP3    H1 6638   6.389   1.897   3.593
 2227TIP3    H2 6639   6.242   1.920   3.567
 2228TIP3   OH2 6640   0.676   0.335   2.211
 2228TIP3    H1 6641   0.761   0.317   2.170
 2228TIP3    H2 6642   0.625   0.255   2.196
 2229TIP3   OH2 6643   4.943   0.599   3.942
 2229TIP3    H1 6644   4.973   0.677   3.989
 2229TIP3    H2 6645   4.893   0.550   4.008
 2230TIP3   OH2 6646   5.513   4.797   6.462
 2230TIP3    H1 6647   5.425   4.825   6.488
 2230TIP3    H2 6648   5.564   4.878   6.459
 2231TIP3   OH2 6649   2.176   1.888   2.874
 2231TIP3    H1 6650   2.163   1.967   2.822
 2231TIP3    H2 6651   2.088   1.855   2.890
 2232TIP3   OH2 6652   4.535   3.945   5.164
 2232TIP3    H1 6653   4.489   4.027   5.144
 2232TIP3    H2 6654   4.479   3.877   5.127
 2233TIP3   OH2 6655   0.143   1.879   4.514
 2233TIP3    H1 6656   0.173   1.788   4.521
 2233TIP3    H2 6657   0.218   1.932   4.540
 2234TIP3   OH2 6658   6.460   6.835   1.105
 2234TIP3    H1 6659   6.468   6.798   1.017
 2234TIP3    H2 6660   6.492   6.925   1.096
 2235TIP3   OH2 6661   5.482   4.604   6.262
 2235TIP3    H1 6662   5.508   4.671   6.325
 2235TIP3    H2 6663   5.563   4.578   6.218
 2236TIP3   OH2 6664   4.122   0.120   6.568
 2236TIP3    H1 6665   4.120   0.069   6.486
 2236TIP3    H2 6666   4.183   0.073   6.624
 2237TIP3   OH2 6667   1.755   4.337   4.189
 2237TIP3    H1 6668   1.817   4.402   4.223
 2237TIP3    H2 6669   1.807   4.258   4.175
 2238TIP3   OH2 6670   1.073   6.821   6.524
 2238TIP3    H1 6671   1.154   6.871   6.534
 2238TIP3    H2 6672   1.078   6.784   6.436
 2239TIP3   OH2 6673   7.351   5.112   5.796
 2239TIP3    H1 6674   7.359   5.167   5.873
 2239TIP3    H2 6675   7.312   5.031   5.828
 2240TIP3   OH2 6676   3.999   5.050   5.604
 2240TIP3    H1 6677   3.989   5.087   5.692
 2240TIP3    H2 6678   3.913   5.014   5.584
 2241TIP3   OH2 6679   4.099   6.856   6.082
 2241TIP3    H1 6680   4.089   6.950   6.101
 2241TIP3    H2 6681   4.016   6.818   6.111
 2242TIP3   OH2 6682   6.503   2.365   3.909
 2242TIP3    H1 6683   6.470   2.277   3.923
 2242TIP3    H2 6684   6.584   2.370   3.960
 2243TIP3   OH2 6685   2.767   2.229   1.696
 2243TIP3    H1 6686   2.690   2.175   1.712
 2243TIP3    H2 6687   2.733   2.306   1.650
 2244TIP3   OH2 6688   1.181   2.268   4.504
 2244TIP3    H1 6689   1.130   2.349   4.503
 2244TIP3    H2 6690   1.204   2.255   4.596
 2245TIP3   OH2 6691   5.924   3.695   6.713
 2245TIP3    H1 6692   5.852   3.756   6.730
 2245TIP3    H2 6693   5.936   3.699   6.618
 2246TIP3   OH2 6694   1.020   0.373   5.068
 2246TIP3    H1 6695   1.015   0.353   5.161
 2246TIP3    H2 6696   1.113   0.394   5.052
 2247TIP3   OH2 6697   7.916   3.488   6.183
 2247TIP3    H1 6698   7.979   3.557   6.205
 2247TIP3    H2 6699   7.871   3.469   6.265
 2248TIP3   OH2 6700   1.662   4.327   6.474
 2248TIP3    H1 6701   1.756   4.342   6.473
 2248TIP3    H2 6702   1.653   4.232   6.478
 2249TIP3   OH2 6703   2.297   1.535   2.234
 2249TIP3    H1 6704   2.304   1.628   2.209
 2249TIP3    H2 6705   2.281   1.537   2.328
 2250TIP3   OH2 6706   4.183   7.554   2.147
 2250TIP3    H1 6707   4.244   7.626   2.160
 2250TIP3    H2 6708   4.192   7.531   2.054
 2251TIP3   OH2 6709   2.948   2.650   6.214
 2251TIP3    H1 6710   3.022   2.643   6.153
 2251TIP3    H2 6711   2.929   2.743   6.217
 2252TIP3   OH2 6712   7.767   2.159   4.142
 2252TIP3    H1 6713   7.723   2.232   4.099
 2252TIP3    H2 6714   7.835   2.201   4.195
 2253TIP3   OH2 6715   3.348   7.412   6.398
 2253TIP3    H1 6716   3.363   7.436   6.306
 2253TIP3    H2 6717   3.362   7.318   6.401
 2254TIP3   OH2 6718   8.032   5.208   1.001
 2254TIP3    H1 6719   7.991   5.281   0.954
 2254TIP3    H2 6720   7.974   5.134   0.984
 2255TIP3   OH2 6721   4.056   3.826   3.423
 2255TIP3    H1 6722   4.006   3.834   3.342
 2255TIP3    H2 6723   4.100   3.910   3.432
 2256TIP3   OH2 6724   6.086   3.413   6.677
 2256TIP3    H1 6725   6.107   3.425   6.584
 2256TIP3    H2 6726   6.034   3.490   6.699
 2257TIP3   OH2 6727   1.517   1.615   2.215
 2257TIP3    H1 6728   1.564   1.587   2.294
 2257TIP3    H2 6729   1.585   1.657   2.161
 2258TIP3   OH2 6730   0.285   1.860   2.727
 2258TIP3    H1 6731   0.363   1.912   2.746
 2258TIP3    H2 6732   0.319   1.773   2.707
 2259TIP3   OH2 6733   1.564   0.103   3.818
 2259TIP3    H1 6734   1.619   0.095   3.740
 2259TIP3    H2 6735   1.622   0.137   3.886
 2260TIP3   OH2 6736   0.144   5.518   2.800
 2260TIP3    H1 6737   0.201   5.584   2.840
 2260TIP3    H2 6738   0.154   5.441   2.856
 2261TIP3   OH2 6739   7.719   0.401   5.168
 2261TIP3    H1 6740   7.719   0.452   5.249
 2261TIP3    H2 6741   7.712   0.310   5.197
 2262TIP3   OH2 6742   0.365   2.455   1.093
 2262TIP3    H1 6743   0.424   2.447   1.168
 2262TIP3    H2 6744   0.395   2.389   1.031
 2263TIP3   OH2 6745   6.417   5.894   1.835
 2263TIP3    H1 6746   6.353   5.838   1.792
 2263TIP3    H2 6747   6.393   5.892   1.928
 2264TIP3   OH2 6748   2.859   4.315   0.934
 2264TIP3    H1 6749   2.791   4.282   0.877
 2264TIP3    H2 6750   2.845   4.271   1.017
 2265TIP3   OH2 6751   2.841   3.640   2.412
 2265TIP3    H1 6752   2.774   3.692   2.368
 2265TIP3    H2 6753   2.911   3.703   2.432
 2266TIP3   OH2 6754   0.828   1.780   1.097
 2266TIP3    H1 6755   0.903   1.840   1.101
 2266TIP3    H2 6756   0.792   1.793   1.009
 2267TIP3   OH2 6757   2.949   2.414   6.606
 2267TIP3    H1 6758   2.975   2.413   6.514
 2267TIP3    H2 6759   2.856   2.436   6.604
 2268TIP3   OH2 6760   8.071   6.838   3.100
 2268TIP3    H1 6761   8.003   6.775   3.075
 2268TIP3    H2 6762   8.024   6.910   3.141
 2269TIP3   OH2 6763   2.982   4.069   2.148
 2269TIP3    H1 6764   2.938   4.114   2.076
 2269TIP3    H2 6765   2.943   3.982   2.149
 2270TIP3   OH2 6766   7.724   0.616   5.354
 2270TIP3    H1 6767   7.755   0.632   5.265
 2270TIP3    H2 6768   7.668   0.690   5.374
 2271TIP3   OH2 6769   3.765   7.697   4.656
 2271TIP3    H1 6770   3.681   7.653   4.646
 2271TIP3    H2 6771   3.775   7.707   4.751
 2272TIP3   OH2 6772   0.878   7.167   4.701
 2272TIP3    H1 6773   0.866   7.255   4.665
 2272TIP3    H2 6774   0.800   7.152   4.754
 2273TIP3   OH2 6775   6.066   3.385   5.665
 2273TIP3    H1 6776   6.122   3.361   5.591
 2273TIP3    H2 6777   5.992   3.324   5.660
 2274TIP3   OH2 6778   5.591   3.391   4.193
 2274TIP3    H1 6779   5.507   3.427   4.221
 2274TIP3    H2 6780   5.645   3.391   4.272
 2275TIP3   OH2 6781   0.036   7.417   4.152
 2275TIP3    H1 6782   0.078   7.336   4.181
 2275TIP3    H2 6783  -0.054   7.410   4.183
 2276TIP3   OH2 6784   3.886   7.513   0.887
 2276TIP3    H1 6785   3.857   7.559   0.966
 2276TIP3    H2 6786   3.829   7.547   0.818
 2277TIP3   OH2 6787   0.388   7.086   2.951
 2277TIP3    H1 6788   0.380   7.013   2.889
 2277TIP3    H2 6789   0.368   7.048   3.036
 2278TIP3   OH2 6790   1.516   1.936   1.786
 2278TIP3    H1 6791   1.562   1.970   1.709
 2278TIP3    H2 6792   1.531   1.841   1.782
 2279TIP3   OH2 6793   1.088   4.398   4.182
 2279TIP3    H1 6794   1.162   4.392   4.121
 2279TIP3    H2 6795   1.097   4.484   4.223
 2280TIP3   OH2 6796   2.337   4.521   3.701
 2280TIP3    H1 6797   2.355   4.496   3.610
 2280TIP3    H2 6798   2.242   4.533   3.704
 2281TIP3   OH2 6799   3.401   2.404   4.736
 2281TIP3    H1 6800   3.477   2.358   4.700
 2281TIP3    H2 6801   3.344   2.418   4.661
 2282TIP3   OH2 6802   1.584   1.573   5.986
 2282TIP3    H1 6803   1.615   1.497   5.937
 2282TIP3    H2 6804   1.501   1.596   5.944
 2283TIP3   OH2 6805   1.633   4.083   0.712
 2283TIP3    H1 6806   1.700   4.050   0.652
 2283TIP3    H2 6807   1.681   4.104   0.792
 2284TIP3   OH2 6808   8.008   6.351   5.611
 2284TIP3    H1 6809   7.927   6.361   5.662
 2284TIP3    H2 6810   8.077   6.379   5.671
 2285TIP3   OH2 6811   5.219   3.182   1.121
 2285TIP3    H1 6812   5.195   3.255   1.064
 2285TIP3    H2 6813   5.217   3.220   1.209
 2286TIP3   OH2 6814   4.576   4.327   3.978
 2286TIP3    H1 6815   4.535   4.308   4.062
 2286TIP3    H2 6816   4.635   4.253   3.963
 2287TIP3   OH2 6817   1.288   1.443   5.029
 2287TIP3    H1 6818   1.231   1.520   5.024
 2287TIP3    H2 6819   1.228   1.368   5.027
 2288TIP3   OH2 6820   6.756   1.675   5.326
 2288TIP3    H1 6821   6.841   1.711   5.352
 2288TIP3    H2 6822   6.778   1.597   5.274
 2289TIP3   OH2 6823   3.931   4.348   4.218
 2289TIP3    H1 6824   3.995   4.300   4.167
 2289TIP3    H2 6825   3.847   4.327   4.178
 2290TIP3   OH2 6826   5.498   5.690   2.889
 2290TIP3    H1 6827   5.516   5.784   2.884
 2290TIP3    H2 6828   5.403   5.684   2.882
 2291TIP3   OH2 6829   3.630   5.390   5.657
 2291TIP3    H1 6830   3.547   5.385   5.705
 2291TIP3    H2 6831   3.697   5.367   5.722
 2292TIP3   OH2 6832   3.076   1.926   5.659
 2292TIP3    H1 6833   3.082   1.988   5.587
 2292TIP3    H2 6834   3.161   1.929   5.701
 2293TIP3   OH2 6835   3.917   3.314   2.708
 2293TIP3    H1 6836   3.859   3.318   2.784
 2293TIP3    H2 6837   3.995   3.269   2.740
 2294TIP3   OH2 6838   4.670   0.896   0.644
 2294TIP3    H1 6839   4.758   0.920   0.615
 2294TIP3    H2 6840   4.611   0.949   0.590
 2295TIP3   OH2 6841   0.108   4.644   2.773
 2295TIP3    H1 6842   0.121   4.715   2.710
 2295TIP3    H2 6843   0.058   4.578   2.724
 2296TIP3   OH2 6844   2.270   5.504   4.982
 2296TIP3    H1 6845   2.177   5.516   5.004
 2296TIP3    H2 6846   2.302   5.593   4.966
 2297TIP3   OH2 6847   4.282   7.218   5.706
 2297TIP3    H1 6848   4.226   7.282   5.663
 2297TIP3    H2 6849   4.223   7.167   5.761
 2298TIP3   OH2 6850   2.220   6.602   6.365
 2298TIP3    H1 6851   2.196   6.514   6.334
 2298TIP3    H2 6852   2.302   6.623   6.321
 2299TIP3   OH2 6853   1.189   1.329   2.125
 2299TIP3    H1 6854   1.221   1.241   2.103
 2299TIP3    H2 6855   1.120   1.314   2.190
 2300TIP3   OH2 6856   1.592   1.120   6.759
 2300TIP3    H1 6857   1.648   1.178   6.707
 2300TIP3    H2 6858   1.654   1.063   6.805
 2301TIP3   OH2 6859   6.414   0.882   3.979
 2301TIP3    H1 6860   6.431   0.974   3.956
 2301TIP3    H2 6861   6.499   0.849   4.008
 2302TIP3   OH2 6862   5.056   2.738   2.403
 2302TIP3    H1 6863   5.071   2.832   2.418
 2302TIP3    H2 6864   5.064   2.698   2.490
 2303TIP3   OH2 6865   3.364   1.198   5.979
 2303TIP3    H1 6866   3.278   1.214   6.017
 2303TIP3    H2 6867   3.426   1.212   6.051
 2304TIP3   OH2 6868   5.989   3.195   6.078
 2304TIP3    H1 6869   5.939   3.158   6.005
 2304TIP3    H2 6870   5.923   3.225   6.140
 2305TIP3   OH2 6871   7.622   0.771   0.438
 2305TIP3    H1 6872   7.661   0.686   0.415
 2305TIP3    H2 6873   7.570   0.753   0.516
 2306TIP3   OH2 6874   7.765   0.397   0.985
 2306TIP3    H1 6875   7.827   0.445   1.040
 2306TIP3    H2 6876   7.761   0.446   0.903
 2307TIP3   OH2 6877   6.234   1.216   5.982
 2307TIP3    H1 6878   6.260   1.262   5.902
 2307TIP3    H2 6879   6.186   1.140   5.952
 2308TIP3   OH2 6880   1.482   5.753   2.021
 2308TIP3    H1 6881   1.436   5.676   2.053
 2308TIP3    H2 6882   1.472   5.748   1.926
 2309TIP3   OH2 6883   6.760   1.118   3.190
 2309TIP3    H1 6884   6.800   1.130   3.276
 2309TIP3    H2 6885   6.734   1.026   3.189
 2310TIP3   OH2 6886   5.820   6.132   2.614
 2310TIP3    H1 6887   5.887   6.064   2.601
 2310TIP3    H2 6888   5.762   6.123   2.538
 2311TIP3   OH2 6889   6.497   2.718   5.479
 2311TIP3    H1 6890   6.577   2.760   5.512
 2311TIP3    H2 6891   6.486   2.752   5.390
 2312TIP3   OH2 6892   6.195   2.380   4.660
 2312TIP3    H1 6893   6.117   2.340   4.622
 2312TIP3    H2 6894   6.268   2.323   4.633
 2313TIP3   OH2 6895   4.921   6.908   1.158
 2313TIP3    H1 6896   4.918   6.816   1.183
 2313TIP3    H2 6897   4.927   6.956   1.241
 2314TIP3   OH2 6898   2.354   3.306   4.468
 2314TIP3    H1 6899   2.351   3.268   4.381
 2314TIP3    H2 6900   2.265   3.335   4.485
 2315TIP3   OH2 6901   4.114   2.719   6.690
 2315TIP3    H1 6902   4.121   2.676   6.605
 2315TIP3    H2 6903   4.069   2.802   6.671
 2316TIP3   OH2 6904   2.421   4.165   5.133
 2316TIP3    H1 6905   2.346   4.169   5.074
 2316TIP3    H2 6906   2.412   4.080   5.177
 2317TIP3   OH2 6907   5.205   1.208   4.964
 2317TIP3    H1 6908   5.176   1.119   4.985
 2317TIP3    H2 6909   5.185   1.258   5.043
 2318TIP3   OH2 6910   5.043   3.581   5.089
 2318TIP3    H1 6911   5.030   3.491   5.120
 2318TIP3    H2 6912   5.081   3.627   5.163
 2319TIP3   OH2 6913   2.151   3.781   6.436
 2319TIP3    H1 6914   2.063   3.816   6.451
 2319TIP3    H2 6915   2.175   3.814   6.349
 2320TIP3   OH2 6916   1.024   1.655   0.285
 2320TIP3    H1 6917   1.046   1.576   0.335
 2320TIP3    H2 6918   0.934   1.642   0.257
 2321TIP3   OH2 6919   3.829   4.920   6.501
 2321TIP3    H1 6920   3.893   4.861   6.542
 2321TIP3    H2 6921   3.872   5.005   6.499
 2322TIP3   OH2 6922   2.689   2.951   3.795
 2322TIP3    H1 6923   2.701   2.943   3.700
 2322TIP3    H2 6924   2.723   2.868   3.830
 2323TIP3   OH2 6925   0.505   1.331   4.115
 2323TIP3    H1 6926   0.527   1.310   4.024
 2323TIP3    H2 6927   0.557   1.409   4.134
 2324TIP3   OH2 6928   5.054   5.386   0.231
 2324TIP3    H1 6929   5.113   5.382   0.306
 2324TIP3    H2 6930   5.035   5.479   0.218
 2325TIP3   OH2 6931   1.302   6.546   3.741
 2325TIP3    H1 6932   1.212   6.559   3.772
 2325TIP3    H2 6933   1.296   6.475   3.677
 2326TIP3   OH2 6934   3.039   3.007   6.364
 2326TIP3    H1 6935   3.024   3.078   6.427
 2326TIP3    H2 6936   3.085   3.048   6.291
 2327TIP3   OH2 6937   2.781   5.827   0.946
 2327TIP3    H1 6938   2.731   5.894   0.992
 2327TIP3    H2 6939   2.841   5.877   0.889
 2328TIP3   OH2 6940   1.905   6.980   0.711
 2328TIP3    H1 6941   1.916   6.974   0.806
 2328TIP3    H2 6942   1.974   6.923   0.676
 2329TIP3   OH2 6943   1.963   7.027   1.734
 2329TIP3    H1 6944   2.047   6.984   1.721
 2329TIP3    H2 6945   1.985   7.117   1.755
 2330TIP3   OH2 6946   7.730   3.576   4.488
 2330TIP3    H1 6947   7.646   3.604   4.526
 2330TIP3    H2 6948   7.787   3.652   4.499
 2331TIP3   OH2 6949   2.275   3.688   4.587
 2331TIP3    H1 6950   2.332   3.715   4.659
 2331TIP3    H2 6951   2.268   3.767   4.533
 2332TIP3   OH2 6952   7.893   6.930   0.728
 2332TIP3    H1 6953   7.834   6.998   0.760
 2332TIP3    H2 6954   7.907   6.952   0.636
 2333TIP3   OH2 6955   5.822   6.260   1.990
 2333TIP3    H1 6956   5.845   6.264   1.897
 2333TIP3    H2 6957   5.906   6.245   2.034
 2334TIP3   OH2 6958   3.006   1.327   4.827
 2334TIP3    H1 6959   3.014   1.233   4.814
 2334TIP3    H2 6960   3.037   1.342   4.916
 2335TIP3   OH2 6961   0.292   2.385   0.682
 2335TIP3    H1 6962   0.388   2.388   0.678
 2335TIP3    H2 6963   0.266   2.360   0.593
 2336TIP3   OH2 6964   5.567   5.994   6.484
 2336TIP3    H1 6965   5.567   5.910   6.530
 2336TIP3    H2 6966   5.483   6.033   6.506
 2337TIP3   OH2 6967   1.123   6.345   4.442
 2337TIP3    H1 6968   1.103   6.291   4.365
 2337TIP3    H2 6969   1.128   6.283   4.514
 2338TIP3   OH2 6970   7.975   5.950   2.691
 2338TIP3    H1 6971   8.057   5.920   2.651
 2338TIP3    H2 6972   8.002   6.024   2.747
 2339TIP3   OH2 6973   2.266   4.862   0.432
 2339TIP3    H1 6974   2.309   4.823   0.356
 2339TIP3    H2 6975   2.288   4.955   0.427
 2340TIP3   OH2 6976   4.504   2.370   2.644
 2340TIP3    H1 6977   4.559   2.359   2.721
 2340TIP3    H2 6978   4.539   2.447   2.600
 2341TIP3   OH2 6979   0.903   5.465   3.082
 2341TIP3    H1 6980   0.828   5.407   3.097
 2341TIP3    H2 6981   0.955   5.458   3.163
 2342TIP3   OH2 6982   6.617   7.614   0.618
 2342TIP3    H1 6983   6.680   7.634   0.549
 2342TIP3    H2 6984   6.549   7.563   0.574
 2343TIP3   OH2 6985   0.142   4.872   1.836
 2343TIP3    H1 6986   0.046   4.867   1.836
 2343TIP3    H2 6987   0.161   4.962   1.808
 2344TIP3   OH2 6988   0.796   5.050   5.158
 2344TIP3    H1 6989   0.810   5.065   5.064
 2344TIP3    H2 6990   0.704   5.026   5.164
 2345TIP3   OH2 6991   4.672   3.096   3.622
 2345TIP3    H1 6992   4.586   3.122   3.589
 2345TIP3    H2 6993   4.663   3.099   3.717
 2346TIP3   OH2 6994   5.798   6.645   6.073
 2346TIP3    H1 6995   5.792   6.551   6.056
 2346TIP3    H2 6996   5.867   6.676   6.015
 2347TIP3   OH2 6997   6.342   6.829   3.452
 2347TIP3    H1 6998   6.321   6.824   3.545
 2347TIP3    H2 6999   6.269   6.786   3.408
 2348TIP3   OH2 7000   7.904   6.901   4.026
 2348TIP3    H1 7001   7.873   6.822   4.070
 2348TIP3    H2 7002   7.982   6.873   3.978
 2349TIP3   OH2 7003   0.626   2.895   2.968
 2349TIP3    H1 7004   0.531   2.908   2.978
 2349TIP3    H2 7005   0.648   2.828   3.032
 2350TIP3   OH2 7006   0.213   6.501   0.319
 2350TIP3    H1 7007   0.141   6.438   0.321
 2350TIP3    H2 7008   0.216   6.537   0.407
 2351TIP3   OH2 7009   7.844   6.598   0.369
 2351TIP3    H1 7010   7.904   6.668   0.394
 2351TIP3    H2 7011   7.886   6.555   0.295
 2352TIP3   OH2 7012   3.804   4.832   3.714
 2352TIP3    H1 7013   3.839   4.891   3.781
 2352TIP3    H2 7014   3.803   4.746   3.756
 2353TIP3   OH2 7015   3.098   5.334   2.109
 2353TIP3    H1 7016   3.171   5.365   2.056
 2353TIP3    H2 7017   3.089   5.399   2.179
 2354TIP3   OH2 7018   0.578   1.266   0.022
 2354TIP3    H1 7019   0.619   1.180   0.007
 2354TIP3    H2 7020   0.570   1.273   0.117
 2355TIP3   OH2 7021   1.423   5.058   3.899
 2355TIP3    H1 7022   1.337   5.016   3.901
 2355TIP3    H2 7023   1.480   4.996   3.853
 2356TIP3   OH2 7024   4.914   2.996   3.247
 2356TIP3    H1 7025   4.901   2.994   3.153
 2356TIP3    H2 7026   4.857   2.928   3.282
 2357TIP3   OH2 7027   4.044   2.126   6.693
 2357TIP3    H1 7028   3.995   2.072   6.755
 2357TIP3    H2 7029   4.127   2.081   6.681
 2358TIP3   OH2 7030   2.737   1.593   1.806
 2358TIP3    H1 7031   2.656   1.634   1.838
 2358TIP3    H2 7032   2.806   1.628   1.863
 2359TIP3   OH2 7033   0.744   4.980   1.515
 2359TIP3    H1 7034   0.771   4.904   1.566
 2359TIP3    H2 7035   0.755   5.054   1.575
 2360TIP3   OH2 7036   0.870   0.224   1.080
 2360TIP3    H1 7037   0.881   0.280   1.157
 2360TIP3    H2 7038   0.923   0.266   1.012
 2361TIP3   OH2 7039   7.922   7.641   5.099
 2361TIP3    H1 7040   8.014   7.615   5.099
 2361TIP3    H2 7041   7.920   7.721   5.152
 2362TIP3   OH2 7042   2.121   2.283   1.438
 2362TIP3    H1 7043   2.081   2.199   1.459
 2362TIP3    H2 7044   2.076   2.346   1.495
 2363TIP3   OH2 7045   2.520   4.953   5.903
 2363TIP3    H1 7046   2.550   4.866   5.874
 2363TIP3    H2 7047   2.521   5.006   5.824
 2364TIP3   OH2 7048   3.739   2.924   0.099
 2364TIP3    H1 7049   3.747   2.992   0.032
 2364TIP3    H2 7050   3.829   2.891   0.111
 2365TIP3   OH2 7051   6.940   4.754   6.725
 2365TIP3    H1 7052   6.885   4.800   6.788
 2365TIP3    H2 7053   6.919   4.794   6.641
 2366TIP3   OH2 7054   5.370   0.856   3.790
 2366TIP3    H1 7055   5.351   0.775   3.743
 2366TIP3    H2 7056   5.320   0.923   3.743
 2367TIP3   OH2 7057   1.802   7.745   5.728
 2367TIP3    H1 7058   1.815   7.836   5.702
 2367TIP3    H2 7059   1.850   7.695   5.661
 2368TIP3   OH2 7060   2.378   7.645   6.622
 2368TIP3    H1 7061   2.327   7.654   6.542
 2368TIP3    H2 7062   2.458   7.600   6.594
 2369TIP3   OH2 7063   0.026   2.405   1.861
 2369TIP3    H1 7064  -0.063   2.440   1.873
 2369TIP3    H2 7065   0.078   2.447   1.930
 2370TIP3   OH2 7066   4.135   5.747   6.024
 2370TIP3    H1 7067   4.059   5.780   5.975
 2370TIP3    H2 7068   4.165   5.672   5.972
 2371TIP3   OH2 7069   4.485   3.180   4.155
 2371TIP3    H1 7070   4.507   3.149   4.243
 2371TIP3    H2 7071   4.400   3.223   4.166
 2372TIP3   OH2 7072   3.520   3.494   5.174
 2372TIP3    H1 7073   3.533   3.419   5.116
 2372TIP3    H2 7074   3.525   3.456   5.262
 2373TIP3   OH2 7075   0.709   7.027   4.858
 2373TIP3    H1 7076   0.619   7.056   4.869
 2373TIP3    H2 7077   0.719   6.954   4.919
 2374TIP3   OH2 7078   6.012   1.340   5.225
 2374TIP3    H1 7079   6.102   1.340   5.257
 2374TIP3    H2 7080   5.959   1.313   5.300
 2375TIP3   OH2 7081   4.927   4.584   6.643
 2375TIP3    H1 7082   4.876   4.522   6.694
 2375TIP3    H2 7083   4.989   4.529   6.594
 2376TIP3   OH2 7084   0.913   1.043   1.458
 2376TIP3    H1 7085   0.969   1.120   1.460
 2376TIP3    H2 7086   0.962   0.979   1.406
 2377TIP3   OH2 7087   7.828   4.937   4.118
 2377TIP3    H1 7088   7.848   5.006   4.182
 2377TIP3    H2 7089   7.737   4.913   4.136
 2378TIP3   OH2 7090   8.152   0.623   2.625
 2378TIP3    H1 7091   8.088   0.627   2.554
 2378TIP3    H2 7092   8.100   0.630   2.705
 2379TIP3   OH2 7093   6.504   6.084   4.774
 2379TIP3    H1 7094   6.505   5.990   4.793
 2379TIP3    H2 7095   6.538   6.090   4.685
 2380TIP3   OH2 7096   4.225   2.747   2.559
 2380TIP3    H1 7097   4.301   2.795   2.593
 2380TIP3    H2 7098   4.199   2.797   2.481
 2381TIP3   OH2 7099   6.249   0.269   4.263
 2381TIP3    H1 7100   6.256   0.211   4.340
 2381TIP3    H2 7101   6.200   0.217   4.199
 2382TIP3   OH2 7102   7.779   1.907   2.555
 2382TIP3    H1 7103   7.854   1.925   2.611
 2382TIP3    H2 7104   7.798   1.822   2.516
 2383TIP3   OH2 7105   4.554   0.820   1.342
 2383TIP3    H1 7106   4.598   0.765   1.277
 2383TIP3    H2 7107   4.480   0.859   1.294
 2384TIP3   OH2 7108   6.929   2.657   1.791
 2384TIP3    H1 7109   6.900   2.611   1.712
 2384TIP3    H2 7110   6.851   2.664   1.845
 2385TIP3   OH2 7111   5.873   6.449   2.231
 2385TIP3    H1 7112   5.893   6.448   2.324
 2385TIP3    H2 7113   5.834   6.364   2.213
 2386TIP3   OH2 7114   3.555   7.052   2.540
 2386TIP3    H1 7115   3.584   7.047   2.449
 2386TIP3    H2 7116   3.622   7.003   2.589
 2387TIP3   OH2 7117   8.245   4.103   1.865
 2387TIP3    H1 7118   8.285   4.190   1.859
 2387TIP3    H2 7119   8.310   4.044   1.827
 2388TIP3   OH2 7120   5.295   2.760   4.375
 2388TIP3    H1 7121   5.314   2.712   4.294
 2388TIP3    H2 7122   5.367   2.823   4.383
 2389TIP3   OH2 7123   7.339   3.345   5.712
 2389TIP3    H1 7124   7.320   3.265   5.762
 2389TIP3    H2 7125   7.434   3.354   5.715
 2390TIP3   OH2 7126   7.257   3.746   0.515
 2390TIP3    H1 7127   7.174   3.793   0.512
 2390TIP3    H2 7128   7.269   3.712   0.427
 2391TIP3   OH2 7129   1.807   2.498   4.747
 2391TIP3    H1 7130   1.817   2.472   4.839
 2391TIP3    H2 7131   1.857   2.433   4.698
 2392TIP3   OH2 7132   2.827   2.257   5.550
 2392TIP3    H1 7133   2.834   2.162   5.538
 2392TIP3    H2 7134   2.804   2.290   5.463
 2393TIP3   OH2 7135   2.435   3.606   1.139
 2393TIP3    H1 7136   2.448   3.633   1.230
 2393TIP3    H2 7137   2.501   3.538   1.125
 2394TIP3   OH2 7138   7.932   1.435   4.323
 2394TIP3    H1 7139   7.874   1.369   4.363
 2394TIP3    H2 7140   8.019   1.394   4.324
 2395TIP3   OH2 7141   5.604   5.848   3.516
 2395TIP3    H1 7142   5.524   5.900   3.514
 2395TIP3    H2 7143   5.645   5.862   3.431
 2396TIP3   OH2 7144   0.273   2.326   4.127
 2396TIP3    H1 7145   0.354   2.346   4.174
 2396TIP3    H2 7146   0.210   2.390   4.159
 2397TIP3   OH2 7147   1.696   3.257   0.722
 2397TIP3    H1 7148   1.629   3.189   0.723
 2397TIP3    H2 7149   1.647   3.339   0.724
 2398TIP3   OH2 7150   1.265   1.512   1.244
 2398TIP3    H1 7151   1.290   1.550   1.160
 2398TIP3    H2 7152   1.195   1.451   1.223
 2399TIP3   OH2 7153   6.034   4.501   5.000
 2399TIP3    H1 7154   6.025   4.586   5.045
 2399TIP3    H2 7155   5.978   4.509   4.923
 2400TIP3   OH2 7156   7.885   3.183   3.001
 2400TIP3    H1 7157   7.922   3.174   2.913
 2400TIP3    H2 7158   7.825   3.109   3.008
 2401TIP3   OH2 7159   5.372   2.803   5.225
 2401TIP3    H1 7160   5.369   2.888   5.181
 2401TIP3    H2 7161   5.326   2.743   5.166
 2402TIP3   OH2 7162   8.167   5.807   4.012
 2402TIP3    H1 7163   8.230   5.764   3.955
 2402TIP3    H2 7164   8.199   5.897   4.020
 2403TIP3   OH2 7165   7.618   3.242   2.741
 2403TIP3    H1 7166   7.597   3.202   2.657
 2403TIP3    H2 7167   7.662   3.324   2.719
 2404TIP3   OH2 7168   3.866   1.818   5.701
 2404TIP3    H1 7169   3.952   1.843   5.736
 2404TIP3    H2 7170   3.857   1.725   5.722
 2405TIP3   OH2 7171   5.120   3.994   5.173
 2405TIP3    H1 7172   5.096   3.905   5.198
 2405TIP3    H2 7173   5.037   4.034   5.146
 2406TIP3   OH2 7174   6.568   5.988   2.479
 2406TIP3    H1 7175   6.533   5.941   2.555
 2406TIP3    H2 7176   6.520   6.072   2.480
 2407TIP3   OH2 7177   4.486   0.504   0.051
 2407TIP3    H1 7178   4.452   0.485   0.139
 2407TIP3    H2 7179   4.540   0.428   0.030
 2408TIP3   OH2 7180   0.265   2.778   2.738
 2408TIP3    H1 7181   0.172   2.790   2.719
 2408TIP3    H2 7182   0.266   2.709   2.805
 2409TIP3   OH2 7183   0.566   1.651   0.765
 2409TIP3    H1 7184   0.644   1.706   0.757
 2409TIP3    H2 7185   0.589   1.586   0.832
 2410TIP3   OH2 7186   1.179   5.693   3.139
 2410TIP3    H1 7187   1.137   5.674   3.055
 2410TIP3    H2 7188   1.132   5.769   3.173
 2411TIP3   OH2 7189   6.505   6.579   2.441
 2411TIP3    H1 7190   6.593   6.610   2.460
 2411TIP3    H2 7191   6.458   6.656   2.409
 2412TIP3   OH2 7192   5.206   0.113   0.371
 2412TIP3    H1 7193   5.241   0.107   0.282
 2412TIP3    H2 7194   5.111   0.112   0.358
 2413TIP3   OH2 7195   0.734   3.929   4.219
 2413TIP3    H1 7196   0.739   4.020   4.245
 2413TIP3    H2 7197   0.640   3.911   4.211
 2414TIP3   OH2 7198   6.108   6.027   2.719
 2414TIP3    H1 7199   6.171   5.992   2.657
 2414TIP3    H2 7200   6.040   5.960   2.725
 2415TIP3   OH2 7201   1.429   6.714   4.280
 2415TIP3    H1 7202   1.383   6.640   4.240
 2415TIP3    H2 7203   1.366   6.751   4.342
 2416TIP3   OH2 7204   4.727   3.352   4.315
 2416TIP3    H1 7205   4.699   3.265   4.289
 2416TIP3    H2 7206   4.786   3.337   4.389
 2417TIP3   OH2 7207   7.997   2.624   2.692
 2417TIP3    H1 7208   8.085   2.589   2.705
 2417TIP3    H2 7209   7.941   2.566   2.744
 2418TIP3   OH2 7210   5.904   2.651   2.955
 2418TIP3    H1 7211   5.973   2.601   2.999
 2418TIP3    H2 7212   5.871   2.710   3.023
 2419TIP3   OH2 7213   3.679   5.493   5.046
 2419TIP3    H1 7214   3.589   5.514   5.073
 2419TIP3    H2 7215   3.734   5.543   5.105
 2420TIP3   OH2 7216   1.721   4.826   1.821
 2420TIP3    H1 7217   1.748   4.735   1.809
 2420TIP3    H2 7218   1.712   4.860   1.732
 2421TIP3   OH2 7219   6.130   7.059   0.850
 2421TIP3    H1 7220   6.080   7.121   0.904
 2421TIP3    H2 7221   6.133   6.979   0.903
 2422TIP3   OH2 7222   0.375   4.136   4.781
 2422TIP3    H1 7223   0.409   4.146   4.692
 2422TIP3    H2 7224   0.453   4.127   4.836
 2423TIP3   OH2 7225   7.767   6.640   6.458
 2423TIP3    H1 7226   7.675   6.662   6.467
 2423TIP3    H2 7227   7.779   6.560   6.511
 2424TIP3   OH2 7228   4.302   0.167   2.435
 2424TIP3    H1 7229   4.291   0.134   2.346
 2424TIP3    H2 7230   4.396   0.183   2.443
 2425TIP3   OH2 7231   0.456   2.813   0.341
 2425TIP3    H1 7232   0.388   2.795   0.406
 2425TIP3    H2 7233   0.529   2.756   0.365
 2426TIP3   OH2 7234   3.000   2.216   1.187
 2426TIP3    H1 7235   3.086   2.192   1.220
 2426TIP3    H2 7236   2.941   2.205   1.262
 2427TIP3   OH2 7237   1.358   2.102   2.661
 2427TIP3    H1 7238   1.321   2.098   2.749
 2427TIP3    H2 7239   1.284   2.127   2.605
 2428TIP3   OH2 7240   0.882   5.264   4.918
 2428TIP3    H1 7241   0.915   5.334   4.862
 2428TIP3    H2 7242   0.835   5.309   4.988
 2429TIP3   OH2 7243   5.380   6.049   1.483
 2429TIP3    H1 7244   5.305   6.100   1.514
 2429TIP3    H2 7245   5.456   6.097   1.516
 2430TIP3   OH2 7246   3.617   1.948   2.183
 2430TIP3    H1 7247   3.635   2.031   2.138
 2430TIP3    H2 7248   3.679   1.945   2.256
 2431TIP3   OH2 7249   3.894   5.887   1.947
 2431TIP3    H1 7250   3.931   5.951   2.009
 2431TIP3    H2 7251   3.810   5.926   1.920
 2432TIP3   OH2 7252   4.375   3.963   2.382
 2432TIP3    H1 7253   4.376   4.054   2.409
 2432TIP3    H2 7254   4.292   3.953   2.334
 2433TIP3   OH2 7255   0.438   6.206   4.363
 2433TIP3    H1 7256   0.478   6.291   4.348
 2433TIP3    H2 7257   0.427   6.168   4.276
 2434TIP3   OH2 7258   3.227   3.945   6.539
 2434TIP3    H1 7259   3.236   3.887   6.463
 2434TIP3    H2 7260   3.143   3.921   6.577
 2435TIP3   OH2 7261   2.339   2.105   1.387
 2435TIP3    H1 7262   2.346   2.052   1.467
 2435TIP3    H2 7263   2.258   2.154   1.398
 2436TIP3   OH2 7264   0.553   4.622   2.625
 2436TIP3    H1 7265   0.645   4.609   2.650
 2436TIP3    H2 7266   0.528   4.704   2.669
 2437TIP3   OH2 7267   2.169   6.775   0.901
 2437TIP3    H1 7268   2.123   6.856   0.925
 2437TIP3    H2 7269   2.133   6.709   0.960
 2438TIP3   OH2 7270   3.102   7.140   5.456
 2438TIP3    H1 7271   3.190   7.142   5.493
 2438TIP3    H2 7272   3.111   7.094   5.374
 2439TIP3   OH2 7273   4.631   3.271   1.127
 2439TIP3    H1 7274   4.703   3.313   1.174
 2439TIP3    H2 7275   4.656   3.179   1.122
 2440TIP3   OH2 7276   4.654   5.930   1.177
 2440TIP3    H1 7277   4.650   5.872   1.253
 2440TIP3    H2 7278   4.627   6.015   1.211
 2441TIP3   OH2 7279   2.148   4.238   5.004
 2441TIP3    H1 7280   2.087   4.225   5.077
 2441TIP3    H2 7281   2.094   4.274   4.934
 2442TIP3   OH2 7282   4.462   4.655   2.537
 2442TIP3    H1 7283   4.466   4.702   2.620
 2442TIP3    H2 7284   4.553   4.630   2.519
 2443TIP3   OH2 7285   1.289   6.632   5.065
 2443TIP3    H1 7286   1.300   6.721   5.100
 2443TIP3    H2 7287   1.304   6.642   4.971
 2444TIP3   OH2 7288   4.048   6.107   5.901
 2444TIP3    H1 7289   4.036   6.163   5.824
 2444TIP3    H2 7290   4.105   6.158   5.959
 2445TIP3   OH2 7291   5.882   7.152   4.439
 2445TIP3    H1 7292   5.842   7.210   4.503
 2445TIP3    H2 7293   5.817   7.083   4.424
 2446TIP3   OH2 7294   1.694   6.865   2.887
 2446TIP3    H1 7295   1.693   6.815   2.805
 2446TIP3    H2 7296   1.666   6.953   2.861
 2447TIP3   OH2 7297   2.640   7.264   3.226
 2447TIP3    H1 7298   2.653   7.223   3.312
 2447TIP3    H2 7299   2.672   7.198   3.164
 2448TIP3   OH2 7300   4.418   0.598   4.669
 2448TIP3    H1 7301   4.419   0.531   4.600
 2448TIP3    H2 7302   4.370   0.557   4.741
 2449TIP3   OH2 7303   0.261   7.024   5.674
 2449TIP3    H1 7304   0.247   7.059   5.586
 2449TIP3    H2 7305   0.325   7.083   5.713
 2450TIP3   OH2 7306   6.010   4.203   0.903
 2450TIP3    H1 7307   5.979   4.289   0.931
 2450TIP3    H2 7308   6.010   4.208   0.807
 2451TIP3   OH2 7309   5.462   0.409   6.233
 2451TIP3    H1 7310   5.441   0.442   6.321
 2451TIP3    H2 7311   5.503   0.483   6.189
 2452TIP3   OH2 7312   7.597   0.239   2.306
 2452TIP3    H1 7313   7.673   0.197   2.267
 2452TIP3    H2 7314   7.530   0.170   2.308
 2453TIP3   OH2 7315   4.833   2.873   2.997
 2453TIP3    H1 7316   4.845   2.783   2.967
 2453TIP3    H2 7317   4.742   2.893   2.975
 2454TIP3   OH2 7318   7.368   5.075   0.003
 2454TIP3    H1 7319   7.409   5.067   0.089
 2454TIP3    H2 7320   7.441   5.067  -0.059
 2455TIP3   OH2 7321   2.687   6.994   2.159
 2455TIP3    H1 7322   2.778   6.965   2.150
 2455TIP3    H2 7323   2.659   7.014   2.070
 2456TIP3   OH2 7324   0.036   7.601   6.311
 2456TIP3    H1 7325   0.022   7.676   6.254
 2456TIP3    H2 7326   0.045   7.639   6.399
 2457TIP3   OH2 7327   5.161   4.756   6.738
 2457TIP3    H1 7328   5.074   4.726   6.711
 2457TIP3    H2 7329   5.210   4.675   6.752
 2458TIP3   OH2 7330   3.064   2.852   1.568
 2458TIP3    H1 7331   2.987   2.796   1.557
 2458TIP3    H2 7332   3.131   2.795   1.606
 2459TIP3   OH2 7333   2.120   1.406   3.960
 2459TIP3    H1 7334   2.091   1.319   3.986
 2459TIP3    H2 7335   2.043   1.447   3.922
 2460TIP3   OH2 7336   1.632   7.224   4.323
 2460TIP3    H1 7337   1.680   7.155   4.368
 2460TIP3    H2 7338   1.649   7.209   4.230
 2461TIP3   OH2 7339   3.017   2.483   4.144
 2461TIP3    H1 7340   3.045   2.400   4.181
 2461TIP3    H2 7341   2.972   2.459   4.063
 2462TIP3   OH2 7342   5.589   2.456   1.561
 2462TIP3    H1 7343   5.495   2.470   1.550
 2462TIP3    H2 7344   5.607   2.488   1.649
 2463TIP3   OH2 7345   6.568   5.781   0.692
 2463TIP3    H1 7346   6.497   5.839   0.665
 2463TIP3    H2 7347   6.645   5.838   0.698
 2464TIP3   OH2 7348   0.291   1.630   3.578
 2464TIP3    H1 7349   0.245   1.550   3.552
 2464TIP3    H2 7350   0.235   1.701   3.546
 2465TIP3   OH2 7351   1.004   6.933   0.908
 2465TIP3    H1 7352   1.078   6.989   0.883
 2465TIP3    H2 7353   1.009   6.859   0.848
 2466TIP3   OH2 7354   3.144   1.622   3.027
 2466TIP3    H1 7355   3.094   1.680   3.084
 2466TIP3    H2 7356   3.081   1.557   2.997
 2467TIP3   OH2 7357   4.354   5.777   3.702
 2467TIP3    H1 7358   4.442   5.746   3.679
 2467TIP3    H2 7359   4.296   5.734   3.639
 2468TIP3   OH2 7360   0.874   3.100   2.341
 2468TIP3    H1 7361   0.949   3.109   2.401
 2468TIP3    H2 7362   0.913   3.095   2.254
 2469TIP3   OH2 7363   1.649   4.653   4.664
 2469TIP3    H1 7364   1.561   4.677   4.634
 2469TIP3    H2 7365   1.693   4.736   4.679
 2470TIP3   OH2 7366   4.870   1.332   4.587
 2470TIP3    H1 7367   4.910   1.418   4.574
 2470TIP3    H2 7368   4.936   1.283   4.635
 2471TIP3   OH2 7369   0.139   7.078   4.000
 2471TIP3    H1 7370   0.221   7.065   3.952
 2471TIP3    H2 7371   0.070   7.057   3.936
 2472TIP3   OH2 7372   7.458   2.656   2.484
 2472TIP3    H1 7373   7.370   2.623   2.469
 2472TIP3    H2 7374   7.478   2.708   2.406
 2473TIP3   OH2 7375   2.701   6.581   0.434
 2473TIP3    H1 7376   2.632   6.609   0.373
 2473TIP3    H2 7377   2.672   6.612   0.519
 2474TIP3   OH2 7378   5.341   7.151   4.746
 2474TIP3    H1 7379   5.411   7.191   4.797
 2474TIP3    H2 7380   5.261   7.189   4.783
 2475TIP3   OH2 7381   2.770   1.943   6.698
 2475TIP3    H1 7382   2.835   1.960   6.630
 2475TIP3    H2 7383   2.686   1.944   6.652
 2476TIP3   OH2 7384   2.553   2.256   1.318
 2476TIP3    H1 7385   2.529   2.327   1.378
 2476TIP3    H2 7386   2.488   2.188   1.333
 2477TIP3   OH2 7387   7.233   6.925   3.092
 2477TIP3    H1 7388   7.176   6.875   3.034
 2477TIP3    H2 7389   7.219   7.016   3.068
 2478TIP3   OH2 7390   8.275   1.015   5.762
 2478TIP3    H1 7391   8.208   1.083   5.765
 2478TIP3    H2 7392   8.286   0.996   5.669
 2479TIP3   OH2 7393   0.397   3.693   0.214
 2479TIP3    H1 7394   0.392   3.626   0.283
 2479TIP3    H2 7395   0.382   3.776   0.260
 2480TIP3   OH2 7396   7.967   0.915   3.492
 2480TIP3    H1 7397   8.057   0.935   3.467
 2480TIP3    H2 7398   7.913   0.961   3.428
 2481TIP3   OH2 7399   7.928   6.821   6.330
 2481TIP3    H1 7400   7.879   6.902   6.318
 2481TIP3    H2 7401   7.869   6.764   6.379
 2482TIP3   OH2 7402   4.302   5.053   1.989
 2482TIP3    H1 7403   4.225   5.079   1.938
 2482TIP3    H2 7404   4.303   4.958   1.984
 2483TIP3   OH2 7405   8.027   0.305   2.166
 2483TIP3    H1 7406   8.058   0.386   2.205
 2483TIP3    H2 7407   8.106   0.263   2.131
 2484TIP3   OH2 7408   0.259   2.658   0.513
 2484TIP3    H1 7409   0.299   2.670   0.599
 2484TIP3    H2 7410   0.303   2.582   0.476
 2485TIP3   OH2 7411   1.300   6.726   1.616
 2485TIP3    H1 7412   1.325   6.810   1.578
 2485TIP3    H2 7413   1.310   6.663   1.544
 2486TIP3   OH2 7414   7.901   5.536   0.233
 2486TIP3    H1 7415   7.873   5.454   0.192
 2486TIP3    H2 7416   7.842   5.547   0.307
 2487TIP3   OH2 7417   0.086   4.974   0.327
 2487TIP3    H1 7418   0.131   4.997   0.246
 2487TIP3    H2 7419   0.069   5.057   0.370
 2488TIP3   OH2 7420   1.548   6.415   2.845
 2488TIP3    H1 7421   1.515   6.483   2.786
 2488TIP3    H2 7422   1.491   6.420   2.922
 2489TIP3   OH2 7423   6.504   7.629   5.163
 2489TIP3    H1 7424   6.572   7.619   5.229
 2489TIP3    H2 7425   6.502   7.723   5.145
 2490TIP3   OH2 7426   4.694   4.064   0.961
 2490TIP3    H1 7427   4.719   3.971   0.960
 2490TIP3    H2 7428   4.603   4.064   0.989
 2491TIP3   OH2 7429   2.377   1.365   3.990
 2491TIP3    H1 7430   2.286   1.388   3.969
 2491TIP3    H2 7431   2.429   1.433   3.947
 2492TIP3   OH2 7432   3.486   4.512   1.733
 2492TIP3    H1 7433   3.503   4.541   1.643
 2492TIP3    H2 7434   3.430   4.435   1.723
 2493TIP3   OH2 7435   6.457   1.940   0.987
 2493TIP3    H1 7436   6.479   1.853   1.021
 2493TIP3    H2 7437   6.481   1.936   0.895
 2494TIP3   OH2 7438   1.696   1.579   5.704
 2494TIP3    H1 7439   1.675   1.526   5.627
 2494TIP3    H2 7440   1.621   1.637   5.714
 2495TIP3   OH2 7441   3.841   3.085   4.147
 2495TIP3    H1 7442   3.801   3.083   4.233
 2495TIP3    H2 7443   3.932   3.108   4.163
 2496TIP3   OH2 7444   5.117   7.716   1.587
 2496TIP3    H1 7445   5.101   7.722   1.682
 2496TIP3    H2 7446   5.037   7.748   1.547
 2497TIP3   OH2 7447   7.516   4.570   0.279
 2497TIP3    H1 7448   7.546   4.574   0.189
 2497TIP3    H2 7449   7.583   4.518   0.324
 2498TIP3   OH2 7450   5.278   1.083   4.531
 2498TIP3    H1 7451   5.339   1.156   4.520
 2498TIP3    H2 7452   5.334   1.006   4.536
 2499TIP3   OH2 7453   6.300   6.003   3.760
 2499TIP3    H1 7454   6.371   6.067   3.748
 2499TIP3    H2 7455   6.234   6.028   3.696
 2500TIP3   OH2 7456   4.441   4.119   5.634
 2500TIP3    H1 7457   4.455   4.113   5.729
 2500TIP3    H2 7458   4.520   4.162   5.601
 2501TIP3   OH2 7459   3.223   7.018   5.209
 2501TIP3    H1 7460   3.265   6.991   5.128
 2501TIP3    H2 7461   3.251   7.109   5.221
 2502TIP3   OH2 7462   4.699   2.425   0.247
 2502TIP3    H1 7463   4.675   2.516   0.232
 2502TIP3    H2 7464   4.793   2.421   0.229
 2503TIP3   OH2 7465   6.792   7.724   6.424
 2503TIP3    H1 7466   6.736   7.668   6.370
 2503TIP3    H2 7467   6.762   7.709   6.514
 2504TIP3   OH2 7468   6.427   1.323   0.752
 2504TIP3    H1 7469   6.430   1.400   0.695
 2504TIP3    H2 7470   6.355   1.340   0.812
 2505TIP3   OH2 7471   0.367   7.652   0.909
 2505TIP3    H1 7472   0.306   7.723   0.891
 2505TIP3    H2 7473   0.453   7.694   0.908
 2506TIP3   OH2 7474   4.649   0.374   2.712
 2506TIP3    H1 7475   4.646   0.453   2.657
 2506TIP3    H2 7476   4.607   0.401   2.794
 2507TIP3   OH2 7477   7.891   7.286   0.153
 2507TIP3    H1 7478   7.892   7.368   0.201
 2507TIP3    H2 7479   7.802   7.252   0.166
 2508TIP3   OH2 7480   3.801   6.712   1.651
 2508TIP3    H1 7481   3.841   6.756   1.726
 2508TIP3    H2 7482   3.709   6.739   1.653
 2509TIP3   OH2 7483   6.304   3.026   4.403
 2509TIP3    H1 7484   6.261   2.968   4.466
 2509TIP3    H2 7485   6.320   3.107   4.452
 2510TIP3   OH2 7486   7.268   0.210   2.211
 2510TIP3    H1 7487   7.176   0.231   2.198
 2510TIP3    H2 7488   7.315   0.274   2.158
 2511TIP3   OH2 7489   2.001   7.409   2.920
 2511TIP3    H1 7490   2.030   7.500   2.925
 2511TIP3    H2 7491   1.920   7.412   2.869
 2512TIP3   OH2 7492   5.063   0.686   4.339
 2512TIP3    H1 7493   5.020   0.602   4.353
 2512TIP3    H2 7494   5.120   0.696   4.416
 2513TIP3   OH2 7495   2.648   5.032   0.298
 2513TIP3    H1 7496   2.553   5.044   0.298
 2513TIP3    H2 7497   2.681   5.106   0.350
 2514TIP3   OH2 7498   1.634   1.943   3.928
 2514TIP3    H1 7499   1.709   1.931   3.870
 2514TIP3    H2 7500   1.650   2.027   3.972
 2515TIP3   OH2 7501   1.965   7.338   0.712
 2515TIP3    H1 7502   1.981   7.432   0.725
 2515TIP3    H2 7503   1.898   7.315   0.776
 2516TIP3   OH2 7504   4.199   2.342   2.912
 2516TIP3    H1 7505   4.229   2.372   2.826
 2516TIP3    H2 7506   4.104   2.336   2.903
 2517TIP3   OH2 7507   6.172   4.131   0.123
 2517TIP3    H1 7508   6.200   4.222   0.123
 2517TIP3    H2 7509   6.168   4.107   0.216
 2518TIP3   OH2 7510   2.619   5.931   3.563
 2518TIP3    H1 7511   2.674   6.004   3.534
 2518TIP3    H2 7512   2.617   5.872   3.488
 2519TIP3   OH2 7513   7.908   6.078   1.769
 2519TIP3    H1 7514   7.849   6.006   1.751
 2519TIP3    H2 7515   7.862   6.156   1.738
 2520TIP3   OH2 7516   4.541   7.473   2.007
 2520TIP3    H1 7517   4.456   7.469   1.962
 2520TIP3    H2 7518   4.518   7.482   2.099
 2521TIP3   OH2 7519   5.729   1.093   3.309
 2521TIP3    H1 7520   5.822   1.097   3.291
 2521TIP3    H2 7521   5.690   1.055   3.230
 2522TIP3   OH2 7522   2.770   5.576   2.031
 2522TIP3    H1 7523   2.674   5.579   2.039
 2522TIP3    H2 7524   2.797   5.513   2.098
 2523TIP3   OH2 7525   7.991   0.520   3.110
 2523TIP3    H1 7526   7.967   0.511   3.203
 2523TIP3    H2 7527   7.998   0.615   3.097
 2524TIP3   OH2 7528   2.419   2.123   0.824
 2524TIP3    H1 7529   2.376   2.155   0.903
 2524TIP3    H2 7530   2.465   2.199   0.789
 2525TIP3   OH2 7531   0.080   0.351   2.311
 2525TIP3    H1 7532   0.120   0.266   2.293
 2525TIP3    H2 7533   0.131   0.385   2.384
 2526TIP3   OH2 7534   6.230   6.909   5.466
 2526TIP3    H1 7535   6.137   6.896   5.483
 2526TIP3    H2 7536   6.240   7.004   5.456
 2527TIP3   OH2 7537   5.060   0.544   1.754
 2527TIP3    H1 7538   5.096   0.596   1.683
 2527TIP3    H2 7539   5.136   0.503   1.795
 2528TIP3   OH2 7540   7.124   7.440   6.531
 2528TIP3    H1 7541   7.211   7.430   6.491
 2528TIP3    H2 7542   7.065   7.451   6.457
 2529TIP3   OH2 7543   7.386   0.295   2.675
 2529TIP3    H1 7544   7.339   0.363   2.627
 2529TIP3    H2 7545   7.406   0.229   2.609
 2530TIP3   OH2 7546   2.489   0.909   3.615
 2530TIP3    H1 7547   2.428   0.846   3.575
 2530TIP3    H2 7548   2.497   0.879   3.706
 2531TIP3   OH2 7549   7.594   0.695   3.704
 2531TIP3    H1 7550   7.546   0.741   3.772
 2531TIP3    H2 7551   7.630   0.764   3.648
 2532TIP3   OH2 7552   5.332   3.168   3.587
 2532TIP3    H1 7553   5.286   3.217   3.655
 2532TIP3    H2 7554   5.309   3.212   3.505
 2533TIP3   OH2 7555   3.631   0.660   3.911
 2533TIP3    H1 7556   3.712   0.711   3.916
 2533TIP3    H2 7557   3.603   0.652   4.002
 2534TIP3   OH2 7558   8.248   7.396   5.338
 2534TIP3    H1 7559   8.255   7.400   5.433
 2534TIP3    H2 7560   8.262   7.304   5.316
 2535TIP3   OH2 7561   0.757   3.252   3.473
 2535TIP3    H1 7562   0.700   3.176   3.492
 2535TIP3    H2 7563   0.715   3.324   3.519
 2536TIP3   OH2 7564   6.765   6.449   0.805
 2536TIP3    H1 7565   6.690   6.409   0.760
 2536TIP3    H2 7566   6.726   6.511   0.866
 2537TIP3   OH2 7567   4.933   3.659   3.596
 2537TIP3    H1 7568   4.927   3.583   3.654
 2537TIP3    H2 7569   4.940   3.622   3.508
 2538TIP3   OH2 7570   6.744   5.334   2.852
 2538TIP3    H1 7571   6.809   5.400   2.826
 2538TIP3    H2 7572   6.675   5.385   2.895
 2539TIP3   OH2 7573   1.663   3.354   6.444
 2539TIP3    H1 7574   1.698   3.292   6.508
 2539TIP3    H2 7575   1.608   3.301   6.387
 2540TIP3   OH2 7576   4.933   1.520   0.883
 2540TIP3    H1 7577   4.973   1.438   0.913
 2540TIP3    H2 7578   4.952   1.582   0.954
 2541TIP3   OH2 7579   4.166   4.466   5.424
 2541TIP3    H1 7580   4.178   4.434   5.513
 2541TIP3    H2 7581   4.123   4.551   5.435
 2542TIP3   OH2 7582   2.722   2.601   4.705
 2542TIP3    H1 7583   2.738   2.509   4.684
 2542TIP3    H2 7584   2.802   2.629   4.750
 2543TIP3   OH2 7585   1.248   2.247   0.571
 2543TIP3    H1 7586   1.169   2.206   0.537
 2543TIP3    H2 7587   1.259   2.209   0.659
 2544TIP3   OH2 7588   2.424   7.176   1.544
 2544TIP3    H1 7589   2.400   7.266   1.523
 2544TIP3    H2 7590   2.479   7.147   1.471
 2545TIP3   OH2 7591   6.174   7.724   5.070
 2545TIP3    H1 7592   6.190   7.815   5.043
 2545TIP3    H2 7593   6.214   7.718   5.157
 2546TIP3   OH2 7594   0.724   3.905   2.131
 2546TIP3    H1 7595   0.633   3.931   2.116
 2546TIP3    H2 7596   0.737   3.830   2.074
 2547TIP3   OH2 7597   6.482   2.712   0.075
 2547TIP3    H1 7598   6.437   2.691   0.157
 2547TIP3    H2 7599   6.416   2.760   0.023
 2548TIP3   OH2 7600   6.331   2.925   1.406
 2548TIP3    H1 7601   6.247   2.885   1.429
 2548TIP3    H2 7602   6.326   2.937   1.311
 2549TIP3   OH2 7603   2.743   3.363   3.987
 2549TIP3    H1 7604   2.814   3.394   3.930
 2549TIP3    H2 7605   2.668   3.417   3.963
 2550TIP3   OH2 7606   5.294   4.446   2.523
 2550TIP3    H1 7607   5.308   4.417   2.433
 2550TIP3    H2 7608   5.247   4.529   2.514
 2551TIP3   OH2 7609   2.811   7.328   6.584
 2551TIP3    H1 7610   2.816   7.279   6.501
 2551TIP3    H2 7611   2.734   7.383   6.574
 2552TIP3   OH2 7612   5.821   1.121   6.543
 2552TIP3    H1 7613   5.768   1.198   6.522
 2552TIP3    H2 7614   5.910   1.155   6.552
 2553TIP3   OH2 7615   5.469   0.534   1.373
 2553TIP3    H1 7616   5.506   0.450   1.344
 2553TIP3    H2 7617   5.384   0.538   1.331
 2554TIP3   OH2 7618   2.554   1.091   5.551
 2554TIP3    H1 7619   2.587   1.088   5.641
 2554TIP3    H2 7620   2.616   1.148   5.505
 2555TIP3   OH2 7621   6.291   3.439   6.022
 2555TIP3    H1 7622   6.349   3.510   5.993
 2555TIP3    H2 7623   6.322   3.362   5.974
 2556TIP3   OH2 7624   5.897   5.112   6.311
 2556TIP3    H1 7625   5.957   5.056   6.261
 2556TIP3    H2 7626   5.810   5.086   6.282
 2557TIP3   OH2 7627   4.806   7.750   3.671
 2557TIP3    H1 7628   4.854   7.701   3.738
 2557TIP3    H2 7629   4.866   7.820   3.645
 2558TIP3   OH2 7630   1.657   1.502   1.552
 2558TIP3    H1 7631   1.700   1.486   1.468
 2558TIP3    H2 7632   1.711   1.570   1.594
 2559TIP3   OH2 7633   0.606   5.087   4.781
 2559TIP3    H1 7634   0.517   5.098   4.747
 2559TIP3    H2 7635   0.605   5.005   4.828
 2560TIP3   OH2 7636   3.664   0.487   3.271
 2560TIP3    H1 7637   3.571   0.468   3.256
 2560TIP3    H2 7638   3.678   0.571   3.226
 2561TIP3   OH2 7639   0.374   5.614   3.954
 2561TIP3    H1 7640   0.329   5.588   4.035
 2561TIP3    H2 7641   0.342   5.552   3.888
 2562TIP3   OH2 7642   4.747   1.644   5.452
 2562TIP3    H1 7643   4.674   1.647   5.389
 2562TIP3    H2 7644   4.753   1.552   5.478
 2563TIP3   OH2 7645   6.492   1.326   2.223
 2563TIP3    H1 7646   6.401   1.335   2.249
 2563TIP3    H2 7647   6.522   1.246   2.266
 2564TIP3   OH2 7648   2.759   6.792   1.111
 2564TIP3    H1 7649   2.704   6.719   1.082
 2564TIP3    H2 7650   2.749   6.794   1.206
 2565TIP3   OH2 7651   2.910   3.288   1.574
 2565TIP3    H1 7652   2.956   3.310   1.493
 2565TIP3    H2 7653   2.978   3.248   1.629
 2566TIP3   OH2 7654   3.668   1.755   4.276
 2566TIP3    H1 7655   3.618   1.676   4.256
 2566TIP3    H2 7656   3.741   1.754   4.213
 2567TIP3   OH2 7657   0.944   7.218   1.656
 2567TIP3    H1 7658   1.003   7.156   1.698
 2567TIP3    H2 7659   0.977   7.228   1.567
 2568TIP3   OH2 7660   4.824   4.265   4.140
 2568TIP3    H1 7661   4.882   4.340   4.155
 2568TIP3    H2 7662   4.736   4.303   4.145
 2569TIP3   OH2 7663   1.561   2.818   4.041
 2569TIP3    H1 7664   1.585   2.898   3.993
 2569TIP3    H2 7665   1.535   2.849   4.128
 2570TIP3   OH2 7666   7.975   1.847   5.213
 2570TIP3    H1 7667   7.982   1.769   5.268
 2570TIP3    H2 7668   7.908   1.900   5.255
 2571TIP3   OH2 7669   0.483   7.349   2.979
 2571TIP3    H1 7670   0.451   7.258   2.977
 2571TIP3    H2 7671   0.437   7.392   2.907
 2572TIP3   OH2 7672   3.729   1.333   0.796
 2572TIP3    H1 7673   3.669   1.287   0.737
 2572TIP3    H2 7674   3.808   1.346   0.744
 2573TIP3   OH2 7675   3.923   6.787   4.869
 2573TIP3    H1 7676   3.845   6.785   4.924
 2573TIP3    H2 7677   3.893   6.823   4.786
 2574TIP3   OH2 7678   6.236   6.469   4.996
 2574TIP3    H1 7679   6.330   6.483   5.008
 2574TIP3    H2 7680   6.210   6.538   4.935
 2575TIP3   OH2 7681   3.940   0.529   4.086
 2575TIP3    H1 7682   3.856   0.573   4.100
 2575TIP3    H2 7683   3.951   0.529   3.991
 2576TIP3   OH2 7684   3.482   4.785   2.433
 2576TIP3    H1 7685   3.435   4.702   2.427
 2576TIP3    H2 7686   3.469   4.813   2.524
 2577TIP3   OH2 7687   2.488   1.875   0.277
 2577TIP3    H1 7688   2.470   1.924   0.197
 2577TIP3    H2 7689   2.426   1.911   0.342
 2578TIP3   OH2 7690   3.313   4.816   4.833
 2578TIP3    H1 7691   3.296   4.724   4.811
 2578TIP3    H2 7692   3.251   4.865   4.779
 2579TIP3   OH2 7693   1.929   4.150   4.098
 2579TIP3    H1 7694   1.909   4.125   4.008
 2579TIP3    H2 7695   2.024   4.139   4.106
 2580TIP3   OH2 7696   0.394   4.758   6.063
 2580TIP3    H1 7697   0.398   4.772   5.968
 2580TIP3    H2 7698   0.472   4.800   6.098
 2581TIP3   OH2 7699   7.987   7.473   4.694
 2581TIP3    H1 7700   7.978   7.401   4.756
 2581TIP3    H2 7701   7.904   7.474   4.646
 2582TIP3   OH2 7702   2.530   4.258   6.720
 2582TIP3    H1 7703   2.525   4.330   6.783
 2582TIP3    H2 7704   2.586   4.292   6.650
 2583TIP3   OH2 7705   1.885   1.523   5.089
 2583TIP3    H1 7706   1.948   1.497   5.021
 2583TIP3    H2 7707   1.866   1.442   5.136
 2584TIP3   OH2 7708   7.466   2.472   4.880
 2584TIP3    H1 7709   7.460   2.417   4.958
 2584TIP3    H2 7710   7.552   2.512   4.886
 2585TIP3   OH2 7711   5.944   2.564   6.641
 2585TIP3    H1 7712   5.865   2.582   6.692
 2585TIP3    H2 7713   6.005   2.633   6.666
 2586TIP3   OH2 7714   4.767   5.782   5.260
 2586TIP3    H1 7715   4.810   5.862   5.230
 2586TIP3    H2 7716   4.689   5.812   5.307
 2587TIP3   OH2 7717   7.236   7.709   0.859
 2587TIP3    H1 7718   7.319   7.755   0.867
 2587TIP3    H2 7719   7.205   7.698   0.949
 2588TIP3   OH2 7720   4.341   6.358   6.225
 2588TIP3    H1 7721   4.257   6.403   6.222
 2588TIP3    H2 7722   4.318   6.265   6.236
 2589TIP3   OH2 7723   5.979   2.669   3.456
 2589TIP3    H1 7724   5.992   2.604   3.526
 2589TIP3    H2 7725   5.981   2.753   3.501
 2590TIP3   OH2 7726   2.915   2.111   6.512
 2590TIP3    H1 7727   2.977   2.135   6.581
 2590TIP3    H2 7728   2.952   2.032   6.472
 2591TIP3   OH2 7729   5.188   5.351   6.091
 2591TIP3    H1 7730   5.111   5.394   6.129
 2591TIP3    H2 7731   5.255   5.419   6.088
 2592TIP3   OH2 7732   4.760   1.801   6.316
 2592TIP3    H1 7733   4.802   1.740   6.256
 2592TIP3    H2 7734   4.832   1.853   6.352
 2593TIP3   OH2 7735   2.457   0.683   3.084
 2593TIP3    H1 7736   2.399   0.750   3.046
 2593TIP3    H2 7737   2.525   0.671   3.018
 2594TIP3   OH2 7738   6.007   1.131   3.362
 2594TIP3    H1 7739   6.086   1.092   3.400
 2594TIP3    H2 7740   6.030   1.222   3.346
 2595TIP3   OH2 7741   5.093   5.938   2.028
 2595TIP3    H1 7742   5.087   5.844   2.008
 2595TIP3    H2 7743   5.158   5.943   2.098
 2596TIP3   OH2 7744   0.770   6.127   3.907
 2596TIP3    H1 7745   0.816   6.151   3.826
 2596TIP3    H2 7746   0.680   6.114   3.880
 2597TIP3   OH2 7747   6.829   4.460   4.384
 2597TIP3    H1 7748   6.852   4.374   4.349
 2597TIP3    H2 7749   6.742   4.478   4.347
 2598TIP3   OH2 7750   4.895   1.915   2.804
 2598TIP3    H1 7751   4.917   1.825   2.780
 2598TIP3    H2 7752   4.819   1.936   2.750
 2599TIP3   OH2 7753   7.098   1.144   0.082
 2599TIP3    H1 7754   7.126   1.232   0.058
 2599TIP3    H2 7755   7.161   1.086   0.039
 2600TIP3   OH2 7756   7.290   6.577   3.199
 2600TIP3    H1 7757   7.256   6.635   3.267
 2600TIP3    H2 7758   7.214   6.559   3.143
 2601TIP3   OH2 7759   0.172   7.676   1.781
 2601TIP3    H1 7760   0.139   7.649   1.696
 2601TIP3    H2 7761   0.116   7.630   1.844
 2602TIP3   OH2 7762   4.329   5.753   6.365
 2602TIP3    H1 7763   4.326   5.849   6.369
 2602TIP3    H2 7764   4.237   5.727   6.367
 2603TIP3   OH2 7765   6.144   3.807   1.429
 2603TIP3    H1 7766   6.084   3.828   1.358
 2603TIP3    H2 7767   6.091   3.757   1.491
 2604TIP3   OH2 7768   5.965   1.833   1.328
 2604TIP3    H1 7769   5.938   1.924   1.337
 2604TIP3    H2 7770   6.041   1.836   1.270
 2605TIP3   OH2 7771   4.992   4.629   1.896
 2605TIP3    H1 7772   5.030   4.705   1.852
 2605TIP3    H2 7773   4.908   4.616   1.851
 2606TIP3   OH2 7774   3.335   7.515   4.148
 2606TIP3    H1 7775   3.410   7.559   4.188
 2606TIP3    H2 7776   3.344   7.423   4.174
 2607TIP3   OH2 7777   3.364   5.591   1.254
 2607TIP3    H1 7778   3.299   5.610   1.187
 2607TIP3    H2 7779   3.321   5.610   1.337
 2608TIP3   OH2 7780   0.237   3.456   4.508
 2608TIP3    H1 7781   0.231   3.542   4.551
 2608TIP3    H2 7782   0.330   3.443   4.492
 2609TIP3   OH2 7783   6.681   3.761   0.989
 2609TIP3    H1 7784   6.771   3.791   0.976
 2609TIP3    H2 7785   6.635   3.836   1.026
 2610TIP3   OH2 7786   7.518   3.256   5.027
 2610TIP3    H1 7787   7.516   3.162   5.006
 2610TIP3    H2 7788   7.485   3.261   5.116
 2611TIP3   OH2 7789   3.316   0.082   0.871
 2611TIP3    H1 7790   3.247   0.143   0.847
 2611TIP3    H2 7791   3.326   0.093   0.965
 2612TIP3   OH2 7792   6.114   5.587   0.670
 2612TIP3    H1 7793   6.081   5.497   0.664
 2612TIP3    H2 7794   6.207   5.579   0.648
 2613TIP3   OH2 7795   6.285   1.604   4.110
 2613TIP3    H1 7796   6.238   1.569   4.034
 2613TIP3    H2 7797   6.378   1.592   4.087
 2614TIP3   OH2 7798   0.293   3.793   5.698
 2614TIP3    H1 7799   0.347   3.715   5.717
 2614TIP3    H2 7800   0.248   3.771   5.617
 2615TIP3   OH2 7801   4.116   2.949   3.560
 2615TIP3    H1 7802   4.059   3.022   3.536
 2615TIP3    H2 7803   4.105   2.886   3.490
 2616TIP3   OH2 7804   4.703   6.652   2.806
 2616TIP3    H1 7805   4.632   6.662   2.869
 2616TIP3    H2 7806   4.671   6.694   2.727
 2617TIP3   OH2 7807   4.204   2.397   3.201
 2617TIP3    H1 7808   4.129   2.347   3.231
 2617TIP3    H2 7809   4.211   2.376   3.108
 2618TIP3   OH2 7810   7.513   1.920   1.433
 2618TIP3    H1 7811   7.451   1.887   1.498
 2618TIP3    H2 7812   7.460   1.934   1.354
 2619TIP3   OH2 7813   4.118   7.188   2.906
 2619TIP3    H1 7814   4.055   7.155   2.970
 2619TIP3    H2 7815   4.174   7.113   2.887
 2620TIP3   OH2 7816   2.566   5.161   6.429
 2620TIP3    H1 7817   2.554   5.256   6.429
 2620TIP3    H2 7818   2.479   5.126   6.409
 2621TIP3   OH2 7819   4.258   0.556   6.341
 2621TIP3    H1 7820   4.238   0.557   6.435
 2621TIP3    H2 7821   4.245   0.465   6.315
 2622TIP3   OH2 7822   4.580   3.632   4.159
 2622TIP3    H1 7823   4.597   3.649   4.252
 2622TIP3    H2 7824   4.488   3.605   4.156
 2623TIP3   OH2 7825   5.961   6.246   4.949
 2623TIP3    H1 7826   5.958   6.337   4.917
 2623TIP3    H2 7827   6.051   6.235   4.979
 2624TIP3   OH2 7828   2.060   0.479   6.060
 2624TIP3    H1 7829   2.123   0.418   6.021
 2624TIP3    H2 7830   1.993   0.422   6.099
 2625TIP3   OH2 7831   6.751   5.190   4.133
 2625TIP3    H1 7832   6.750   5.204   4.038
 2625TIP3    H2 7833   6.837   5.220   4.161
 2626TIP3   OH2 7834   0.887   0.593   3.079
 2626TIP3    H1 7835   0.853   0.508   3.108
 2626TIP3    H2 7836   0.971   0.602   3.124
 2627TIP3   OH2 7837   5.006   2.387   1.667
 2627TIP3    H1 7838   5.001   2.395   1.572
 2627TIP3    H2 7839   4.988   2.295   1.685
 2628TIP3   OH2 7840   8.152   5.245   4.177
 2628TIP3    H1 7841   8.164   5.158   4.139
 2628TIP3    H2 7842   8.125   5.228   4.267
 2629TIP3   OH2 7843   7.202   5.401   5.130
 2629TIP3    H1 7844   7.209   5.310   5.100
 2629TIP3    H2 7845   7.293   5.426   5.148
 2630TIP3   OH2 7846   1.745   3.727   1.961
 2630TIP3    H1 7847   1.738   3.776   1.879
 2630TIP3    H2 7848   1.816   3.665   1.946
 2631TIP3   OH2 7849   2.941   4.667   3.975
 2631TIP3    H1 7850   2.991   4.720   4.037
 2631TIP3    H2 7851   2.895   4.603   4.029
 2632TIP3   OH2 7852   1.490   4.539   6.557
 2632TIP3    H1 7853   1.574   4.498   6.538
 2632TIP3    H2 7854   1.477   4.601   6.485
 2633TIP3   OH2 7855   3.249   3.810   4.049
 2633TIP3    H1 7856   3.227   3.733   3.997
 2633TIP3    H2 7857   3.274   3.876   3.985
 2634TIP3   OH2 7858   1.935   5.023   5.974
 2634TIP3    H1 7859   1.874   5.029   6.047
 2634TIP3    H2 7860   2.008   5.079   5.999
 2635TIP3   OH2 7861   1.840   1.611   0.133
 2635TIP3    H1 7862   1.906   1.649   0.192
 2635TIP3    H2 7863   1.860   1.649   0.047
 2636TIP3   OH2 7864   5.845   7.719   2.008
 2636TIP3    H1 7865   5.912   7.652   1.996
 2636TIP3    H2 7866   5.785   7.681   2.071
 2637TIP3   OH2 7867   3.032   2.129   4.862
 2637TIP3    H1 7868   3.051   2.161   4.775
 2637TIP3    H2 7869   2.978   2.051   4.848
 2638TIP3   OH2 7870   1.651   1.580   3.644
 2638TIP3    H1 7871   1.744   1.576   3.663
 2638TIP3    H2 7872   1.646   1.586   3.549
 2639TIP3   OH2 7873   0.842   3.674   2.003
 2639TIP3    H1 7874   0.936   3.681   1.989
 2639TIP3    H2 7875   0.827   3.583   2.026
 2640TIP3   OH2 7876   8.055   0.317   1.634
 2640TIP3    H1 7877   8.020   0.276   1.713
 2640TIP3    H2 7878   7.983   0.314   1.571
 2641TIP3   OH2 7879   8.114   7.556   0.590
 2641TIP3    H1 7880   8.166   7.592   0.662
 2641TIP3    H2 7881   8.170   7.569   0.513
 2642TIP3   OH2 7882   4.769   3.552   1.814
 2642TIP3    H1 7883   4.716   3.554   1.894
 2642TIP3    H2 7884   4.850   3.595   1.839
 2643TIP3   OH2 7885   5.233   0.249   6.541
 2643TIP3    H1 7886   5.251   0.179   6.479
 2643TIP3    H2 7887   5.138   0.265   6.534
 2644TIP3   OH2 7888   0.424   5.013   1.135
 2644TIP3    H1 7889   0.459   5.069   1.066
 2644TIP3    H2 7890   0.479   5.031   1.211
 2645TIP3   OH2 7891   3.018   5.573   6.541
 2645TIP3    H1 7892   3.032   5.665   6.565
 2645TIP3    H2 7893   3.032   5.525   6.622
 2646TIP3   OH2 7894   1.450   3.491   1.293
 2646TIP3    H1 7895   1.367   3.516   1.335
 2646TIP3    H2 7896   1.509   3.473   1.366
 2647TIP3   OH2 7897   2.411   6.852   0.744
 2647TIP3    H1 7898   2.382   6.938   0.713
 2647TIP3    H2 7899   2.361   6.836   0.823
 2648TIP3   OH2 7900   3.649   2.462   3.718
 2648TIP3    H1 7901   3.739   2.491   3.707
 2648TIP3    H2 7902   3.629   2.481   3.810
 2649TIP3   OH2 7903   0.054   0.516   5.305
 2649TIP3    H1 7904   0.026   0.448   5.244
 2649TIP3    H2 7905   0.147   0.527   5.288
 2650TIP3   OH2 7906   6.553   1.255   2.893
 2650TIP3    H1 7907   6.541   1.332   2.837
 2650TIP3    H2 7908   6.566   1.290   2.981
 2651TIP3   OH2 7909   0.975   7.750   5.329
 2651TIP3    H1 7910   0.916   7.721   5.260
 2651TIP3    H2 7911   1.013   7.831   5.296
 2652TIP3   OH2 7912   3.871   6.404   2.315
 2652TIP3    H1 7913   3.873   6.491   2.354
 2652TIP3    H2 7914   3.943   6.357   2.357
 2653TIP3   OH2 7915   3.205   1.058   4.290
 2653TIP3    H1 7916   3.187   1.121   4.360
 2653TIP3    H2 7917   3.202   0.973   4.332
 2654TIP3   OH2 7918   2.475   6.205   0.806
 2654TIP3    H1 7919   2.499   6.297   0.801
 2654TIP3    H2 7920   2.453   6.191   0.898
 2655TIP3   OH2 7921   6.611   2.248   6.691
 2655TIP3    H1 7922   6.573   2.264   6.604
 2655TIP3    H2 7923   6.570   2.167   6.721
 2656TIP3   OH2 7924   7.024   3.077   4.415
 2656TIP3    H1 7925   7.009   3.114   4.328
 2656TIP3    H2 7926   7.012   2.983   4.403
 2657TIP3   OH2 7927   2.478   0.760   6.725
 2657TIP3    H1 7928   2.521   0.844   6.742
 2657TIP3    H2 7929   2.518   0.729   6.644
 2658TIP3   OH2 7930   2.327   6.626   3.849
 2658TIP3    H1 7931   2.335   6.553   3.910
 2658TIP3    H2 7932   2.414   6.664   3.845
 2659TIP3   OH2 7933   7.182   2.509   1.314
 2659TIP3    H1 7934   7.191   2.439   1.250
 2659TIP3    H2 7935   7.098   2.550   1.293
 2660TIP3   OH2 7936   4.726   1.944   0.136
 2660TIP3    H1 7937   4.648   1.990   0.107
 2660TIP3    H2 7938   4.696   1.889   0.209
 2661TIP3   OH2 7939   0.021   4.616   6.544
 2661TIP3    H1 7940   0.097   4.674   6.542
 2661TIP3    H2 7941   0.044   4.546   6.483
 2662TIP3   OH2 7942   1.298   3.917   6.027
 2662TIP3    H1 7943   1.263   3.970   5.955
 2662TIP3    H2 7944   1.234   3.848   6.040
 2663TIP3   OH2 7945   2.256   2.494   0.104
 2663TIP3    H1 7946   2.263   2.476   0.198
 2663TIP3    H2 7947   2.205   2.421   0.070
 2664TIP3   OH2 7948   3.083   7.515   1.429
 2664TIP3    H1 7949   3.025   7.565   1.372
 2664TIP3    H2 7950   3.072   7.424   1.401
 2665TIP3   OH2 7951   5.555   5.910   2.357
 2665TIP3    H1 7952   5.600   5.846   2.302
 2665TIP3    H2 7953   5.479   5.937   2.305
 2666TIP3   OH2 7954   5.624   4.579   6.674
 2666TIP3    H1 7955   5.704   4.620   6.640
 2666TIP3    H2 7956   5.553   4.623   6.628
 2667TIP3   OH2 7957   2.147   7.321   5.516
 2667TIP3    H1 7958   2.170   7.413   5.529
 2667TIP3    H2 7959   2.190   7.296   5.434
 2668TIP3   OH2 7960   2.717   1.313   5.755
 2668TIP3    H1 7961   2.658   1.388   5.755
 2668TIP3    H2 7962   2.666   1.242   5.794
 2669TIP3   OH2 7963   4.931   1.613   6.725
 2669TIP3    H1 7964   4.870   1.600   6.653
 2669TIP3    H2 7965   4.876   1.622   6.802
 2670TIP3   OH2 7966   4.954   2.717   3.416
 2670TIP3    H1 7967   4.946   2.642   3.474
 2670TIP3    H2 7968   4.866   2.731   3.382
 2671TIP3   OH2 7969   0.595   1.053   0.597
 2671TIP3    H1 7970   0.535   1.123   0.570
 2671TIP3    H2 7971   0.545   1.002   0.661
 2672TIP3   OH2 7972   3.104   4.070   2.403
 2672TIP3    H1 7973   3.061   4.070   2.318
 2672TIP3    H2 7974   3.098   4.161   2.433
 2673TIP3   OH2 7975   6.100   5.800   1.762
 2673TIP3    H1 7976   6.058   5.824   1.845
 2673TIP3    H2 7977   6.028   5.797   1.699
 2674TIP3   OH2 7978   3.597   1.496   5.166
 2674TIP3    H1 7979   3.623   1.468   5.078
 2674TIP3    H2 7980   3.581   1.415   5.214
 2675TIP3   OH2 7981   0.726   7.269   2.439
 2675TIP3    H1 7982   0.751   7.204   2.505
 2675TIP3    H2 7983   0.796   7.264   2.373
 2676TIP3   OH2 7984   6.033   0.916   4.223
 2676TIP3    H1 7985   5.953   0.867   4.203
 2676TIP3    H2 7986   6.099   0.849   4.240
 2677TIP3   OH2 7987   5.155   6.878   5.720
 2677TIP3    H1 7988   5.169   6.952   5.780
 2677TIP3    H2 7989   5.085   6.827   5.761
 2678TIP3   OH2 7990   3.891   2.045   1.892
 2678TIP3    H1 7991   3.876   2.086   1.806
 2678TIP3    H2 7992   3.855   2.109   1.954
 2679TIP3   OH2 7993   7.754   4.135   6.086
 2679TIP3    H1 7994   7.739   4.223   6.120
 2679TIP3    H2 7995   7.669   4.109   6.050
 2680TIP3   OH2 7996   4.741   2.035   0.544
 2680TIP3    H1 7997   4.703   1.947   0.536
 2680TIP3    H2 7998   4.672   2.094   0.516
 2681TIP3   OH2 7999   5.463   0.394   3.561
 2681TIP3    H1 8000   5.446   0.312   3.515
 2681TIP3    H2 8001   5.434   0.378   3.651
 2682TIP3   OH2 8002   0.090   1.963   0.742
 2682TIP3    H1 8003   0.107   1.906   0.667
 2682TIP3    H2 8004   0.118   1.912   0.818
 2683TIP3   OH2 8005   6.088   0.494   4.254
 2683TIP3    H1 8006   6.128   0.408   4.266
 2683TIP3    H2 8007   6.115   0.521   4.166
 2684TIP3   OH2 8008   7.144   4.360   2.623
 2684TIP3    H1 8009   7.237   4.374   2.606
 2684TIP3    H2 8010   7.113   4.445   2.656
 2685TIP3   OH2 8011   3.692   6.628   6.723
 2685TIP3    H1 8012   3.712   6.585   6.805
 2685TIP3    H2 8013   3.645   6.563   6.671
 2686TIP3   OH2 8014   1.655   0.162   1.302
 2686TIP3    H1 8015   1.664   0.089   1.242
 2686TIP3    H2 8016   1.613   0.231   1.250
 2687TIP3   OH2 8017   6.049   3.678   4.313
 2687TIP3    H1 8018   6.056   3.691   4.218
 2687TIP3    H2 8019   6.136   3.649   4.339
 2688TIP3   OH2 8020   1.434   5.009   4.872
 2688TIP3    H1 8021   1.348   4.980   4.841
 2688TIP3    H2 8022   1.452   5.089   4.823
 2689TIP3   OH2 8023   2.723   4.769   0.047
 2689TIP3    H1 8024   2.760   4.802   0.129
 2689TIP3    H2 8025   2.692   4.846   0.001
 2690TIP3   OH2 8026   5.827   5.687   2.995
 2690TIP3    H1 8027   5.860   5.657   2.911
 2690TIP3    H2 8028   5.842   5.781   2.995
 2691TIP3   OH2 8029   1.797   2.967   0.557
 2691TIP3    H1 8030   1.845   3.042   0.524
 2691TIP3    H2 8031   1.705   2.989   0.543
 2692TIP3   OH2 8032   8.259   5.555   4.791
 2692TIP3    H1 8033   8.341   5.598   4.765
 2692TIP3    H2 8034   8.284   5.497   4.862
 2693TIP3   OH2 8035   1.854   6.479   6.082
 2693TIP3    H1 8036   1.783   6.520   6.032
 2693TIP3    H2 8037   1.867   6.536   6.157
 2694TIP3   OH2 8038   2.970   5.780   0.020
 2694TIP3    H1 8039   2.894   5.810   0.070
 2694TIP3    H2 8040   3.029   5.743   0.085
 2695TIP3   OH2 8041   4.653   4.679   3.097
 2695TIP3    H1 8042   4.656   4.704   3.189
 2695TIP3    H2 8043   4.560   4.668   3.077
 2696TIP3   OH2 8044   2.137   4.550   4.470
 2696TIP3    H1 8045   2.094   4.485   4.414
 2696TIP3    H2 8046   2.190   4.497   4.530
 2697TIP3   OH2 8047   6.177   6.669   6.090
 2697TIP3    H1 8048   6.148   6.583   6.059
 2697TIP3    H2 8049   6.151   6.730   6.020
 2698TIP3   OH2 8050   1.514   4.782   3.030
 2698TIP3    H1 8051   1.469   4.786   3.114
 2698TIP3    H2 8052   1.509   4.871   2.995
 2699TIP3   OH2 8053   5.930   0.896   0.885
 2699TIP3    H1 8054   5.902   0.815   0.927
 2699TIP3    H2 8055   6.004   0.869   0.830
 2700TIP3   OH2 8056   1.332   0.306   2.404
 2700TIP3    H1 8057   1.277   0.245   2.453
 2700TIP3    H2 8058   1.273   0.378   2.381
 2701TIP3   OH2 8059   5.459   6.393   0.750
 2701TIP3    H1 8060   5.503   6.371   0.832
 2701TIP3    H2 8061   5.512   6.462   0.711
 2702TIP3   OH2 8062   2.844   2.142   2.833
 2702TIP3    H1 8063   2.874   2.225   2.795
 2702TIP3    H2 8064   2.812   2.092   2.758
 2703TIP3   OH2 8065   7.916   2.251   0.379
 2703TIP3    H1 8066   7.900   2.336   0.419
 2703TIP3    H2 8067   7.966   2.202   0.444
 2704TIP3   OH2 8068   3.578   0.199   2.316
 2704TIP3    H1 8069   3.671   0.220   2.306
 2704TIP3    H2 8070   3.538   0.227   2.234
 2705TIP3   OH2 8071   7.178   5.172   3.647
 2705TIP3    H1 8072   7.195   5.182   3.741
 2705TIP3    H2 8073   7.247   5.224   3.605
 2706TIP3   OH2 8074   1.190   3.385   1.131
 2706TIP3    H1 8075   1.103   3.347   1.120
 2706TIP3    H2 8076   1.250   3.310   1.126
 2707TIP3   OH2 8077   1.275   2.600   0.307
 2707TIP3    H1 8078   1.267   2.562   0.220
 2707TIP3    H2 8079   1.366   2.631   0.312
 2708TIP3   OH2 8080   7.875   1.801   0.628
 2708TIP3    H1 8081   7.954   1.836   0.668
 2708TIP3    H2 8082   7.814   1.875   0.627
 2709TIP3   OH2 8083   3.066   4.409   1.549
 2709TIP3    H1 8084   3.022   4.485   1.588
 2709TIP3    H2 8085   2.999   4.370   1.493
 2710TIP3   OH2 8086   4.503   4.096   6.469
 2710TIP3    H1 8087   4.557   4.026   6.432
 2710TIP3    H2 8088   4.453   4.130   6.394
 2711TIP3   OH2 8089   7.724   6.776   2.578
 2711TIP3    H1 8090   7.636   6.740   2.572
 2711TIP3    H2 8091   7.715   6.867   2.549
 2712TIP3   OH2 8092   5.769   1.288   0.298
 2712TIP3    H1 8093   5.769   1.347   0.373
 2712TIP3    H2 8094   5.677   1.277   0.276
 2713TIP3   OH2 8095   3.529   6.230   4.256
 2713TIP3    H1 8096   3.580   6.307   4.282
 2713TIP3    H2 8097   3.441   6.247   4.291
 2714TIP3   OH2 8098   5.035   3.247   2.110
 2714TIP3    H1 8099   5.119   3.294   2.116
 2714TIP3    H2 8100   5.056   3.166   2.064
 2715TIP3   OH2 8101   0.750   6.089   3.094
 2715TIP3    H1 8102   0.752   6.119   3.185
 2715TIP3    H2 8103   0.669   6.039   3.088
 2716TIP3   OH2 8104   4.418   6.123   6.691
 2716TIP3    H1 8105   4.363   6.197   6.718
 2716TIP3    H2 8106   4.433   6.073   6.772
 2717TIP3   OH2 8107   3.808   3.364   5.714
 2717TIP3    H1 8108   3.715   3.348   5.697
 2717TIP3    H2 8109   3.832   3.297   5.779
 2718TIP3   OH2 8110   1.458   6.109   5.865
 2718TIP3    H1 8111   1.528   6.069   5.915
 2718TIP3    H2 8112   1.384   6.049   5.874
 2719TIP3   OH2 8113   3.046   1.073   4.740
 2719TIP3    H1 8114   2.993   1.018   4.681
 2719TIP3    H2 8115   3.064   1.017   4.815
 2720TIP3   OH2 8116   2.041   1.931   4.879
 2720TIP3    H1 8117   2.062   1.867   4.946
 2720TIP3    H2 8118   2.096   2.007   4.900
 2721TIP3   OH2 8119   5.457   7.140   0.509
 2721TIP3    H1 8120   5.444   7.051   0.543
 2721TIP3    H2 8121   5.421   7.137   0.420
 2722TIP3   OH2 8122   0.422   7.176   6.099
 2722TIP3    H1 8123   0.408   7.253   6.154
 2722TIP3    H2 8124   0.333   7.145   6.079
 2723TIP3   OH2 8125   7.860   6.055   4.982
 2723TIP3    H1 8126   7.778   6.040   4.935
 2723TIP3    H2 8127   7.923   6.076   4.913
 2724TIP3   OH2 8128   1.214   2.538   0.059
 2724TIP3    H1 8129   1.277   2.509  -0.006
 2724TIP3    H2 8130   1.129   2.529   0.016
 2725TIP3   OH2 8131   4.027   3.910   6.596
 2725TIP3    H1 8132   3.988   3.824   6.609
 2725TIP3    H2 8133   3.964   3.971   6.634
 2726TIP3   OH2 8134   1.620   2.986   5.988
 2726TIP3    H1 8135   1.605   2.915   5.925
 2726TIP3    H2 8136   1.630   2.942   6.072
 2727TIP3   OH2 8137   6.787   7.461   4.591
 2727TIP3    H1 8138   6.866   7.433   4.637
 2727TIP3    H2 8139   6.771   7.549   4.623
 2728TIP3   OH2 8140   0.033   2.162   6.671
 2728TIP3    H1 8141  -0.038   2.142   6.733
 2728TIP3    H2 8142   0.112   2.163   6.724
 2729TIP3   OH2 8143   6.039   0.978   1.479
 2729TIP3    H1 8144   6.086   0.916   1.535
 2729TIP3    H2 8145   5.980   0.923   1.427
 2730TIP3   OH2 8146   6.724   5.245   1.713
 2730TIP3    H1 8147   6.675   5.162   1.711
 2730TIP3    H2 8148   6.656   5.312   1.708
 2731TIP3   OH2 8149   6.066   0.181   4.658
 2731TIP3    H1 8150   6.052   0.243   4.729
 2731TIP3    H2 8151   6.143   0.213   4.612
 2732TIP3   OH2 8152   6.163   5.417   4.445
 2732TIP3    H1 8153   6.140   5.491   4.389
 2732TIP3    H2 8154   6.109   5.429   4.524
 2733TIP3   OH2 8155   3.057   1.004   6.271
 2733TIP3    H1 8156   3.070   0.969   6.359
 2733TIP3    H2 8157   3.111   0.948   6.215
 2734TIP3   OH2 8158   7.216   4.610   1.366
 2734TIP3    H1 8159   7.232   4.516   1.379
 2734TIP3    H2 8160   7.121   4.616   1.357
 2735TIP3   OH2 8161   6.982   5.202   1.006
 2735TIP3    H1 8162   7.027   5.236   1.083
 2735TIP3    H2 8163   7.045   5.143   0.965
 2736TIP3   OH2 8164   1.995   3.727   3.147
 2736TIP3    H1 8165   1.984   3.655   3.086
 2736TIP3    H2 8166   1.989   3.806   3.093
 2737TIP3   OH2 8167   3.334   2.074   6.553
 2737TIP3    H1 8168   3.313   2.006   6.489
 2737TIP3    H2 8169   3.364   2.026   6.630
 2738TIP3   OH2 8170   7.561   5.978   0.059
 2738TIP3    H1 8171   7.640   6.032   0.060
 2738TIP3    H2 8172   7.586   5.898   0.105
 2739TIP3   OH2 8173   3.260   6.430   3.396
 2739TIP3    H1 8174   3.271   6.363   3.329
 2739TIP3    H2 8175   3.326   6.496   3.377
 2740TIP3   OH2 8176   1.931   5.537   2.813
 2740TIP3    H1 8177   1.910   5.471   2.746
 2740TIP3    H2 8178   1.898   5.500   2.895
 2741TIP3   OH2 8179   6.994   6.192   1.873
 2741TIP3    H1 8180   6.949   6.276   1.877
 2741TIP3    H2 8181   6.969   6.147   1.954
 2742TIP3   OH2 8182   3.923   5.007   3.915
 2742TIP3    H1 8183   3.987   5.050   3.971
 2742TIP3    H2 8184   3.852   4.983   3.974
 2743TIP3   OH2 8185   0.606   1.591   4.673
 2743TIP3    H1 8186   0.653   1.650   4.732
 2743TIP3    H2 8187   0.628   1.623   4.586
 2744TIP3   OH2 8188   3.345   0.869   6.595
 2744TIP3    H1 8189   3.264   0.909   6.563
 2744TIP3    H2 8190   3.317   0.789   6.639
 2745TIP3   OH2 8191   4.861   6.803   2.484
 2745TIP3    H1 8192   4.848   6.872   2.548
 2745TIP3    H2 8193   4.947   6.766   2.505
 2746TIP3   OH2 8194   4.647   2.441   6.676
 2746TIP3    H1 8195   4.593   2.364   6.691
 2746TIP3    H2 8196   4.585   2.512   6.661
 2747TIP3   OH2 8197   5.490   1.274   0.248
 2747TIP3    H1 8198   5.489   1.347   0.186
 2747TIP3    H2 8199   5.399   1.245   0.251
 2748TIP3   OH2 8200   5.265   6.891   3.607
 2748TIP3    H1 8201   5.266   6.843   3.690
 2748TIP3    H2 8202   5.270   6.823   3.540
 2749TIP3   OH2 8203   5.852   0.189   1.680
 2749TIP3    H1 8204   5.798   0.116   1.709
 2749TIP3    H2 8205   5.926   0.149   1.635
 2750TIP3   OH2 8206   1.710   2.665   3.575
 2750TIP3    H1 8207   1.740   2.706   3.655
 2750TIP3    H2 8208   1.687   2.575   3.601
 2751TIP3   OH2 8209   2.813   1.191   2.890
 2751TIP3    H1 8210   2.886   1.168   2.832
 2751TIP3    H2 8211   2.756   1.115   2.887
 2752TIP3   OH2 8212   4.179   3.316   2.470
 2752TIP3    H1 8213   4.134   3.398   2.449
 2752TIP3    H2 8214   4.216   3.331   2.557
 2753TIP3   OH2 8215   4.079   6.494   3.309
 2753TIP3    H1 8216   4.068   6.399   3.316
 2753TIP3    H2 8217   4.167   6.511   3.342
 2754TIP3   OH2 8218   6.901   2.914   4.001
 2754TIP3    H1 8219   6.824   2.946   3.955
 2754TIP3    H2 8220   6.867   2.875   4.082
 2755TIP3   OH2 8221   5.130   2.240   3.064
 2755TIP3    H1 8222   5.176   2.170   3.110
 2755TIP3    H2 8223   5.147   2.319   3.116
 2756TIP3   OH2 8224   6.754   3.811   1.626
 2756TIP3    H1 8225   6.802   3.791   1.546
 2756TIP3    H2 8226   6.688   3.875   1.599
 2757TIP3   OH2 8227   8.042   5.109   1.591
 2757TIP3    H1 8228   8.023   5.035   1.534
 2757TIP3    H2 8229   8.135   5.129   1.575
 2758TIP3   OH2 8230   5.402   5.185   1.647
 2758TIP3    H1 8231   5.368   5.275   1.650
 2758TIP3    H2 8232   5.490   5.192   1.682
 2759TIP3   OH2 8233   2.024   3.079   4.922
 2759TIP3    H1 8234   1.951   3.033   4.964
 2759TIP3    H2 8235   2.000   3.081   4.830
 2760TIP3   OH2 8236   8.051   0.027   5.571
 2760TIP3    H1 8237   8.074   0.096   5.508
 2760TIP3    H2 8238   7.969   0.058   5.610
 2761TIP3   OH2 8239   1.133   3.838   3.758
 2761TIP3    H1 8240   1.054   3.892   3.759
 2761TIP3    H2 8241   1.165   3.840   3.848
 2762TIP3   OH2 8242   7.690   0.921   4.552
 2762TIP3    H1 8243   7.620   0.904   4.489
 2762TIP3    H2 8244   7.736   0.997   4.516
 2763TIP3   OH2 8245   0.124   2.649   6.620
 2763TIP3    H1 8246   0.176   2.633   6.699
 2763TIP3    H2 8247   0.182   2.623   6.548
 2764TIP3   OH2 8248   0.295   0.105   1.617
 2764TIP3    H1 8249   0.246   0.185   1.636
 2764TIP3    H2 8250   0.326   0.076   1.703
 2765TIP3   OH2 8251   6.279   6.692   4.799
 2765TIP3    H1 8252   6.375   6.689   4.802
 2765TIP3    H2 8253   6.257   6.779   4.831
 2766TIP3   OH2 8254   2.828   2.254   6.287
 2766TIP3    H1 8255   2.859   2.222   6.371
 2766TIP3    H2 8256   2.873   2.200   6.222
 2767TIP3   OH2 8257   2.190   2.795   0.543
 2767TIP3    H1 8258   2.278   2.812   0.578
 2767TIP3    H2 8259   2.206   2.742   0.465
 2768TIP3   OH2 8260   5.595   2.429   3.783
 2768TIP3    H1 8261   5.519   2.375   3.763
 2768TIP3    H2 8262   5.626   2.460   3.697
 2769TIP3   OH2 8263   3.239   5.450   3.673
 2769TIP3    H1 8264   3.186   5.446   3.594
 2769TIP3    H2 8265   3.218   5.369   3.720
 2770TIP3   OH2 8266   1.871   2.687   1.781
 2770TIP3    H1 8267   1.835   2.699   1.869
 2770TIP3    H2 8268   1.914   2.770   1.760
 2771TIP3   OH2 8269   5.920   4.022   1.887
 2771TIP3    H1 8270   5.900   3.933   1.858
 2771TIP3    H2 8271   5.997   4.012   1.943
 2772TIP3   OH2 8272   7.299   5.107   2.180
 2772TIP3    H1 8273   7.349   5.111   2.099
 2772TIP3    H2 8274   7.332   5.181   2.232
 2773TIP3   OH2 8275   7.378   1.524   5.549
 2773TIP3    H1 8276   7.321   1.541   5.475
 2773TIP3    H2 8277   7.351   1.587   5.616
 2774TIP3   OH2 8278   0.510   5.460   2.588
 2774TIP3    H1 8279   0.553   5.470   2.504
 2774TIP3    H2 8280   0.580   5.437   2.649
 2775TIP3   OH2 8281   1.441   7.727   1.453
 2775TIP3    H1 8282   1.420   7.806   1.404
 2775TIP3    H2 8283   1.361   7.707   1.501
 2776TIP3   OH2 8284   0.716   0.453   0.787
 2776TIP3    H1 8285   0.631   0.495   0.771
 2776TIP3    H2 8286   0.697   0.384   0.850
 2777TIP3   OH2 8287   4.784   2.908   2.607
 2777TIP3    H1 8288   4.875   2.931   2.628
 2777TIP3    H2 8289   4.791   2.826   2.558
 2778TIP3   OH2 8290   5.692   7.371   6.448
 2778TIP3    H1 8291   5.763   7.319   6.410
 2778TIP3    H2 8292   5.658   7.422   6.374
 2779TIP3   OH2 8293   7.998   0.209   1.300
 2779TIP3    H1 8294   8.060   0.282   1.294
 2779TIP3    H2 8295   8.043   0.143   1.353
 2780TIP3   OH2 8296   3.824   1.394   3.949
 2780TIP3    H1 8297   3.815   1.305   3.984
 2780TIP3    H2 8298   3.837   1.382   3.855
 2781TIP3   OH2 8299   2.398   0.790   5.274
 2781TIP3    H1 8300   2.403   0.694   5.269
 2781TIP3    H2 8301   2.326   0.807   5.335
 2782TIP3   OH2 8302   4.840   0.500   4.177
 2782TIP3    H1 8303   4.902   0.428   4.187
 2782TIP3    H2 8304   4.754   0.458   4.176
 2783TIP3   OH2 8305   2.727   2.594   5.107
 2783TIP3    H1 8306   2.660   2.663   5.097
 2783TIP3    H2 8307   2.806   2.641   5.133
 2784TIP3   OH2 8308   7.187   5.256   3.913
 2784TIP3    H1 8309   7.205   5.191   3.981
 2784TIP3    H2 8310   7.183   5.339   3.959
 2785TIP3   OH2 8311   4.829   7.774   6.197
 2785TIP3    H1 8312   4.797   7.858   6.229
 2785TIP3    H2 8313   4.895   7.747   6.260
 2786TIP3   OH2 8314   4.984   5.710   4.774
 2786TIP3    H1 8315   4.958   5.645   4.839
 2786TIP3    H2 8316   5.007   5.660   4.696
 2787TIP3   OH2 8317   4.708   3.736   4.711
 2787TIP3    H1 8318   4.794   3.702   4.735
 2787TIP3    H2 8319   4.727   3.821   4.669
 2788TIP3   OH2 8320   4.693   6.319   2.670
 2788TIP3    H1 8321   4.725   6.276   2.749
 2788TIP3    H2 8322   4.602   6.342   2.691
 2789TIP3   OH2 8323   2.304   2.974   1.815
 2789TIP3    H1 8324   2.399   2.986   1.826
 2789TIP3    H2 8325   2.267   2.995   1.901
 2790TIP3   OH2 8326   5.257   6.141   0.224
 2790TIP3    H1 8327   5.279   6.173   0.311
 2790TIP3    H2 8328   5.337   6.101   0.191
 2791TIP3   OH2 8329   6.961   4.550   2.112
 2791TIP3    H1 8330   6.949   4.523   2.203
 2791TIP3    H2 8331   6.875   4.582   2.086
 2792TIP3   OH2 8332   2.994   1.699   3.536
 2792TIP3    H1 8333   3.022   1.776   3.585
 2792TIP3    H2 8334   2.956   1.642   3.602
 2793TIP3   OH2 8335   4.409   4.595   3.006
 2793TIP3    H1 8336   4.412   4.533   2.934
 2793TIP3    H2 8337   4.334   4.566   3.059
 2794TIP3   OH2 8338   0.850   2.768   1.868
 2794TIP3    H1 8339   0.809   2.835   1.922
 2794TIP3    H2 8340   0.838   2.687   1.916
 2795TIP3   OH2 8341   5.139   1.489   0.304
 2795TIP3    H1 8342   5.218   1.521   0.347
 2795TIP3    H2 8343   5.159   1.398   0.282
 2796TIP3   OH2 8344   5.045   2.121   6.097
 2796TIP3    H1 8345   5.081   2.207   6.076
 2796TIP3    H2 8346   5.080   2.101   6.184
 2797TIP3   OH2 8347   6.481   1.517   5.448
 2797TIP3    H1 8348   6.530   1.583   5.498
 2797TIP3    H2 8349   6.547   1.455   5.419
 2798TIP3   OH2 8350   7.729   6.254   1.005
 2798TIP3    H1 8351   7.647   6.257   1.055
 2798TIP3    H2 8352   7.733   6.340   0.962
 2799TIP3   OH2 8353   2.558   6.264   0.210
 2799TIP3    H1 8354   2.639   6.241   0.256
 2799TIP3    H2 8355   2.584   6.333   0.149
 2800TIP3   OH2 8356   2.290   3.493   6.454
 2800TIP3    H1 8357   2.239   3.463   6.379
 2800TIP3    H2 8358   2.297   3.588   6.443
 2801TIP3   OH2 8359   1.106   6.944   2.012
 2801TIP3    H1 8360   1.064   7.004   1.951
 2801TIP3    H2 8361   1.160   6.888   1.957
 2802TIP3   OH2 8362   6.467   1.351   1.656
 2802TIP3    H1 8363   6.488   1.417   1.723
 2802TIP3    H2 8364   6.410   1.289   1.701
 2803TIP3   OH2 8365   2.257   2.711   4.735
 2803TIP3    H1 8366   2.314   2.780   4.768
 2803TIP3    H2 8367   2.316   2.639   4.713
 2804TIP3   OH2 8368   6.472   4.714   1.990
 2804TIP3    H1 8369   6.407   4.722   2.060
 2804TIP3    H2 8370   6.432   4.759   1.916
 2805TIP3   OH2 8371   1.465   3.458   2.801
 2805TIP3    H1 8372   1.549   3.436   2.842
 2805TIP3    H2 8373   1.400   3.409   2.851
 2806TIP3   OH2 8374   8.318   0.324   0.806
 2806TIP3    H1 8375   8.348   0.366   0.887
 2806TIP3    H2 8376   8.228   0.353   0.795
 2807TIP3   OH2 8377   3.180   7.656   0.226
 2807TIP3    H1 8378   3.150   7.736   0.269
 2807TIP3    H2 8379   3.247   7.686   0.164
 2808TIP3   OH2 8380   1.790   6.574   2.771
 2808TIP3    H1 8381   1.858   6.580   2.838
 2808TIP3    H2 8382   1.749   6.489   2.785
 2809TIP3   OH2 8383   3.689   0.719   5.205
 2809TIP3    H1 8384   3.765   0.661   5.202
 2809TIP3    H2 8385   3.615   0.661   5.223
 2810TIP3   OH2 8386   5.603   7.574   5.762
 2810TIP3    H1 8387   5.662   7.648   5.748
 2810TIP3    H2 8388   5.517   7.614   5.774
 2811TIP3   OH2 8389   7.037   3.236   0.544
 2811TIP3    H1 8390   6.944   3.240   0.569
 2811TIP3    H2 8391   7.083   3.241   0.628
 2812TIP3   OH2 8392   2.010   5.625   5.041
 2812TIP3    H1 8393   1.917   5.644   5.043
 2812TIP3    H2 8394   2.052   5.711   5.039
 2813TIP3   OH2 8395   1.540   6.853   3.433
 2813TIP3    H1 8396   1.505   6.899   3.357
 2813TIP3    H2 8397   1.463   6.817   3.477
 2814TIP3   OH2 8398   8.251   2.874   6.543
 2814TIP3    H1 8399   8.308   2.826   6.602
 2814TIP3    H2 8400   8.204   2.936   6.599
 2815TIP3   OH2 8401   3.663   6.717   5.693
 2815TIP3    H1 8402   3.698   6.806   5.698
 2815TIP3    H2 8403   3.638   6.695   5.783
 2816TIP3   OH2 8404   0.948   3.389   4.236
 2816TIP3    H1 8405   0.882   3.453   4.207
 2816TIP3    H2 8406   0.909   3.304   4.217
 2817TIP3   OH2 8407   2.176   1.275   3.272
 2817TIP3    H1 8408   2.193   1.304   3.183
 2817TIP3    H2 8409   2.099   1.325   3.300
 2818TIP3   OH2 8410   7.157   3.569   4.387
 2818TIP3    H1 8411   7.141   3.625   4.311
 2818TIP3    H2 8412   7.226   3.509   4.358
 2819TIP3   OH2 8413   8.132   3.843   4.980
 2819TIP3    H1 8414   8.153   3.879   4.894
 2819TIP3    H2 8415   8.172   3.756   4.980
 2820TIP3   OH2 8416   3.080   7.663   5.358
 2820TIP3    H1 8417   3.038   7.613   5.288
 2820TIP3    H2 8418   3.108   7.744   5.316
 2821TIP3   OH2 8419   2.905   4.027   0.674
 2821TIP3    H1 8420   2.818   3.989   0.659
 2821TIP3    H2 8421   2.922   4.013   0.767
 2822TIP3   OH2 8422   3.268   6.194   3.233
 2822TIP3    H1 8423   3.227   6.167   3.151
 2822TIP3    H2 8424   3.263   6.117   3.289
 2823TIP3   OH2 8425   6.856   7.805   0.220
 2823TIP3    H1 8426   6.940   7.850   0.234
 2823TIP3    H2 8427   6.843   7.809   0.125
 2824TIP3   OH2 8428   4.087   7.707   1.696
 2824TIP3    H1 8429   4.183   7.707   1.701
 2824TIP3    H2 8430   4.058   7.704   1.787
 2825TIP3   OH2 8431   7.004   3.841   4.354
 2825TIP3    H1 8432   7.071   3.895   4.313
 2825TIP3    H2 8433   6.983   3.774   4.289
 2826TIP3   OH2 8434   3.637   4.807   6.350
 2826TIP3    H1 8435   3.578   4.773   6.417
 2826TIP3    H2 8436   3.713   4.838   6.398
 2827TIP3   OH2 8437   7.557   5.403   3.852
 2827TIP3    H1 8438   7.550   5.342   3.778
 2827TIP3    H2 8439   7.482   5.461   3.843
 2828TIP3   OH2 8440   3.656   2.550   5.740
 2828TIP3    H1 8441   3.693   2.475   5.786
 2828TIP3    H2 8442   3.587   2.513   5.685
 2829TIP3   OH2 8443   0.878   6.375   0.225
 2829TIP3    H1 8444   0.923   6.381   0.141
 2829TIP3    H2 8445   0.834   6.290   0.223
 2830TIP3   OH2 8446   2.763   7.667   5.441
 2830TIP3    H1 8447   2.850   7.661   5.399
 2830TIP3    H2 8448   2.722   7.583   5.422
 2831TIP3   OH2 8449   0.480   6.603   3.222
 2831TIP3    H1 8450   0.417   6.596   3.150
 2831TIP3    H2 8451   0.430   6.637   3.296
 2832TIP3   OH2 8452   4.045   6.744   5.109
 2832TIP3    H1 8453   3.981   6.797   5.158
 2832TIP3    H2 8454   4.010   6.740   5.020
 2833TIP3   OH2 8455   3.782   6.648   3.094
 2833TIP3    H1 8456   3.700   6.696   3.088
 2833TIP3    H2 8457   3.763   6.563   3.055
 2834TIP3   OH2 8458   1.135   0.433   6.138
 2834TIP3    H1 8459   1.118   0.394   6.052
 2834TIP3    H2 8460   1.147   0.526   6.120
 2835TIP3   OH2 8461   3.670   7.454   6.243
 2835TIP3    H1 8462   3.722   7.409   6.309
 2835TIP3    H2 8463   3.622   7.521   6.291
 2836TIP3   OH2 8464   8.119   7.247   3.305
 2836TIP3    H1 8465   8.150   7.244   3.395
 2836TIP3    H2 8466   8.057   7.320   3.303
 2837TIP3   OH2 8467   7.618   5.698   4.647
 2837TIP3    H1 8468   7.662   5.701   4.732
 2837TIP3    H2 8469   7.568   5.779   4.642
 2838TIP3   OH2 8470   4.416   3.632   3.478
 2838TIP3    H1 8471   4.429   3.726   3.462
 2838TIP3    H2 8472   4.327   3.614   3.448
 2839TIP3   OH2 8473   6.836   3.902   6.235
 2839TIP3    H1 8474   6.753   3.929   6.194
 2839TIP3    H2 8475   6.851   3.814   6.202
 2840TIP3   OH2 8476   3.587   1.139   5.788
 2840TIP3    H1 8477   3.539   1.167   5.866
 2840TIP3    H2 8478   3.658   1.203   5.780
 2841TIP3   OH2 8479   4.220   0.084   4.274
 2841TIP3    H1 8480   4.137   0.077   4.226
 2841TIP3    H2 8481   4.197   0.135   4.352
 2842TIP3   OH2 8482   3.054   4.580   2.477
 2842TIP3    H1 8483   3.014   4.667   2.477
 2842TIP3    H2 8484   3.066   4.558   2.385
 2843TIP3   OH2 8485   0.240   7.374   5.829
 2843TIP3    H1 8486   0.192   7.344   5.907
 2843TIP3    H2 8487   0.254   7.468   5.844
 2844TIP3   OH2 8488   2.717   0.494   4.169
 2844TIP3    H1 8489   2.751   0.540   4.092
 2844TIP3    H2 8490   2.759   0.538   4.243
 2845TIP3   OH2 8491   7.366   2.464   5.779
 2845TIP3    H1 8492   7.309   2.443   5.705
 2845TIP3    H2 8493   7.357   2.559   5.791
 2846TIP3   OH2 8494   4.168   6.269   4.727
 2846TIP3    H1 8495   4.105   6.208   4.688
 2846TIP3    H2 8496   4.116   6.323   4.785
 2847TIP3   OH2 8497   2.278   0.360   0.357
 2847TIP3    H1 8498   2.225   0.347   0.278
 2847TIP3    H2 8499   2.335   0.434   0.336
 2848TIP3   OH2 8500   5.995   6.914   5.058
 2848TIP3    H1 8501   6.072   6.866   5.089
 2848TIP3    H2 8502   5.995   6.996   5.108
 2849TIP3   OH2 8503   7.507   1.064   5.748
 2849TIP3    H1 8504   7.482   0.992   5.689
 2849TIP3    H2 8505   7.440   1.131   5.734
 2850TIP3   OH2 8506   3.535   5.708   4.421
 2850TIP3    H1 8507   3.599   5.657   4.470
 2850TIP3    H2 8508   3.497   5.646   4.359
 2851TIP3   OH2 8509   4.105   1.155   5.172
 2851TIP3    H1 8510   4.011   1.154   5.152
 2851TIP3    H2 8511   4.147   1.119   5.094
 2852TIP3   OH2 8512   8.241   4.328   3.730
 2852TIP3    H1 8513   8.306   4.268   3.768
 2852TIP3    H2 8514   8.193   4.362   3.805
 2853TIP3   OH2 8515   3.950   6.248   1.847
 2853TIP3    H1 8516   3.886   6.279   1.912
 2853TIP3    H2 8517   3.899   6.236   1.767
 2854TIP3   OH2 8518   0.312   3.364   2.389
 2854TIP3    H1 8519   0.265   3.352   2.307
 2854TIP3    H2 8520   0.388   3.418   2.365
 2855TIP3   OH2 8521   7.040   0.109   1.514
 2855TIP3    H1 8522   7.006   0.189   1.474
 2855TIP3    H2 8523   7.120   0.090   1.464
 2856TIP3   OH2 8524   4.452   0.716   3.430
 2856TIP3    H1 8525   4.377   0.760   3.389
 2856TIP3    H2 8526   4.528   0.749   3.382
 2857TIP3   OH2 8527   5.803   4.213   2.061
 2857TIP3    H1 8528   5.812   4.144   1.995
 2857TIP3    H2 8529   5.752   4.281   2.018
 2858TIP3   OH2 8530   6.701   0.803   3.652
 2858TIP3    H1 8531   6.784   0.835   3.617
 2858TIP3    H2 8532   6.707   0.818   3.747
 2859TIP3   OH2 8533   5.258   4.346   0.254
 2859TIP3    H1 8534   5.174   4.383   0.228
 2859TIP3    H2 8535   5.322   4.390   0.199
 2860TIP3   OH2 8536   2.827   4.959   1.810
 2860TIP3    H1 8537   2.857   4.970   1.720
 2860TIP3    H2 8538   2.858   5.038   1.855
 2861TIP3   OH2 8539   1.377   3.749   6.254
 2861TIP3    H1 8540   1.454   3.722   6.305
 2861TIP3    H2 8541   1.361   3.839   6.281
 2862TIP3   OH2 8542   4.510   1.869   4.981
 2862TIP3    H1 8543   4.594   1.875   4.934
 2862TIP3    H2 8544   4.465   1.950   4.959
 2863TIP3   OH2 8545   2.457   4.326   1.195
 2863TIP3    H1 8546   2.391   4.343   1.129
 2863TIP3    H2 8547   2.481   4.413   1.228
 2864TIP3   OH2 8548   8.120   4.682   5.660
 2864TIP3    H1 8549   8.107   4.607   5.602
 2864TIP3    H2 8550   8.033   4.701   5.695
 2865TIP3   OH2 8551   0.729   6.181   0.891
 2865TIP3    H1 8552   0.789   6.109   0.908
 2865TIP3    H2 8553   0.749   6.209   0.802
 2866TIP3   OH2 8554   5.533   2.038   4.840
 2866TIP3    H1 8555   5.547   2.115   4.786
 2866TIP3    H2 8556   5.580   1.967   4.796
 2867TIP3   OH2 8557   4.599   3.760   5.353
 2867TIP3    H1 8558   4.579   3.816   5.278
 2867TIP3    H2 8559   4.518   3.757   5.403
 2868TIP3   OH2 8560   0.287   5.737   3.490
 2868TIP3    H1 8561   0.219   5.675   3.514
 2868TIP3    H2 8562   0.365   5.683   3.478
 2869TIP3   OH2 8563   1.197   4.695   6.020
 2869TIP3    H1 8564   1.213   4.663   5.931
 2869TIP3    H2 8565   1.167   4.618   6.069
 2870TIP3   OH2 8566   3.338   1.924   4.877
 2870TIP3    H1 8567   3.344   1.931   4.781
 2870TIP3    H2 8568   3.359   2.012   4.908
 2871TIP3   OH2 8569   5.386   3.058   5.103
 2871TIP3    H1 8570   5.387   3.003   5.024
 2871TIP3    H2 8571   5.351   3.142   5.072
 2872TIP3   OH2 8572   4.428   2.700   4.855
 2872TIP3    H1 8573   4.379   2.754   4.792
 2872TIP3    H2 8574   4.464   2.764   4.917
 2873TIP3   OH2 8575   4.861   1.765   1.527
 2873TIP3    H1 8576   4.858   1.715   1.608
 2873TIP3    H2 8577   4.934   1.825   1.538
 2874TIP3   OH2 8578   0.566   6.405   2.169
 2874TIP3    H1 8579   0.589   6.410   2.262
 2874TIP3    H2 8580   0.481   6.448   2.163
 2875TIP3   OH2 8581   4.965   2.186   5.107
 2875TIP3    H1 8582   4.992   2.213   5.019
 2875TIP3    H2 8583   5.044   2.148   5.145
 2876TIP3   OH2 8584   7.411   1.997   2.251
 2876TIP3    H1 8585   7.391   1.979   2.343
 2876TIP3    H2 8586   7.454   2.082   2.252
 2877TIP3   OH2 8587   8.214   2.666   5.628
 2877TIP3    H1 8588   8.178   2.587   5.586
 2877TIP3    H2 8589   8.303   2.673   5.593
 2878TIP3   OH2 8590   5.317   1.257   6.733
 2878TIP3    H1 8591   5.351   1.278   6.820
 2878TIP3    H2 8592   5.231   1.299   6.730
 2879TIP3   OH2 8593   5.939   5.065   2.766
 2879TIP3    H1 8594   5.855   5.111   2.771
 2879TIP3    H2 8595   5.962   5.046   2.857
 2880TIP3   OH2 8596   5.283   7.470   4.667
 2880TIP3    H1 8597   5.345   7.477   4.740
 2880TIP3    H2 8598   5.287   7.555   4.624
 2881TIP3   OH2 8599   7.479   7.576   5.108
 2881TIP3    H1 8600   7.434   7.507   5.157
 2881TIP3    H2 8601   7.542   7.611   5.171
 2882TIP3   OH2 8602   1.331   4.266   3.033
 2882TIP3    H1 8603   1.273   4.343   3.037
 2882TIP3    H2 8604   1.358   4.252   3.123
 2883TIP3   OH2 8605   4.762   5.469   4.454
 2883TIP3    H1 8606   4.679   5.445   4.413
 2883TIP3    H2 8607   4.828   5.452   4.387
 2884TIP3   OH2 8608   0.703   1.915   4.629
 2884TIP3    H1 8609   0.792   1.951   4.632
 2884TIP3    H2 8610   0.667   1.947   4.546
 2885TIP3   OH2 8611   6.924   6.258   3.450
 2885TIP3    H1 8612   6.908   6.352   3.448
 2885TIP3    H2 8613   6.990   6.244   3.382
 2886TIP3   OH2 8614   3.801   0.926   6.689
 2886TIP3    H1 8615   3.830   0.991   6.753
 2886TIP3    H2 8616   3.740   0.973   6.633
 2887TIP3   OH2 8617   0.158   2.054   1.555
 2887TIP3    H1 8618   0.158   2.105   1.636
 2887TIP3    H2 8619   0.233   2.087   1.506
 2888TIP3   OH2 8620   5.403   2.662   4.622
 2888TIP3    H1 8621   5.338   2.696   4.561
 2888TIP3    H2 8622   5.456   2.601   4.571
 2889TIP3   OH2 8623   5.395   5.417   2.106
 2889TIP3    H1 8624   5.466   5.386   2.051
 2889TIP3    H2 8625   5.414   5.382   2.193
 2890TIP3   OH2 8626   5.648   6.607   5.303
 2890TIP3    H1 8627   5.558   6.605   5.270
 2890TIP3    H2 8628   5.700   6.565   5.234
 2891TIP3   OH2 8629   4.387   2.473   0.474
 2891TIP3    H1 8630   4.415   2.563   0.490
 2891TIP3    H2 8631   4.408   2.426   0.555
 2892TIP3   OH2 8632   3.944   7.210   5.994
 2892TIP3    H1 8633   4.024   7.197   6.044
 2892TIP3    H2 8634   3.938   7.305   5.982
 2893TIP3   OH2 8635   6.130   1.668   1.127
 2893TIP3    H1 8636   6.137   1.717   1.044
 2893TIP3    H2 8637   6.197   1.707   1.183
 2894TIP3   OH2 8638   6.381   4.943   6.011
 2894TIP3    H1 8639   6.337   4.986   5.938
 2894TIP3    H2 8640   6.330   4.863   6.026
 2895TIP3   OH2 8641   5.142   5.636   1.519
 2895TIP3    H1 8642   5.123   5.545   1.543
 2895TIP3    H2 8643   5.149   5.682   1.602
 2896TIP3   OH2 8644   4.324   3.691   2.374
 2896TIP3    H1 8645   4.346   3.784   2.382
 2896TIP3    H2 8646   4.394   3.646   2.421
 2897TIP3   OH2 8647   2.901   7.201   6.352
 2897TIP3    H1 8648   2.848   7.144   6.296
 2897TIP3    H2 8649   2.990   7.187   6.321
 2898TIP3   OH2 8650   7.013   4.173   3.940
 2898TIP3    H1 8651   7.090   4.122   3.915
 2898TIP3    H2 8652   6.996   4.229   3.864
 2899TIP3   OH2 8653   2.897   1.846   6.242
 2899TIP3    H1 8654   2.809   1.859   6.277
 2899TIP3    H2 8655   2.890   1.770   6.185
 2900TIP3   OH2 8656   4.553   6.671   0.174
 2900TIP3    H1 8657   4.572   6.763   0.194
 2900TIP3    H2 8658   4.638   6.634   0.149
 2901TIP3   OH2 8659   3.633   7.125   0.586
 2901TIP3    H1 8660   3.579   7.161   0.656
 2901TIP3    H2 8661   3.679   7.202   0.551
 2902TIP3   OH2 8662   8.087   1.855   2.203
 2902TIP3    H1 8663   8.146   1.851   2.279
 2902TIP3    H2 8664   8.144   1.874   2.129
 2903TIP3   OH2 8665   7.014   5.559   6.521
 2903TIP3    H1 8666   6.966   5.626   6.568
 2903TIP3    H2 8667   6.971   5.553   6.435
 2904TIP3   OH2 8668   7.561   4.776   3.262
 2904TIP3    H1 8669   7.543   4.867   3.289
 2904TIP3    H2 8670   7.653   4.762   3.286
 2905TIP3   OH2 8671   1.392   4.894   5.758
 2905TIP3    H1 8672   1.471   4.913   5.708
 2905TIP3    H2 8673   1.325   4.876   5.692
 2906TIP3   OH2 8674   2.800   0.689   3.650
 2906TIP3    H1 8675   2.796   0.728   3.562
 2906TIP3    H2 8676   2.866   0.620   3.642
 2907TIP3   OH2 8677   1.925   3.198   4.442
 2907TIP3    H1 8678   1.905   3.288   4.416
 2907TIP3    H2 8679   1.867   3.145   4.387
 2908TIP3   OH2 8680   4.785   2.697   1.658
 2908TIP3    H1 8681   4.748   2.612   1.680
 2908TIP3    H2 8682   4.873   2.696   1.695
 2909TIP3   OH2 8683   5.738   2.785   1.433
 2909TIP3    H1 8684   5.745   2.855   1.368
 2909TIP3    H2 8685   5.761   2.827   1.516
 2910TIP3   OH2 8686   4.320   0.161   2.951
 2910TIP3    H1 8687   4.319   0.211   2.869
 2910TIP3    H2 8688   4.411   0.130   2.958
 2911TIP3   OH2 8689   4.666   1.874   1.359
 2911TIP3    H1 8690   4.709   1.906   1.280
 2911TIP3    H2 8691   4.737   1.860   1.421
 2912TIP3   OH2 8692   4.691   7.046   5.442
 2912TIP3    H1 8693   4.662   6.990   5.370
 2912TIP3    H2 8694   4.625   7.116   5.445
 2913TIP3   OH2 8695   7.520   0.265   5.561
 2913TIP3    H1 8696   7.606   0.306   5.571
 2913TIP3    H2 8697   7.540   0.176   5.532
 2914TIP3   OH2 8698   0.050   3.710   1.201
 2914TIP3    H1 8699   0.070   3.620   1.227
 2914TIP3    H2 8700   0.090   3.764   1.269
 2915TIP3   OH2 8701   7.623   2.343   0.616
 2915TIP3    H1 8702   7.639   2.367   0.524
 2915TIP3    H2 8703   7.705   2.362   0.661
 2916TIP3   OH2 8704   7.198   3.406   2.437
 2916TIP3    H1 8705   7.243   3.409   2.521
 2916TIP3    H2 8706   7.204   3.315   2.409
 2917TIP3   OH2 8707   0.086   1.810   3.549
 2917TIP3    H1 8708   0.021   1.746   3.519
 2917TIP3    H2 8709   0.074   1.886   3.491
 2918TIP3   OH2 8710   8.239   3.951   4.438
 2918TIP3    H1 8711   8.178   4.021   4.415
 2918TIP3    H2 8712   8.214   3.926   4.527
 2919TIP3   OH2 8713   4.049   1.842   4.247
 2919TIP3    H1 8714   4.129   1.801   4.278
 2919TIP3    H2 8715   4.026   1.792   4.168
 2920TIP3   OH2 8716   4.818   6.010   5.718
 2920TIP3    H1 8717   4.831   5.962   5.636
 2920TIP3    H2 8718   4.849   6.098   5.700
 2921TIP3   OH2 8719   5.018   0.029   5.187
 2921TIP3    H1 8720   4.990   0.074   5.267
 2921TIP3    H2 8721   4.978   0.079   5.116
 2922TIP3   OH2 8722   1.954   2.975   1.749
 2922TIP3    H1 8723   1.971   3.062   1.715
 2922TIP3    H2 8724   1.967   2.982   1.843
 2923TIP3   OH2 8725   4.719   4.444   2.109
 2923TIP3    H1 8726   4.733   4.442   2.014
 2923TIP3    H2 8727   4.771   4.370   2.142
 2924TIP3   OH2 8728   4.793   1.752   4.910
 2924TIP3    H1 8729   4.761   1.787   4.827
 2924TIP3    H2 8730   4.810   1.830   4.964
 2925TIP3   OH2 8731   1.810   4.015   1.305
 2925TIP3    H1 8732   1.803   3.919   1.300
 2925TIP3    H2 8733   1.891   4.035   1.258
 2926TIP3   OH2 8734   4.519   0.738   3.905
 2926TIP3    H1 8735   4.441   0.726   3.851
 2926TIP3    H2 8736   4.496   0.810   3.965
 2927TIP3   OH2 8737   2.401   0.598   0.329
 2927TIP3    H1 8738   2.330   0.635   0.276
 2927TIP3    H2 8739   2.369   0.602   0.419
 2928TIP3   OH2 8740   1.398   0.643   3.500
 2928TIP3    H1 8741   1.326   0.706   3.498
 2928TIP3    H2 8742   1.356   0.559   3.520
 2929TIP3   OH2 8743   2.623   6.675   3.954
 2929TIP3    H1 8744   2.714   6.697   3.975
 2929TIP3    H2 8745   2.584   6.654   4.039
 2930TIP3   OH2 8746   6.647   7.720   5.672
 2930TIP3    H1 8747   6.712   7.650   5.676
 2930TIP3    H2 8748   6.615   7.728   5.761
 2931TIP3   OH2 8749   1.817   1.146   0.918
 2931TIP3    H1 8750   1.866   1.224   0.892
 2931TIP3    H2 8751   1.885   1.083   0.944
 2932TIP3   OH2 8752   1.758   7.258   0.872
 2932TIP3    H1 8753   1.773   7.294   0.959
 2932TIP3    H2 8754   1.780   7.165   0.881
 2933TIP3   OH2 8755   6.419   1.351   1.941
 2933TIP3    H1 8756   6.390   1.442   1.935
 2933TIP3    H2 8757   6.467   1.346   2.023
 2934TIP3   OH2 8758   4.315   1.761   4.118
 2934TIP3    H1 8759   4.364   1.680   4.111
 2934TIP3    H2 8760   4.236   1.746   4.064
 2935TIP3   OH2 8761   7.900   7.291   2.599
 2935TIP3    H1 8762   7.870   7.345   2.672
 2935TIP3    H2 8763   7.906   7.203   2.636
 2936TIP3   OH2 8764   0.544   4.012   3.646
 2936TIP3    H1 8765   0.634   4.033   3.622
 2936TIP3    H2 8766   0.500   4.097   3.648
 2937TIP3   OH2 8767   8.015   1.954   6.576
 2937TIP3    H1 8768   8.013   2.043   6.611
 2937TIP3    H2 8769   8.108   1.934   6.567
 2938TIP3   OH2 8770   5.197   5.164   1.450
 2938TIP3    H1 8771   5.221   5.243   1.402
 2938TIP3    H2 8772   5.280   5.118   1.463
 2939TIP3   OH2 8773   0.697   2.309   4.800
 2939TIP3    H1 8774   0.726   2.236   4.854
 2939TIP3    H2 8775   0.602   2.303   4.800
 2940TIP3   OH2 8776   5.125   7.297   4.518
 2940TIP3    H1 8777   5.151   7.277   4.428
 2940TIP3    H2 8778   5.205   7.334   4.557
 2941TIP3   OH2 8779   8.150   0.216   5.401
 2941TIP3    H1 8780   8.113   0.222   5.313
 2941TIP3    H2 8781   8.240   0.244   5.392
 2942TIP3   OH2 8782   2.272   3.510   1.814
 2942TIP3    H1 8783   2.344   3.534   1.755
 2942TIP3    H2 8784   2.316   3.475   1.892
 2943TIP3   OH2 8785   2.360   6.816   4.783
 2943TIP3    H1 8786   2.363   6.739   4.839
 2943TIP3    H2 8787   2.421   6.877   4.824
 2944TIP3   OH2 8788   7.200   7.661   1.692
 2944TIP3    H1 8789   7.237   7.638   1.777
 2944TIP3    H2 8790   7.201   7.757   1.690
 2945TIP3   OH2 8791   8.267   7.234   2.053
 2945TIP3    H1 8792   8.242   7.246   1.961
 2945TIP3    H2 8793   8.184   7.230   2.100
 2946TIP3   OH2 8794   7.570   5.589   6.506
 2946TIP3    H1 8795   7.664   5.587   6.526
 2946TIP3    H2 8796   7.565   5.569   6.413
 2947TIP3   OH2 8797   7.118   2.001   1.242
 2947TIP3    H1 8798   7.081   1.916   1.217
 2947TIP3    H2 8799   7.084   2.018   1.330
 2948TIP3   OH2 8800   7.616   5.991   4.891
 2948TIP3    H1 8801   7.601   5.955   4.803
 2948TIP3    H2 8802   7.545   6.053   4.904
 2949TIP3   OH2 8803   8.099   2.299   3.150
 2949TIP3    H1 8804   8.052   2.342   3.222
 2949TIP3    H2 8805   8.165   2.364   3.122
 2950TIP3   OH2 8806   2.383   3.621   3.527
 2950TIP3    H1 8807   2.394   3.694   3.466
 2950TIP3    H2 8808   2.292   3.593   3.514
 2951TIP3   OH2 8809   1.915   1.481   5.389
 2951TIP3    H1 8810   1.837   1.537   5.387
 2951TIP3    H2 8811   1.899   1.415   5.322
 2952TIP3   OH2 8812   2.153   0.262   4.459
 2952TIP3    H1 8813   2.064   0.232   4.478
 2952TIP3    H2 8814   2.198   0.259   4.543
 2953TIP3   OH2 8815   4.824   4.039   4.292
 2953TIP3    H1 8816   4.821   4.126   4.253
 2953TIP3    H2 8817   4.867   3.984   4.226
 2954TIP3   OH2 8818   7.872   3.612   0.899
 2954TIP3    H1 8819   7.906   3.583   0.983
 2954TIP3    H2 8820   7.819   3.689   0.920
 2955TIP3   OH2 8821   0.723   1.035  -0.003
 2955TIP3    H1 8822   0.778   1.028   0.075
 2955TIP3    H2 8823   0.666   0.957   0.001
 2956TIP3   OH2 8824   5.801   3.311   1.429
 2956TIP3    H1 8825   5.711   3.288   1.453
 2956TIP3    H2 8826   5.853   3.281   1.503
 2957TIP3   OH2 8827   0.134   7.335   0.812
 2957TIP3    H1 8828   0.086   7.418   0.812
 2957TIP3    H2 8829   0.067   7.269   0.831
 2958TIP3   OH2 8830   2.306   6.226   5.421
 2958TIP3    H1 8831   2.213   6.213   5.435
 2958TIP3    H2 8832   2.331   6.158   5.359
 2959TIP3   OH2 8833   2.310   1.546   3.448
 2959TIP3    H1 8834   2.254   1.580   3.378
 2959TIP3    H2 8835   2.248   1.517   3.515
 2960TIP3   OH2 8836   3.536   6.797   1.607
 2960TIP3    H1 8837   3.461   6.738   1.600
 2960TIP3    H2 8838   3.515   6.855   1.680
 2961TIP3   OH2 8839   4.523   0.919   6.585
 2961TIP3    H1 8840   4.433   0.891   6.596
 2961TIP3    H2 8841   4.553   0.939   6.674
 2962TIP3   OH2 8842   3.940   1.647   3.022
 2962TIP3    H1 8843   3.862   1.596   3.044
 2962TIP3    H2 8844   3.911   1.707   2.953
 2963TIP3   OH2 8845   2.450   6.171   2.818
 2963TIP3    H1 8846   2.434   6.214   2.734
 2963TIP3    H2 8847   2.536   6.203   2.845
 2964TIP3   OH2 8848   4.101   4.029   0.092
 2964TIP3    H1 8849   4.061   4.018   0.178
 2964TIP3    H2 8850   4.194   4.040   0.109
 2965TIP3   OH2 8851   1.066   4.448   6.039
 2965TIP3    H1 8852   1.147   4.408   6.009
 2965TIP3    H2 8853   1.004   4.375   6.045
 2966TIP3   OH2 8854   0.208   4.636   0.327
 2966TIP3    H1 8855   0.296   4.661   0.298
 2966TIP3    H2 8856   0.188   4.699   0.397
 2967TIP3   OH2 8857   2.826   0.524   4.452
 2967TIP3    H1 8858   2.847   0.481   4.535
 2967TIP3    H2 8859   2.910   0.557   4.421
 2968TIP3   OH2 8860   2.374   0.013   0.147
 2968TIP3    H1 8861   2.399   0.025   0.239
 2968TIP3    H2 8862   2.455   0.029   0.098
 2969TIP3   OH2 8863   2.725   3.756   4.206
 2969TIP3    H1 8864   2.808   3.745   4.160
 2969TIP3    H2 8865   2.739   3.832   4.264
 2970TIP3   OH2 8866   0.469   4.799   4.258
 2970TIP3    H1 8867   0.379   4.823   4.237
 2970TIP3    H2 8868   0.481   4.713   4.219
 2971TIP3   OH2 8869   3.291   0.178   5.053
 2971TIP3    H1 8870   3.231   0.242   5.091
 2971TIP3    H2 8871   3.324   0.128   5.128
 2972TIP3   OH2 8872   7.163   7.655   0.291
 2972TIP3    H1 8873   7.160   7.663   0.195
 2972TIP3    H2 8874   7.132   7.740   0.323
 2973TIP3   OH2 8875   5.391   3.633   2.645
 2973TIP3    H1 8876   5.363   3.601   2.730
 2973TIP3    H2 8877   5.426   3.720   2.663
 2974TIP3   OH2 8878   4.284   1.022   3.365
 2974TIP3    H1 8879   4.273   0.940   3.317
 2974TIP3    H2 8880   4.217   1.080   3.329
 2975TIP3   OH2 8881   4.169   4.937   6.602
 2975TIP3    H1 8882   4.124   4.925   6.686
 2975TIP3    H2 8883   4.126   4.874   6.544
 2976TIP3   OH2 8884   6.643   1.036   2.328
 2976TIP3    H1 8885   6.675   0.966   2.385
 2976TIP3    H2 8886   6.722   1.077   2.294
 2977TIP3   OH2 8887   7.841   3.262   0.507
 2977TIP3    H1 8888   7.922   3.255   0.456
 2977TIP3    H2 8889   7.853   3.200   0.579
 2978TIP3   OH2 8890   5.227   5.457   6.390
 2978TIP3    H1 8891   5.264   5.534   6.347
 2978TIP3    H2 8892   5.290   5.387   6.372
 2979TIP3   OH2 8893   5.720   6.748   3.880
 2979TIP3    H1 8894   5.697   6.803   3.955
 2979TIP3    H2 8895   5.768   6.675   3.918
 2980TIP3   OH2 8896   3.580   5.032   2.356
 2980TIP3    H1 8897   3.674   5.042   2.373
 2980TIP3    H2 8898   3.560   4.944   2.389
 2981TIP3   OH2 8899   0.027   2.902   2.676
 2981TIP3    H1 8900  -0.038   2.920   2.607
 2981TIP3    H2 8901   0.084   2.979   2.675
 2982TIP3   OH2 8902   1.873   2.763   6.347
 2982TIP3    H1 8903   1.900   2.729   6.432
 2982TIP3    H2 8904   1.912   2.851   6.343
 2983TIP3   OH2 8905   3.183   1.605   5.903
 2983TIP3    H1 8906   3.243   1.677   5.886
 2983TIP3    H2 8907   3.211   1.569   5.987
 2984TIP3   OH2 8908   3.927   4.896   1.514
 2984TIP3    H1 8909   3.832   4.912   1.517
 2984TIP3    H2 8910   3.963   4.979   1.483
 2985TIP3   OH2 8911   0.472   4.852   0.056
 2985TIP3    H1 8912   0.476   4.948   0.054
 2985TIP3    H2 8913   0.500   4.828   0.144
 2986TIP3   OH2 8914   4.832   7.780   5.488
 2986TIP3    H1 8915   4.927   7.775   5.483
 2986TIP3    H2 8916   4.801   7.699   5.447
 2987TIP3   OH2 8917   1.653   7.295   3.432
 2987TIP3    H1 8918   1.570   7.288   3.385
 2987TIP3    H2 8919   1.704   7.358   3.381
 2988TIP3   OH2 8920   7.300   4.543   2.342
 2988TIP3    H1 8921   7.216   4.579   2.370
 2988TIP3    H2 8922   7.289   4.448   2.349
 2989TIP3   OH2 8923   6.635   2.902   3.353
 2989TIP3    H1 8924   6.630   2.872   3.262
 2989TIP3    H2 8925   6.575   2.845   3.400
 2990TIP3   OH2 8926   1.681   5.153   1.936
 2990TIP3    H1 8927   1.730   5.071   1.921
 2990TIP3    H2 8928   1.736   5.203   1.996
 2991TIP3   OH2 8929   7.013   5.623   4.599
 2991TIP3    H1 8930   7.052   5.656   4.680
 2991TIP3    H2 8931   6.980   5.701   4.554
 2992TIP3   OH2 8932   4.932   5.321   4.298
 2992TIP3    H1 8933   5.017   5.345   4.335
 2992TIP3    H2 8934   4.946   5.233   4.263
 2993TIP3   OH2 8935   5.898   5.374   6.431
 2993TIP3    H1 8936   5.838   5.371   6.506
 2993TIP3    H2 8937   5.913   5.283   6.408
 2994TIP3   OH2 8938   4.310   1.618   5.150
 2994TIP3    H1 8939   4.397   1.636   5.116
 2994TIP3    H2 8940   4.306   1.522   5.155
 2995TIP3   OH2 8941   1.963   6.740   5.868
 2995TIP3    H1 8942   2.041   6.685   5.868
 2995TIP3    H2 8943   1.974   6.798   5.793
 2996TIP3   OH2 8944   7.676   6.408   6.696
 2996TIP3    H1 8945   7.766   6.392   6.670
 2996TIP3    H2 8946   7.679   6.487   6.749
 2997TIP3   OH2 8947   1.837   4.328   2.145
 2997TIP3    H1 8948   1.780   4.400   2.175
 2997TIP3    H2 8949   1.777   4.270   2.098
 2998TIP3   OH2 8950   6.084   0.836   0.676
 2998TIP3    H1 8951   6.034   0.808   0.599
 2998TIP3    H2 8952   6.175   0.830   0.649
 2999TIP3   OH2 8953   5.266   2.565   0.750
 2999TIP3    H1 8954   5.233   2.595   0.835
 2999TIP3    H2 8955   5.188   2.563   0.694
 3000TIP3   OH2 8956   7.018   5.259   5.639
 3000TIP3    H1 8957   7.079   5.310   5.694
 3000TIP3    H2 8958   7.030   5.294   5.551
 3001TIP3   OH2 8959   3.151   0.392   1.621
 3001TIP3    H1 8960   3.124   0.448   1.694
 3001TIP3    H2 8961   3.070   0.378   1.571
 3002TIP3   OH2 8962   7.625   6.564   0.544
 3002TIP3    H1 8963   7.687   6.590   0.613
 3002TIP3    H2 8964   7.678   6.558   0.465
 3003TIP3   OH2 8965   1.126   1.090   6.434
 3003TIP3    H1 8966   1.194   1.087   6.502
 3003TIP3    H2 8967   1.051   1.044   6.474
 3004TIP3   OH2 8968   2.060   4.602   3.681
 3004TIP3    H1 8969   1.977   4.561   3.703
 3004TIP3    H2 8970   2.064   4.598   3.585
 3005TIP3   OH2 8971   4.066   3.127   1.606
 3005TIP3    H1 8972   4.093   3.047   1.560
 3005TIP3    H2 8973   4.065   3.103   1.698
 3006TIP3   OH2 8974   2.273   0.449   0.621
 3006TIP3    H1 8975   2.260   0.398   0.541
 3006TIP3    H2 8976   2.364   0.430   0.646
 3007TIP3   OH2 8977   7.905   5.574   2.980
 3007TIP3    H1 8978   7.959   5.563   3.058
 3007TIP3    H2 8979   7.889   5.668   2.975
 3008TIP3   OH2 8980   1.342   5.050   1.524
 3008TIP3    H1 8981   1.375   5.001   1.448
 3008TIP3    H2 8982   1.310   4.982   1.584
 3009TIP3   OH2 8983   6.776   0.053   4.295
 3009TIP3    H1 8984   6.698   0.000   4.307
 3009TIP3    H2 8985   6.744   0.135   4.257
 3010TIP3   OH2 8986   4.462   4.108   2.049
 3010TIP3    H1 8987   4.547   4.069   2.069
 3010TIP3    H2 8988   4.451   4.096   1.955
 3011TIP3   OH2 8989   7.307   3.373   0.543
 3011TIP3    H1 8990   7.282   3.418   0.462
 3011TIP3    H2 8991   7.401   3.355   0.532
 3012TIP3   OH2 8992   6.154   0.866   6.579
 3012TIP3    H1 8993   6.159   0.878   6.673
 3012TIP3    H2 8994   6.136   0.953   6.544
 3013TIP3   OH2 8995   4.274   5.586   0.740
 3013TIP3    H1 8996   4.233   5.609   0.823
 3013TIP3    H2 8997   4.318   5.503   0.757
 3014TIP3   OH2 8998   3.142   6.137   3.940
 3014TIP3    H1 8999   3.064   6.161   3.990
 3014TIP3    H2 9000   3.112   6.129   3.849
 3015TIP3   OH2 9001  -0.006   0.602   2.027
 3015TIP3    H1 9002  -0.035   0.551   1.951
 3015TIP3    H2 9003   0.088   0.588   2.031
 3016TIP3   OH2 9004   5.227   3.319   0.758
 3016TIP3    H1 9005   5.224   3.225   0.777
 3016TIP3    H2 9006   5.203   3.325   0.665
 3017TIP3   OH2 9007   5.141   7.266   4.938
 3017TIP3    H1 9008   5.194   7.345   4.951
 3017TIP3    H2 9009   5.066   7.278   4.996
 3018TIP3   OH2 9010   6.506   1.011   1.615
 3018TIP3    H1 9011   6.519   1.033   1.523
 3018TIP3    H2 9012   6.580   1.053   1.660
 3019TIP3   OH2 9013   3.308   4.510   4.873
 3019TIP3    H1 9014   3.396   4.474   4.860
 3019TIP3    H2 9015   3.249   4.441   4.845
 3020TIP3   OH2 9016   6.298   1.828   3.089
 3020TIP3    H1 9017   6.289   1.773   3.167
 3020TIP3    H2 9018   6.246   1.783   3.022
 3021TIP3   OH2 9019   4.216   7.692   1.376
 3021TIP3    H1 9020   4.300   7.659   1.345
 3021TIP3    H2 9021   4.237   7.750   1.449
 3022TIP3   OH2 9022   1.404   0.707   2.568
 3022TIP3    H1 9023   1.347   0.760   2.623
 3022TIP3    H2 9024   1.476   0.680   2.625
 3023TIP3   OH2 9025   3.516   3.490   3.232
 3023TIP3    H1 9026   3.571   3.427   3.186
 3023TIP3    H2 9027   3.575   3.534   3.293
 3024TIP3   OH2 9028   0.342   2.836   4.985
 3024TIP3    H1 9029   0.306   2.775   5.050
 3024TIP3    H2 9030   0.374   2.910   5.036
 3025TIP3   OH2 9031   0.037   5.594   2.376
 3025TIP3    H1 9032   0.020   5.688   2.372
 3025TIP3    H2 9033   0.123   5.587   2.419
 3026TIP3   OH2 9034   3.725   3.084   4.395
 3026TIP3    H1 9035   3.700   3.176   4.386
 3026TIP3    H2 9036   3.775   3.081   4.476
 3027TIP3   OH2 9037   5.988   4.815   3.873
 3027TIP3    H1 9038   5.987   4.735   3.925
 3027TIP3    H2 9039   5.948   4.881   3.931
 3028TIP3   OH2 9040   2.104   3.660   4.352
 3028TIP3    H1 9041   2.109   3.755   4.360
 3028TIP3    H2 9042   2.179   3.628   4.403
 3029TIP3   OH2 9043   4.327   4.383   0.887
 3029TIP3    H1 9044   4.397   4.341   0.836
 3029TIP3    H2 9045   4.270   4.311   0.914
 3030TIP3   OH2 9046   5.207   5.589   6.657
 3030TIP3    H1 9047   5.224   5.500   6.627
 3030TIP3    H2 9048   5.112   5.593   6.670
 3031TIP3   OH2 9049   5.599   0.484   5.634
 3031TIP3    H1 9050   5.651   0.414   5.672
 3031TIP3    H2 9051   5.513   0.477   5.676
 3032TIP3   OH2 9052   0.767   4.063   1.611
 3032TIP3    H1 9053   0.787   4.003   1.683
 3032TIP3    H2 9054   0.831   4.042   1.544
 3033TIP3   OH2 9055   4.270   4.784   3.524
 3033TIP3    H1 9056   4.221   4.705   3.503
 3033TIP3    H2 9057   4.235   4.851   3.465
 3034TIP3   OH2 9058   7.714   5.032   2.625
 3034TIP3    H1 9059   7.778   5.103   2.626
 3034TIP3    H2 9060   7.652   5.054   2.695
 3035TIP3   OH2 9061   4.368   1.679   1.193
 3035TIP3    H1 9062   4.371   1.669   1.098
 3035TIP3    H2 9063   4.320   1.761   1.207
 3036TIP3   OH2 9064   2.116   6.992   5.942
 3036TIP3    H1 9065   2.024   7.007   5.965
 3036TIP3    H2 9066   2.134   6.904   5.976
 3037TIP3   OH2 9067   6.420   4.930   4.069
 3037TIP3    H1 9068   6.456   5.016   4.088
 3037TIP3    H2 9069   6.329   4.934   4.098
 3038TIP3   OH2 9070   3.092   3.855   5.297
 3038TIP3    H1 9071   3.158   3.805   5.249
 3038TIP3    H2 9072   3.018   3.794   5.304
 3039TIP3   OH2 9073   4.196   0.083   4.710
 3039TIP3    H1 9074   4.210   0.147   4.641
 3039TIP3    H2 9075   4.280   0.079   4.756
 3040TIP3   OH2 9076   1.760   5.609   5.655
 3040TIP3    H1 9077   1.688   5.646   5.604
 3040TIP3    H2 9078   1.820   5.682   5.670
 3041TIP3   OH2 9079   6.876   3.403   0.712
 3041TIP3    H1 9080   6.948   3.448   0.669
 3041TIP3    H2 9081   6.806   3.468   0.716
 3042TIP3   OH2 9082   2.856   0.768   3.197
 3042TIP3    H1 9083   2.920   0.742   3.264
 3042TIP3    H2 9084   2.781   0.710   3.212
 3043TIP3   OH2 9085   5.569   1.768   4.407
 3043TIP3    H1 9086   5.480   1.748   4.375
 3043TIP3    H2 9087   5.597   1.687   4.450
 3044TIP3   OH2 9088   0.337   0.259   5.145
 3044TIP3    H1 9089   0.312   0.167   5.156
 3044TIP3    H2 9090   0.255   0.302   5.122
 3045TIP3   OH2 9091   3.111   7.170   1.107
 3045TIP3    H1 9092   3.078   7.084   1.134
 3045TIP3    H2 9093   3.152   7.154   1.023
 3046TIP3   OH2 9094   5.907   7.309   6.766
 3046TIP3    H1 9095   5.812   7.315   6.769
 3046TIP3    H2 9096   5.926   7.263   6.684
 3047TIP3   OH2 9097   3.745   1.577   3.719
 3047TIP3    H1 9098   3.778   1.495   3.682
 3047TIP3    H2 9099   3.653   1.580   3.692
 3048TIP3   OH2 9100   0.737   6.033   2.721
 3048TIP3    H1 9101   0.669   6.083   2.767
 3048TIP3    H2 9102   0.810   6.031   2.783
 3049TIP3   OH2 9103   4.162   6.486   1.723
 3049TIP3    H1 9104   4.078   6.475   1.678
 3049TIP3    H2 9105   4.209   6.404   1.707
 3050TIP3   OH2 9106   3.113   7.360   5.765
 3050TIP3    H1 9107   3.056   7.319   5.831
 3050TIP3    H2 9108   3.201   7.337   5.793
 3051TIP3   OH2 9109   3.814   0.656   6.017
 3051TIP3    H1 9110   3.771   0.732   5.978
 3051TIP3    H2 9111   3.907   0.680   6.018
 3052TIP3   OH2 9112   2.045   5.858   5.973
 3052TIP3    H1 9113   1.950   5.854   5.974
 3052TIP3    H2 9114   2.073   5.770   5.948
 3053TIP3   OH2 9115   2.189   5.918   0.848
 3053TIP3    H1 9116   2.123   5.975   0.886
 3053TIP3    H2 9117   2.142   5.837   0.827
 3054TIP3   OH2 9118   3.637   5.789   2.242
 3054TIP3    H1 9119   3.543   5.804   2.246
 3054TIP3    H2 9120   3.655   5.773   2.149
 3055TIP3   OH2 9121   1.166   4.432   2.787
 3055TIP3    H1 9122   1.210   4.515   2.806
 3055TIP3    H2 9123   1.073   4.454   2.783
 3056TIP3   OH2 9124   7.497   3.641   2.211
 3056TIP3    H1 9125   7.412   3.653   2.253
 3056TIP3    H2 9126   7.560   3.653   2.282
 3057TIP3   OH2 9127   5.913   4.199   5.365
 3057TIP3    H1 9128   5.988   4.258   5.368
 3057TIP3    H2 9129   5.937   4.127   5.423
 3058TIP3   OH2 9130   4.881   5.646   3.257
 3058TIP3    H1 9131   4.900   5.679   3.344
 3058TIP3    H2 9132   4.963   5.658   3.209
 3059TIP3   OH2 9133   2.879   5.043   3.631
 3059TIP3    H1 9134   2.850   5.055   3.722
 3059TIP3    H2 9135   2.846   5.120   3.586
 3060TIP3   OH2 9136   6.581  -0.021   4.033
 3060TIP3    H1 9137   6.627   0.063   4.029
 3060TIP3    H2 9138   6.508  -0.012   3.972
 3061TIP3   OH2 9139   8.126   0.751   0.415
 3061TIP3    H1 9140   8.079   0.833   0.431
 3061TIP3    H2 9141   8.175   0.767   0.335
 3062TIP3   OH2 9142   1.649   3.285   0.350
 3062TIP3    H1 9143   1.571   3.320   0.392
 3062TIP3    H2 9144   1.721   3.311   0.407
 3063TIP3   OH2 9145   0.726   2.468   3.828
 3063TIP3    H1 9146   0.726   2.477   3.923
 3063TIP3    H2 9147   0.804   2.517   3.799
 3064TIP3   OH2 9148   4.902   4.420   0.477
 3064TIP3    H1 9149   4.862   4.404   0.392
 3064TIP3    H2 9150   4.979   4.364   0.479
 3065TIP3   OH2 9151   3.250   7.485   0.853
 3065TIP3    H1 9152   3.265   7.492   0.947
 3065TIP3    H2 9153   3.287   7.566   0.817
 3066TIP3   OH2 9154   5.252   0.051   4.250
 3066TIP3    H1 9155   5.333   0.053   4.301
 3066TIP3    H2 9156   5.275   0.090   4.166
 3067TIP3   OH2 9157   3.922   0.586   5.179
 3067TIP3    H1 9158   3.995   0.642   5.205
 3067TIP3    H2 9159   3.932   0.577   5.084
 3068TIP3   OH2 9160   0.895   4.295   5.762
 3068TIP3    H1 9161   0.874   4.296   5.669
 3068TIP3    H2 9162   0.856   4.375   5.797
 3069TIP3   OH2 9163   4.990   2.958   1.647
 3069TIP3    H1 9164   5.021   2.893   1.711
 3069TIP3    H2 9165   5.059   2.961   1.581
 3070TIP3   OH2 9166   7.276   6.722   0.989
 3070TIP3    H1 9167   7.199   6.667   0.975
 3070TIP3    H2 9168   7.347   6.676   0.946
 3071TIP3   OH2 9169   7.288   0.834   6.081
 3071TIP3    H1 9170   7.264   0.764   6.021
 3071TIP3    H2 9171   7.368   0.871   6.043
 3072TIP3   OH2 9172   6.560   4.553   0.703
 3072TIP3    H1 9173   6.467   4.574   0.717
 3072TIP3    H2 9174   6.563   4.458   0.701
 3073TIP3   OH2 9175   5.986   3.251   0.362
 3073TIP3    H1 9176   5.999   3.274   0.454
 3073TIP3    H2 9177   5.997   3.156   0.359
 3074TIP3   OH2 9178   7.959   2.220   4.707
 3074TIP3    H1 9179   7.975   2.298   4.761
 3074TIP3    H2 9180   8.040   2.210   4.656
 3075TIP3   OH2 9181   3.945   3.640   4.445
 3075TIP3    H1 9182   3.979   3.719   4.486
 3075TIP3    H2 9183   3.993   3.569   4.489
 3076TIP3   OH2 9184   3.308   2.480   3.715
 3076TIP3    H1 9185   3.391   2.439   3.691
 3076TIP3    H2 9186   3.247   2.457   3.645
 3077TIP3   OH2 9187   5.053   1.643   0.025
 3077TIP3    H1 9188   5.002   1.720   0.050
 3077TIP3    H2 9189   5.038   1.580   0.096
 3078TIP3   OH2 9190   7.522   0.276   3.549
 3078TIP3    H1 9191   7.455   0.258   3.483
 3078TIP3    H2 9192   7.480   0.257   3.632
 3079TIP3   OH2 9193   7.846   7.157   5.857
 3079TIP3    H1 9194   7.806   7.232   5.901
 3079TIP3    H2 9195   7.939   7.163   5.880
 3080TIP3   OH2 9196   0.156   3.083   2.826
 3080TIP3    H1 9197   0.206   3.162   2.807
 3080TIP3    H2 9198   0.080   3.113   2.875
 3081TIP3   OH2 9199   2.580   2.745   3.576
 3081TIP3    H1 9200   2.524   2.823   3.572
 3081TIP3    H2 9201   2.522   2.675   3.605
 3082TIP3   OH2 9202   5.252   2.124   5.482
 3082TIP3    H1 9203   5.332   2.175   5.467
 3082TIP3    H2 9204   5.217   2.108   5.394
 3083TIP3   OH2 9205   3.811   6.891   0.641
 3083TIP3    H1 9206   3.762   6.971   0.620
 3083TIP3    H2 9207   3.821   6.893   0.736
 3084TIP3   OH2 9208   5.556   2.245   5.750
 3084TIP3    H1 9209   5.638   2.217   5.790
 3084TIP3    H2 9210   5.548   2.191   5.672
 3085TIP3   OH2 9211   3.515   2.784   4.690
 3085TIP3    H1 9212   3.422   2.791   4.669
 3085TIP3    H2 9213   3.517   2.746   4.778
 3086TIP3   OH2 9214   7.364   3.685   6.639
 3086TIP3    H1 9215   7.286   3.633   6.656
 3086TIP3    H2 9216   7.435   3.636   6.680
 3087TIP3   OH2 9217   1.858   1.929   0.464
 3087TIP3    H1 9218   1.778   1.981   0.458
 3087TIP3    H2 9219   1.828   1.839   0.475
 3088TIP3   OH2 9220   3.887   2.236   5.701
 3088TIP3    H1 9221   3.980   2.232   5.679
 3088TIP3    H2 9222   3.842   2.205   5.623
 3089TIP3   OH2 9223   2.212   5.417   4.020
 3089TIP3    H1 9224   2.275   5.351   3.991
 3089TIP3    H2 9225   2.131   5.369   4.036
 3090TIP3   OH2 9226   3.886   3.507   1.994
 3090TIP3    H1 9227   3.866   3.460   2.075
 3090TIP3    H2 9228   3.802   3.513   1.948
 3091TIP3   OH2 9229   2.135   0.307   0.128
 3091TIP3    H1 9230   2.158   0.230   0.076
 3091TIP3    H2 9231   2.116   0.375   0.063
 3092TIP3   OH2 9232   7.366   2.117   4.855
 3092TIP3    H1 9233   7.315   2.179   4.802
 3092TIP3    H2 9234   7.440   2.093   4.800
 3093TIP3   OH2 9235   6.529   6.717   0.109
 3093TIP3    H1 9236   6.453   6.700   0.165
 3093TIP3    H2 9237   6.501   6.692   0.021
 3094TIP3   OH2 9238   1.774   2.132   3.504
 3094TIP3    H1 9239   1.690   2.132   3.458
 3094TIP3    H2 9240   1.840   2.139   3.434
 3095TIP3   OH2 9241   4.891   3.516   4.168
 3095TIP3    H1 9242   4.823   3.459   4.205
 3095TIP3    H2 9243   4.864   3.604   4.193
 3096TIP3   OH2 9244   8.155   5.570   2.594
 3096TIP3    H1 9245   8.181   5.478   2.584
 3096TIP3    H2 9246   8.195   5.614   2.519
 3097TIP3   OH2 9247   4.741   0.778   1.810
 3097TIP3    H1 9248   4.802   0.721   1.856
 3097TIP3    H2 9249   4.664   0.781   1.866
 3098TIP3   OH2 9250   6.621   6.562   3.335
 3098TIP3    H1 9251   6.710   6.546   3.368
 3098TIP3    H2 9252   6.563   6.529   3.403
 3099TIP3   OH2 9253   7.557   5.138   2.837
 3099TIP3    H1 9254   7.492   5.090   2.889
 3099TIP3    H2 9255   7.505   5.181   2.769
 3100TIP3   OH2 9256   1.841   4.019   5.946
 3100TIP3    H1 9257   1.932   4.032   5.920
 3100TIP3    H2 9258   1.808   3.950   5.889
 3101TIP3   OH2 9259   3.287   6.730   2.774
 3101TIP3    H1 9260   3.328   6.809   2.807
 3101TIP3    H2 9261   3.279   6.673   2.850
 3102TIP3   OH2 9262   5.585   2.007   1.684
 3102TIP3    H1 9263   5.671   2.039   1.712
 3102TIP3    H2 9264   5.530   2.014   1.762
 3103TIP3   OH2 9265   0.202   6.332   0.689
 3103TIP3    H1 9266   0.147   6.334   0.767
 3103TIP3    H2 9267   0.147   6.371   0.620
 3104TIP3   OH2 9268   3.914   0.136   6.031
 3104TIP3    H1 9269   3.880   0.150   6.120
 3104TIP3    H2 9270   4.009   0.127   6.044
 3105TIP3   OH2 9271   6.412   4.210   2.605
 3105TIP3    H1 9272   6.326   4.252   2.603
 3105TIP3    H2 9273   6.474   4.283   2.604
 3106TIP3   OH2 9274   3.831   1.414   6.198
 3106TIP3    H1 9275   3.772   1.489   6.200
 3106TIP3    H2 9276   3.819   1.370   6.282
 3107TIP3   OH2 9277   1.793   3.706   2.691
 3107TIP3    H1 9278   1.742   3.731   2.768
 3107TIP3    H2 9279   1.785   3.781   2.632
 3108TIP3   OH2 9280   5.353   0.116   6.754
 3108TIP3    H1 9281   5.436   0.149   6.787
 3108TIP3    H2 9282   5.317   0.187   6.701
 3109TIP3   OH2 9283   6.117   6.077   3.585
 3109TIP3    H1 9284   6.029   6.110   3.603
 3109TIP3    H2 9285   6.146   6.126   3.508
 3110TIP3   OH2 9286   6.597   4.612   5.602
 3110TIP3    H1 9287   6.514   4.566   5.610
 3110TIP3    H2 9288   6.621   4.635   5.692
 3111TIP3   OH2 9289   6.917   5.588   4.149
 3111TIP3    H1 9290   6.965   5.663   4.114
 3111TIP3    H2 9291   6.838   5.626   4.188
 3112TIP3   OH2 9292   6.749   0.009   1.256
 3112TIP3    H1 9293   6.766   0.098   1.226
 3112TIP3    H2 9294   6.830  -0.016   1.301
 3113TIP3   OH2 9295   2.296   0.669   2.161
 3113TIP3    H1 9296   2.275   0.582   2.195
 3113TIP3    H2 9297   2.232   0.727   2.203
 3114TIP3   OH2 9298   6.637   2.454   3.445
 3114TIP3    H1 9299   6.582   2.395   3.391
 3114TIP3    H2 9300   6.725   2.444   3.408
 3115TIP3   OH2 9301   4.954   3.715   4.856
 3115TIP3    H1 9302   4.961   3.685   4.947
 3115TIP3    H2 9303   5.032   3.678   4.813
 3116TIP3   OH2 9304   7.199   1.533   0.187
 3116TIP3    H1 9305   7.135   1.557   0.253
 3116TIP3    H2 9306   7.279   1.515   0.236
 3117TIP3   OH2 9307   5.953   5.554   5.283
 3117TIP3    H1 9308   5.976   5.613   5.355
 3117TIP3    H2 9309   6.036   5.516   5.255
 3118TIP3   OH2 9310   1.038   6.390   1.584
 3118TIP3    H1 9311   1.005   6.472   1.546
 3118TIP3    H2 9312   0.986   6.378   1.663
 3119TIP3   OH2 9313   1.927   1.698   6.054
 3119TIP3    H1 9314   1.948   1.658   5.970
 3119TIP3    H2 9315   1.870   1.635   6.097
 3120TIP3   OH2 9316   6.342   5.922   1.401
 3120TIP3    H1 9317   6.353   5.875   1.318
 3120TIP3    H2 9318   6.311   6.009   1.375
 3121TIP3   OH2 9319   3.788   3.951   2.357
 3121TIP3    H1 9320   3.860   4.006   2.327
 3121TIP3    H2 9321   3.826   3.896   2.426
 3122TIP3   OH2 9322   5.252   4.414   1.338
 3122TIP3    H1 9323   5.324   4.393   1.398
 3122TIP3    H2 9324   5.262   4.508   1.321
 3123TIP3   OH2 9325   0.719   0.358   3.318
 3123TIP3    H1 9326   0.729   0.452   3.332
 3123TIP3    H2 9327   0.786   0.336   3.254
 3124TIP3   OH2 9328   2.310   3.360   3.396
 3124TIP3    H1 9329   2.406   3.359   3.385
 3124TIP3    H2 9330   2.284   3.447   3.366
 3125TIP3   OH2 9331   5.774   7.816   6.394
 3125TIP3    H1 9332   5.837   7.787   6.461
 3125TIP3    H2 9333   5.808   7.780   6.312
 3126TIP3   OH2 9334   5.038   1.184   1.466
 3126TIP3    H1 9335   5.134   1.188   1.473
 3126TIP3    H2 9336   5.016   1.254   1.405
 3127TIP3   OH2 9337   2.137   5.906   3.841
 3127TIP3    H1 9338   2.157   5.812   3.840
 3127TIP3    H2 9339   2.044   5.910   3.864
 3128TIP3   OH2 9340   4.926   4.205   1.174
 3128TIP3    H1 9341   5.000   4.145   1.177
 3128TIP3    H2 9342   4.883   4.185   1.091
 3129TIP3   OH2 9343   6.965   1.143   5.222
 3129TIP3    H1 9344   6.888   1.114   5.174
 3129TIP3    H2 9345   6.946   1.123   5.314
 3130TIP3   OH2 9346   0.670   2.373   0.985
 3130TIP3    H1 9347   0.703   2.352   1.072
 3130TIP3    H2 9348   0.699   2.463   0.969
 3131TIP3   OH2 9349   2.916   4.884   0.570
 3131TIP3    H1 9350   2.828   4.876   0.607
 3131TIP3    H2 9351   2.954   4.959   0.615
 3132TIP3   OH2 9352   2.399   0.167   1.755
 3132TIP3    H1 9353   2.472   0.109   1.776
 3132TIP3    H2 9354   2.328   0.108   1.729
 3133TIP3   OH2 9355   3.306   5.318   6.568
 3133TIP3    H1 9356   3.337   5.263   6.496
 3133TIP3    H2 9357   3.338   5.273   6.647
 3134TIP3   OH2 9358   2.642   5.222   4.830
 3134TIP3    H1 9359   2.678   5.139   4.860
 3134TIP3    H2 9360   2.556   5.226   4.872
 3135TIP3   OH2 9361   0.592   1.713   6.390
 3135TIP3    H1 9362   0.665   1.710   6.452
 3135TIP3    H2 9363   0.572   1.806   6.381
 3136TIP3   OH2 9364   4.277   5.884   2.495
 3136TIP3    H1 9365   4.202   5.888   2.435
 3136TIP3    H2 9366   4.349   5.852   2.441
 3137TIP3   OH2 9367   8.171   2.251   6.215
 3137TIP3    H1 9368   8.116   2.224   6.142
 3137TIP3    H2 9369   8.247   2.193   6.211
 3138TIP3   OH2 9370   8.228   1.659   6.375
 3138TIP3    H1 9371   8.277   1.724   6.426
 3138TIP3    H2 9372   8.205   1.704   6.294
 3139TIP3   OH2 9373   0.836   6.462   5.176
 3139TIP3    H1 9374   0.824   6.510   5.095
 3139TIP3    H2 9375   0.800   6.375   5.159
 3140TIP3   OH2 9376   7.306   2.434   6.678
 3140TIP3    H1 9377   7.213   2.453   6.674
 3140TIP3    H2 9378   7.326   2.429   6.771
 3141TIP3   OH2 9379   1.323   1.078   4.446
 3141TIP3    H1 9380   1.248   1.043   4.493
 3141TIP3    H2 9381   1.325   1.031   4.363
 3142TIP3   OH2 9382   6.700   4.206   1.000
 3142TIP3    H1 9383   6.738   4.283   1.042
 3142TIP3    H2 9384   6.714   4.220   0.907
 3143TIP3   OH2 9385   1.491   2.616   6.273
 3143TIP3    H1 9386   1.440   2.556   6.218
 3143TIP3    H2 9387   1.580   2.581   6.269
 3144TIP3   OH2 9388   5.626   0.571   3.727
 3144TIP3    H1 9389   5.552   0.512   3.743
 3144TIP3    H2 9390   5.603   0.651   3.775
 3145TIP3   OH2 9391   3.879   5.267   1.105
 3145TIP3    H1 9392   3.970   5.293   1.123
 3145TIP3    H2 9393   3.829   5.302   1.179
 3146TIP3   OH2 9394   3.577   7.650   4.196
 3146TIP3    H1 9395   3.551   7.645   4.288
 3146TIP3    H2 9396   3.643   7.720   4.194
 3147TIP3   OH2 9397   1.140   7.583   4.139
 3147TIP3    H1 9398   1.151   7.494   4.104
 3147TIP3    H2 9399   1.050   7.585   4.171
 3148TIP3   OH2 9400   6.208   2.278   0.872
 3148TIP3    H1 9401   6.166   2.215   0.930
 3148TIP3    H2 9402   6.253   2.224   0.807
 3149TIP3   OH2 9403   4.732   4.239   0.594
 3149TIP3    H1 9404   4.791   4.307   0.562
 3149TIP3    H2 9405   4.741   4.167   0.531
 3150TIP3   OH2 9406   1.121   1.917   6.010
 3150TIP3    H1 9407   1.123   1.844   6.071
 3150TIP3    H2 9408   1.204   1.912   5.963
 3151TIP3   OH2 9409   4.081   6.276   1.445
 3151TIP3    H1 9410   4.111   6.339   1.380
 3151TIP3    H2 9411   4.160   6.254   1.495
 3152TIP3   OH2 9412   5.243   7.088   3.344
 3152TIP3    H1 9413   5.160   7.070   3.300
 3152TIP3    H2 9414   5.297   7.011   3.323
 3153TIP3   OH2 9415   1.964   5.870   6.609
 3153TIP3    H1 9416   2.048   5.833   6.584
 3153TIP3    H2 9417   1.901   5.832   6.548
 3154TIP3   OH2 9418   8.325   1.646   2.145
 3154TIP3    H1 9419   8.296   1.642   2.237
 3154TIP3    H2 9420   8.265   1.588   2.099
 3155TIP3   OH2 9421   0.795   6.946   1.811
 3155TIP3    H1 9422   0.850   6.915   1.739
 3155TIP3    H2 9423   0.783   7.039   1.794
 3156TIP3   OH2 9424   3.292   4.942   2.853
 3156TIP3    H1 9425   3.221   4.913   2.795
 3156TIP3    H2 9426   3.276   5.036   2.865
 3157TIP3   OH2 9427   1.606   7.746   0.391
 3157TIP3    H1 9428   1.634   7.663   0.428
 3157TIP3    H2 9429   1.685   7.799   0.389
 3158TIP3   OH2 9430   7.628   5.102   4.819
 3158TIP3    H1 9431   7.706   5.054   4.845
 3158TIP3    H2 9432   7.653   5.149   4.739
 3159TIP3   OH2 9433   5.042   1.043   2.501
 3159TIP3    H1 9434   5.085   0.989   2.567
 3159TIP3    H2 9435   5.103   1.044   2.427
 3160TIP3   OH2 9436   7.625   5.379   0.956
 3160TIP3    H1 9437   7.545   5.379   1.009
 3160TIP3    H2 9438   7.692   5.417   1.013
 3161TIP3   OH2 9439   0.835   6.488   4.199
 3161TIP3    H1 9440   0.804   6.402   4.227
 3161TIP3    H2 9441   0.837   6.483   4.104
 3162TIP3   OH2 9442   6.039   5.315   0.613
 3162TIP3    H1 9443   6.110   5.250   0.615
 3162TIP3    H2 9444   5.960   5.265   0.632
 3163TIP3   OH2 9445   3.253   5.998   5.721
 3163TIP3    H1 9446   3.348   6.003   5.713
 3163TIP3    H2 9447   3.228   5.925   5.664
 3164TIP3   OH2 9448   6.206   7.793   6.319
 3164TIP3    H1 9449   6.247   7.858   6.377
 3164TIP3    H2 9450   6.137   7.753   6.373
 3165TIP3   OH2 9451   5.973   0.541   6.570
 3165TIP3    H1 9452   5.950   0.629   6.600
 3165TIP3    H2 9453   6.025   0.556   6.491
 3166TIP3   OH2 9454   4.495   0.219   0.865
 3166TIP3    H1 9455   4.409   0.231   0.905
 3166TIP3    H2 9456   4.541   0.301   0.882
 3167TIP3   OH2 9457   4.243   1.720   2.174
 3167TIP3    H1 9458   4.194   1.767   2.106
 3167TIP3    H2 9459   4.192   1.640   2.190
 3168TIP3   OH2 9460   6.156   6.017   4.907
 3168TIP3    H1 9461   6.127   5.948   4.966
 3168TIP3    H2 9462   6.179   6.090   4.965
 3169TIP3   OH2 9463   0.620   0.685   6.600
 3169TIP3    H1 9464   0.649   0.741   6.671
 3169TIP3    H2 9465   0.586   0.606   6.643
 3170TIP3   OH2 9466   3.635   2.972   3.065
 3170TIP3    H1 9467   3.619   2.990   2.972
 3170TIP3    H2 9468   3.713   2.917   3.066
 3171TIP3   OH2 9469   7.351   3.601   5.669
 3171TIP3    H1 9470   7.384   3.597   5.579
 3171TIP3    H2 9471   7.349   3.510   5.697
 3172TIP3   OH2 9472   7.917   4.946   0.706
 3172TIP3    H1 9473   7.997   4.908   0.741
 3172TIP3    H2 9474   7.858   4.953   0.781
 3173TIP3   OH2 9475   5.326   1.052   1.809
 3173TIP3    H1 9476   5.282   0.985   1.757
 3173TIP3    H2 9477   5.415   1.020   1.821
 3174TIP3   OH2 9478   2.987   7.050   2.297
 3174TIP3    H1 9479   2.928   7.052   2.372
 3174TIP3    H2 9480   2.977   7.136   2.256
 3175TIP3   OH2 9481   6.485   0.855   0.898
 3175TIP3    H1 9482   6.452   0.920   0.837
 3175TIP3    H2 9483   6.490   0.900   0.982
 3176TIP3   OH2 9484   3.534   6.285   6.231
 3176TIP3    H1 9485   3.545   6.321   6.143
 3176TIP3    H2 9486   3.564   6.354   6.290
 3177TIP3   OH2 9487   1.547   6.010   3.919
 3177TIP3    H1 9488   1.477   6.055   3.967
 3177TIP3    H2 9489   1.524   5.917   3.924
 3178TIP3   OH2 9490   0.574   5.369   3.559
 3178TIP3    H1 9491   0.527   5.379   3.641
 3178TIP3    H2 9492   0.585   5.274   3.548
 3179TIP3   OH2 9493   0.213   4.748   5.507
 3179TIP3    H1 9494   0.200   4.653   5.506
 3179TIP3    H2 9495   0.129   4.782   5.540
 3180TIP3   OH2 9496   3.643   7.082   1.969
 3180TIP3    H1 9497   3.687   7.160   1.935
 3180TIP3    H2 9498   3.550   7.105   1.969
 3181TIP3   OH2 9499   3.961   1.555   5.094
 3181TIP3    H1 9500   3.989   1.507   5.016
 3181TIP3    H2 9501   4.040   1.597   5.127
 3182TIP3   OH2 9502   4.938   7.232   2.619
 3182TIP3    H1 9503   4.994   7.206   2.692
 3182TIP3    H2 9504   4.995   7.228   2.542
 3183TIP3   OH2 9505   6.068   7.389   1.675
 3183TIP3    H1 9506   6.096   7.401   1.766
 3183TIP3    H2 9507   6.097   7.468   1.630
 3184TIP3   OH2 9508   1.733   4.067   3.745
 3184TIP3    H1 9509   1.641   4.077   3.768
 3184TIP3    H2 9510   1.737   4.089   3.652
 3185TIP3   OH2 9511   3.086   6.831   2.417
 3185TIP3    H1 9512   2.999   6.807   2.448
 3185TIP3    H2 9513   3.071   6.907   2.361
 3186TIP3   OH2 9514   7.131   4.021   3.347
 3186TIP3    H1 9515   7.044   4.048   3.376
 3186TIP3    H2 9516   7.137   3.928   3.371
 3187TIP3   OH2 9517   4.504   1.920   0.532
 3187TIP3    H1 9518   4.409   1.911   0.523
 3187TIP3    H2 9519   4.517   2.002   0.580
 3188TIP3   OH2 9520   7.389   4.265   3.006
 3188TIP3    H1 9521   7.296   4.247   3.017
 3188TIP3    H2 9522   7.393   4.355   2.974
 3189TIP3   OH2 9523   7.331   0.291   1.603
 3189TIP3    H1 9524   7.311   0.384   1.596
 3189TIP3    H2 9525   7.381   0.271   1.524
 3190TIP3   OH2 9526   5.612   0.551   4.964
 3190TIP3    H1 9527   5.522   0.550   4.933
 3190TIP3    H2 9528   5.614   0.617   5.033
 3191TIP3   OH2 9529   1.605   5.637   6.256
 3191TIP3    H1 9530   1.633   5.625   6.166
 3191TIP3    H2 9531   1.522   5.684   6.250
 3192TIP3   OH2 9532   7.546   3.737   2.893
 3192TIP3    H1 9533   7.557   3.711   2.984
 3192TIP3    H2 9534   7.558   3.832   2.893
 3193TIP3   OH2 9535   1.552   4.711   6.293
 3193TIP3    H1 9536   1.556   4.762   6.212
 3193TIP3    H2 9537   1.642   4.683   6.308
 3194TIP3   OH2 9538   4.151   5.692   0.993
 3194TIP3    H1 9539   4.078   5.662   1.046
 3194TIP3    H2 9540   4.122   5.776   0.956
 3195TIP3   OH2 9541   7.523   6.158   3.748
 3195TIP3    H1 9542   7.576   6.168   3.669
 3195TIP3    H2 9543   7.441   6.119   3.718
 3196TIP3   OH2 9544   6.892   0.012   4.679
 3196TIP3    H1 9545   6.797   0.009   4.693
 3196TIP3    H2 9546   6.907   0.094   4.632
 3197TIP3   OH2 9547   8.259   2.958   3.280
 3197TIP3    H1 9548   8.200   3.029   3.253
 3197TIP3    H2 9549   8.273   2.908   3.199
 3198TIP3   OH2 9550   3.088   2.419   5.865
 3198TIP3    H1 9551   3.009   2.419   5.918
 3198TIP3    H2 9552   3.060   2.454   5.780
 3199TIP3   OH2 9553   6.641   3.913   0.284
 3199TIP3    H1 9554   6.613   3.841   0.341
 3199TIP3    H2 9555   6.737   3.906   0.281
 3200TIP3   OH2 9556   8.049   0.175   2.417
 3200TIP3    H1 9557   8.037   0.208   2.328
 3200TIP3    H2 9558   8.134   0.209   2.445
 3201TIP3   OH2 9559   2.756   6.986   4.640
 3201TIP3    H1 9560   2.851   6.992   4.653
 3201TIP3    H2 9561   2.722   7.072   4.666
 3202TIP3   OH2 9562   5.950   1.592   3.614
 3202TIP3    H1 9563   5.934   1.499   3.596
 3202TIP3    H2 9564   5.863   1.633   3.606
 3203TIP3   OH2 9565   1.683   7.604   6.033
 3203TIP3    H1 9566   1.771   7.568   6.049
 3203TIP3    H2 9567   1.686   7.692   6.070
 3204TIP3   OH2 9568   0.399   3.231   1.205
 3204TIP3    H1 9569   0.426   3.208   1.294
 3204TIP3    H2 9570   0.406   3.326   1.201
 3205TIP3   OH2 9571   3.767   1.236   1.054
 3205TIP3    H1 9572   3.697   1.283   1.098
 3205TIP3    H2 9573   3.769   1.272   0.966
 3206TIP3   OH2 9574   5.302   2.426   1.603
 3206TIP3    H1 9575   5.301   2.331   1.587
 3206TIP3    H2 9576   5.275   2.435   1.694
 3207TIP3   OH2 9577   6.500   1.519   0.002
 3207TIP3    H1 9578   6.474   1.508  -0.089
 3207TIP3    H2 9579   6.426   1.487   0.053
 3208TIP3   OH2 9580   6.217   5.759   0.873
 3208TIP3    H1 9581   6.286   5.819   0.845
 3208TIP3    H2 9582   6.263   5.677   0.892
 3209TIP3   OH2 9583   4.987   2.979   1.283
 3209TIP3    H1 9584   4.913   2.930   1.319
 3209TIP3    H2 9585   4.969   2.985   1.189
 3210TIP3   OH2 9586   0.042   7.625   2.236
 3210TIP3    H1 9587   0.112   7.619   2.301
 3210TIP3    H2 9588  -0.024   7.681   2.277
 3211TIP3   OH2 9589   5.781   2.275   2.206
 3211TIP3    H1 9590   5.851   2.237   2.259
 3211TIP3    H2 9591   5.704   2.223   2.226
 3212TIP3   OH2 9592   3.626   5.719   1.180
 3212TIP3    H1 9593   3.554   5.657   1.196
 3212TIP3    H2 9594   3.697   5.665   1.145
 3213TIP3   OH2 9595   7.484   5.892   5.153
 3213TIP3    H1 9596   7.444   5.949   5.087
 3213TIP3    H2 9597   7.577   5.890   5.130
 3214TIP3   OH2 9598   8.088   1.232   3.363
 3214TIP3    H1 9599   8.055   1.317   3.391
 3214TIP3    H2 9600   8.181   1.234   3.387
 3215TIP3   OH2 9601   3.447   6.777   6.731
 3215TIP3    H1 9602   3.535   6.738   6.724
 3215TIP3    H2 9603   3.392   6.706   6.765
 3216TIP3   OH2 9604   5.196   1.688   3.521
 3216TIP3    H1 9605   5.249   1.716   3.596
 3216TIP3    H2 9606   5.260   1.663   3.454
 3217TIP3   OH2 9607   6.678   6.591   4.097
 3217TIP3    H1 9608   6.623   6.614   4.171
 3217TIP3    H2 9609   6.656   6.500   4.078
 3218TIP3   OH2 9610   5.892   7.489   1.406
 3218TIP3    H1 9611   5.969   7.535   1.439
 3218TIP3    H2 9612   5.874   7.422   1.473
 3219TIP3   OH2 9613   5.507   2.578   0.627
 3219TIP3    H1 9614   5.414   2.570   0.647
 3219TIP3    H2 9615   5.542   2.634   0.696
 3220TIP3   OH2 9616   7.397   7.548   0.424
 3220TIP3    H1 9617   7.301   7.552   0.425
 3220TIP3    H2 9618   7.424   7.637   0.448
 3221TIP3   OH2 9619   3.484   0.431   2.433
 3221TIP3    H1 9620   3.508   0.430   2.526
 3221TIP3    H2 9621   3.524   0.352   2.397
 3222TIP3   OH2 9622   3.882   4.120   1.481
 3222TIP3    H1 9623   3.958   4.178   1.483
 3222TIP3    H2 9624   3.903   4.055   1.413
 3223TIP3   OH2 9625   7.364   0.514   5.658
 3223TIP3    H1 9626   7.407   0.435   5.624
 3223TIP3    H2 9627   7.434   0.560   5.704
 3224TIP3   OH2 9628   7.655   0.017   0.031
 3224TIP3    H1 9629   7.621   0.072   0.102
 3224TIP3    H2 9630   7.613   0.052  -0.048
 3225TIP3   OH2 9631   2.332   3.968   0.594
 3225TIP3    H1 9632   2.258   3.908   0.588
 3225TIP3    H2 9633   2.330   4.000   0.685
 3226TIP3   OH2 9634   3.621   2.695   3.890
 3226TIP3    H1 9635   3.639   2.739   3.974
 3226TIP3    H2 9636   3.548   2.743   3.853
 3227TIP3   OH2 9637   1.742   1.368   0.124
 3227TIP3    H1 9638   1.783   1.453   0.140
 3227TIP3    H2 9639   1.782   1.337   0.042
 3228TIP3   OH2 9640   6.796   7.592   0.409
 3228TIP3    H1 9641   6.862   7.638   0.357
 3228TIP3    H2 9642   6.748   7.539   0.345
 3229TIP3   OH2 9643   7.635   1.564   5.926
 3229TIP3    H1 9644   7.582   1.639   5.954
 3229TIP3    H2 9645   7.579   1.488   5.943
 3230TIP3   OH2 9646   2.499   0.132   2.373
 3230TIP3    H1 9647   2.518   0.042   2.346
 3230TIP3    H2 9648   2.533   0.186   2.301
 3231TIP3   OH2 9649   7.310   3.127   4.463
 3231TIP3    H1 9650   7.341   3.108   4.551
 3231TIP3    H2 9651   7.214   3.124   4.471
 3232TIP3   OH2 9652   4.795   4.198   2.107
 3232TIP3    H1 9653   4.886   4.221   2.125
 3232TIP3    H2 9654   4.798   4.110   2.071
 3233TIP3   OH2 9655   0.132   5.897   0.292
 3233TIP3    H1 9656   0.176   5.939   0.366
 3233TIP3    H2 9657   0.204   5.867   0.236
 3234TIP3   OH2 9658   0.569   5.363   3.869
 3234TIP3    H1 9659   0.599   5.451   3.892
 3234TIP3    H2 9660   0.629   5.305   3.916
 3235TIP3   OH2 9661   2.525   1.293   4.624
 3235TIP3    H1 9662   2.548   1.211   4.581
 3235TIP3    H2 9663   2.572   1.291   4.707
 3236TIP3   OH2 9664   6.781   4.253   0.752
 3236TIP3    H1 9665   6.846   4.217   0.691
 3236TIP3    H2 9666   6.697   4.244   0.707
 3237TIP3   OH2 9667   7.236   0.127   5.811
 3237TIP3    H1 9668   7.264   0.083   5.891
 3237TIP3    H2 9669   7.280   0.080   5.741
 3238TIP3   OH2 9670   2.759   1.644   1.278
 3238TIP3    H1 9671   2.817   1.697   1.223
 3238TIP3    H2 9672   2.812   1.623   1.355
 3239TIP3   OH2 9673   1.563   4.146   4.179
 3239TIP3    H1 9674   1.639   4.203   4.169
 3239TIP3    H2 9675   1.557   4.130   4.273
 3240TIP3   OH2 9676   3.467   6.478   2.902
 3240TIP3    H1 9677   3.537   6.464   2.838
 3240TIP3    H2 9678   3.463   6.395   2.951
 3241TIP3   OH2 9679   2.695   0.101   5.156
 3241TIP3    H1 9680   2.639   0.168   5.196
 3241TIP3    H2 9681   2.770   0.095   5.215
 3242TIP3   OH2 9682   4.994   3.644   1.968
 3242TIP3    H1 9683   5.060   3.699   2.011
 3242TIP3    H2 9684   4.946   3.603   2.041
 3243TIP3   OH2 9685   3.162   5.536   4.920
 3243TIP3    H1 9686   3.161   5.512   4.827
 3243TIP3    H2 9687   3.077   5.508   4.953
 3244TIP3   OH2 9688   8.251   1.375   4.877
 3244TIP3    H1 9689   8.178   1.389   4.818
 3244TIP3    H2 9690   8.329   1.383   4.822
 3245TIP3   OH2 9691   1.073   1.254   4.654
 3245TIP3    H1 9692   1.013   1.287   4.587
 3245TIP3    H2 9693   1.140   1.321   4.662
 3246TIP3   OH2 9694   1.759   0.471   5.668
 3246TIP3    H1 9695   1.842   0.473   5.717
 3246TIP3    H2 9696   1.765   0.391   5.616
 3247TIP3   OH2 9697   8.160   4.977   5.229
 3247TIP3    H1 9698   8.070   4.951   5.205
 3247TIP3    H2 9699   8.148   5.049   5.291
 3248TIP3   OH2 9700   4.491   2.655   6.657
 3248TIP3    H1 9701   4.488   2.724   6.723
 3248TIP3    H2 9702   4.406   2.612   6.663
 3249TIP3   OH2 9703   3.638   6.778   4.926
 3249TIP3    H1 9704   3.629   6.828   4.845
 3249TIP3    H2 9705   3.621   6.687   4.900
 3250TIP3   OH2 9706   7.360   2.017   0.651
 3250TIP3    H1 9707   7.405   1.934   0.668
 3250TIP3    H2 9708   7.269   1.992   0.633
 3251TIP3   OH2 9709   6.385   3.542   2.379
 3251TIP3    H1 9710   6.298   3.579   2.364
 3251TIP3    H2 9711   6.396   3.478   2.310
 3252TIP3   OH2 9712   7.293   0.023   1.723
 3252TIP3    H1 9713   7.257   0.097   1.673
 3252TIP3    H2 9714   7.370   0.060   1.767
 3253TIP3   OH2 9715   7.954   7.056   2.767
 3253TIP3    H1 9716   7.917   6.971   2.789
 3253TIP3    H2 9717   8.027   7.036   2.708
 3254TIP3   OH2 9718   0.661   6.695   1.733
 3254TIP3    H1 9719   0.570   6.707   1.761
 3254TIP3    H2 9720   0.700   6.782   1.742
 3255TIP3   OH2 9721   7.937   4.532   6.501
 3255TIP3    H1 9722   8.002   4.463   6.496
 3255TIP3    H2 9723   7.981   4.605   6.544
 3256TIP3   OH2 9724   6.916   1.047   5.476
 3256TIP3    H1 9725   6.922   0.965   5.525
 3256TIP3    H2 9726   6.845   1.095   5.519
 3257TIP3   OH2 9727   6.334   3.776   5.365
 3257TIP3    H1 9728   6.246   3.741   5.371
 3257TIP3    H2 9729   6.382   3.732   5.436
 3258TIP3   OH2 9730   7.040   0.324   5.535
 3258TIP3    H1 9731   7.036   0.382   5.612
 3258TIP3    H2 9732   7.090   0.374   5.471
 3259TIP3   OH2 9733   6.145   4.698   1.605
 3259TIP3    H1 9734   6.191   4.613   1.605
 3259TIP3    H2 9735   6.111   4.706   1.516
 3260TIP3   OH2 9736   1.022   1.591   4.980
 3260TIP3    H1 9737   1.065   1.671   5.011
 3260TIP3    H2 9738   0.948   1.622   4.928
 3261TIP3   OH2 9739   7.966   1.885   4.010
 3261TIP3    H1 9740   8.017   1.844   4.079
 3261TIP3    H2 9741   7.882   1.906   4.051
 3262TIP3   OH2 9742   0.914   3.849   6.765
 3262TIP3    H1 9743   0.944   3.780   6.705
 3262TIP3    H2 9744   0.985   3.860   6.827
 3263TIP3   OH2 9745   4.857   4.656   4.829
 3263TIP3    H1 9746   4.772   4.679   4.866
 3263TIP3    H2 9747   4.919   4.674   4.900
 3264TIP3   OH2 9748   4.192   6.475   3.926
 3264TIP3    H1 9749   4.199   6.558   3.973
 3264TIP3    H2 9750   4.279   6.437   3.931
 3265TIP3   OH2 9751   8.069   2.377   1.490
 3265TIP3    H1 9752   8.014   2.303   1.516
 3265TIP3    H2 9753   8.159   2.345   1.501
 3266TIP3   OH2 9754   6.884   1.698   4.567
 3266TIP3    H1 9755   6.820   1.743   4.512
 3266TIP3    H2 9756   6.880   1.606   4.540
 3267TIP3   OH2 9757   1.151   7.354   3.993
 3267TIP3    H1 9758   1.236   7.314   3.980
 3267TIP3    H2 9759   1.102   7.290   4.046
 3268TIP3   OH2 9760   7.007   6.146   5.226
 3268TIP3    H1 9761   7.008   6.181   5.315
 3268TIP3    H2 9762   7.037   6.056   5.235
 3269TIP3   OH2 9763   7.956   1.919   3.726
 3269TIP3    H1 9764   7.961   2.013   3.711
 3269TIP3    H2 9765   7.929   1.911   3.818
 3270TIP3   OH2 9766   3.107   1.770   1.912
 3270TIP3    H1 9767   3.036   1.775   1.976
 3270TIP3    H2 9768   3.074   1.816   1.835
 3271TIP3   OH2 9769   0.632   1.966   1.198
 3271TIP3    H1 9770   0.689   1.973   1.121
 3271TIP3    H2 9771   0.662   2.036   1.256
 3272TIP3   OH2 9772   5.350   1.548   0.494
 3272TIP3    H1 9773   5.319   1.560   0.584
 3272TIP3    H2 9774   5.420   1.483   0.502
 3273TIP3   OH2 9775   2.317   1.339   0.753
 3273TIP3    H1 9776   2.353   1.267   0.701
 3273TIP3    H2 9777   2.393   1.379   0.796
 3274TIP3   OH2 9778   6.050   3.957   4.450
 3274TIP3    H1 9779   6.081   3.867   4.446
 3274TIP3    H2 9780   5.975   3.960   4.390
 3275TIP3   OH2 9781   3.554   1.179   2.735
 3275TIP3    H1 9782   3.575   1.247   2.672
 3275TIP3    H2 9783   3.610   1.105   2.711
 3276TIP3   OH2 9784   1.516   6.223   0.719
 3276TIP3    H1 9785   1.458   6.152   0.745
 3276TIP3    H2 9786   1.487   6.298   0.771
 3277TIP3   OH2 9787   7.369   1.276   5.685
 3277TIP3    H1 9788   7.289   1.247   5.641
 3277TIP3    H2 9789   7.379   1.367   5.658
 3278TIP3   OH2 9790   5.073   7.043   0.640
 3278TIP3    H1 9791   5.080   6.984   0.715
 3278TIP3    H2 9792   4.980   7.065   0.636
 3279TIP3   OH2 9793   7.022   2.191   4.223
 3279TIP3    H1 9794   6.928   2.190   4.239
 3279TIP3    H2 9795   7.032   2.244   4.144
 3280TIP3   OH2 9796   6.883   4.590   6.468
 3280TIP3    H1 9797   6.923   4.654   6.409
 3280TIP3    H2 9798   6.917   4.613   6.554
 3281TIP3   OH2 9799   2.918   1.330   0.123
 3281TIP3    H1 9800   2.841   1.374   0.087
 3281TIP3    H2 9801   2.885   1.245   0.154
 3282TIP3   OH2 9802   3.381   0.091   0.518
 3282TIP3    H1 9803   3.453   0.083   0.455
 3282TIP3    H2 9804   3.342   0.176   0.500
 3283TIP3   OH2 9805   3.468   2.460   5.542
 3283TIP3    H1 9806   3.438   2.470   5.452
 3283TIP3    H2 9807   3.546   2.405   5.534
 3284TIP3   OH2 9808   1.059   3.851   0.042
 3284TIP3    H1 9809   0.963   3.855   0.045
 3284TIP3    H2 9810   1.078   3.789  -0.029
 3285TIP3   OH2 9811   0.316   6.079   0.868
 3285TIP3    H1 9812   0.390   6.047   0.921
 3285TIP3    H2 9813   0.351   6.155   0.822
 3286TIP3   OH2 9814   5.372   3.196   5.362
 3286TIP3    H1 9815   5.365   3.138   5.286
 3286TIP3    H2 9816   5.296   3.173   5.416
 3287TIP3   OH2 9817   7.550   4.959   6.084
 3287TIP3    H1 9818   7.532   4.941   5.991
 3287TIP3    H2 9819   7.566   4.872   6.122
 3288TIP3   OH2 9820   5.042   3.377   3.965
 3288TIP3    H1 9821   5.000   3.293   3.982
 3288TIP3    H2 9822   4.989   3.441   4.012
 3289TIP3   OH2 9823   4.302   4.663   5.198
 3289TIP3    H1 9824   4.333   4.586   5.245
 3289TIP3    H2 9825   4.248   4.628   5.128
 3290TIP3   OH2 9826   1.582   7.492   3.633
 3290TIP3    H1 9827   1.668   7.533   3.645
 3290TIP3    H2 9828   1.601   7.403   3.603
 3291TIP3   OH2 9829   5.216   2.848   6.570
 3291TIP3    H1 9830   5.300   2.886   6.597
 3291TIP3    H2 9831   5.171   2.827   6.652
 3292TIP3   OH2 9832   5.609   6.363   3.140
 3292TIP3    H1 9833   5.530   6.380   3.089
 3292TIP3    H2 9834   5.638   6.449   3.169
 3293TIP3   OH2 9835   4.430   0.328   3.934
 3293TIP3    H1 9836   4.429   0.361   3.844
 3293TIP3    H2 9837   4.339   0.309   3.954
 3294TIP3   OH2 9838   5.943   0.720   5.964
 3294TIP3    H1 9839   5.862   0.768   5.945
 3294TIP3    H2 9840   5.935   0.640   5.913
 3295TIP3   OH2 9841   6.025   1.628   4.256
 3295TIP3    H1 9842   6.114   1.635   4.221
 3295TIP3    H2 9843   6.018   1.701   4.318
 3296TIP3   OH2 9844   7.971   3.045   6.193
 3296TIP3    H1 9845   8.011   3.078   6.273
 3296TIP3    H2 9846   8.045   3.017   6.139
 3297TIP3   OH2 9847   4.680   4.247   5.647
 3297TIP3    H1 9848   4.743   4.315   5.622
 3297TIP3    H2 9849   4.652   4.271   5.735
 3298TIP3   OH2 9850   5.467   6.690   2.690
 3298TIP3    H1 9851   5.471   6.784   2.672
 3298TIP3    H2 9852   5.425   6.653   2.612
 3299TIP3   OH2 9853   7.238   2.486   2.553
 3299TIP3    H1 9854   7.305   2.427   2.589
 3299TIP3    H2 9855   7.155   2.451   2.586
 3300TIP3   OH2 9856   1.986   4.619   1.646
 3300TIP3    H1 9857   2.067   4.590   1.604
 3300TIP3    H2 9858   2.012   4.638   1.737
 3301TIP3   OH2 9859   1.856   5.994   3.012
 3301TIP3    H1 9860   1.879   6.069   2.958
 3301TIP3    H2 9861   1.766   5.973   2.987
 3302TIP3   OH2 9862   6.565   2.774   6.552
 3302TIP3    H1 9863   6.573   2.798   6.645
 3302TIP3    H2 9864   6.475   2.744   6.543
 3303TIP3   OH2 9865   6.214   2.485   2.507
 3303TIP3    H1 9866   6.223   2.519   2.417
 3303TIP3    H2 9867   6.277   2.536   2.557
 3304TIP3   OH2 9868   6.313   3.743   4.547
 3304TIP3    H1 9869   6.382   3.696   4.593
 3304TIP3    H2 9870   6.307   3.827   4.593
 3305TIP3   OH2 9871   8.145   6.343   1.759
 3305TIP3    H1 9872   8.104   6.350   1.673
 3305TIP3    H2 9873   8.100   6.409   1.812
 3306TIP3   OH2 9874   1.749   3.742   1.382
 3306TIP3    H1 9875   1.844   3.734   1.396
 3306TIP3    H2 9876   1.710   3.721   1.467
 3307TIP3   OH2 9877   3.024   4.075   4.074
 3307TIP3    H1 9878   3.090   4.054   4.141
 3307TIP3    H2 9879   3.049   4.162   4.043
 3308TIP3   OH2 9880   8.062   0.007   6.543
 3308TIP3    H1 9881   8.119   0.075   6.581
 3308TIP3    H2 9882   8.029   0.046   6.462
 3309TIP3   OH2 9883   5.045   0.231   1.277
 3309TIP3    H1 9884   4.981   0.170   1.313
 3309TIP3    H2 9885   5.049   0.303   1.340
 3310TIP3   OH2 9886   4.900   5.358   0.996
 3310TIP3    H1 9887   4.992   5.331   1.005
 3310TIP3    H2 9888   4.897   5.407   0.914
 3311TIP3   OH2 9889   2.632   5.784   5.165
 3311TIP3    H1 9890   2.674   5.713   5.213
 3311TIP3    H2 9891   2.704   5.832   5.125
 3312TIP3   OH2 9892   8.137   4.238   5.682
 3312TIP3    H1 9893   8.160   4.300   5.751
 3312TIP3    H2 9894   8.043   4.223   5.693
 3313TIP3   OH2 9895   7.770   0.440   3.598
 3313TIP3    H1 9896   7.721   0.365   3.563
 3313TIP3    H2 9897   7.722   0.465   3.677
 3314TIP3   OH2 9898   3.232   6.404   5.403
 3314TIP3    H1 9899   3.189   6.380   5.485
 3314TIP3    H2 9900   3.314   6.355   5.403
 3315TIP3   OH2 9901   4.507   6.303   3.363
 3315TIP3    H1 9902   4.459   6.383   3.382
 3315TIP3    H2 9903   4.448   6.253   3.306
 3316TIP3   OH2 9904   6.244   1.131   3.791
 3316TIP3    H1 9905   6.214   1.200   3.732
 3316TIP3    H2 9906   6.339   1.147   3.800
 3317TIP3   OH2 9907   0.799   6.706   3.303
 3317TIP3    H1 9908   0.837   6.694   3.390
 3317TIP3    H2 9909   0.866   6.673   3.243
 3318TIP3   OH2 9910   3.616   5.048   3.698
 3318TIP3    H1 9911   3.656   4.964   3.719
 3318TIP3    H2 9912   3.673   5.113   3.738
 3319TIP3   OH2 9913   3.233   6.937   6.334
 3319TIP3    H1 9914   3.198   6.887   6.407
 3319TIP3    H2 9915   3.217   6.882   6.257
 3320TIP3   OH2 9916   6.310   5.497   5.743
 3320TIP3    H1 9917   6.232   5.490   5.797
 3320TIP3    H2 9918   6.338   5.588   5.752
 3321TIP3   OH2 9919   2.085   3.966   5.383
 3321TIP3    H1 9920   2.062   4.025   5.311
 3321TIP3    H2 9921   2.177   3.945   5.368
 3322TIP3   OH2 9922   6.438   5.464   0.274
 3322TIP3    H1 9923   6.419   5.371   0.275
 3322TIP3    H2 9924   6.528   5.470   0.243
 3323TIP3   OH2 9925   1.568   2.755   5.864
 3323TIP3    H1 9926   1.567   2.663   5.890
 3323TIP3    H2 9927   1.600   2.755   5.774
 3324TIP3   OH2 9928   3.129   4.123   3.424
 3324TIP3    H1 9929   3.069   4.191   3.396
 3324TIP3    H2 9930   3.099   4.044   3.378
 3325TIP3   OH2 9931   1.826   2.388   5.266
 3325TIP3    H1 9932   1.917   2.405   5.290
 3325TIP3    H2 9933   1.798   2.320   5.327
 3326TIP3   OH2 9934   1.460   3.979   0.928
 3326TIP3    H1 9935   1.427   4.028   1.003
 3326TIP3    H2 9936   1.546   4.017   0.909
 3327TIP3   OH2 9937   5.523   4.710   4.038
 3327TIP3    H1 9938   5.537   4.783   3.978
 3327TIP3    H2 9939   5.520   4.632   3.982
 3328TIP3   OH2 9940   0.829   0.316   5.504
 3328TIP3    H1 9941   0.845   0.348   5.593
 3328TIP3    H2 9942   0.780   0.234   5.516
 3329TIP3   OH2 9943   6.465   7.710   0.956
 3329TIP3    H1 9944   6.550   7.682   0.922
 3329TIP3    H2 9945   6.414   7.629   0.963
 3330TIP3   OH2 9946   2.158   5.101   4.101
 3330TIP3    H1 9947   2.069   5.085   4.130
 3330TIP3    H2 9948   2.178   5.029   4.041
 3331TIP3   OH2 9949   1.662   3.693   4.467
 3331TIP3    H1 9950   1.659   3.608   4.423
 3331TIP3    H2 9951   1.573   3.728   4.459
 3332TIP3   OH2 9952   0.117   3.360   4.768
 3332TIP3    H1 9953   0.133   3.345   4.675
 3332TIP3    H2 9954   0.082   3.277   4.801
 3333TIP3   OH2 9955   6.707   4.555   6.161
 3333TIP3    H1 9956   6.725   4.465   6.135
 3333TIP3    H2 9957   6.721   4.557   6.256
 3334TIP3   OH2 9958   4.063   2.882   0.349
 3334TIP3    H1 9959   4.009   2.819   0.303
 3334TIP3    H2 9960   4.008   2.913   0.422
 3335TIP3   OH2 9961   2.387   5.220   2.321
 3335TIP3    H1 9962   2.324   5.199   2.252
 3335TIP3    H2 9963   2.370   5.312   2.342
 3336TIP3   OH2 9964   0.215   1.315   4.263
 3336TIP3    H1 9965   0.162   1.383   4.223
 3336TIP3    H2 9966   0.285   1.299   4.200
 3337TIP3   OH2 9967   3.809   2.916   3.619
 3337TIP3    H1 9968   3.820   2.880   3.531
 3337TIP3    H2 9969   3.787   2.840   3.673
 3338TIP3   OH2 9970   5.760   5.287   2.220
 3338TIP3    H1 9971   5.821   5.256   2.287
 3338TIP3    H2 9972   5.676   5.295   2.266
 3339TIP3   OH2 9973   7.252   3.279   6.531
 3339TIP3    H1 9974   7.236   3.300   6.439
 3339TIP3    H2 9975   7.187   3.331   6.579
 3340TIP3   OH2 9976   2.636   3.836   5.179
 3340TIP3    H1 9977   2.660   3.840   5.087
 3340TIP3    H2 9978   2.541   3.847   5.180
 3341TIP3   OH2 9979   6.730   1.397   5.068
 3341TIP3    H1 9980   6.696   1.421   4.982
 3341TIP3    H2 9981   6.819   1.365   5.050
 3342TIP3   OH2 9982   1.400   3.218   3.314
 3342TIP3    H1 9983   1.451   3.200   3.393
 3342TIP3    H2 9984   1.309   3.220   3.344
 3343TIP3   OH2 9985   6.628   5.561   1.947
 3343TIP3    H1 9986   6.687   5.513   2.005
 3343TIP3    H2 9987   6.670   5.647   1.936
 3344TIP3   OH2 9988   3.994   5.032   1.881
 3344TIP3    H1 9989   3.911   5.067   1.848
 3344TIP3    H2 9990   3.971   4.984   1.960
 3345TIP3   OH2 9991   7.117   1.134   1.645
 3345TIP3    H1 9992   7.090   1.063   1.588
 3345TIP3    H2 9993   7.203   1.107   1.679
 3346TIP3   OH2 9994   1.606   7.041   5.290
 3346TIP3    H1 9995   1.679   7.091   5.253
 3346TIP3    H2 9996   1.626   6.950   5.268
 3347TIP3   OH2 9997   1.921   5.593   4.759
 3347TIP3    H1 9998   1.960   5.638   4.834
 3347TIP3    H2 9999   1.966   5.630   4.683
 3348TIP3   OH210000   7.054   1.129   1.001
 3348TIP3    H110001   7.011   1.123   0.916
 3348TIP3    H210002   7.148   1.134   0.981
 3349TIP3   OH210003   1.586   3.175   5.764
 3349TIP3    H110004   1.538   3.180   5.846
 3349TIP3    H210005   1.527   3.130   5.703
 3350TIP3   OH210006   0.884   2.959   1.686
 3350TIP3    H110007   0.950   3.006   1.737
 3350TIP3    H210008   0.868   2.879   1.735
 3351TIP3   OH210009   4.483   1.196   4.565
 3351TIP3    H110010   4.454   1.270   4.512
 3351TIP3    H210011   4.544   1.234   4.629
 3352TIP3   OH210012   2.644   5.166   2.032
 3352TIP3    H110013   2.585   5.103   1.991
 3352TIP3    H210014   2.591   5.243   2.048
 3353TIP3   OH210015   0.985   5.688   2.206
 3353TIP3    H110016   0.952   5.777   2.215
 3353TIP3    H210017   0.931   5.650   2.137
 3354TIP3   OH210018   5.284   6.521   2.082
 3354TIP3    H110019   5.205   6.536   2.029
 3354TIP3    H210020   5.269   6.437   2.125
 3355TIP3   OH210021   6.014   0.387   5.228
 3355TIP3    H110022   5.955   0.356   5.297
 3355TIP3    H210023   6.004   0.482   5.229
 3356TIP3   OH210024   6.859   1.902   1.914
 3356TIP3    H110025   6.842   1.955   1.836
 3356TIP3    H210026   6.844   1.961   1.987
 3357TIP3   OH210027   1.142   1.713   0.050
 3357TIP3    H110028   1.090   1.687   0.126
 3357TIP3    H210029   1.233   1.700   0.078
 3358TIP3   OH210030   7.105   3.135   1.688
 3358TIP3    H110031   7.034   3.141   1.751
 3358TIP3    H210032   7.061   3.130   1.603
 3359TIP3   OH210033   0.110   5.134   5.565
 3359TIP3    H110034   0.036   5.080   5.593
 3359TIP3    H210035   0.150   5.086   5.493
 3360TIP3   OH210036   1.880   2.835   0.306
 3360TIP3    H110037   1.866   2.874   0.392
 3360TIP3    H210038   1.921   2.904   0.255
 3361TIP3   OH210039   5.696   7.586   2.230
 3361TIP3    H110040   5.709   7.594   2.325
 3361TIP3    H210041   5.729   7.499   2.209
 3362TIP3   OH210042   5.577   0.658   0.742
 3362TIP3    H110043   5.582   0.606   0.662
 3362TIP3    H210044   5.563   0.748   0.712
 3363TIP3   OH210045   8.130   4.072   2.334
 3363TIP3    H110046   8.088   3.993   2.299
 3363TIP3    H210047   8.218   4.071   2.296
 3364TIP3   OH210048   1.761   3.193   3.180
 3364TIP3    H110049   1.855   3.204   3.198
 3364TIP3    H210050   1.718   3.250   3.244
 3365TIP3   OH210051   3.491   0.275   4.140
 3365TIP3    H110052   3.505   0.194   4.190
 3365TIP3    H210053   3.454   0.336   4.204
 3366TIP3   OH210054   0.673   2.546   6.116
 3366TIP3    H110055   0.697   2.638   6.118
 3366TIP3    H210056   0.597   2.542   6.057
 3367TIP3   OH210057   0.106   4.147   6.002
 3367TIP3    H110058   0.157   4.102   5.935
 3367TIP3    H210059   0.147   4.234   6.008
 3368TIP3   OH210060   0.094   2.082   6.164
 3368TIP3    H110061   0.174   2.028   6.165
 3368TIP3    H210062   0.024   2.020   6.142
 3369TIP3   OH210063   0.139   4.707   2.360
 3369TIP3    H110064   0.154   4.727   2.268
 3369TIP3    H210065   0.182   4.778   2.408
 3370TIP3   OH210066   7.389   7.521   4.041
 3370TIP3    H110067   7.434   7.489   3.963
 3370TIP3    H210068   7.298   7.494   4.029
 3371TIP3   OH210069   0.857   4.430   4.443
 3371TIP3    H110070   0.804   4.395   4.514
 3371TIP3    H210071   0.817   4.515   4.422
 3372TIP3   OH210072   6.344   4.521   5.075
 3372TIP3    H110073   6.301   4.572   5.144
 3372TIP3    H210074   6.378   4.585   5.014
 3373TIP3   OH210075   5.243   0.586   0.103
 3373TIP3    H110076   5.321   0.538   0.077
 3373TIP3    H210077   5.171   0.543   0.056
 3374TIP3   OH210078   7.618   2.061   3.808
 3374TIP3    H110079   7.625   2.015   3.891
 3374TIP3    H210080   7.649   1.998   3.743
 3375TIP3   OH210081   5.070   0.924   5.028
 3375TIP3    H110082   4.977   0.939   5.012
 3375TIP3    H210083   5.105   0.900   4.943
 3376TIP3   OH210084   1.902   1.299   3.714
 3376TIP3    H110085   1.862   1.264   3.793
 3376TIP3    H210086   1.916   1.392   3.732
 3377TIP3   OH210087   6.422   3.484   3.623
 3377TIP3    H110088   6.421   3.567   3.670
 3377TIP3    H210089   6.407   3.508   3.531
 3378TIP3   OH210090   4.619   3.088   2.750
 3378TIP3    H110091   4.656   3.135   2.825
 3378TIP3    H210092   4.693   3.077   2.690
 3379TIP3   OH210093   4.061   1.758   2.437
 3379TIP3    H110094   4.056   1.841   2.484
 3379TIP3    H210095   4.030   1.693   2.500
 3380TIP3   OH210096   4.099   0.728   1.202
 3380TIP3    H110097   4.177   0.678   1.228
 3380TIP3    H210098   4.111   0.745   1.109
 3381TIP3   OH210099   1.984   7.607   4.457
 3381TIP3    H110100   2.001   7.604   4.552
 3381TIP3    H210101   1.896   7.572   4.447
 3382TIP3   OH210102   5.979   2.477   0.590
 3382TIP3    H110103   5.896   2.493   0.544
 3382TIP3    H210104   5.952   2.439   0.674
 3383TIP3   OH210105   5.538   0.813   1.309
 3383TIP3    H110106   5.547   0.718   1.309
 3383TIP3    H210107   5.446   0.829   1.332
 3384TIP3   OH210108   1.290   1.530   0.593
 3384TIP3    H110109   1.246   1.504   0.512
 3384TIP3    H210110   1.380   1.497   0.582
 3385TIP3   OH210111   1.851   0.343   6.582
 3385TIP3    H110112   1.791   0.392   6.638
 3385TIP3    H210113   1.808   0.258   6.568
 3386TIP3   OH210114   5.387   2.580   5.031
 3386TIP3    H110115   5.391   2.490   4.999
 3386TIP3    H210116   5.295   2.593   5.056
 3387TIP3   OH210117   5.325   0.613   4.201
 3387TIP3    H110118   5.247   0.600   4.254
 3387TIP3    H210119   5.329   0.537   4.144
 3388TIP3   OH210120   3.955   2.493   0.943
 3388TIP3    H110121   3.941   2.408   0.901
 3388TIP3    H210122   3.869   2.519   0.974
 3389TIP3   OH210123   1.784   3.903   4.187
 3389TIP3    H110124   1.764   3.970   4.122
 3389TIP3    H210125   1.707   3.847   4.190
 3390TIP3   OH210126   2.433   2.863   1.280
 3390TIP3    H110127   2.384   2.930   1.328
 3390TIP3    H210128   2.412   2.879   1.188
 3391TIP3   OH210129   5.134   5.199   3.067
 3391TIP3    H110130   5.185   5.123   3.038
 3391TIP3    H210131   5.043   5.174   3.054
 3392TIP3   OH210132   5.516   1.019   0.481
 3392TIP3    H110133   5.511   1.100   0.531
 3392TIP3    H210134   5.578   0.965   0.529
 3393TIP3   OH210135   0.678   6.605   6.089
 3393TIP3    H110136   0.721   6.691   6.095
 3393TIP3    H210137   0.587   6.625   6.067
 3394TIP3   OH210138   4.011   2.823   2.005
 3394TIP3    H110139   4.017   2.806   1.911
 3394TIP3    H210140   4.033   2.916   2.014
 3395TIP3   OH210141   3.925   6.481   1.563
 3395TIP3    H110142   3.972   6.542   1.506
 3395TIP3    H210143   3.867   6.536   1.615
 3396TIP3   OH210144   3.366   2.051   5.720
 3396TIP3    H110145   3.381   2.047   5.626
 3396TIP3    H210146   3.351   2.144   5.737
 3397TIP3   OH210147   2.409   6.338   1.988
 3397TIP3    H110148   2.478   6.353   2.052
 3397TIP3    H210149   2.405   6.418   1.936
 3398TIP3   OH210150   5.944   3.057   3.818
 3398TIP3    H110151   5.901   2.994   3.876
 3398TIP3    H210152   5.880   3.127   3.808
 3399TIP3   OH210153   6.509   6.194   0.068
 3399TIP3    H110154   6.550   6.197  -0.018
 3399TIP3    H210155   6.582   6.182   0.129
 3400TIP3   OH210156   1.524   0.508   2.193
 3400TIP3    H110157   1.456   0.523   2.259
 3400TIP3    H210158   1.605   0.505   2.243
 3401TIP3   OH210159   4.139   2.859   0.903
 3401TIP3    H110160   4.208   2.810   0.858
 3401TIP3    H210161   4.060   2.805   0.891
 3402TIP3   OH210162   7.854   2.679   4.740
 3402TIP3    H110163   7.779   2.621   4.757
 3402TIP3    H210164   7.817   2.767   4.742
 3403TIP3   OH210165   5.787   6.645   3.436
 3403TIP3    H110166   5.753   6.666   3.349
 3403TIP3    H210167   5.721   6.679   3.496
 3404TIP3   OH210168   7.413   1.124   3.544
 3404TIP3    H110169   7.411   1.145   3.451
 3404TIP3    H210170   7.356   1.047   3.552
 3405TIP3   OH210171   5.802   0.074   0.325
 3405TIP3    H110172   5.707   0.069   0.335
 3405TIP3    H210173   5.819   0.167   0.306
 3406TIP3   OH210174   6.447   3.202   0.602
 3406TIP3    H110175   6.480   3.264   0.537
 3406TIP3    H210176   6.425   3.124   0.552
 3407TIP3   OH210177   2.299   3.740   6.661
 3407TIP3    H110178   2.239   3.780   6.724
 3407TIP3    H210179   2.252   3.744   6.578
 3408TIP3   OH210180   2.479   5.152   5.411
 3408TIP3    H110181   2.531   5.139   5.332
 3408TIP3    H210182   2.389   5.161   5.380
 3409TIP3   OH210183   7.193   0.280   4.344
 3409TIP3    H110184   7.197   0.229   4.263
 3409TIP3    H210185   7.277   0.262   4.387
 3410TIP3   OH210186   1.092   6.134   4.643
 3410TIP3    H110187   1.019   6.167   4.695
 3410TIP3    H210188   1.051   6.082   4.574
 3411TIP3   OH210189   0.659   5.704   2.467
 3411TIP3    H110190   0.635   5.696   2.559
 3411TIP3    H210191   0.754   5.719   2.469
 3412TIP3   OH210192   6.665   7.610   5.372
 3412TIP3    H110193   6.641   7.680   5.434
 3412TIP3    H210194   6.692   7.537   5.428
 3413TIP3   OH210195   0.494   4.032   2.038
 3413TIP3    H110196   0.420   4.008   2.094
 3413TIP3    H210197   0.454   4.053   1.954
 3414TIP3   OH210198   1.269   1.933   2.432
 3414TIP3    H110199   1.263   2.014   2.381
 3414TIP3    H210200   1.358   1.933   2.467
 3415TIP3   OH210201   1.698   3.443   2.336
 3415TIP3    H110202   1.656   3.430   2.421
 3415TIP3    H210203   1.664   3.527   2.305
 3416TIP3   OH210204   2.373   3.454   0.106
 3416TIP3    H110205   2.434   3.422   0.173
 3416TIP3    H210206   2.334   3.532   0.144
 3417TIP3   OH210207   6.290   0.857   5.121
 3417TIP3    H110208   6.318   0.768   5.099
 3417TIP3    H210209   6.318   0.910   5.047
 3418TIP3   OH210210   7.049   6.451   5.225
 3418TIP3    H110211   7.013   6.508   5.293
 3418TIP3    H210212   6.980   6.447   5.158
 3419TIP3   OH210213   7.091   3.710   1.650
 3419TIP3    H110214   7.121   3.778   1.590
 3419TIP3    H210215   7.171   3.668   1.681
 3420TIP3   OH210216   4.453   0.905   4.962
 3420TIP3    H110217   4.500   0.888   4.881
 3420TIP3    H210218   4.395   0.978   4.942
 3421TIP3   OH210219   4.646   1.234   1.435
 3421TIP3    H110220   4.558   1.253   1.404
 3421TIP3    H210221   4.702   1.238   1.357
 3422TIP3   OH210222   1.940   1.949   4.070
 3422TIP3    H110223   1.958   1.944   3.976
 3422TIP3    H210224   1.930   2.042   4.088
 3423TIP3   OH210225   0.571   4.991   4.075
 3423TIP3    H110226   0.556   4.933   4.150
 3423TIP3    H210227   0.559   5.079   4.110
 3424TIP3   OH210228   4.387   4.759   5.443
 3424TIP3    H110229   4.341   4.724   5.366
 3424TIP3    H210230   4.480   4.757   5.418
 3425TIP3   OH210231   7.544   6.041   1.579
 3425TIP3    H110232   7.588   6.063   1.496
 3425TIP3    H210233   7.507   5.954   1.564
 3426TIP3   OH210234   4.010   3.079   2.417
 3426TIP3    H110235   3.940   3.080   2.481
 3426TIP3    H210236   4.074   3.143   2.450
 3427TIP3   OH210237   3.923   2.687   3.985
 3427TIP3    H110238   3.890   2.661   4.071
 3427TIP3    H210239   3.846   2.683   3.928
 3428TIP3   OH210240   3.877   1.727   0.711
 3428TIP3    H110241   3.948   1.706   0.650
 3428TIP3    H210242   3.900   1.680   0.791
 3429TIP3   OH210243   1.930   7.268   3.671
 3429TIP3    H110244   1.867   7.201   3.647
 3429TIP3    H210245   1.934   7.326   3.595
 3430TIP3   OH210246   3.036   3.567   0.442
 3430TIP3    H110247   3.068   3.494   0.495
 3430TIP3    H210248   3.006   3.632   0.506
 3431TIP3   OH210249   8.078   4.243   3.237
 3431TIP3    H110250   8.157   4.213   3.282
 3431TIP3    H210251   8.054   4.324   3.282
 3432TIP3   OH210252   6.493   3.620   5.976
 3432TIP3    H110253   6.492   3.612   5.880
 3432TIP3    H210254   6.581   3.650   5.997
 3433TIP3   OH210255   5.789   3.548   1.676
 3433TIP3    H110256   5.700   3.556   1.640
 3433TIP3    H210257   5.787   3.465   1.724
 3434TIP3   OH210258   3.537   4.135   1.767
 3434TIP3    H110259   3.590   4.109   1.691
 3434TIP3    H210260   3.540   4.231   1.766
 3435TIP3   OH210261   0.909   3.954   1.387
 3435TIP3    H110262   0.849   3.999   1.327
 3435TIP3    H210263   0.991   3.950   1.339
 3436TIP3   OH210264   2.361   0.535   1.033
 3436TIP3    H110265   2.374   0.575   1.119
 3436TIP3    H210266   2.400   0.448   1.041
 3437TIP3   OH210267   4.765   5.903   2.829
 3437TIP3    H110268   4.804   5.817   2.813
 3437TIP3    H210269   4.710   5.890   2.906
 3438TIP3   OH210270   3.571   5.420   6.623
 3438TIP3    H110271   3.590   5.326   6.628
 3438TIP3    H210272   3.516   5.429   6.546
 3439TIP3   OH210273   2.735   1.015   6.346
 3439TIP3    H110274   2.740   1.018   6.442
 3439TIP3    H210275   2.777   0.932   6.323
 3440TIP3   OH210276   0.880   5.759   6.706
 3440TIP3    H110277   0.788   5.758   6.733
 3440TIP3    H210278   0.927   5.718   6.779
 3441TIP3   OH210279   2.386   1.286   2.663
 3441TIP3    H110280   2.478   1.311   2.655
 3441TIP3    H210281   2.381   1.242   2.748
 3442TIP3   OH210282   0.724   2.963   1.177
 3442TIP3    H110283   0.687   3.013   1.105
 3442TIP3    H210284   0.688   2.875   1.167
 3443TIP3   OH210285   6.641   5.408   6.626
 3443TIP3    H110286   6.676   5.331   6.671
 3443TIP3    H210287   6.653   5.389   6.533
 3444TIP3   OH210288   0.802   3.664   4.191
 3444TIP3    H110289   0.771   3.754   4.184
 3444TIP3    H210290   0.785   3.640   4.283
 3445TIP3   OH210291   5.998   1.251   4.655
 3445TIP3    H110292   5.980   1.329   4.602
 3445TIP3    H210293   5.952   1.269   4.738
 3446TIP3   OH210294   1.190   4.847   4.785
 3446TIP3    H110295   1.182   4.777   4.720
 3446TIP3    H210296   1.102   4.885   4.790
 3447TIP3   OH210297   5.045   4.801   2.827
 3447TIP3    H110298   5.086   4.717   2.846
 3447TIP3    H210299   4.969   4.805   2.885
 3448TIP3   OH210300   7.300   0.582   1.298
 3448TIP3    H110301   7.367   0.552   1.236
 3448TIP3    H210302   7.316   0.676   1.306
 3449TIP3   OH210303   5.096   6.679   2.810
 3449TIP3    H110304   5.040   6.701   2.884
 3449TIP3    H210305   5.133   6.594   2.833
 3450TIP3   OH210306   3.898   1.143   1.307
 3450TIP3    H110307   3.851   1.170   1.228
 3450TIP3    H210308   3.845   1.073   1.345
 3451TIP3   OH210309   1.353   1.676   1.428
 3451TIP3    H110310   1.326   1.625   1.352
 3451TIP3    H210311   1.445   1.696   1.412
 3452TIP3   OH210312   5.314   6.517   1.460
 3452TIP3    H110313   5.401   6.512   1.419
 3452TIP3    H210314   5.266   6.579   1.406
 3453TIP3   OH210315   7.715   2.074   2.344
 3453TIP3    H110316   7.728   2.164   2.373
 3453TIP3    H210317   7.748   2.020   2.416
 3454TIP3   OH210318   7.033   5.884   0.038
 3454TIP3    H110319   7.060   5.825   0.109
 3454TIP3    H210320   7.031   5.970   0.078
 3455TIP3   OH210321   0.550   3.426   3.530
 3455TIP3    H110322   0.542   3.467   3.616
 3455TIP3    H210323   0.487   3.354   3.531
 3456TIP3   OH210324   2.102   7.201   1.120
 3456TIP3    H110325   2.169   7.138   1.093
 3456TIP3    H210326   2.088   7.257   1.044
 3457TIP3   OH210327   4.570   0.491   6.450
 3457TIP3    H110328   4.661   0.466   6.435
 3457TIP3    H210329   4.570   0.586   6.448
 3458TIP3   OH210330   7.039   6.954   0.760
 3458TIP3    H110331   7.018   6.864   0.735
 3458TIP3    H210332   6.960   6.986   0.803
 3459TIP3   OH210333   1.268   7.582   0.894
 3459TIP3    H110334   1.198   7.643   0.917
 3459TIP3    H210335   1.343   7.638   0.875
 3460TIP3   OH210336   5.361   0.689   4.904
 3460TIP3    H110337   5.384   0.712   4.994
 3460TIP3    H210338   5.391   0.764   4.852
 3461TIP3   OH210339   0.430   0.613   1.353
 3461TIP3    H110340   0.398   0.523   1.358
 3461TIP3    H210341   0.368   0.663   1.408
 3462TIP3   OH210342   7.718   7.725   1.816
 3462TIP3    H110343   7.703   7.720   1.722
 3462TIP3    H210344   7.631   7.713   1.855
 3463TIP3   OH210345   3.739   1.512   1.584
 3463TIP3    H110346   3.715   1.581   1.523
 3463TIP3    H210347   3.828   1.534   1.612
 3464TIP3   OH210348   3.168   3.730   4.552
 3464TIP3    H110349   3.255   3.766   4.567
 3464TIP3    H210350   3.116   3.805   4.522
 3465TIP3   OH210351   5.069   0.409   1.498
 3465TIP3    H110352   5.107   0.341   1.554
 3465TIP3    H210353   5.016   0.462   1.558
 3466TIP3   OH210354   1.830   6.404   0.246
 3466TIP3    H110355   1.761   6.431   0.307
 3466TIP3    H210356   1.842   6.311   0.265
 3467TIP3   OH210357   1.466   5.852   4.527
 3467TIP3    H110358   1.454   5.947   4.519
 3467TIP3    H210359   1.418   5.815   4.453
 3468TIP3   OH210360   6.272   7.155   4.292
 3468TIP3    H110361   6.241   7.150   4.202
 3468TIP3    H210362   6.247   7.071   4.331
 3469TIP3   OH210363   6.706   3.257   6.699
 3469TIP3    H110364   6.625   3.210   6.680
 3469TIP3    H210365   6.680   3.348   6.710
 3470TIP3   OH210366   7.832   3.429   3.538
 3470TIP3    H110367   7.918   3.416   3.497
 3470TIP3    H210368   7.843   3.398   3.628
 3471TIP3   OH210369   4.627   7.607   4.202
 3471TIP3    H110370   4.599   7.539   4.264
 3471TIP3    H210371   4.640   7.559   4.120
 3472TIP3   OH210372   7.246   4.722   0.513
 3472TIP3    H110373   7.225   4.650   0.453
 3472TIP3    H210374   7.217   4.691   0.599
 3473TIP3   OH210375   6.312   1.446   5.197
 3473TIP3    H110376   6.399   1.477   5.223
 3473TIP3    H210377   6.286   1.386   5.267
 3474TIP3   OH210378   5.085   0.869   4.757
 3474TIP3    H110379   5.133   0.813   4.695
 3474TIP3    H210380   5.062   0.947   4.706
 3475TIP3   OH210381   0.309   0.288   1.817
 3475TIP3    H110382   0.392   0.266   1.859
 3475TIP3    H210383   0.257   0.329   1.886
 3476TIP3   OH210384   5.554   5.068   6.474
 3476TIP3    H110385   5.542   5.154   6.435
 3476TIP3    H210386   5.497   5.069   6.551
 3477TIP3   OH210387   0.675   0.903   1.473
 3477TIP3    H110388   0.622   0.963   1.526
 3477TIP3    H210389   0.755   0.951   1.455
 3478TIP3   OH210390   7.037   2.744   2.555
 3478TIP3    H110391   7.044   2.754   2.650
 3478TIP3    H210392   6.994   2.659   2.544
 3479TIP3   OH210393   1.558   1.060   0.976
 3479TIP3    H110394   1.571   0.965   0.976
 3479TIP3    H210395   1.646   1.096   0.966
 3480TIP3   OH210396   2.972   1.424   5.114
 3480TIP3    H110397   2.883   1.398   5.091
 3480TIP3    H210398   2.962   1.482   5.189
 3481TIP3   OH210399   7.543   1.798   4.712
 3481TIP3    H110400   7.603   1.725   4.732
 3481TIP3    H210401   7.585   1.875   4.751
 3482TIP3   OH210402   1.436   5.321   3.823
 3482TIP3    H110403   1.348   5.357   3.811
 3482TIP3    H210404   1.422   5.231   3.850
 3483TIP3   OH210405   1.570   3.511   0.674
 3483TIP3    H110406   1.617   3.558   0.604
 3483TIP3    H210407   1.508   3.456   0.627
 3484TIP3   OH210408   5.694   3.954   6.095
 3484TIP3    H110409   5.727   3.908   6.018
 3484TIP3    H210410   5.756   4.025   6.109
 3485TIP3   OH210411   1.302   4.367   4.014
 3485TIP3    H110412   1.386   4.414   4.009
 3485TIP3    H210413   1.320   4.281   3.977
 3486TIP3   OH210414   3.830   6.774   2.812
 3486TIP3    H110415   3.793   6.724   2.885
 3486TIP3    H210416   3.754   6.794   2.757
 3487TIP3   OH210417   4.455   6.926   6.681
 3487TIP3    H110418   4.536   6.901   6.636
 3487TIP3    H210419   4.484   6.964   6.764
 3488TIP3   OH210420   0.480   1.104   4.278
 3488TIP3    H110421   0.493   1.161   4.203
 3488TIP3    H210422   0.527   1.146   4.350
 3489TIP3   OH210423   3.968   3.278   0.177
 3489TIP3    H110424   3.974   3.372   0.194
 3489TIP3    H210425   3.947   3.239   0.262
 3490TIP3   OH210426   2.557   3.002   4.259
 3490TIP3    H110427   2.621   2.932   4.246
 3490TIP3    H210428   2.573   3.063   4.187
 3491TIP3   OH210429   5.665   2.480   6.309
 3491TIP3    H110430   5.573   2.459   6.325
 3491TIP3    H210431   5.664   2.541   6.235
 3492TIP3   OH210432   4.822   5.048   5.822
 3492TIP3    H110433   4.890   5.090   5.874
 3492TIP3    H210434   4.740   5.087   5.851
 3493TIP3   OH210435   6.544   3.901   1.782
 3493TIP3    H110436   6.460   3.938   1.810
 3493TIP3    H210437   6.609   3.964   1.814
 3494TIP3   OH210438   7.678   5.629   3.643
 3494TIP3    H110439   7.703   5.618   3.735
 3494TIP3    H210440   7.622   5.553   3.625
 3495TIP3   OH210441   6.956   6.892   0.396
 3495TIP3    H110442   6.984   6.805   0.427
 3495TIP3    H210443   6.862   6.882   0.381
 3496TIP3   OH210444   0.865   0.974   3.893
 3496TIP3    H110445   0.835   0.947   3.806
 3496TIP3    H210446   0.960   0.973   3.888
 3497TIP3   OH210447   0.531   6.737   6.683
 3497TIP3    H110448   0.526   6.646   6.654
 3497TIP3    H210449   0.620   6.765   6.662
 3498TIP3   OH210450   1.746   1.257   3.954
 3498TIP3    H110451   1.815   1.194   3.970
 3498TIP3    H210452   1.669   1.204   3.933
 3499TIP3   OH210453   6.748   4.936   1.260
 3499TIP3    H110454   6.763   4.854   1.214
 3499TIP3    H210455   6.824   4.947   1.316
 3500TIP3   OH210456   1.511   7.412   6.113
 3500TIP3    H110457   1.566   7.483   6.079
 3500TIP3    H210458   1.423   7.450   6.116
 3501TIP3   OH210459   4.708   1.931   5.453
 3501TIP3    H110460   4.664   1.961   5.374
 3501TIP3    H210461   4.721   1.837   5.440
 3502TIP3   OH210462   4.145   2.980   6.012
 3502TIP3    H110463   4.083   3.000   6.083
 3502TIP3    H210464   4.219   3.038   6.029
 3503TIP3   OH210465   0.719   5.026   3.191
 3503TIP3    H110466   0.682   4.968   3.256
 3503TIP3    H210467   0.803   5.054   3.228
 3504TIP3   OH210468   1.613   4.911   5.581
 3504TIP3    H110469   1.579   4.847   5.519
 3504TIP3    H210470   1.616   4.993   5.531
 3505TIP3   OH210471   2.070   1.716   3.984
 3505TIP3    H110472   2.041   1.806   4.000
 3505TIP3    H210473   2.164   1.717   4.005
 3506TIP3   OH210474   1.316   6.585   1.053
 3506TIP3    H110475   1.298   6.505   1.102
 3506TIP3    H210476   1.231   6.629   1.046
 3507TIP3   OH210477   2.528   3.204   3.706
 3507TIP3    H110478   2.549   3.204   3.799
 3507TIP3    H210479   2.612   3.222   3.662
 3508TIP3   OH210480   1.271   1.465   4.674
 3508TIP3    H110481   1.304   1.515   4.599
 3508TIP3    H210482   1.320   1.499   4.748
 3509TIP3   OH210483   6.099   4.165   6.122
 3509TIP3    H110484   6.152   4.156   6.201
 3509TIP3    H210485   6.146   4.114   6.056
 3510TIP3   OH210486   3.149   6.476   5.959
 3510TIP3    H110487   3.180   6.550   5.907
 3510TIP3    H210488   3.063   6.503   5.991
 3511TIP3   OH210489   3.652   0.467   2.097
 3511TIP3    H110490   3.610   0.383   2.079
 3511TIP3    H210491   3.586   0.518   2.143
 3512TIP3   OH210492   7.543   6.437   5.985
 3512TIP3    H110493   7.472   6.473   6.038
 3512TIP3    H210494   7.498   6.395   5.911
 3513TIP3   OH210495   6.599   0.635   4.021
 3513TIP3    H110496   6.661   0.698   3.985
 3513TIP3    H210497   6.624   0.552   3.981
 3514TIP3   OH210498   7.378   7.482   0.759
 3514TIP3    H110499   7.386   7.461   0.666
 3514TIP3    H210500   7.317   7.555   0.762
 3515TIP3   OH210501   1.813   6.377   1.282
 3515TIP3    H110502   1.718   6.366   1.293
 3515TIP3    H210503   1.836   6.448   1.342
 3516TIP3   OH210504   0.759   4.262   5.465
 3516TIP3    H110505   0.664   4.258   5.472
 3516TIP3    H210506   0.788   4.172   5.478
 3517TIP3   OH210507   5.143   6.001   1.761
 3517TIP3    H110508   5.142   5.912   1.725
 3517TIP3    H210509   5.120   5.990   1.853
 3518TIP3   OH210510   4.171   5.434   6.467
 3518TIP3    H110511   4.161   5.441   6.372
 3518TIP3    H210512   4.213   5.349   6.481
 3519TIP3   OH210513   8.106   7.472   1.085
 3519TIP3    H110514   8.089   7.407   1.152
 3519TIP3    H210515   8.066   7.437   1.005
 3520TIP3   OH210516   4.414   1.041   3.664
 3520TIP3    H110517   4.372   1.043   3.578
 3520TIP3    H210518   4.409   1.131   3.695
 3521TIP3   OH210519   2.399   5.542   0.156
 3521TIP3    H110520   2.482   5.547   0.109
 3521TIP3    H210521   2.423   5.547   0.248
 3522TIP3   OH210522   0.916   5.370   3.407
 3522TIP3    H110523   0.978   5.438   3.379
 3522TIP3    H210524   0.893   5.394   3.496
 3523TIP3   OH210525   6.505   0.878   2.139
 3523TIP3    H110526   6.560   0.941   2.187
 3523TIP3    H210527   6.419   0.886   2.179
 3524TIP3   OH210528   7.069   7.600   4.325
 3524TIP3    H110529   7.122   7.558   4.392
 3524TIP3    H210530   7.003   7.535   4.301
 3525TIP3   OH210531   0.673   4.527   0.793
 3525TIP3    H110532   0.739   4.551   0.858
 3525TIP3    H210533   0.650   4.437   0.814
 3526TIP3   OH210534   0.062   0.248   5.182
 3526TIP3    H110535  -0.007   0.264   5.118
 3526TIP3    H210536   0.042   0.162   5.218
 3527TIP3   OH210537   3.003   2.593   0.672
 3527TIP3    H110538   2.988   2.678   0.629
 3527TIP3    H210539   3.048   2.616   0.753
 3528TIP3   OH210540   5.597   2.139   1.087
 3528TIP3    H110541   5.525   2.109   1.031
 3528TIP3    H210542   5.560   2.214   1.135
 3529TIP3   OH210543   5.130   7.511   5.372
 3529TIP3    H110544   5.099   7.532   5.459
 3529TIP3    H210545   5.084   7.572   5.314
 3530TIP3   OH210546   3.185   0.406   5.217
 3530TIP3    H110547   3.222   0.490   5.189
 3530TIP3    H210548   3.182   0.411   5.312
 3531TIP3   OH210549   7.282   3.728   2.746
 3531TIP3    H110550   7.192   3.732   2.778
 3531TIP3    H210551   7.334   3.703   2.822
 3532TIP3   OH210552   2.781   5.951   5.765
 3532TIP3    H110553   2.796   5.903   5.846
 3532TIP3    H210554   2.686   5.964   5.762
 3533TIP3   OH210555   4.510   5.174   4.540
 3533TIP3    H110556   4.551   5.220   4.468
 3533TIP3    H210557   4.435   5.129   4.501
 3534TIP3   OH210558   5.816   5.020   1.698
 3534TIP3    H110559   5.829   4.962   1.623
 3534TIP3    H210560   5.867   4.980   1.768
 3535TIP3   OH210561   5.722   2.780   0.398
 3535TIP3    H110562   5.648   2.768   0.338
 3535TIP3    H210563   5.738   2.693   0.435
 3536TIP3   OH210564   2.609   5.637   0.715
 3536TIP3    H110565   2.620   5.568   0.779
 3536TIP3    H210566   2.547   5.698   0.756
 3537TIP3   OH210567   1.669   4.505   5.692
 3537TIP3    H110568   1.709   4.428   5.734
 3537TIP3    H210569   1.705   4.580   5.739
 3538TIP3   OH210570   4.736   2.423   1.700
 3538TIP3    H110571   4.710   2.349   1.645
 3538TIP3    H210572   4.826   2.403   1.726
 3539TIP3   OH210573   8.312   6.970   6.015
 3539TIP3    H110574   8.312   7.005   5.926
 3539TIP3    H210575   8.259   6.890   6.010
 3540TIP3   OH210576   6.250   2.105   5.176
 3540TIP3    H110577   6.332   2.124   5.221
 3540TIP3    H210578   6.271   2.032   5.118
 3541TIP3   OH210579   5.890   1.779   0.279
 3541TIP3    H110580   5.817   1.825   0.320
 3541TIP3    H210581   5.919   1.716   0.344
 3542TIP3   OH210582   7.636   2.947   1.309
 3542TIP3    H110583   7.666   2.985   1.227
 3542TIP3    H210584   7.544   2.974   1.317
 3543TIP3   OH210585   0.251   5.950   5.380
 3543TIP3    H110586   0.319   6.018   5.387
 3543TIP3    H210587   0.299   5.868   5.387
 3544TIP3   OH210588   6.060   0.089   1.535
 3544TIP3    H110589   6.139   0.111   1.486
 3544TIP3    H210590   6.072  -0.003   1.560
 3545TIP3   OH210591   7.739   3.956   0.722
 3545TIP3    H110592   7.701   4.044   0.721
 3545TIP3    H210593   7.832   3.971   0.703
 3546TIP3   OH210594   5.852   4.743   6.326
 3546TIP3    H110595   5.832   4.679   6.258
 3546TIP3    H210596   5.840   4.828   6.283
 3547TIP3   OH210597   5.485   7.051   0.930
 3547TIP3    H110598   5.559   7.099   0.893
 3547TIP3    H210599   5.482   6.969   0.882
 3548TIP3   OH210600   4.129   6.895   1.756
 3548TIP3    H110601   4.162   6.976   1.793
 3548TIP3    H210602   4.046   6.879   1.801
 3549TIP3   OH210603   6.445   0.854   0.205
 3549TIP3    H110604   6.450   0.771   0.158
 3549TIP3    H210605   6.477   0.834   0.293
 3550TIP3   OH210606   4.341   7.802   4.442
 3550TIP3    H110607   4.285   7.829   4.515
 3550TIP3    H210608   4.283   7.751   4.386
 3551TIP3   OH210609   2.737   7.683   1.978
 3551TIP3    H110610   2.675   7.613   1.959
 3551TIP3    H210611   2.687   7.746   2.029
 3552TIP3   OH210612   7.513   1.014   2.492
 3552TIP3    H110613   7.500   0.958   2.568
 3552TIP3    H210614   7.527   0.952   2.419
 3553TIP3   OH210615   6.089   5.911   5.817
 3553TIP3    H110616   6.019   5.947   5.762
 3553TIP3    H210617   6.169   5.927   5.768
 3554TIP3   OH210618   7.129   7.122   4.007
 3554TIP3    H110619   7.122   7.034   4.043
 3554TIP3    H210620   7.075   7.119   3.928
 3555TIP3   OH210621   3.568   3.809   0.226
 3555TIP3    H110622   3.619   3.757   0.164
 3555TIP3    H210623   3.477   3.784   0.210
 3556TIP3   OH210624   7.049   6.957   4.432
 3556TIP3    H110625   7.056   7.053   4.425
 3556TIP3    H210626   7.124   6.931   4.485
 3557TIP3   OH210627   7.165   3.068   6.219
 3557TIP3    H110628   7.124   3.039   6.138
 3557TIP3    H210629   7.215   2.992   6.250
 3558TIP3   OH210630   8.229   2.626   3.347
 3558TIP3    H110631   8.224   2.720   3.365
 3558TIP3    H210632   8.152   2.590   3.391
 3559TIP3   OH210633   7.638   7.083   6.609
 3559TIP3    H110634   7.616   7.031   6.532
 3559TIP3    H210635   7.723   7.121   6.589
 3560TIP3   OH210636   2.460   1.311   1.450
 3560TIP3    H110637   2.539   1.327   1.502
 3560TIP3    H210638   2.400   1.268   1.510
 3561TIP3   OH210639   3.281   7.301   5.222
 3561TIP3    H110640   3.289   7.373   5.159
 3561TIP3    H210641   3.344   7.323   5.291
 3562TIP3   OH210642   7.009   6.012   4.959
 3562TIP3    H110643   6.935   5.964   4.997
 3562TIP3    H210644   7.023   6.086   5.019
 3563TIP3   OH210645   1.700   7.527   1.804
 3563TIP3    H110646   1.744   7.491   1.881
 3563TIP3    H210647   1.607   7.514   1.820
 3564TIP3   OH210648   4.389   7.061   1.053
 3564TIP3    H110649   4.301   7.024   1.044
 3564TIP3    H210650   4.440   6.991   1.095
 3565TIP3   OH210651   3.265   3.174   3.230
 3565TIP3    H110652   3.241   3.131   3.313
 3565TIP3    H210653   3.243   3.110   3.163
 3566TIP3   OH210654   5.496   7.262   4.071
 3566TIP3    H110655   5.433   7.243   4.002
 3566TIP3    H210656   5.494   7.358   4.080
 3567TIP3   OH210657   7.354   6.862   1.627
 3567TIP3    H110658   7.266   6.898   1.637
 3567TIP3    H210659   7.400   6.889   1.707
 3568TIP3   OH210660   7.136   2.287   0.906
 3568TIP3    H110661   7.063   2.247   0.860
 3568TIP3    H210662   7.209   2.282   0.844
 3569TIP3   OH210663   6.077   1.514   1.839
 3569TIP3    H110664   6.130   1.562   1.775
 3569TIP3    H210665   6.005   1.478   1.788
 3570TIP3   OH210666   3.683   2.097   5.059
 3570TIP3    H110667   3.663   2.131   4.971
 3570TIP3    H210668   3.751   2.031   5.044
 3571TIP3   OH210669   5.949   0.069   4.937
 3571TIP3    H110670   6.024   0.106   4.890
 3571TIP3    H210671   5.876   0.127   4.914
 3572TIP3   OH210672   5.517   7.475   3.454
 3572TIP3    H110673   5.459   7.401   3.475
 3572TIP3    H210674   5.602   7.435   3.439
 3573TIP3   OH210675   6.851   4.417   1.059
 3573TIP3    H110676   6.919   4.447   0.999
 3573TIP3    H210677   6.890   4.425   1.146
 3574TIP3   OH210678   5.072   1.928   1.551
 3574TIP3    H110679   5.111   2.013   1.529
 3574TIP3    H210680   5.147   1.871   1.569
 3575TIP3   OH210681   1.335   4.754   5.000
 3575TIP3    H110682   1.242   4.758   4.976
 3575TIP3    H210683   1.359   4.845   5.017
 3576TIP3   OH210684   4.966   2.195   1.978
 3576TIP3    H110685   4.952   2.155   1.892
 3576TIP3    H210686   5.034   2.140   2.018
 3577TIP3   OH210687   2.179   1.554   1.636
 3577TIP3    H110688   2.177   1.494   1.562
 3577TIP3    H210689   2.262   1.600   1.627
 3578TIP3   OH210690   5.015   7.711   5.202
 3578TIP3    H110691   4.944   7.656   5.172
 3578TIP3    H210692   5.077   7.714   5.129
 3579TIP3   OH210693   0.749   5.175   2.171
 3579TIP3    H110694   0.731   5.238   2.101
 3579TIP3    H210695   0.833   5.135   2.146
 3580TIP3   OH210696   3.839   2.457   2.766
 3580TIP3    H110697   3.753   2.456   2.723
 3580TIP3    H210698   3.872   2.545   2.749
 3581TIP3   OH210699   7.878   1.646   2.746
 3581TIP3    H110700   7.862   1.622   2.655
 3581TIP3    H210701   7.918   1.733   2.741
 3582TIP3   OH210702   6.374   5.671   2.510
 3582TIP3    H110703   6.285   5.645   2.486
 3582TIP3    H210704   6.430   5.623   2.450
 3583TIP3   OH210705   8.039   5.922   6.314
 3583TIP3    H110706   7.946   5.900   6.312
 3583TIP3    H210707   8.053   5.958   6.402
 3584TIP3   OH210708   2.647   6.873   4.863
 3584TIP3    H110709   2.678   6.917   4.783
 3584TIP3    H210710   2.682   6.785   4.856
 3585TIP3   OH210711   6.071   0.369   5.566
 3585TIP3    H110712   6.149   0.425   5.574
 3585TIP3    H210713   6.106   0.286   5.535
 3586TIP3   OH210714   7.614   2.621   5.735
 3586TIP3    H110715   7.627   2.634   5.829
 3586TIP3    H210716   7.663   2.542   5.714
 3587TIP3   OH210717   7.625   5.935   3.074
 3587TIP3    H110718   7.552   5.969   3.021
 3587TIP3    H210719   7.682   5.892   3.010
 3588TIP3   OH210720   5.679   2.221   1.940
 3588TIP3    H110721   5.591   2.186   1.927
 3588TIP3    H210722   5.680   2.250   2.031
 3589TIP3   OH210723   1.979   1.386   2.853
 3589TIP3    H110724   2.020   1.365   2.770
 3589TIP3    H210725   2.051   1.414   2.910
 3590TIP3   OH210726   7.021   1.133   3.404
 3590TIP3    H110727   7.072   1.199   3.450
 3590TIP3    H210728   7.069   1.118   3.322
 3591TIP3   OH210729   2.776   3.323   0.158
 3591TIP3    H110730   2.805   3.344   0.069
 3591TIP3    H210731   2.855   3.290   0.201
 3592TIP3   OH210732   5.035   3.820   1.315
 3592TIP3    H110733   5.126   3.795   1.302
 3592TIP3    H210734   5.010   3.863   1.233
 3593TIP3   OH210735   2.306   3.772   4.075
 3593TIP3    H110736   2.353   3.826   4.139
 3593TIP3    H210737   2.345   3.685   4.086
 3594TIP3   OH210738   6.385   5.139   1.729
 3594TIP3    H110739   6.298   5.126   1.690
 3594TIP3    H210740   6.390   5.234   1.745
 3595TIP3   OH210741   4.243   1.662   6.402
 3595TIP3    H110742   4.220   1.729   6.338
 3595TIP3    H210743   4.274   1.711   6.479
 3596TIP3   OH210744   7.444   3.022   5.508
 3596TIP3    H110745   7.480   2.954   5.565
 3596TIP3    H210746   7.511   3.090   5.506
 3597TIP3   OH210747   3.203   3.307   4.271
 3597TIP3    H110748   3.254   3.233   4.306
 3597TIP3    H210749   3.149   3.268   4.203
 3598TIP3   OH210750   7.069   4.996   5.578
 3598TIP3    H110751   7.043   5.075   5.625
 3598TIP3    H210752   7.024   5.002   5.494
 3599TIP3   OH210753   5.800   5.054   6.639
 3599TIP3    H110754   5.772   5.034   6.550
 3599TIP3    H210755   5.761   5.139   6.659
 3600TIP3   OH210756   6.019   1.257   3.921
 3600TIP3    H110757   5.988   1.183   3.870
 3600TIP3    H210758   5.959   1.328   3.900
 3601TIP3   OH210759   8.243   4.223   3.024
 3601TIP3    H110760   8.165   4.224   3.080
 3601TIP3    H210761   8.230   4.149   2.966
 3602TIP3   OH210762   5.357   2.495   6.297
 3602TIP3    H110763   5.350   2.589   6.316
 3602TIP3    H210764   5.276   2.458   6.332
 3603TIP3   OH210765   7.883   2.070   3.424
 3603TIP3    H110766   7.862   2.011   3.497
 3603TIP3    H210767   7.895   2.012   3.349
 3604TIP3   OH210768   6.047   1.288   6.330
 3604TIP3    H110769   6.059   1.339   6.250
 3604TIP3    H210770   5.991   1.343   6.385
 3605TIP3   OH210771   5.128   6.256   4.288
 3605TIP3    H110772   5.118   6.258   4.383
 3605TIP3    H210773   5.204   6.199   4.273
 3606TIP3   OH210774   2.959   1.392   2.231
 3606TIP3    H110775   2.944   1.319   2.171
 3606TIP3    H210776   3.003   1.353   2.306
 3607TIP3   OH210777   6.074   1.437   3.375
 3607TIP3    H110778   6.101   1.527   3.356
 3607TIP3    H210779   5.979   1.437   3.364
 3608TIP3   OH210780   4.422   5.925   4.651
 3608TIP3    H110781   4.486   5.875   4.702
 3608TIP3    H210782   4.463   5.935   4.565
 3609TIP3   OH210783   1.156   6.039   5.693
 3609TIP3    H110784   1.225   6.022   5.629
 3609TIP3    H210785   1.172   5.975   5.762
 3610TIP3   OH210786   8.069   6.547   2.229
 3610TIP3    H110787   7.991   6.515   2.273
 3610TIP3    H210788   8.133   6.477   2.239
 3611TIP3   OH210789   1.486   6.394   4.449
 3611TIP3    H110790   1.575   6.397   4.483
 3611TIP3    H210791   1.497   6.390   4.354
 3612TIP3   OH210792   7.312   2.644   2.067
 3612TIP3    H110793   7.255   2.621   2.141
 3612TIP3    H210794   7.273   2.599   1.992
 3613TIP3   OH210795   4.155   4.190   1.408
 3613TIP3    H110796   4.178   4.242   1.486
 3613TIP3    H210797   4.219   4.119   1.407
 3614TIP3   OH210798   0.548   5.513   0.997
 3614TIP3    H110799   0.551   5.603   1.027
 3614TIP3    H210800   0.639   5.490   0.979
 3615TIP3   OH210801   0.784   0.752   4.087
 3615TIP3    H110802   0.703   0.783   4.129
 3615TIP3    H210803   0.817   0.828   4.039
 3616TIP3   OH210804   0.784   1.635   2.331
 3616TIP3    H110805   0.877   1.618   2.315
 3616TIP3    H210806   0.783   1.697   2.404
 3617TIP3   OH210807   7.262   1.893   3.164
 3617TIP3    H110808   7.337   1.952   3.176
 3617TIP3    H210809   7.239   1.903   3.071
 3618TIP3   OH210810   4.496   1.534   6.347
 3618TIP3    H110811   4.457   1.511   6.262
 3618TIP3    H210812   4.437   1.600   6.384
 3619TIP3   OH210813   3.032   1.978   2.470
 3619TIP3    H110814   3.019   1.916   2.542
 3619TIP3    H210815   2.963   1.956   2.407
 3620TIP3   OH210816   8.007   2.286   5.175
 3620TIP3    H110817   7.915   2.260   5.169
 3620TIP3    H210818   8.047   2.220   5.231
 3621TIP3   OH210819   6.950   2.770   0.785
 3621TIP3    H110820   7.014   2.704   0.809
 3621TIP3    H210821   6.878   2.758   0.847
 3622TIP3   OH210822   6.326   1.099   0.016
 3622TIP3    H110823   6.346   1.187   0.048
 3622TIP3    H210824   6.363   1.040   0.081
 3623TIP3   OH210825   4.403   1.254   0.782
 3623TIP3    H110826   4.461   1.256   0.859
 3623TIP3    H210827   4.461   1.272   0.708
 3624TIP3   OH210828   3.705   3.728   3.610
 3624TIP3    H110829   3.623   3.778   3.610
 3624TIP3    H210830   3.682   3.642   3.644
 3625TIP3   OH210831   5.311   4.300   4.230
 3625TIP3    H110832   5.403   4.305   4.205
 3625TIP3    H210833   5.311   4.280   4.323
 3626TIP3   OH210834   7.671   5.916   2.028
 3626TIP3    H110835   7.639   5.840   2.077
 3626TIP3    H210836   7.687   5.883   1.940
 3627TIP3   OH210837   2.870   6.298   0.757
 3627TIP3    H110838   2.929   6.325   0.828
 3627TIP3    H210839   2.923   6.307   0.678
 3628TIP3   OH210840   4.704   3.787   0.497
 3628TIP3    H110841   4.696   3.710   0.440
 3628TIP3    H210842   4.781   3.833   0.464
 3629TIP3   OH210843   4.153   5.891   0.489
 3629TIP3    H110844   4.117   5.947   0.558
 3629TIP3    H210845   4.229   5.940   0.456
 3630TIP3   OH210846   1.674   6.448   3.843
 3630TIP3    H110847   1.735   6.497   3.788
 3630TIP3    H210848   1.648   6.373   3.790
 3631TIP3   OH210849   4.411   5.682   5.640
 3631TIP3    H110850   4.323   5.646   5.632
 3631TIP3    H210851   4.469   5.606   5.630
 3632TIP3   OH210852   4.957   6.758   0.174
 3632TIP3    H110853   4.921   6.706   0.246
 3632TIP3    H210854   4.905   6.733   0.098
 3633TIP3   OH210855   4.715   6.301   2.016
 3633TIP3    H110856   4.810   6.304   2.020
 3633TIP3    H210857   4.695   6.222   1.966
 3634TIP3   OH210858   0.923   7.601   0.760
 3634TIP3    H110859   0.947   7.544   0.687
 3634TIP3    H210860   0.842   7.563   0.794
 3635TIP3   OH210861   2.835   1.002   5.165
 3635TIP3    H110862   2.744   0.975   5.155
 3635TIP3    H210863   2.831   1.098   5.167
 3636TIP3   OH210864   5.476   0.727   5.154
 3636TIP3    H110865   5.452   0.819   5.157
 3636TIP3    H210866   5.484   0.702   5.246
 3637TIP3   OH210867   5.759   7.292   2.243
 3637TIP3    H110868   5.737   7.236   2.317
 3637TIP3    H210869   5.704   7.260   2.172
 3638TIP3   OH210870   2.026   4.763   5.930
 3638TIP3    H110871   1.987   4.825   5.991
 3638TIP3    H210872   1.953   4.707   5.902
 3639TIP3   OH210873   4.122   2.067   3.996
 3639TIP3    H110874   4.070   2.045   3.918
 3639TIP3    H210875   4.118   1.988   4.050
 3640TIP3   OH210876   6.196   5.001   4.241
 3640TIP3    H110877   6.142   5.053   4.300
 3640TIP3    H210878   6.261   4.960   4.298
 3641TIP3   OH210879   1.037   3.936   5.442
 3641TIP3    H110880   1.091   4.012   5.463
 3641TIP3    H210881   1.096   3.861   5.455
 3642TIP3   OH210882   3.472   0.735   6.194
 3642TIP3    H110883   3.477   0.639   6.201
 3642TIP3    H210884   3.480   0.765   6.284
 3643TIP3   OH210885   0.055   5.969   5.106
 3643TIP3    H110886   0.002   5.938   5.180
 3643TIP3    H210887   0.022   6.057   5.088
 3644TIP3   OH210888   1.879   2.457   0.379
 3644TIP3    H110889   1.811   2.439   0.443
 3644TIP3    H210890   1.843   2.428   0.296
 3645TIP3   OH210891   3.407   4.172   2.150
 3645TIP3    H110892   3.373   4.087   2.122
 3645TIP3    H210893   3.332   4.230   2.148
 3646TIP3   OH210894   1.547   5.380   1.406
 3646TIP3    H110895   1.589   5.390   1.491
 3646TIP3    H210896   1.515   5.290   1.405
 3647TIP3   OH210897   7.278   6.305   2.544
 3647TIP3    H110898   7.284   6.335   2.454
 3647TIP3    H210899   7.222   6.227   2.540
 3648TIP3   OH210900   7.302   6.134   3.404
 3648TIP3    H110901   7.310   6.156   3.311
 3648TIP3    H210902   7.351   6.053   3.414
 3649TIP3   OH210903   6.154   4.536   3.640
 3649TIP3    H110904   6.133   4.502   3.727
 3649TIP3    H210905   6.115   4.623   3.637
 3650TIP3   OH210906   2.752   5.684   3.102
 3650TIP3    H110907   2.744   5.780   3.100
 3650TIP3    H210908   2.662   5.652   3.100
 3651TIP3   OH210909   0.683   2.656   0.332
 3651TIP3    H110910   0.753   2.655   0.267
 3651TIP3    H210911   0.727   2.675   0.415
 3652TIP3   OH210912   1.487   3.617   3.868
 3652TIP3    H110913   1.482   3.700   3.819
 3652TIP3    H210914   1.533   3.557   3.809
 3653TIP3   OH210915   7.901   0.396   4.499
 3653TIP3    H110916   7.888   0.437   4.585
 3653TIP3    H210917   7.818   0.352   4.480
 3654TIP3   OH210918   2.082   4.593   1.911
 3654TIP3    H110919   2.072   4.553   1.997
 3654TIP3    H210920   2.174   4.583   1.889
 3655TIP3   OH210921   4.594   3.651   0.726
 3655TIP3    H110922   4.635   3.703   0.657
 3655TIP3    H210923   4.638   3.566   0.722
 3656TIP3   OH210924   3.164   4.545   5.917
 3656TIP3    H110925   3.215   4.593   5.983
 3656TIP3    H210926   3.219   4.545   5.839
 3657TIP3   OH210927   8.115   5.995   0.538
 3657TIP3    H110928   8.103   6.017   0.630
 3657TIP3    H210929   8.189   5.934   0.538
 3658TIP3   OH210930   4.451   2.305   0.232
 3658TIP3    H110931   4.446   2.354   0.314
 3658TIP3    H210932   4.530   2.339   0.188
 3659TIP3   OH210933   1.872   0.033   5.300
 3659TIP3    H110934   1.925   0.069   5.228
 3659TIP3    H210935   1.925  -0.039   5.334
 3660TIP3   OH210936   1.348   7.223   1.729
 3660TIP3    H110937   1.297   7.261   1.657
 3660TIP3    H210938   1.332   7.129   1.721
 3661TIP3   OH210939   7.272   6.136   1.222
 3661TIP3    H110940   7.230   6.090   1.149
 3661TIP3    H210941   7.242   6.226   1.214
 3662TIP3   OH210942   7.190   5.774   6.715
 3662TIP3    H110943   7.145   5.787   6.631
 3662TIP3    H210944   7.229   5.859   6.735
 3663TIP3   OH210945   7.861   1.153   2.191
 3663TIP3    H110946   7.870   1.228   2.250
 3663TIP3    H210947   7.949   1.141   2.155
 3664TIP3   OH210948   1.391   3.656   0.817
 3664TIP3    H110949   1.442   3.601   0.758
 3664TIP3    H210950   1.410   3.746   0.789
 3665TIP3   OH210951   6.122   3.589   0.075
 3665TIP3    H110952   6.091   3.502   0.100
 3665TIP3    H210953   6.145   3.581  -0.017
 3666TIP3   OH210954   4.223   0.274   0.976
 3666TIP3    H110955   4.165   0.343   0.943
 3666TIP3    H210956   4.163   0.208   1.011
 3667TIP3   OH210957   5.619   4.546   5.203
 3667TIP3    H110958   5.693   4.486   5.193
 3667TIP3    H210959   5.545   4.489   5.224
 3668TIP3   OH210960   2.058   6.304   4.441
 3668TIP3    H110961   2.092   6.390   4.468
 3668TIP3    H210962   2.137   6.255   4.416
 3669TIP3   OH210963   1.386   5.729   2.439
 3669TIP3    H110964   1.477   5.744   2.413
 3669TIP3    H210965   1.391   5.674   2.517
 3670TIP3   OH210966   3.104   3.738   6.163
 3670TIP3    H110967   3.069   3.824   6.138
 3670TIP3    H210968   3.123   3.746   6.256
 3671TIP3   OH210969   0.582   6.150   1.712
 3671TIP3    H110970   0.569   6.151   1.807
 3671TIP3    H210971   0.602   6.241   1.689
 3672TIP3   OH210972   1.442   3.452   4.779
 3672TIP3    H110973   1.536   3.441   4.796
 3672TIP3    H210974   1.433   3.545   4.759
 3673TIP3   OH210975   5.566   4.949   5.971
 3673TIP3    H110976   5.485   4.980   6.012
 3673TIP3    H210977   5.540   4.923   5.883
 3674TIP3   OH210978   6.778   0.640   5.447
 3674TIP3    H110979   6.770   0.706   5.517
 3674TIP3    H210980   6.755   0.688   5.367
 3675TIP3   OH210981   3.963   0.257   1.105
 3675TIP3    H110982   3.872   0.280   1.123
 3675TIP3    H210983   3.972   0.267   1.010
 3676TIP3   OH210984   0.137   2.165   1.795
 3676TIP3    H110985   0.083   2.242   1.814
 3676TIP3    H210986   0.219   2.181   1.841
 3677TIP3   OH210987   4.419   5.694   5.945
 3677TIP3    H110988   4.420   5.788   5.928
 3677TIP3    H210989   4.465   5.655   5.871
 3678TIP3   OH210990   3.048   2.865   5.957
 3678TIP3    H110991   2.964   2.842   5.917
 3678TIP3    H210992   3.086   2.781   5.983
 3679TIP3   OH210993   2.831   7.778   6.672
 3679TIP3    H110994   2.752   7.740   6.711
 3679TIP3    H210995   2.816   7.873   6.675
 3680TIP3   OH210996   0.428   3.920   3.115
 3680TIP3    H110997   0.363   3.985   3.143
 3680TIP3    H210998   0.448   3.871   3.194
 3681TIP3   OH210999   7.501   6.749   5.253
 3681TIP3    H111000   7.478   6.825   5.199
 3681TIP3    H211001   7.423   6.692   5.247
 3682TIP3   OH211002   3.864   7.343   3.115
 3682TIP3    H111003   3.797   7.345   3.047
 3682TIP3    H211004   3.915   7.264   3.095
 3683TIP3   OH211005   6.854   2.416   1.309
 3683TIP3    H111006   6.822   2.327   1.319
 3683TIP3    H211007   6.909   2.413   1.230
 3684TIP3   OH211008   0.624   6.405   4.539
 3684TIP3    H111009   0.664   6.421   4.625
 3684TIP3    H211010   0.616   6.492   4.500
 3685TIP3   OH211011   0.946   3.396   6.391
 3685TIP3    H111012   1.000   3.338   6.337
 3685TIP3    H211013   0.860   3.395   6.348
 3686TIP3   OH211014   4.394   6.017   2.952
 3686TIP3    H111015   4.446   5.954   2.902
 3686TIP3    H211016   4.304   5.983   2.948
 3687TIP3   OH211017   4.182   0.860   3.947
 3687TIP3    H111018   4.210   0.812   3.869
 3687TIP3    H211019   4.169   0.950   3.918
 3688TIP3   OH211020   7.546   7.553   4.321
 3688TIP3    H111021   7.560   7.626   4.261
 3688TIP3    H211022   7.624   7.498   4.311
 3689TIP3   OH211023   3.840   3.620   0.820
 3689TIP3    H111024   3.929   3.626   0.784
 3689TIP3    H211025   3.851   3.579   0.905
 3690TIP3   OH211026   6.178   2.897   4.608
 3690TIP3    H111027   6.173   2.803   4.625
 3690TIP3    H211028   6.161   2.937   4.693
 3691TIP3   OH211029  -0.011   3.832   2.499
 3691TIP3    H111030   0.042   3.779   2.559
 3691TIP3    H211031   0.048   3.903   2.473
 3692TIP3   OH211032   3.054   1.764   0.247
 3692TIP3    H111033   3.055   1.679   0.290
 3692TIP3    H211034   2.983   1.812   0.290
 3693TIP3   OH211035   7.657   6.306   4.949
 3693TIP3    H111036   7.735   6.252   4.965
 3693TIP3    H211037   7.664   6.333   4.857
 3694TIP3   OH211038   1.035   0.168   4.420
 3694TIP3    H111039   1.018   0.118   4.340
 3694TIP3    H211040   1.092   0.112   4.472
 3695TIP3   OH211041   5.632   2.841   2.506
 3695TIP3    H111042   5.610   2.931   2.530
 3695TIP3    H211043   5.724   2.831   2.529
 3696TIP3   OH211044   5.835   6.326   0.225
 3696TIP3    H111045   5.890   6.367   0.159
 3696TIP3    H211046   5.890   6.258   0.264
 3697TIP3   OH211047   7.454   5.453   4.934
 3697TIP3    H111048   7.402   5.423   4.859
 3697TIP3    H211049   7.406   5.529   4.967
 3698TIP3   OH211050   5.334   6.529   5.593
 3698TIP3    H111051   5.393   6.477   5.647
 3698TIP3    H211052   5.353   6.620   5.617
 3699TIP3   OH211053   3.561   0.131   4.398
 3699TIP3    H111054   3.589   0.222   4.409
 3699TIP3    H211055   3.500   0.116   4.469
 3700TIP3   OH211056   1.176   4.396   2.193
 3700TIP3    H111057   1.206   4.376   2.104
 3700TIP3    H211058   1.207   4.485   2.209
 3701TIP3   OH211059   1.994   1.151   3.996
 3701TIP3    H111060   2.048   1.143   4.075
 3701TIP3    H211061   1.976   1.061   3.971
 3702TIP3   OH211062   0.042   2.155   5.483
 3702TIP3    H111063   0.089   2.236   5.466
 3702TIP3    H211064   0.077   2.093   5.419
 3703TIP3   OH211065   3.733   4.202   2.993
 3703TIP3    H111066   3.769   4.148   2.922
 3703TIP3    H211067   3.650   4.161   3.015
 3704TIP3   OH211068   3.341   7.656   0.458
 3704TIP3    H111069   3.363   7.748   0.443
 3704TIP3    H211070   3.284   7.633   0.384
 3705TIP3   OH211071   3.075   3.229   6.540
 3705TIP3    H111072   2.991   3.266   6.570
 3705TIP3    H211073   3.139   3.297   6.561
 3706TIP3   OH211074   2.207   6.715   1.528
 3706TIP3    H111075   2.139   6.763   1.481
 3706TIP3    H211076   2.170   6.629   1.545
 3707TIP3   OH211077   6.109   5.569   3.588
 3707TIP3    H111078   6.176   5.514   3.628
 3707TIP3    H211079   6.156   5.622   3.524
 3708TIP3   OH211080   0.423   2.430   4.821
 3708TIP3    H111081   0.467   2.510   4.849
 3708TIP3    H211082   0.373   2.402   4.897
 3709TIP3   OH211083   4.774   0.967   4.126
 3709TIP3    H111084   4.741   0.895   4.181
 3709TIP3    H211085   4.843   0.927   4.073
 3710TIP3   OH211086   1.122   1.978   0.254
 3710TIP3    H111087   1.101   1.887   0.233
 3710TIP3    H211088   1.037   2.021   0.264
 3711TIP3   OH211089   6.177   2.465   4.931
 3711TIP3    H111090   6.211   2.451   4.843
 3711TIP3    H211091   6.184   2.559   4.946
 3712TIP3   OH211092   1.528   3.197   2.271
 3712TIP3    H111093   1.571   3.279   2.294
 3712TIP3    H211094   1.597   3.144   2.230
 3713TIP3   OH211095   4.239   6.081   5.443
 3713TIP3    H111096   4.190   6.122   5.372
 3713TIP3    H211097   4.322   6.056   5.403
 3714TIP3   OH211098   0.104   1.704   1.259
 3714TIP3    H111099   0.029   1.755   1.290
 3714TIP3    H211100   0.180   1.754   1.286
 3715TIP3   OH211101   4.309   3.698   6.776
 3715TIP3    H111102   4.380   3.633   6.780
 3715TIP3    H211103   4.333   3.755   6.703
 3716TIP3   OH211104   7.940   1.374   5.329
 3716TIP3    H111105   7.972   1.340   5.413
 3716TIP3    H211106   7.976   1.315   5.263
 3717TIP3   OH211107   4.267   6.877   0.265
 3717TIP3    H111108   4.213   6.827   0.203
 3717TIP3    H211109   4.213   6.885   0.343
 3718TIP3   OH211110   7.903   2.446   1.025
 3718TIP3    H111111   7.923   2.484   0.940
 3718TIP3    H211112   7.864   2.518   1.075
 3719TIP3   OH211113   6.087   0.670   4.010
 3719TIP3    H111114   6.024   0.614   3.966
 3719TIP3    H211115   6.068   0.758   3.977
 3720TIP3   OH211116   4.847   0.121   1.432
 3720TIP3    H111117   4.823   0.035   1.465
 3720TIP3    H211118   4.871   0.171   1.510
 3721TIP3   OH211119   0.248   4.122   5.674
 3721TIP3    H111120   0.299   4.079   5.606
 3721TIP3    H211121   0.160   4.087   5.663
 3722TIP3   OH211122   5.647   4.530   2.325
 3722TIP3    H111123   5.701   4.592   2.277
 3722TIP3    H211124   5.705   4.456   2.342
 3723TIP3   OH211125   7.418   5.943   2.443
 3723TIP3    H111126   7.355   5.888   2.490
 3723TIP3    H211127   7.478   5.881   2.402
 3724TIP3   OH211128  -0.015   6.510   1.129
 3724TIP3    H111129   0.070   6.467   1.137
 3724TIP3    H211130  -0.003   6.572   1.056
 3725TIP3   OH211131   2.293   4.975   6.197
 3725TIP3    H111132   2.277   5.044   6.133
 3725TIP3    H211133   2.282   4.894   6.148
 3726TIP3   OH211134   1.602   7.388   4.997
 3726TIP3    H111135   1.638   7.468   4.959
 3726TIP3    H211136   1.574   7.337   4.921
 3727TIP3   OH211137   8.142   4.804   0.752
 3727TIP3    H111138   8.121   4.712   0.740
 3727TIP3    H211139   8.219   4.818   0.696
 3728TIP3   OH211140   1.178   4.148   3.657
 3728TIP3    H111141   1.140   4.201   3.587
 3728TIP3    H211142   1.103   4.117   3.707
 3729TIP3   OH211143   7.472   5.144   6.282
 3729TIP3    H111144   7.529   5.164   6.357
 3729TIP3    H211145   7.521   5.080   6.231
 3730TIP3   OH211146   2.123   1.096   3.701
 3730TIP3    H111147   2.182   1.051   3.761
 3730TIP3    H211148   2.043   1.111   3.751
 3731TIP3   OH211149   6.586   7.539   6.277
 3731TIP3    H111150   6.551   7.556   6.365
 3731TIP3    H211151   6.530   7.469   6.243
 3732TIP3   OH211152   1.219   2.985   4.375
 3732TIP3    H111153   1.211   3.080   4.388
 3732TIP3    H211154   1.233   2.950   4.463
 3733TIP3   OH211155   7.157   0.555   0.325
 3733TIP3    H111156   7.207   0.520   0.399
 3733TIP3    H211157   7.178   0.497   0.252
 3734TIP3   OH211158   7.003   0.275   3.195
 3734TIP3    H111159   6.975   0.346   3.252
 3734TIP3    H211160   6.966   0.297   3.109
 3735TIP3   OH211161   3.985   5.540   4.800
 3735TIP3    H111162   4.056   5.601   4.821
 3735TIP3    H211163   3.937   5.583   4.729
 3736TIP3   OH211164   2.489   4.391   5.288
 3736TIP3    H111165   2.505   4.455   5.218
 3736TIP3    H211166   2.475   4.309   5.241
 3737TIP3   OH211167   2.076   7.304   1.756
 3737TIP3    H111168   2.154   7.328   1.806
 3737TIP3    H211169   2.054   7.383   1.708
 3738TIP3   OH211170   8.304   5.599   3.479
 3738TIP3    H111171   8.286   5.693   3.467
 3738TIP3    H211172   8.221   5.563   3.511
 3739TIP3   OH211173   4.463   7.534   4.467
 3739TIP3    H111174   4.531   7.493   4.521
 3739TIP3    H211175   4.445   7.617   4.510
 3740TIP3   OH211176   8.018   2.213   2.790
 3740TIP3    H111177   8.049   2.230   2.879
 3740TIP3    H211178   7.948   2.276   2.776
 3741TIP3   OH211179   3.412   4.629   3.577
 3741TIP3    H111180   3.427   4.665   3.665
 3741TIP3    H211181   3.474   4.556   3.571
 3742TIP3   OH211182   1.600   0.181   0.069
 3742TIP3    H111183   1.684   0.187   0.024
 3742TIP3    H211184   1.585   0.268   0.105
 3743TIP3   OH211185   0.640   1.818   2.128
 3743TIP3    H111186   0.630   1.754   2.198
 3743TIP3    H211187   0.598   1.898   2.162
 3744TIP3   OH211188   0.179   4.022   2.520
 3744TIP3    H111189   0.254   4.040   2.462
 3744TIP3    H211190   0.183   4.090   2.586
 3745TIP3   OH211191   5.367   6.415   1.113
 3745TIP3    H111192   5.284   6.448   1.077
 3745TIP3    H211193   5.350   6.324   1.133
 3746TIP3   OH211194   3.002   3.924   4.479
 3746TIP3    H111195   2.913   3.922   4.444
 3746TIP3    H211196   3.058   3.931   4.401
 3747TIP3   OH211197   2.429   3.855   3.382
 3747TIP3    H111198   2.339   3.887   3.380
 3747TIP3    H211199   2.482   3.935   3.390
 3748TIP3   OH211200   0.638   6.241   5.670
 3748TIP3    H111201   0.666   6.154   5.642
 3748TIP3    H211202   0.561   6.259   5.616
 3749TIP3   OH211203   4.397   6.543   5.917
 3749TIP3    H111204   4.453   6.610   5.957
 3749TIP3    H211205   4.458   6.484   5.873
 3750TIP3   OH211206   6.124   4.760   6.331
 3750TIP3    H111207   6.034   4.782   6.305
 3750TIP3    H211208   6.155   4.837   6.379
 3751TIP3   OH211209   7.228   3.120   3.025
 3751TIP3    H111210   7.185   3.095   2.944
 3751TIP3    H211211   7.297   3.181   2.999
 3752TIP3   OH211212   2.534   4.185   3.100
 3752TIP3    H111213   2.544   4.256   3.164
 3752TIP3    H211214   2.616   4.184   3.052
 3753TIP3   OH211215   7.404   0.170   0.436
 3753TIP3    H111216   7.447   0.189   0.353
 3753TIP3    H211217   7.465   0.113   0.483
 3754TIP3   OH211218   8.154   5.901   3.173
 3754TIP3    H111219   8.182   5.910   3.263
 3754TIP3    H211220   8.204   5.826   3.139
 3755TIP3   OH211221   0.696   5.343   3.239
 3755TIP3    H111222   0.634   5.271   3.241
 3755TIP3    H211223   0.731   5.347   3.328
 3756TIP3   OH211224   0.534   4.461   0.437
 3756TIP3    H111225   0.612   4.419   0.472
 3756TIP3    H211226   0.463   4.401   0.458
 3757TIP3   OH211227   1.804   5.660   1.089
 3757TIP3    H111228   1.899   5.675   1.090
 3757TIP3    H211229   1.781   5.641   1.179
 3758TIP3   OH211230   0.316   5.269   2.588
 3758TIP3    H111231   0.387   5.328   2.611
 3758TIP3    H211232   0.323   5.259   2.493
 3759TIP3   OH211233   7.459   6.173   5.569
 3759TIP3    H111234   7.498   6.089   5.592
 3759TIP3    H211235   7.516   6.208   5.501
 3760TIP3   OH211236   7.231   6.372   4.578
 3760TIP3    H111237   7.264   6.462   4.579
 3760TIP3    H211238   7.264   6.334   4.660
 3761TIP3   OH211239   8.136   7.251   0.275
 3761TIP3    H111240   8.045   7.261   0.248
 3761TIP3    H211241   8.182   7.324   0.233
 3762TIP3   OH211242   6.399   6.501   5.381
 3762TIP3    H111243   6.350   6.421   5.360
 3762TIP3    H211244   6.377   6.520   5.472
 3763TIP3   OH211245   4.976   0.388   1.977
 3763TIP3    H111246   4.991   0.448   1.904
 3763TIP3    H211247   4.881   0.387   1.989
 3764TIP3   OH211248   1.171   5.208   6.744
 3764TIP3    H111249   1.118   5.287   6.759
 3764TIP3    H211250   1.244   5.238   6.689
 3765TIP3   OH211251   3.651   7.627   5.479
 3765TIP3    H111252   3.609   7.625   5.564
 3765TIP3    H211253   3.722   7.690   5.489
 3766TIP3   OH211254   6.597   1.289   2.613
 3766TIP3    H111255   6.688   1.275   2.587
 3766TIP3    H211256   6.564   1.201   2.633
 3767TIP3   OH211257   8.217   1.549   2.787
 3767TIP3    H111258   8.276   1.512   2.722
 3767TIP3    H211259   8.235   1.643   2.785
 3768TIP3   OH211260   4.741   6.892   1.578
 3768TIP3    H111261   4.816   6.921   1.526
 3768TIP3    H211262   4.750   6.938   1.661
 3769TIP3   OH211263   3.503   5.499   0.743
 3769TIP3    H111264   3.590   5.485   0.781
 3769TIP3    H211265   3.507   5.458   0.657
 3770TIP3   OH211266   1.515   2.163   3.661
 3770TIP3    H111267   1.487   2.203   3.744
 3770TIP3    H211268   1.545   2.076   3.685
 3771TIP3   OH211269   2.727   7.817   3.820
 3771TIP3    H111270   2.782   7.888   3.788
 3771TIP3    H211271   2.786   7.742   3.827
 3772TIP3   OH211272   3.652   5.814   0.006
 3772TIP3    H111273   3.710   5.747  -0.030
 3772TIP3    H211274   3.610   5.771   0.081
 3773TIP3   OH211275   7.718   4.693   5.420
 3773TIP3    H111276   7.664   4.712   5.343
 3773TIP3    H211277   7.805   4.725   5.396
 3774TIP3   OH211278   0.426   4.411   5.649
 3774TIP3    H111279   0.433   4.356   5.728
 3774TIP3    H211280   0.486   4.484   5.666
 3775TIP3   OH211281   4.294   0.041   2.169
 3775TIP3    H111282   4.384   0.073   2.171
 3775TIP3    H211283   4.243   0.116   2.139
 3776TIP3   OH211284   7.210   4.340   1.398
 3776TIP3    H111285   7.252   4.296   1.471
 3776TIP3    H211286   7.176   4.269   1.343
 3777TIP3   OH211287   4.423   1.309   5.404
 3777TIP3    H111288   4.505   1.341   5.367
 3777TIP3    H211289   4.361   1.314   5.331
 3778TIP3   OH211290   4.469   7.491   2.763
 3778TIP3    H111291   4.485   7.530   2.849
 3778TIP3    H211292   4.375   7.500   2.750
 3779TIP3   OH211293   3.807   5.940   2.784
 3779TIP3    H111294   3.818   6.021   2.735
 3779TIP3    H211295   3.738   5.893   2.738
 3780TIP3   OH211296   2.603   1.649   1.010
 3780TIP3    H111297   2.596   1.589   0.936
 3780TIP3    H211298   2.660   1.720   0.980
 3781TIP3   OH211299   8.059   3.984   3.501
 3781TIP3    H111300   8.013   4.049   3.555
 3781TIP3    H211301   8.118   4.035   3.446
 3782TIP3   OH211302   4.674   2.597   3.845
 3782TIP3    H111303   4.639   2.552   3.922
 3782TIP3    H211304   4.645   2.544   3.770
 3783TIP3   OH211305   1.545   5.146   0.929
 3783TIP3    H111306   1.476   5.111   0.872
 3783TIP3    H211307   1.611   5.076   0.932
 3784TIP3   OH211308   3.488   7.308   3.889
 3784TIP3    H111309   3.458   7.279   3.975
 3784TIP3    H211310   3.563   7.364   3.908
 3785TIP3   OH211311   5.399   4.502   0.093
 3785TIP3    H111312   5.326   4.549   0.053
 3785TIP3    H211313   5.467   4.568   0.104
 3786TIP3   OH211314   2.587   7.373   0.017
 3786TIP3    H111315   2.679   7.390   0.034
 3786TIP3    H211316   2.571   7.287   0.057
 3787TIP3   OH211317   4.222   3.286   5.567
 3787TIP3    H111318   4.284   3.226   5.526
 3787TIP3    H211319   4.249   3.290   5.659
 3788TIP3   OH211320   7.124   4.553   6.624
 3788TIP3    H111321   7.076   4.621   6.671
 3788TIP3    H211322   7.168   4.502   6.692
 3789TIP3   OH211323   0.115   4.670   4.513
 3789TIP3    H111324   0.118   4.736   4.582
 3789TIP3    H211325   0.189   4.613   4.532
 3790TIP3   OH211326   5.657   6.117   5.039
 3790TIP3    H111327   5.577   6.067   5.023
 3790TIP3    H211328   5.650   6.145   5.130
 3791TIP3   OH211329   4.672   6.938   3.075
 3791TIP3    H111330   4.637   6.879   3.142
 3791TIP3    H211331   4.604   6.941   3.007
 3792TIP3   OH211332   6.883   6.166   4.532
 3792TIP3    H111333   6.919   6.246   4.495
 3792TIP3    H211334   6.857   6.191   4.621
 3793TIP3   OH211335   2.363   3.536   5.138
 3793TIP3    H111336   2.311   3.616   5.133
 3793TIP3    H211337   2.427   3.553   5.207
 3794TIP3   OH211338   3.159   3.503   1.748
 3794TIP3    H111339   3.089   3.438   1.754
 3794TIP3    H211340   3.236   3.453   1.723
 3795TIP3   OH211341   5.295   2.078   2.383
 3795TIP3    H111342   5.203   2.088   2.409
 3795TIP3    H211343   5.340   2.057   2.465
 3796TIP3   OH211344   0.594   5.747   1.162
 3796TIP3    H111345   0.636   5.822   1.204
 3796TIP3    H211346   0.604   5.676   1.225
 3797TIP3   OH211347   0.408   4.388   2.663
 3797TIP3    H111348   0.400   4.362   2.572
 3797TIP3    H211349   0.418   4.483   2.661
 3798TIP3   OH211350   5.299   5.998   2.253
 3798TIP3    H111351   5.294   6.090   2.229
 3798TIP3    H211352   5.242   5.990   2.329
 3799TIP3   OH211353   0.776   6.185   5.122
 3799TIP3    H111354   0.721   6.129   5.067
 3799TIP3    H211355   0.858   6.192   5.073
 3800TIP3   OH211356   4.376   7.050   4.043
 3800TIP3    H111357   4.430   6.995   3.986
 3800TIP3    H211358   4.403   7.026   4.131
 3801TIP3   OH211359   1.518   5.720   0.659
 3801TIP3    H111360   1.566   5.643   0.627
 3801TIP3    H211361   1.557   5.738   0.745
 3802TIP3   OH211362   2.802   3.855   2.080
 3802TIP3    H111363   2.760   3.777   2.117
 3802TIP3    H211364   2.736   3.923   2.088
 3803TIP3   OH211365   6.660   3.418   6.356
 3803TIP3    H111366   6.599   3.358   6.312
 3803TIP3    H211367   6.643   3.405   6.449
 3804TIP3   OH211368   5.157   4.466   3.771
 3804TIP3    H111369   5.180   4.450   3.863
 3804TIP3    H211370   5.235   4.440   3.722
 3805TIP3   OH211371   5.280   4.552   1.692
 3805TIP3    H111372   5.190   4.525   1.709
 3805TIP3    H211373   5.278   4.647   1.695
 3806TIP3   OH211374   4.791   3.399   6.349
 3806TIP3    H111375   4.788   3.459   6.274
 3806TIP3    H211376   4.701   3.397   6.381
 3807TIP3   OH211377   0.993   3.284   4.974
 3807TIP3    H111378   0.970   3.372   5.004
 3807TIP3    H211379   0.919   3.229   4.999
 3808TIP3   OH211380   3.769   5.058   0.942
 3808TIP3    H111381   3.806   5.139   0.977
 3808TIP3    H211382   3.675   5.066   0.957
 3809TIP3   OH211383   8.038   7.641   5.405
 3809TIP3    H111384   8.050   7.611   5.315
 3809TIP3    H211385   8.123   7.630   5.446
 3810TIP3   OH211386   2.296   0.872   2.960
 3810TIP3    H111387   2.206   0.877   2.929
 3810TIP3    H211388   2.346   0.838   2.886
 3811TIP3   OH211389   5.794   4.528   5.819
 3811TIP3    H111390   5.785   4.600   5.757
 3811TIP3    H211391   5.888   4.519   5.832
 3812TIP3   OH211392   0.149   6.481   3.398
 3812TIP3    H111393   0.115   6.481   3.487
 3812TIP3    H211394   0.170   6.389   3.380
 3813TIP3   OH211395   2.554   6.284   4.491
 3813TIP3    H111396   2.590   6.339   4.421
 3813TIP3    H211397   2.477   6.242   4.452
 3814TIP3   OH211398   5.226   4.568   2.821
 3814TIP3    H111399   5.288   4.534   2.885
 3814TIP3    H211400   5.269   4.553   2.737
 3815TIP3   OH211401   3.887   2.572   3.651
 3815TIP3    H111402   3.947   2.550   3.580
 3815TIP3    H211403   3.937   2.630   3.708
 3816TIP3   OH211404   1.655   4.239   2.818
 3816TIP3    H111405   1.580   4.295   2.796
 3816TIP3    H211406   1.615   4.155   2.840
 3817TIP3   OH211407   0.347   6.664   1.137
 3817TIP3    H111408   0.310   6.747   1.168
 3817TIP3    H211409   0.286   6.598   1.168
 3818TIP3   OH211410   6.944   2.521   4.248
 3818TIP3    H111411   6.882   2.510   4.176
 3818TIP3    H211412   7.024   2.553   4.207
 3819TIP3   OH211413   1.935   3.950   3.878
 3819TIP3    H111414   1.939   3.870   3.929
 3819TIP3    H211415   1.849   3.946   3.834
 3820TIP3   OH211416   0.498   3.608   3.790
 3820TIP3    H111417   0.570   3.608   3.853
 3820TIP3    H211418   0.487   3.701   3.767
 3821TIP3   OH211419   0.126   3.248   6.598
 3821TIP3    H111420   0.095   3.333   6.627
 3821TIP3    H211421   0.114   3.190   6.674
 3822TIP3   OH211422   7.530   1.437   1.406
 3822TIP3    H111423   7.552   1.367   1.468
 3822TIP3    H211424   7.578   1.514   1.438
 3823TIP3   OH211425   2.893   3.255   2.086
 3823TIP3    H111426   2.887   3.186   2.152
 3823TIP3    H211427   2.824   3.317   2.109
 3824TIP3   OH211428   0.245   1.536   3.953
 3824TIP3    H111429   0.157   1.524   3.917
 3824TIP3    H211430   0.272   1.622   3.923
 3825TIP3   OH211431   0.489   4.719   0.351
 3825TIP3    H111432   0.512   4.633   0.385
 3825TIP3    H211433   0.527   4.781   0.414
 3826TIP3   OH211434   3.653   6.601   4.592
 3826TIP3    H111435   3.644   6.696   4.589
 3826TIP3    H211436   3.706   6.584   4.670
 3827TIP3   OH211437   2.378   7.488   4.959
 3827TIP3    H111438   2.321   7.501   4.883
 3827TIP3    H211439   2.324   7.515   5.033
 3828TIP3   OH211440   2.874   0.264   0.989
 3828TIP3    H111441   2.888   0.244   1.082
 3828TIP3    H211442   2.819   0.342   0.990
 3829TIP3   OH211443   4.102   5.842   5.489
 3829TIP3    H111444   4.109   5.814   5.580
 3829TIP3    H211445   4.164   5.915   5.481
 3830TIP3   OH211446   6.117   0.375   4.822
 3830TIP3    H111447   6.134   0.423   4.903
 3830TIP3    H211448   6.135   0.438   4.753
 3831TIP3   OH211449   8.248   0.222   2.019
 3831TIP3    H111450   8.264   0.131   1.993
 3831TIP3    H211451   8.329   0.268   1.997
 3832TIP3   OH211452   0.463   3.025   5.831
 3832TIP3    H111453   0.456   3.066   5.918
 3832TIP3    H211454   0.483   3.097   5.772
 3833TIP3   OH211455   2.907   4.517   0.437
 3833TIP3    H111456   2.866   4.556   0.360
 3833TIP3    H211457   2.926   4.427   0.412
 3834TIP3   OH211458   0.927   4.616   3.249
 3834TIP3    H111459   0.855   4.648   3.195
 3834TIP3    H211460   1.004   4.622   3.192
 3835TIP3   OH211461   2.856   2.429   5.996
 3835TIP3    H111462   2.796   2.504   5.995
 3835TIP3    H211463   2.831   2.380   6.075
 3836TIP3   OH211464   8.075   4.718   3.855
 3836TIP3    H111465   8.123   4.699   3.935
 3836TIP3    H211466   7.997   4.663   3.861
 3837TIP3   OH211467   6.558   6.875   3.655
 3837TIP3    H111468   6.542   6.805   3.719
 3837TIP3    H211469   6.511   6.847   3.577
 3838TIP3   OH211470   7.443   6.032   2.889
 3838TIP3    H111471   7.490   6.113   2.870
 3838TIP3    H211472   7.375   6.028   2.822
 3839TIP3   OH211473   4.717   0.763   0.302
 3839TIP3    H111474   4.628   0.735   0.323
 3839TIP3    H211475   4.715   0.787   0.210
 3840TIP3   OH211476   0.744   5.746   3.518
 3840TIP3    H111477   0.699   5.730   3.435
 3840TIP3    H211478   0.776   5.836   3.510
 3841TIP3   OH211479   8.081   5.558   3.234
 3841TIP3    H111480   8.082   5.543   3.329
 3841TIP3    H211481   8.173   5.571   3.211
 3842TIP3   OH211482   0.786   3.971   5.527
 3842TIP3    H111483   0.870   3.962   5.483
 3842TIP3    H211484   0.742   3.888   5.511
 3843TIP3   OH211485   7.045   2.236   2.687
 3843TIP3    H111486   7.078   2.200   2.769
 3843TIP3    H211487   7.048   2.163   2.625
 3844TIP3   OH211488   4.893   4.136   6.017
 3844TIP3    H111489   4.824   4.162   6.078
 3844TIP3    H211490   4.900   4.210   5.957
 3845TIP3   OH211491   0.951   1.970   5.555
 3845TIP3    H111492   0.928   1.967   5.648
 3845TIP3    H211493   0.892   1.907   5.513
 3846TIP3   OH211494   6.419   2.357   6.069
 3846TIP3    H111495   6.445   2.394   5.984
 3846TIP3    H211496   6.350   2.415   6.100
 3847TIP3   OH211497   7.492   6.380   4.133
 3847TIP3    H111498   7.495   6.409   4.224
 3847TIP3    H211499   7.425   6.435   4.092
 3848TIP3   OH211500   2.074   0.629   3.277
 3848TIP3    H111501   2.005   0.695   3.285
 3848TIP3    H211502   2.057   0.584   3.195
 3849TIP3   OH211503   5.889   5.734   0.113
 3849TIP3    H111504   5.872   5.827   0.131
 3849TIP3    H211505   5.925   5.700   0.194
 3850TIP3   OH211506   5.832   2.090   4.630
 3850TIP3    H111507   5.869   2.022   4.687
 3850TIP3    H211508   5.788   2.042   4.561
 3851TIP3   OH211509   2.816   1.339   0.615
 3851TIP3    H111510   2.898   1.292   0.633
 3851TIP3    H211511   2.811   1.404   0.685
 3852TIP3   OH211512   5.565   3.722   2.435
 3852TIP3    H111513   5.540   3.672   2.513
 3852TIP3    H211514   5.488   3.775   2.415
 3853TIP3   OH211515   0.104   6.627   6.580
 3853TIP3    H111516   0.076   6.684   6.508
 3853TIP3    H211517   0.154   6.558   6.537
 3854TIP3   OH211518   2.664   2.290   3.992
 3854TIP3    H111519   2.624   2.251   3.914
 3854TIP3    H211520   2.734   2.345   3.958
 3855TIP3   OH211521   3.060   3.987   4.939
 3855TIP3    H111522   3.055   3.894   4.958
 3855TIP3    H211523   3.109   4.025   5.011
 3856TIP3   OH211524   5.380   2.735   1.842
 3856TIP3    H111525   5.373   2.723   1.747
 3856TIP3    H211526   5.364   2.828   1.855
 3857TIP3   OH211527   5.245   5.147   0.276
 3857TIP3    H111528   5.282   5.175   0.360
 3857TIP3    H211529   5.184   5.218   0.253
 3858TIP3   OH211530   4.837   4.889   1.668
 3858TIP3    H111531   4.761   4.942   1.643
 3858TIP3    H211532   4.800   4.814   1.715
 3859TIP3   OH211533   3.327   3.689   0.503
 3859TIP3    H111534   3.236   3.662   0.514
 3859TIP3    H211535   3.378   3.609   0.522
 3860TIP3   OH211536   7.752   1.946   1.305
 3860TIP3    H111537   7.766   2.037   1.281
 3860TIP3    H211538   7.662   1.943   1.337
 3861TIP3   OH211539   1.096   7.310   0.462
 3861TIP3    H111540   1.153   7.354   0.526
 3861TIP3    H211541   1.025   7.273   0.515
 3862TIP3   OH211542   5.681   6.381   3.746
 3862TIP3    H111543   5.629   6.449   3.788
 3862TIP3    H211544   5.642   6.371   3.659
 3863TIP3   OH211545   7.825   5.663   0.751
 3863TIP3    H111546   7.825   5.743   0.803
 3863TIP3    H211547   7.910   5.664   0.706
 3864TIP3   OH211548   3.322   2.800   6.427
 3864TIP3    H111549   3.365   2.801   6.341
 3864TIP3    H211550   3.256   2.870   6.422
 3865TIP3   OH211551   3.814   2.302   0.410
 3865TIP3    H111552   3.803   2.394   0.434
 3865TIP3    H211553   3.768   2.253   0.478
 3866TIP3   OH211554   2.880   5.875   2.476
 3866TIP3    H111555   2.800   5.855   2.427
 3866TIP3    H211556   2.948   5.822   2.434
 3867TIP3   OH211557   2.734   7.528   2.453
 3867TIP3    H111558   2.776   7.597   2.402
 3867TIP3    H211559   2.806   7.470   2.479
 3868TIP3   OH211560   0.999   1.939   4.644
 3868TIP3    H111561   1.013   1.844   4.641
 3868TIP3    H211562   1.061   1.974   4.579
 3869TIP3   OH211563   5.419   2.582   1.256
 3869TIP3    H111564   5.479   2.607   1.327
 3869TIP3    H211565   5.373   2.662   1.234
 3870TIP3   OH211566   7.804   3.857   4.122
 3870TIP3    H111567   7.854   3.775   4.118
 3870TIP3    H211568   7.795   3.884   4.030
 3871TIP3   OH211569   2.755   2.335   5.304
 3871TIP3    H111570   2.707   2.413   5.331
 3871TIP3    H211571   2.688   2.278   5.265
 3872TIP3   OH211572   0.840   6.465   3.621
 3872TIP3    H111573   0.763   6.459   3.563
 3872TIP3    H211574   0.888   6.541   3.589
 3873TIP3   OH211575   0.587   1.850   5.779
 3873TIP3    H111576   0.552   1.774   5.733
 3873TIP3    H211577   0.510   1.905   5.795
 3874TIP3   OH211578   1.571   5.185   1.692
 3874TIP3    H111579   1.579   5.159   1.784
 3874TIP3    H211580   1.544   5.277   1.695
 3875TIP3   OH211581   0.893   3.052   5.598
 3875TIP3    H111582   0.900   3.131   5.651
 3875TIP3    H211583   0.982   3.032   5.571
 3876TIP3   OH211584   5.507   0.785   6.426
 3876TIP3    H111585   5.524   0.747   6.340
 3876TIP3    H211586   5.586   0.769   6.476
 3877TIP3   OH211587   4.915   5.516   0.752
 3877TIP3    H111588   4.955   5.479   0.674
 3877TIP3    H211589   4.831   5.552   0.723
 3878TIP3   OH211590   5.862   1.498   3.915
 3878TIP3    H111591   5.808   1.525   3.841
 3878TIP3    H211592   5.810   1.519   3.993
 3879TIP3   OH211593   0.439   3.786   0.616
 3879TIP3    H111594   0.461   3.879   0.616
 3879TIP3    H211595   0.479   3.752   0.696
 3880TIP3   OH211596   7.546   2.761   4.556
 3880TIP3    H111597   7.549   2.847   4.514
 3880TIP3    H211598   7.504   2.704   4.490
 3881TIP3   OH211599   7.875   2.563   6.454
 3881TIP3    H111600   7.938   2.493   6.438
 3881TIP3    H211601   7.792   2.518   6.472
 3882TIP3   OH211602   2.173   1.320   5.004
 3882TIP3    H111603   2.182   1.415   5.003
 3882TIP3    H211604   2.145   1.298   4.915
 3883TIP3   OH211605   0.910   1.764   2.046
 3883TIP3    H111606   0.821   1.794   2.032
 3883TIP3    H211607   0.908   1.722   2.132
 3884TIP3   OH211608   1.018   7.733   5.906
 3884TIP3    H111609   1.056   7.744   5.819
 3884TIP3    H211610   1.035   7.816   5.951
 3885TIP3   OH211611   4.097   2.472   4.014
 3885TIP3    H111612   4.065   2.557   3.985
 3885TIP3    H211613   4.033   2.410   3.980
 3886TIP3   OH211614   4.491   0.234   6.466
 3886TIP3    H111615   4.503   0.187   6.384
 3886TIP3    H211616   4.493   0.327   6.441
 3887TIP3   OH211617   3.334   6.778   6.109
 3887TIP3    H111618   3.359   6.867   6.086
 3887TIP3    H211619   3.240   6.775   6.096
 3888TIP3   OH211620   7.853   3.420   5.278
 3888TIP3    H111621   7.948   3.408   5.275
 3888TIP3    H211622   7.825   3.366   5.352
 3889TIP3   OH211623   5.519   3.433   6.685
 3889TIP3    H111624   5.509   3.528   6.673
 3889TIP3    H211625   5.444   3.395   6.640
 3890TIP3   OH211626   0.022   7.794   3.314
 3890TIP3    H111627  -0.050   7.765   3.371
 3890TIP3    H211628   0.079   7.717   3.307
 3891TIP3   OH211629   3.371   0.262   3.475
 3891TIP3    H111630   3.422   0.330   3.520
 3891TIP3    H211631   3.313   0.227   3.542
 3892TIP3   OH211632   4.193   3.880   2.754
 3892TIP3    H111633   4.278   3.882   2.709
 3892TIP3    H211634   4.186   3.966   2.795
 3893TIP3   OH211635   6.478   0.065   0.461
 3893TIP3    H111636   6.563   0.061   0.504
 3893TIP3    H211637   6.446  -0.025   0.462
 3894TIP3   OH211638   0.265   5.582   2.527
 3894TIP3    H111639   0.356   5.557   2.540
 3894TIP3    H211640   0.220   5.550   2.605
 3895TIP3   OH211641   1.319   5.027   2.678
 3895TIP3    H111642   1.402   5.057   2.715
 3895TIP3    H211643   1.253   5.046   2.745
 3896TIP3   OH211644  -0.005   4.912   3.287
 3896TIP3    H111645   0.028   4.951   3.206
 3896TIP3    H211646   0.001   4.983   3.351
 3897TIP3   OH211647   3.393   2.577   4.326
 3897TIP3    H111648   3.459   2.642   4.307
 3897TIP3    H211649   3.313   2.610   4.284
 3898TIP3   OH211650   6.542   6.333   0.709
 3898TIP3    H111651   6.518   6.333   0.616
 3898TIP3    H211652   6.464   6.300   0.754
 3899TIP3   OH211653   7.167   6.722   4.647
 3899TIP3    H111654   7.258   6.705   4.623
 3899TIP3    H211655   7.119   6.715   4.564
 3900TIP3   OH211656   4.084   2.882   3.876
 3900TIP3    H111657   4.117   2.934   3.949
 3900TIP3    H211658   4.037   2.809   3.917
 3901TIP3   OH211659   3.313   5.295   0.582
 3901TIP3    H111660   3.327   5.201   0.566
 3901TIP3    H211661   3.392   5.337   0.548
 3902TIP3   OH211662   7.589   1.905   1.925
 3902TIP3    H111663   7.609   1.998   1.935
 3902TIP3    H211664   7.587   1.871   2.015
 3903TIP3   OH211665   7.241   3.108   2.104
 3903TIP3    H111666   7.238   3.203   2.096
 3903TIP3    H211667   7.226   3.092   2.197
 3904TIP3   OH211668   1.309   2.298   0.841
 3904TIP3    H111669   1.396   2.257   0.841
 3904TIP3    H211670   1.285   2.304   0.933
 3905TIP3   OH211671   0.636   1.246   5.107
 3905TIP3    H111672   0.720   1.292   5.100
 3905TIP3    H211673   0.628   1.199   5.024
 3906TIP3   OH211674   7.315   4.350   5.480
 3906TIP3    H111675   7.236   4.316   5.522
 3906TIP3    H211676   7.382   4.284   5.496
 3907TIP3   OH211677   5.080   7.424   0.479
 3907TIP3    H111678   5.060   7.363   0.549
 3907TIP3    H211679   5.160   7.469   0.508
 3908TIP3   OH211680   3.717   3.957   0.690
 3908TIP3    H111681   3.664   3.925   0.618
 3908TIP3    H211682   3.698   3.897   0.762
 3909TIP3   OH211683   2.815   5.266   3.853
 3909TIP3    H111684   2.836   5.337   3.914
 3909TIP3    H211685   2.816   5.187   3.907
 3910TIP3   OH211686   2.106   1.162   5.230
 3910TIP3    H111687   2.172   1.201   5.286
 3910TIP3    H211688   2.134   1.183   5.141
 3911TIP3   OH211689   3.351   4.833   4.521
 3911TIP3    H111690   3.301   4.770   4.572
 3911TIP3    H211691   3.443   4.808   4.534
 3912TIP3   OH211692   1.981   7.209   0.289
 3912TIP3    H111693   1.904   7.226   0.344
 3912TIP3    H211694   1.955   7.241   0.203
 3913TIP3   OH211695   5.414   7.295   3.015
 3913TIP3    H111696   5.430   7.335   2.929
 3913TIP3    H211697   5.499   7.258   3.040
 3914TIP3   OH211698   0.768   2.038   4.368
 3914TIP3    H111699   0.698   2.022   4.305
 3914TIP3    H211700   0.848   2.009   4.324
 3915TIP3   OH211701   7.132   2.077   2.495
 3915TIP3    H111702   7.138   2.153   2.437
 3915TIP3    H211703   7.222   2.042   2.497
 3916TIP3   OH211704   7.640   5.567   4.290
 3916TIP3    H111705   7.603   5.526   4.368
 3916TIP3    H211706   7.734   5.571   4.307
 3917TIP3   OH211707   4.077   5.931   4.928
 3917TIP3    H111708   4.124   5.881   4.861
 3917TIP3    H211709   4.145   5.977   4.976
 3918TIP3   OH211710   5.341   6.414   1.743
 3918TIP3    H111711   5.319   6.452   1.658
 3918TIP3    H211712   5.419   6.462   1.771
 3919TIP3   OH211713   1.139   1.289   2.529
 3919TIP3    H111714   1.124   1.257   2.440
 3919TIP3    H211715   1.100   1.376   2.530
 3920TIP3   OH211716   8.007   4.635   1.680
 3920TIP3    H111717   7.964   4.578   1.743
 3920TIP3    H211718   7.997   4.591   1.596
 3921TIP3   OH211719   4.009   3.866   5.701
 3921TIP3    H111720   3.918   3.886   5.726
 3921TIP3    H211721   4.002   3.784   5.653
 3922TIP3   OH211722   2.843   7.025   4.010
 3922TIP3    H111723   2.821   6.932   4.018
 3922TIP3    H211724   2.775   7.070   4.060
 3923TIP3   OH211725   4.431   4.061   1.115
 3923TIP3    H111726   4.397   3.993   1.057
 3923TIP3    H211727   4.451   4.016   1.197
 3924TIP3   OH211728   4.803   5.091   1.071
 3924TIP3    H111729   4.793   5.118   1.163
 3924TIP3    H211730   4.856   5.160   1.032
 3925TIP3   OH211731   2.637   7.184   1.335
 3925TIP3    H111732   2.674   7.261   1.379
 3925TIP3    H211733   2.683   7.180   1.251
 3926TIP3   OH211734   3.218   1.434   4.172
 3926TIP3    H111735   3.148   1.411   4.234
 3926TIP3    H211736   3.178   1.500   4.115
 3927TIP3   OH211737   2.167   1.634   3.224
 3927TIP3    H111738   2.072   1.643   3.234
 3927TIP3    H211739   2.178   1.573   3.151
 3928TIP3   OH211740   5.234   2.348   6.047
 3928TIP3    H111741   5.280   2.374   5.968
 3928TIP3    H211742   5.294   2.370   6.118
 3929TIP3   OH211743   5.878   6.094   5.716
 3929TIP3    H111744   5.850   6.186   5.713
 3929TIP3    H211745   5.802   6.046   5.683
 3930TIP3   OH211746   4.617   2.984   4.816
 3930TIP3    H111747   4.577   2.932   4.886
 3930TIP3    H211748   4.677   2.924   4.772
 3931TIP3   OH211749   4.445   5.400   2.130
 3931TIP3    H111750   4.377   5.369   2.190
 3931TIP3    H211751   4.458   5.492   2.155
 3932TIP3   OH211752   2.260   5.985   2.093
 3932TIP3    H111753   2.233   6.075   2.078
 3932TIP3    H211754   2.290   5.953   2.008
 3933TIP3   OH211755   2.254   3.765   3.808
 3933TIP3    H111756   2.337   3.769   3.760
 3933TIP3    H211757   2.274   3.802   3.894
 3934TIP3   OH211758   5.982   6.201   5.444
 3934TIP3    H111759   5.911   6.262   5.426
 3934TIP3    H211760   5.962   6.165   5.531
 3935TIP3   OH211761   7.850   3.564   3.967
 3935TIP3    H111762   7.942   3.573   3.944
 3935TIP3    H211763   7.803   3.615   3.901
 3936TIP3   OH211764   1.719   6.714   5.526
 3936TIP3    H111765   1.660   6.720   5.451
 3936TIP3    H211766   1.772   6.793   5.523
 3937TIP3   OH211767   6.805   0.779   5.665
 3937TIP3    H111768   6.723   0.794   5.711
 3937TIP3    H211769   6.869   0.760   5.734
 3938TIP3   OH211770   2.535   2.875   3.087
 3938TIP3    H111771   2.531   2.905   3.178
 3938TIP3    H211772   2.554   2.781   3.094
 3939TIP3   OH211773   5.389   5.538   2.667
 3939TIP3    H111774   5.380   5.614   2.611
 3939TIP3    H211775   5.420   5.573   2.751
 3940TIP3   OH211776   3.981   4.578   0.852
 3940TIP3    H111777   4.026   4.581   0.937
 3940TIP3    H211778   3.996   4.665   0.814
 3941TIP3   OH211779   7.849   0.093   0.826
 3941TIP3    H111780   7.757   0.068   0.818
 3941TIP3    H211781   7.862   0.105   0.920
 3942TIP3   OH211782   4.200   2.997   1.356
 3942TIP3    H111783   4.147   2.954   1.288
 3942TIP3    H211784   4.267   3.045   1.308
 3943TIP3   OH211785   6.458   2.136   1.276
 3943TIP3    H111786   6.433   2.216   1.324
 3943TIP3    H211787   6.478   2.166   1.188
 3944TIP3   OH211788   4.359   5.255   5.520
 3944TIP3    H111789   4.391   5.269   5.431
 3944TIP3    H211790   4.360   5.160   5.532
 3945TIP3   OH211791   3.457   2.358   5.018
 3945TIP3    H111792   3.451   2.450   4.991
 3945TIP3    H211793   3.455   2.309   4.936
 3946TIP3   OH211794   4.673   4.768   3.376
 3946TIP3    H111795   4.610   4.759   3.447
 3946TIP3    H211796   4.657   4.855   3.340
 3947TIP3   OH211797   4.149   7.442   1.097
 3947TIP3    H111798   4.062   7.403   1.091
 3947TIP3    H211799   4.141   7.527   1.053
 3948TIP3   OH211800   3.686   3.148   0.262
 3948TIP3    H111801   3.758   3.143   0.324
 3948TIP3    H211802   3.695   3.071   0.207
 3949TIP3   OH211803   3.790   3.888   2.927
 3949TIP3    H111804   3.700   3.895   2.897
 3949TIP3    H211805   3.829   3.821   2.871
 3950TIP3   OH211806   5.354   1.206   6.047
 3950TIP3    H111807   5.352   1.128   6.102
 3950TIP3    H211808   5.430   1.194   5.990
 3951TIP3   OH211809   1.914   6.050   5.307
 3951TIP3    H111810   1.965   6.106   5.365
 3951TIP3    H211811   1.825   6.054   5.343
 3952TIP3   OH211812   8.026   6.512   0.948
 3952TIP3    H111813   8.077   6.541   0.872
 3952TIP3    H211814   8.083   6.528   1.023
 3953TIP3   OH211815   7.683   1.517   5.644
 3953TIP3    H111816   7.646   1.539   5.730
 3953TIP3    H211817   7.607   1.515   5.586
 3954TIP3   OH211818   3.919   4.137   4.475
 3954TIP3    H111819   3.939   4.144   4.568
 3954TIP3    H211820   3.984   4.193   4.432
 3955TIP3   OH211821   5.833   3.031   0.409
 3955TIP3    H111822   5.776   2.954   0.413
 3955TIP3    H211823   5.905   3.011   0.469
 3956TIP3   OH211824   1.952   2.290   6.204
 3956TIP3    H111825   1.921   2.268   6.116
 3956TIP3    H211826   1.873   2.300   6.255
 3957TIP3   OH211827   0.464   2.177   1.932
 3957TIP3    H111828   0.444   2.086   1.908
 3957TIP3    H211829   0.468   2.177   2.028
 3958TIP3   OH211830   6.053   1.178   4.347
 3958TIP3    H111831   6.073   1.162   4.439
 3958TIP3    H211832   6.044   1.090   4.309
 3959TIP3   OH211833   2.399   7.604   1.242
 3959TIP3    H111834   2.350   7.685   1.228
 3959TIP3    H211835   2.359   7.542   1.182
 3960TIP3   OH211836   4.869   6.046   3.619
 3960TIP3    H111837   4.891   5.953   3.617
 3960TIP3    H211838   4.781   6.051   3.583
 3961TIP3   OH211839   1.970   4.617   4.839
 3961TIP3    H111840   1.934   4.676   4.772
 3961TIP3    H211841   1.971   4.670   4.919
 3962TIP3   OH211842   7.586   0.440   2.831
 3962TIP3    H111843   7.508   0.429   2.886
 3962TIP3    H211844   7.552   0.441   2.741
 3963TIP3   OH211845   1.456   6.381   0.204
 3963TIP3    H111846   1.389   6.313   0.205
 3963TIP3    H211847   1.526   6.347   0.259
 3964TIP3   OH211848   1.675   1.633   6.526
 3964TIP3    H111849   1.648   1.723   6.542
 3964TIP3    H211850   1.599   1.580   6.549
 3965TIP3   OH211851   0.336   0.628   6.432
 3965TIP3    H111852   0.358   0.556   6.491
 3965TIP3    H211853   0.396   0.618   6.359
 3966TIP3   OH211854   7.581   5.444   3.470
 3966TIP3    H111855   7.650   5.445   3.404
 3966TIP3    H211856   7.506   5.405   3.425
 3967TIP3   OH211857   3.116   4.897   5.824
 3967TIP3    H111858   3.163   4.977   5.799
 3967TIP3    H211859   3.130   4.837   5.750
 3968TIP3   OH211860   4.315   3.444   4.692
 3968TIP3    H111861   4.344   3.525   4.735
 3968TIP3    H211862   4.345   3.453   4.602
 3969TIP3   OH211863   7.342   6.635   4.111
 3969TIP3    H111864   7.437   6.644   4.110
 3969TIP3    H211865   7.310   6.716   4.069
 3970TIP3   OH211866   3.340   4.604   5.710
 3970TIP3    H111867   3.288   4.680   5.737
 3970TIP3    H211868   3.367   4.624   5.620
 3971TIP3   OH211869   2.298   3.233   1.545
 3971TIP3    H111870   2.319   3.268   1.459
 3971TIP3    H211871   2.302   3.138   1.535
 3972TIP3   OH211872   7.924   7.328   6.238
 3972TIP3    H111873   7.856   7.382   6.279
 3972TIP3    H211874   7.992   7.390   6.212
 3973TIP3   OH211875   2.704   1.796   3.854
 3973TIP3    H111876   2.791   1.768   3.882
 3973TIP3    H211877   2.645   1.728   3.886
 3974TIP3   OH211878   3.447   1.331   6.324
 3974TIP3    H111879   3.421   1.252   6.372
 3974TIP3    H211880   3.512   1.372   6.381
 3975TIP3   OH211881   4.715   7.313   4.381
 3975TIP3    H111882   4.634   7.288   4.337
 3975TIP3    H211883   4.777   7.330   4.310
 3976TIP3   OH211884   3.774   6.427   2.948
 3976TIP3    H111885   3.810   6.425   2.860
 3976TIP3    H211886   3.785   6.337   2.981
 3977TIP3   OH211887   4.718   1.073   5.340
 3977TIP3    H111888   4.714   0.987   5.381
 3977TIP3    H211889   4.807   1.104   5.360
 3978TIP3   OH211890   2.210   3.498   1.042
 3978TIP3    H111891   2.281   3.532   1.096
 3978TIP3    H211892   2.254   3.461   0.965
 3979TIP3   OH211893   3.916   7.672   0.137
 3979TIP3    H111894   3.950   7.585   0.114
 3979TIP3    H211895   3.977   7.704   0.204
 3980TIP3   OH211896   3.520   2.313   0.086
 3980TIP3    H111897   3.524   2.368   0.164
 3980TIP3    H211898   3.611   2.288   0.070
 3981TIP3   OH211899   0.124   3.640   2.648
 3981TIP3    H111900   0.102   3.640   2.741
 3981TIP3    H211901   0.204   3.693   2.643
 3982TIP3   OH211902   3.697   0.092   2.598
 3982TIP3    H111903   3.687  -0.002   2.612
 3982TIP3    H211904   3.610   0.121   2.573
 3983TIP3   OH211905   4.337   3.821   0.667
 3983TIP3    H111906   4.347   3.749   0.604
 3983TIP3    H211907   4.422   3.828   0.709
 3984TIP3   OH211908   4.939   4.171   3.332
 3984TIP3    H111909   4.915   4.121   3.254
 3984TIP3    H211910   4.936   4.263   3.302
 3985TIP3   OH211911   7.818   1.599   1.159
 3985TIP3    H111912   7.884   1.619   1.226
 3985TIP3    H211913   7.842   1.512   1.126
 3986TIP3   OH211914   5.127   7.428   0.197
 3986TIP3    H111915   5.122   7.437   0.292
 3986TIP3    H211916   5.047   7.469   0.164
 3987TIP3   OH211917   5.184   1.745   6.288
 3987TIP3    H111918   5.239   1.814   6.326
 3987TIP3    H211919   5.146   1.700   6.363
 3988TIP3   OH211920   5.789   3.826   2.311
 3988TIP3    H111921   5.800   3.785   2.226
 3988TIP3    H211922   5.712   3.784   2.349
 3989TIP3   OH211923   6.613   5.755   0.960
 3989TIP3    H111924   6.537   5.725   1.010
 3989TIP3    H211925   6.579   5.765   0.870
 3990TIP3   OH211926   4.192   6.935   1.454
 3990TIP3    H111927   4.170   6.936   1.548
 3990TIP3    H211928   4.283   6.963   1.450
 3991TIP3   OH211929   0.200   5.287   4.116
 3991TIP3    H111930   0.229   5.332   4.196
 3991TIP3    H211931   0.166   5.203   4.147
 3992TIP3   OH211932   6.227   3.965   4.894
 3992TIP3    H111933   6.209   4.028   4.963
 3992TIP3    H211934   6.299   4.003   4.844
 3993TIP3   OH211935   8.138   5.427   1.496
 3993TIP3    H111936   8.108   5.391   1.413
 3993TIP3    H211937   8.226   5.390   1.507
 3994TIP3   OH211938   2.989   5.060   6.305
 3994TIP3    H111939   2.908   5.033   6.349
 3994TIP3    H211940   3.003   5.150   6.334
 3995TIP3   OH211941   1.713   7.069   3.587
 3995TIP3    H111942   1.630   7.026   3.606
 3995TIP3    H211943   1.698   7.117   3.506
 3996TIP3   OH211944   1.206   1.697   2.935
 3996TIP3    H111945   1.217   1.641   3.012
 3996TIP3    H211946   1.294   1.702   2.897
 3997TIP3   OH211947   3.472   6.871   4.711
 3997TIP3    H111948   3.441   6.782   4.727
 3997TIP3    H211949   3.439   6.893   4.623
 3998TIP3   OH211950   7.114   6.480   1.785
 3998TIP3    H111951   7.073   6.467   1.870
 3998TIP3    H211952   7.044   6.516   1.730
 3999TIP3   OH211953   1.930   4.031   2.784
 3999TIP3    H111954   1.898   4.101   2.727
 3999TIP3    H211955   2.023   4.052   2.797
 4000TIP3   OH211956   0.197   7.090   0.647
 4000TIP3    H111957   0.175   7.179   0.619
 4000TIP3    H211958   0.232   7.101   0.736
 4001TIP3   OH211959   4.870   7.028   6.072
 4001TIP3    H111960   4.857   6.979   5.991
 4001TIP3    H211961   4.817   7.107   6.062
 4002TIP3   OH211962   6.649   3.315   4.619
 4002TIP3    H111963   6.719   3.325   4.556
 4002TIP3    H211964   6.626   3.222   4.615
 4003TIP3   OH211965   2.103   5.112   6.654
 4003TIP3    H111966   2.016   5.089   6.621
 4003TIP3    H211967   2.159   5.113   6.577
 4004TIP3   OH211968   5.296   3.096   4.348
 4004TIP3    H111969   5.276   3.066   4.259
 4004TIP3    H211970   5.224   3.155   4.370
 4005TIP3   OH211971   4.418   2.079   1.053
 4005TIP3    H111972   4.487   2.130   1.011
 4005TIP3    H211973   4.448   1.988   1.046
 4006TIP3   OH211974   1.732   2.442   2.800
 4006TIP3    H111975   1.740   2.500   2.876
 4006TIP3    H211976   1.668   2.486   2.744
 4007TIP3   OH211977   8.185   0.673   0.942
 4007TIP3    H111978   8.273   0.674   0.903
 4007TIP3    H211979   8.147   0.757   0.916
 4008TIP3   OH211980   3.189   0.437   4.744
 4008TIP3    H111981   3.247   0.503   4.781
 4008TIP3    H211982   3.245   0.360   4.733
 4009TIP3   OH211983   2.413   6.569   3.427
 4009TIP3    H111984   2.503   6.556   3.456
 4009TIP3    H211985   2.377   6.634   3.488
 4010TIP3   OH211986   3.715   2.820   0.347
 4010TIP3    H111987   3.654   2.857   0.410
 4010TIP3    H211988   3.683   2.850   0.262
 4011TIP3   OH211989   7.137   0.877   6.713
 4011TIP3    H111990   7.047   0.852   6.692
 4011TIP3    H211991   7.131   0.970   6.737
 4012TIP3   OH211992   4.447   2.264   4.304
 4012TIP3    H111993   4.417   2.279   4.214
 4012TIP3    H211994   4.372   2.224   4.348
 4013TIP3   OH211995   1.889   0.807   0.117
 4013TIP3    H111996   1.843   0.886   0.148
 4013TIP3    H211997   1.821   0.741   0.110
 4014TIP3   OH211998   3.446   6.095   5.390
 4014TIP3    H111999   3.463   6.167   5.451
 4014TIP3    H212000   3.351   6.094   5.379
 4015TIP3   OH212001   6.594   1.628   1.379
 4015TIP3    H112002   6.594   1.600   1.471
 4015TIP3    H212003   6.612   1.548   1.330
 4016TIP3   OH212004   7.902   2.954   1.404
 4016TIP3    H112005   7.911   2.986   1.493
 4016TIP3    H212006   7.808   2.942   1.392
 4017TIP3   OH212007   7.665   4.543   5.851
 4017TIP3    H112008   7.601   4.597   5.805
 4017TIP3    H212009   7.665   4.577   5.941
 4018TIP3   OH212010   6.372   6.547   5.660
 4018TIP3    H112011   6.299   6.607   5.674
 4018TIP3    H212012   6.338   6.462   5.688
 4019TIP3   OH212013   6.467   7.350   1.790
 4019TIP3    H112014   6.558   7.321   1.795
 4019TIP3    H212015   6.439   7.326   1.701
 4020TIP3   OH212016   1.620   7.409   3.946
 4020TIP3    H112017   1.687   7.420   3.879
 4020TIP3    H212018   1.653   7.458   4.022
 4021TIP3   OH212019   3.822   6.564   0.891
 4021TIP3    H112020   3.742   6.522   0.923
 4021TIP3    H212021   3.794   6.652   0.865
 4022TIP3   OH212022   2.748   7.723   3.496
 4022TIP3    H112023   2.692   7.646   3.497
 4022TIP3    H212024   2.776   7.731   3.404
 4023TIP3   OH212025   1.176   7.689   2.280
 4023TIP3    H112026   1.152   7.608   2.235
 4023TIP3    H212027   1.255   7.667   2.330
 4024TIP3   OH212028   8.082   2.945   3.954
 4024TIP3    H112029   8.080   2.850   3.941
 4024TIP3    H212030   8.137   2.978   3.884
 4025TIP3   OH212031   2.974   7.320   3.262
 4025TIP3    H112032   3.026   7.360   3.331
 4025TIP3    H212033   2.983   7.226   3.276
 4026TIP3   OH212034   7.510   5.432   5.201
 4026TIP3    H112035   7.545   5.438   5.112
 4026TIP3    H212036   7.569   5.487   5.253
 4027TIP3   OH212037   2.256   1.354   3.661
 4027TIP3    H112038   2.267   1.390   3.748
 4027TIP3    H212039   2.179   1.297   3.668
 4028TIP3   OH212040   5.806   0.124   1.376
 4028TIP3    H112041   5.755   0.203   1.361
 4028TIP3    H212042   5.882   0.153   1.425
 4029TIP3   OH212043   7.273   3.254   3.560
 4029TIP3    H112044   7.230   3.289   3.481
 4029TIP3    H212045   7.358   3.223   3.528
 4030TIP3   OH212046   0.802   1.016   4.289
 4030TIP3    H112047   0.802   1.108   4.262
 4030TIP3    H212048   0.892   0.986   4.274
 4031TIP3   OH212049   7.606   4.651   6.106
 4031TIP3    H112050   7.644   4.592   6.172
 4031TIP3    H212051   7.523   4.679   6.145
 4032TIP3   OH212052   3.233   6.742   0.058
 4032TIP3    H112053   3.294   6.797   0.009
 4032TIP3    H212054   3.285   6.667   0.086
 4033TIP3   OH212055   1.738   4.609   2.993
 4033TIP3    H112056   1.787   4.691   2.990
 4033TIP3    H212057   1.647   4.636   3.011
 4034TIP3   OH212058   5.674   4.117   2.278
 4034TIP3    H112059   5.712   4.134   2.192
 4034TIP3    H212060   5.710   4.032   2.304
 4035TIP3   OH212061   4.352   5.045   0.842
 4035TIP3    H112062   4.391   5.055   0.929
 4035TIP3    H212063   4.294   4.970   0.851
 4036TIP3   OH212064   4.167   6.666   0.914
 4036TIP3    H112065   4.127   6.737   0.864
 4036TIP3    H212066   4.204   6.710   0.991
 4037TIP3   OH212067   2.560   6.287   3.757
 4037TIP3    H112068   2.603   6.293   3.671
 4037TIP3    H212069   2.620   6.237   3.811
 4038TIP3   OH212070   7.554   5.201   1.430
 4038TIP3    H112071   7.631   5.212   1.486
 4038TIP3    H212072   7.479   5.204   1.491
 4039TIP3   OH212073   5.309   3.988   5.403
 4039TIP3    H112074   5.405   3.983   5.398
 4039TIP3    H212075   5.280   3.980   5.312
 4040TIP3   OH212076   6.491   4.213   4.866
 4040TIP3    H112077   6.542   4.245   4.941
 4040TIP3    H212078   6.522   4.124   4.852
 4041TIP3   OH212079   0.287   0.692   1.040
 4041TIP3    H112080   0.253   0.693   0.951
 4041TIP3    H212081   0.380   0.716   1.031
 4042TIP3   OH212082   2.162   6.574   4.854
 4042TIP3    H112083   2.222   6.559   4.927
 4042TIP3    H212084   2.136   6.666   4.863
 4043TIP3   OH212085   3.203   7.564   5.921
 4043TIP3    H112086   3.172   7.652   5.899
 4043TIP3    H212087   3.153   7.506   5.864
 4044TIP3   OH212088   8.058   4.664   2.352
 4044TIP3    H112089   7.963   4.666   2.364
 4044TIP3    H212090   8.071   4.671   2.258
 4045TIP3   OH212091   6.842   0.394   6.530
 4045TIP3    H112092   6.926   0.427   6.560
 4045TIP3    H212093   6.777   0.446   6.578
 4046TIP3   OH212094   7.875   6.823   5.229
 4046TIP3    H112095   7.824   6.763   5.284
 4046TIP3    H212096   7.809   6.872   5.179
 4047TIP3   OH212097   7.149   1.222   5.527
 4047TIP3    H112098   7.179   1.264   5.446
 4047TIP3    H212099   7.087   1.155   5.498
 4048TIP3   OH212100   7.569   3.112   6.432
 4048TIP3    H112101   7.491   3.089   6.483
 4048TIP3    H212102   7.622   3.032   6.432
 4049TIP3   OH212103   4.388   1.335   4.874
 4049TIP3    H112104   4.324   1.351   4.804
 4049TIP3    H212105   4.468   1.375   4.842
 4050TIP3   OH212106   1.517   5.705   3.953
 4050TIP3    H112107   1.458   5.693   3.879
 4050TIP3    H212108   1.516   5.620   3.998
 4051TIP3   OH212109   1.644   0.835   3.018
 4051TIP3    H112110   1.721   0.892   3.027
 4051TIP3    H212111   1.652   0.772   3.089
 4052TIP3   OH212112   5.334   4.906   1.624
 4052TIP3    H112113   5.344   4.876   1.533
 4052TIP3    H212114   5.351   5.001   1.619
 4053TIP3   OH212115   8.107   1.557   0.513
 4053TIP3    H112116   8.161   1.489   0.552
 4053TIP3    H212117   8.030   1.562   0.571
 4054TIP3   OH212118   7.257   6.142   2.270
 4054TIP3    H112119   7.323   6.171   2.206
 4054TIP3    H212120   7.307   6.094   2.335
 4055TIP3   OH212121   8.026   5.343   2.412
 4055TIP3    H112122   8.114   5.365   2.441
 4055TIP3    H212123   8.032   5.339   2.316
 4056TIP3   OH212124   2.924   4.066   2.935
 4056TIP3    H112125   2.984   4.094   2.866
 4056TIP3    H212126   2.879   4.145   2.962
 4057TIP3   OH212127   6.023   3.191   1.763
 4057TIP3    H112128   6.078   3.209   1.687
 4057TIP3    H212129   6.056   3.250   1.831
 4058TIP3   OH212130   2.281   3.675   5.625
 4058TIP3    H112131   2.293   3.656   5.532
 4058TIP3    H212132   2.231   3.600   5.658
 4059TIP3   OH212133   7.170   1.269   0.619
 4059TIP3    H112134   7.222   1.207   0.670
 4059TIP3    H212135   7.203   1.259   0.529
 4060TIP3   OH212136   1.061   7.312   3.382
 4060TIP3    H112137   0.983   7.282   3.336
 4060TIP3    H212138   1.134   7.271   3.334
 4061TIP3   OH212139   6.988   4.987   6.523
 4061TIP3    H112140   7.065   5.010   6.472
 4061TIP3    H212141   7.007   5.018   6.612
 4062TIP3   OH212142   2.543   0.063   0.629
 4062TIP3    H112143   2.496   0.016   0.698
 4062TIP3    H212144   2.492   0.045   0.550
 4063TIP3   OH212145   6.180   3.126   2.046
 4063TIP3    H112146   6.269   3.138   2.080
 4063TIP3    H212147   6.129   3.195   2.089
 4064TIP3   OH212148   5.767   0.020   4.605
 4064TIP3    H112149   5.704  -0.001   4.536
 4064TIP3    H212150   5.726  -0.012   4.686
 4065TIP3   OH212151   0.752   2.550   4.088
 4065TIP3    H112152   0.806   2.626   4.068
 4065TIP3    H212153   0.747   2.549   4.184
 4066TIP3   OH212154   2.359   5.107   3.247
 4066TIP3    H112155   2.352   5.046   3.320
 4066TIP3    H212156   2.453   5.110   3.228
 4067TIP3   OH212157   3.614   4.796   1.517
 4067TIP3    H112158   3.620   4.841   1.433
 4067TIP3    H212159   3.639   4.706   1.497
 4068TIP3   OH212160   2.010   3.240   6.475
 4068TIP3    H112161   2.082   3.244   6.413
 4068TIP3    H212162   2.018   3.320   6.526
 4069TIP3   OH212163   1.741   4.003   2.511
 4069TIP3    H112164   1.669   4.044   2.464
 4069TIP3    H212165   1.763   4.066   2.580
 4070TIP3   OH212166   3.581   5.865   2.634
 4070TIP3    H112167   3.512   5.882   2.570
 4070TIP3    H212168   3.607   5.774   2.619
 4071TIP3   OH212169   4.954   3.094   2.874
 4071TIP3    H112170   5.033   3.045   2.854
 4071TIP3    H212171   4.898   3.032   2.921
 4072TIP3   OH212172   5.443   0.888   2.695
 4072TIP3    H112173   5.521   0.883   2.640
 4072TIP3    H212174   5.417   0.797   2.708
 4073TIP3   OH212175   0.741   2.348   1.606
 4073TIP3    H112176   0.832   2.318   1.618
 4073TIP3    H212177   0.747   2.443   1.614
 4074TIP3   OH212178   7.507   1.359   3.644
 4074TIP3    H112179   7.446   1.292   3.613
 4074TIP3    H212180   7.525   1.334   3.735
 4075TIP3   OH212181   6.055   5.973   2.010
 4075TIP3    H112182   5.983   5.956   2.070
 4075TIP3    H212183   6.080   6.064   2.027
 4076TIP3   OH212184   4.024   0.720   4.389
 4076TIP3    H112185   4.035   0.678   4.474
 4076TIP3    H212186   4.101   0.694   4.339
 4077TIP3   OH212187   7.778   5.559   1.607
 4077TIP3    H112188   7.867   5.594   1.609
 4077TIP3    H212189   7.736   5.605   1.535
 4078TIP3   OH212190   3.333   1.347   0.314
 4078TIP3    H112191   3.249   1.384   0.342
 4078TIP3    H212192   3.311   1.262   0.277
 4079TIP3   OH212193   7.559   3.202   2.277
 4079TIP3    H112194   7.463   3.201   2.275
 4079TIP3    H212195   7.581   3.285   2.320
 4080TIP3   OH212196   5.271   3.690   3.073
 4080TIP3    H112197   5.225   3.760   3.027
 4080TIP3    H212198   5.228   3.685   3.158
 4081TIP3   OH212199   6.741   5.745   5.740
 4081TIP3    H112200   6.690   5.790   5.807
 4081TIP3    H212201   6.825   5.790   5.740
 4082TIP3   OH212202   5.983   4.247   1.702
 4082TIP3    H112203   6.075   4.230   1.682
 4082TIP3    H212204   5.959   4.178   1.763
 4083TIP3   OH212205   1.869   0.383   0.354
 4083TIP3    H112206   1.890   0.356   0.443
 4083TIP3    H212207   1.938   0.444   0.330
 4084TIP3   OH212208   2.871   1.577   1.553
 4084TIP3    H112209   2.863   1.484   1.532
 4084TIP3    H212210   2.811   1.590   1.627
 4085TIP3   OH212211   1.326   1.226   2.699
 4085TIP3    H112212   1.408   1.246   2.655
 4085TIP3    H212213   1.259   1.239   2.632
 4086TIP3   OH212214   8.246   0.896   5.502
 4086TIP3    H112215   8.159   0.935   5.510
 4086TIP3    H212216   8.284   0.938   5.425
 4087TIP3   OH212217   4.724   0.822   4.535
 4087TIP3    H112218   4.752   0.777   4.455
 4087TIP3    H212219   4.703   0.911   4.507
 4088TIP3   OH212220   1.374   1.030   3.423
 4088TIP3    H112221   1.285   1.024   3.457
 4088TIP3    H212222   1.370   0.986   3.338
 4089TIP3   OH212223   3.733   5.640   2.632
 4089TIP3    H112224   3.762   5.549   2.625
 4089TIP3    H212225   3.674   5.641   2.708
 4090TIP3   OH212226   7.559   7.718   3.954
 4090TIP3    H112227   7.558   7.670   3.870
 4090TIP3    H212228   7.506   7.664   4.013
 4091TIP3   OH212229   5.234   5.651   0.033
 4091TIP3    H112230   5.259   5.740   0.057
 4091TIP3    H212231   5.168   5.627   0.099
 4092TIP3   OH212232   6.081   2.314   5.137
 4092TIP3    H112233   6.129   2.233   5.149
 4092TIP3    H212234   6.131   2.363   5.072
 4093TIP3   OH212235   2.569   2.568   6.233
 4093TIP3    H112236   2.609   2.638   6.181
 4093TIP3    H212237   2.538   2.613   6.312
 4094TIP3   OH212238   2.359   4.180   1.409
 4094TIP3    H112239   2.417   4.216   1.342
 4094TIP3    H212240   2.323   4.101   1.371
 4095TIP3   OH212241   0.318   3.336   1.895
 4095TIP3    H112242   0.379   3.407   1.879
 4095TIP3    H212243   0.372   3.257   1.889
 4096TIP3   OH212244   5.624   1.746   4.057
 4096TIP3    H112245   5.690   1.803   4.017
 4096TIP3    H212246   5.674   1.678   4.100
 4097TIP3   OH212247   7.459   3.404   1.499
 4097TIP3    H112248   7.433   3.366   1.583
 4097TIP3    H212249   7.378   3.405   1.448
 4098TIP3   OH212250   2.254   3.932   1.361
 4098TIP3    H112251   2.175   3.878   1.351
 4098TIP3    H212252   2.309   3.882   1.422
 4099TIP3   OH212253   1.794   5.187   4.281
 4099TIP3    H112254   1.824   5.275   4.303
 4099TIP3    H212255   1.800   5.182   4.186
 4100TIP3   OH212256   0.365   3.150   6.096
 4100TIP3    H112257   0.442   3.206   6.090
 4100TIP3    H212258   0.333   3.163   6.186
 4101TIP3   OH212259   7.138   6.931   2.727
 4101TIP3    H112260   7.117   7.025   2.725
 4101TIP3    H212261   7.233   6.928   2.722
 4102TIP3   OH212262   3.642   5.864   1.705
 4102TIP3    H112263   3.736   5.872   1.686
 4102TIP3    H212264   3.625   5.933   1.769
 4103TIP3   OH212265   0.088   1.244   3.165
 4103TIP3    H112266   0.161   1.302   3.185
 4103TIP3    H212267   0.073   1.255   3.071
 4104TIP3   OH212268   2.904   5.563   1.675
 4104TIP3    H112269   2.964   5.505   1.629
 4104TIP3    H212270   2.888   5.635   1.613
 4105TIP3   OH212271   4.508   5.635   0.086
 4105TIP3    H112272   4.417   5.616   0.109
 4105TIP3    H212273   4.503   5.672  -0.002
 4106TIP3   OH212274   1.718   4.303   0.031
 4106TIP3    H112275   1.798   4.355   0.038
 4106TIP3    H212276   1.647   4.366   0.047
 4107TIP3   OH212277   5.956   4.775   4.789
 4107TIP3    H112278   5.935   4.681   4.786
 4107TIP3    H212279   5.893   4.812   4.851
 4108TIP3   OH212280   0.704   0.889   5.178
 4108TIP3    H112281   0.664   0.812   5.138
 4108TIP3    H212282   0.640   0.920   5.241
 4109TIP3   OH212283   4.982   3.377   0.542
 4109TIP3    H112284   4.981   3.385   0.446
 4109TIP3    H212285   5.005   3.465   0.572
 4110TIP3   OH212286   6.802   2.609   6.641
 4110TIP3    H112287   6.805   2.551   6.566
 4110TIP3    H212288   6.734   2.673   6.619
 4111TIP3   OH212289   0.472   0.201   4.344
 4111TIP3    H112290   0.419   0.130   4.308
 4111TIP3    H212291   0.514   0.241   4.267
 4112TIP3   OH212292   6.461   6.234   0.433
 4112TIP3    H112293   6.400   6.161   0.446
 4112TIP3    H212294   6.423   6.284   0.361
 4113TIP3   OH212295   4.088   2.846   1.169
 4113TIP3    H112296   4.102   2.863   1.076
 4113TIP3    H212297   4.014   2.784   1.171
 4114TIP3   OH212298   2.687   7.615   1.591
 4114TIP3    H112299   2.659   7.705   1.574
 4114TIP3    H212300   2.781   7.621   1.609
 4115TIP3   OH212301   7.517   6.413   2.591
 4115TIP3    H112302   7.509   6.496   2.545
 4115TIP3    H212303   7.434   6.369   2.575
 4116TIP3   OH212304   8.169   5.033   1.265
 4116TIP3    H112305   8.242   4.976   1.289
 4116TIP3    H212306   8.147   5.080   1.346
 4117TIP3   OH212307   3.210   6.029   6.007
 4117TIP3    H112308   3.231   6.053   5.917
 4117TIP3    H212309   3.200   5.934   6.005
 4118TIP3   OH212310   0.599   5.829   0.806
 4118TIP3    H112311   0.664   5.852   0.873
 4118TIP3    H212312   0.515   5.841   0.849
 4119TIP3   OH212313   0.492   5.110   1.373
 4119TIP3    H112314   0.466   5.199   1.399
 4119TIP3    H212315   0.572   5.093   1.423
 4120TIP3   OH212316   5.111   1.540   1.659
 4120TIP3    H112317   5.149   1.589   1.587
 4120TIP3    H212318   5.177   1.472   1.679
 4121TIP3   OH212319   0.246   1.874   6.298
 4121TIP3    H112320   0.190   1.886   6.375
 4121TIP3    H212321   0.285   1.788   6.309
 4122TIP3   OH212322   7.469   5.311   3.124
 4122TIP3    H112323   7.564   5.316   3.124
 4122TIP3    H212324   7.449   5.230   3.172
 4123TIP3   OH212325   2.152   1.107   5.534
 4123TIP3    H112326   2.059   1.104   5.556
 4123TIP3    H212327   2.167   1.028   5.482
 4124TIP3   OH212328   0.650   7.606   2.163
 4124TIP3    H112329   0.742   7.607   2.188
 4124TIP3    H212330   0.602   7.613   2.245
 4125TIP3   OH212331   5.997   2.282   4.501
 4125TIP3    H112332   5.972   2.285   4.409
 4125TIP3    H212333   5.939   2.217   4.540
 4126TIP3   OH212334   1.189   2.041   0.891
 4126TIP3    H112335   1.227   1.963   0.931
 4126TIP3    H212336   1.260   2.105   0.892
 4127TIP3   OH212337   4.742   5.572   6.355
 4127TIP3    H112338   4.727   5.645   6.295
 4127TIP3    H212339   4.658   5.526   6.358
 4128TIP3   OH212340   3.543   5.370   1.324
 4128TIP3    H112341   3.504   5.452   1.354
 4128TIP3    H212342   3.554   5.382   1.230
 4129TIP3   OH212343   1.048   2.453   1.423
 4129TIP3    H112344   1.134   2.460   1.383
 4129TIP3    H212345   1.065   2.436   1.516
 4130TIP3   OH212346   4.574   0.587   2.880
 4130TIP3    H112347   4.597   0.673   2.846
 4130TIP3    H212348   4.641   0.567   2.945
 4131TIP3   OH212349   6.208   6.916   5.954
 4131TIP3    H112350   6.178   6.979   5.888
 4131TIP3    H212351   6.303   6.918   5.947
 4132TIP3   OH212352   4.755   2.145   2.472
 4132TIP3    H112353   4.838   2.123   2.431
 4132TIP3    H212354   4.743   2.238   2.455
 4133TIP3   OH212355   6.356   4.511   2.299
 4133TIP3    H112356   6.351   4.592   2.248
 4133TIP3    H212357   6.429   4.462   2.260
 4134TIP3   OH212358   2.451   0.739   2.781
 4134TIP3    H112359   2.533   0.692   2.798
 4134TIP3    H212360   2.394   0.674   2.740
 4135TIP3   OH212361   6.334   3.332   0.980
 4135TIP3    H112362   6.343   3.299   1.070
 4135TIP3    H212363   6.259   3.392   0.984
 4136TIP3   OH212364   0.899   0.388   6.276
 4136TIP3    H112365   0.855   0.472   6.285
 4136TIP3    H212366   0.987   0.410   6.245
 4137TIP3   OH212367   4.483   6.000   6.459
 4137TIP3    H112368   4.478   6.053   6.539
 4137TIP3    H212369   4.481   5.910   6.490
 4138TIP3   OH212370   6.028   5.558   0.952
 4138TIP3    H112371   6.042   5.561   0.858
 4138TIP3    H212372   5.946   5.509   0.963
 4139TIP3   OH212373   5.460   3.400   1.164
 4139TIP3    H112374   5.390   3.361   1.216
 4139TIP3    H212375   5.435   3.384   1.073
 4140TIP3   OH212376   5.414   6.553   2.444
 4140TIP3    H112377   5.458   6.478   2.482
 4140TIP3    H212378   5.325   6.523   2.426
 4141TIP3   OH212379   1.381   2.234   3.411
 4141TIP3    H112380   1.286   2.230   3.419
 4141TIP3    H212381   1.413   2.212   3.498
 4142TIP3   OH212382   6.536   3.390   0.798
 4142TIP3    H112383   6.497   3.332   0.733
 4142TIP3    H212384   6.473   3.391   0.870
 4143TIP3   OH212385   2.129   7.680   2.900
 4143TIP3    H112386   2.166   7.767   2.884
 4143TIP3    H212387   2.206   7.623   2.913
 4144TIP3   OH212388   7.404   3.139   1.318
 4144TIP3    H112389   7.327   3.097   1.278
 4144TIP3    H212390   7.367   3.199   1.383
 4145TIP3   OH212391   4.405   5.384   1.356
 4145TIP3    H112392   4.383   5.452   1.293
 4145TIP3    H212393   4.415   5.430   1.439
 4146TIP3   OH212394   1.500   3.093   0.725
 4146TIP3    H112395   1.452   3.077   0.806
 4146TIP3    H212396   1.461   3.033   0.661
 4147TIP3   OH212397   7.799   1.301   3.990
 4147TIP3    H112398   7.872   1.265   3.939
 4147TIP3    H212399   7.840   1.331   4.071
 4148TIP3   OH212400   0.181   2.810  -0.028
 4148TIP3    H112401   0.118   2.868  -0.070
 4148TIP3    H212402   0.143   2.789   0.057
 4149TIP3   OH212403   1.492   3.439   1.025
 4149TIP3    H112404   1.444   3.496   0.965
 4149TIP3    H212405   1.474   3.476   1.112
 4150TIP3   OH212406   6.647   4.923   6.625
 4150TIP3    H112407   6.569   4.962   6.665
 4150TIP3    H212408   6.631   4.930   6.531
 4151TIP3   OH212409   6.360   0.581   0.764
 4151TIP3    H112410   6.337   0.620   0.680
 4151TIP3    H212411   6.452   0.607   0.778
 4152TIP3   OH212412   2.999   0.508   3.746
 4152TIP3    H112413   2.940   0.433   3.742
 4152TIP3    H212414   3.063   0.486   3.814
 4153TIP3   OH212415   1.611   0.269   1.043
 4153TIP3    H112416   1.547   0.268   0.971
 4153TIP3    H212417   1.695   0.258   1.000
 4154TIP3   OH212418   0.189   0.434   3.818
 4154TIP3    H112419   0.235   0.388   3.747
 4154TIP3    H212420   0.259   0.472   3.870
 4155TIP3   OH212421   3.740   3.627   0.571
 4155TIP3    H112422   3.648   3.610   0.592
 4155TIP3    H212423   3.777   3.658   0.654
 4156TIP3   OH212424   4.803   1.501   3.284
 4156TIP3    H112425   4.713   1.529   3.270
 4156TIP3    H212426   4.838   1.562   3.349
 4157TIP3   OH212427   3.068   6.626   1.119
 4157TIP3    H112428   2.973   6.615   1.123
 4157TIP3    H212429   3.101   6.582   1.197
 4158TIP3   OH212430   5.491   7.703   1.622
 4158TIP3    H112431   5.579   7.675   1.650
 4158TIP3    H212432   5.435   7.630   1.646
 4159TIP3   OH212433   5.375   0.140   3.499
 4159TIP3    H112434   5.444   0.079   3.527
 4159TIP3    H212435   5.295   0.103   3.536
 4160TIP3   OH212436   6.339   0.453   6.087
 4160TIP3    H112437   6.409   0.426   6.146
 4160TIP3    H212438   6.297   0.371   6.061
 4161TIP3   OH212439   0.924   2.746   1.414
 4161TIP3    H112440   0.916   2.652   1.396
 4161TIP3    H212441   1.017   2.765   1.402
 4162TIP3   OH212442   4.845   5.052   4.848
 4162TIP3    H112443   4.752   5.058   4.828
 4162TIP3    H212444   4.887   5.111   4.784
 4163TIP3   OH212445   2.923   5.953   1.721
 4163TIP3    H112446   2.853   5.945   1.786
 4163TIP3    H212447   2.892   6.022   1.662
 4164TIP3   OH212448   0.359   2.326   6.111
 4164TIP3    H112449   0.420   2.394   6.084
 4164TIP3    H212450   0.280   2.342   6.058
 4165TIP3   OH212451   6.413   2.757   3.489
 4165TIP3    H112452   6.393   2.670   3.455
 4165TIP3    H212453   6.362   2.764   3.570
 4166TIP3   OH212454   0.408   5.320   2.300
 4166TIP3    H112455   0.475   5.380   2.332
 4166TIP3    H212456   0.343   5.376   2.257
 4167TIP3   OH212457   7.600   3.030   3.269
 4167TIP3    H112458   7.559   2.971   3.206
 4167TIP3    H212459   7.688   3.045   3.234
 4168TIP3   OH212460   1.061   7.176   5.987
 4168TIP3    H112461   1.155   7.174   6.006
 4168TIP3    H212462   1.031   7.259   6.023
 4169TIP3   OH212463   3.944   4.855   1.001
 4169TIP3    H112464   3.902   4.793   1.060
 4169TIP3    H212465   3.871   4.906   0.965
 4170TIP3   OH212466   3.174   7.653   6.382
 4170TIP3    H112467   3.092   7.612   6.412
 4170TIP3    H212468   3.229   7.580   6.357
 4171TIP3   OH212469   3.593   0.312   1.620
 4171TIP3    H112470   3.639   0.229   1.628
 4171TIP3    H212471   3.662   0.378   1.619
 4172TIP3   OH212472   3.228   6.480   4.202
 4172TIP3    H112473   3.247   6.545   4.269
 4172TIP3    H212474   3.264   6.398   4.236
 4173TIP3   OH212475   4.672   6.057   1.892
 4173TIP3    H112476   4.737   6.038   1.825
 4173TIP3    H212477   4.598   6.001   1.870
 4174TIP3   OH212478   2.965   5.557   6.264
 4174TIP3    H112479   2.971   5.556   6.360
 4174TIP3    H212480   2.973   5.649   6.240
 4175TIP3   OH212481   0.534   2.911   4.712
 4175TIP3    H112482   0.467   2.844   4.726
 4175TIP3    H212483   0.547   2.950   4.798
 4176TIP3   OH212484   0.831   2.116   5.885
 4176TIP3    H112485   0.867   2.040   5.929
 4176TIP3    H212486   0.869   2.191   5.931
 4177TIP3   OH212487   1.639   7.654   1.257
 4177TIP3    H112488   1.590   7.590   1.205
 4177TIP3    H212489   1.575   7.687   1.321
 4178TIP3   OH212490   7.985   2.678   1.385
 4178TIP3    H112491   7.948   2.751   1.335
 4178TIP3    H212492   8.051   2.719   1.440
 4179TIP3   OH212493   1.884   5.228   4.014
 4179TIP3    H112494   1.813   5.273   3.969
 4179TIP3    H212495   1.925   5.174   3.946
 4180TIP3   OH212496   1.286   0.938   0.442
 4180TIP3    H112497   1.370   0.922   0.398
 4180TIP3    H212498   1.305   1.006   0.506
 4181TIP3   OH212499   2.259   1.256   1.703
 4181TIP3    H112500   2.342   1.246   1.749
 4181TIP3    H212501   2.221   1.337   1.738
 4182TIP3   OH212502   7.352   4.850   2.309
 4182TIP3    H112503   7.293   4.798   2.255
 4182TIP3    H212504   7.331   4.940   2.288
 4183TIP3   OH212505   3.797   7.070   4.856
 4183TIP3    H112506   3.856   7.135   4.894
 4183TIP3    H212507   3.710   7.104   4.873
 4184TIP3   OH212508   6.519   2.106   4.050
 4184TIP3    H112509   6.508   2.025   4.000
 4184TIP3    H212510   6.463   2.096   4.127
 4185TIP3   OH212511   1.296   5.291   1.614
 4185TIP3    H112512   1.331   5.231   1.548
 4185TIP3    H212513   1.220   5.245   1.650
 4186TIP3   OH212514   4.561   0.238   2.432
 4186TIP3    H112515   4.632   0.179   2.458
 4186TIP3    H212516   4.605   0.318   2.406
 4187TIP3   OH212517   7.420   6.378   5.748
 4187TIP3    H112518   7.381   6.453   5.703
 4187TIP3    H212519   7.426   6.310   5.681
 4188TIP3   OH212520   4.205   3.224   6.492
 4188TIP3    H112521   4.230   3.267   6.410
 4188TIP3    H212522   4.255   3.271   6.559
 4189TIP3   OH212523   2.575   0.307   5.889
 4189TIP3    H112524   2.668   0.289   5.878
 4189TIP3    H212525   2.540   0.308   5.800
 4190TIP3   OH212526   5.317   4.745   0.457
 4190TIP3    H112527   5.260   4.668   0.459
 4190TIP3    H212528   5.270   4.811   0.509
 4191TIP3   OH212529   7.551   0.225   0.213
 4191TIP3    H112530   7.560   0.296   0.150
 4191TIP3    H212531   7.638   0.213   0.250
 4192TIP3   OH212532   3.051   5.040   1.312
 4192TIP3    H112533   3.090   5.086   1.237
 4192TIP3    H212534   3.108   5.063   1.386
 4193TIP3   OH212535   7.127   1.032   3.157
 4193TIP3    H112536   7.147   0.957   3.101
 4193TIP3    H212537   7.082   1.093   3.098
 4194TIP3   OH212538   3.634   4.012   1.547
 4194TIP3    H112539   3.647   3.922   1.579
 4194TIP3    H212540   3.722   4.044   1.529
 4195TIP3   OH212541   6.882   3.543   5.592
 4195TIP3    H112542   6.842   3.471   5.543
 4195TIP3    H212543   6.913   3.503   5.673
 4196TIP3   OH212544   3.358   1.350   1.563
 4196TIP3    H112545   3.438   1.385   1.601
 4196TIP3    H212546   3.292   1.418   1.579
 4197TIP3   OH212547   3.412   1.440   2.771
 4197TIP3    H112548   3.356   1.420   2.696
 4197TIP3    H212549   3.435   1.355   2.807
 4198TIP3   OH212550   6.578   0.583   0.126
 4198TIP3    H112551   6.667   0.559   0.149
 4198TIP3    H212552   6.579   0.588   0.030
 4199TIP3   OH212553   6.996   5.511   4.979
 4199TIP3    H112554   7.031   5.520   5.068
 4199TIP3    H212555   7.034   5.585   4.931
 4200TIP3   OH212556   2.784   5.484   0.285
 4200TIP3    H112557   2.880   5.485   0.276
 4200TIP3    H212558   2.764   5.395   0.316
 4201TIP3   OH212559   4.220   2.256   4.858
 4201TIP3    H112560   4.216   2.345   4.894
 4201TIP3    H212561   4.197   2.266   4.766
 4202TIP3   OH212562   4.346   6.728   6.383
 4202TIP3    H112563   4.370   6.794   6.317
 4202TIP3    H212564   4.428   6.684   6.403
 4203TIP3   OH212565   3.624   4.254   0.351
 4203TIP3    H112566   3.663   4.241   0.437
 4203TIP3    H212567   3.581   4.339   0.356
 4204TIP3   OH212568   0.424   3.024   5.162
 4204TIP3    H112569   0.452   3.115   5.164
 4204TIP3    H212570   0.371   3.014   5.241
 4205TIP3   OH212571   1.459   2.403   2.263
 4205TIP3    H112572   1.396   2.392   2.192
 4205TIP3    H212573   1.442   2.491   2.296
 4206TIP3   OH212574   4.864   3.246   5.804
 4206TIP3    H112575   4.930   3.296   5.755
 4206TIP3    H212576   4.830   3.309   5.868
 4207TIP3   OH212577   7.513   7.723   6.326
 4207TIP3    H112578   7.545   7.809   6.355
 4207TIP3    H212579   7.563   7.705   6.247
 4208TIP3   OH212580   6.949   5.591   2.250
 4208TIP3    H112581   7.011   5.550   2.311
 4208TIP3    H212582   6.962   5.685   2.263
 4209TIP3   OH212583   5.497   5.376   0.938
 4209TIP3    H112584   5.512   5.281   0.940
 4209TIP3    H212585   5.418   5.389   0.991
 4210TIP3   OH212586   5.959   3.744   3.345
 4210TIP3    H112587   6.025   3.721   3.410
 4210TIP3    H212588   5.941   3.662   3.299
 4211TIP3   OH212589   3.324   1.165   1.051
 4211TIP3    H112590   3.310   1.113   0.972
 4211TIP3    H212591   3.284   1.115   1.121
 4212TIP3   OH212592   4.191   2.081   1.320
 4212TIP3    H112593   4.139   2.118   1.391
 4212TIP3    H212594   4.241   2.010   1.362
 4213TIP3   OH212595   7.715   6.137   4.294
 4213TIP3    H112596   7.797   6.089   4.306
 4213TIP3    H212597   7.664   6.083   4.233
 4214TIP3   OH212598   4.680   4.937   4.523
 4214TIP3    H112599   4.725   5.010   4.565
 4214TIP3    H212600   4.663   4.968   4.434
 4215TIP3   OH212601   7.093   4.316   5.688
 4215TIP3    H112602   7.000   4.312   5.711
 4215TIP3    H212603   7.108   4.407   5.663
 4216TIP3   OH212604   7.479   0.099   6.474
 4216TIP3    H112605   7.452   0.139   6.392
 4216TIP3    H212606   7.412   0.125   6.537
 4217TIP3   OH212607   6.828   2.577   1.524
 4217TIP3    H112608   6.732   2.577   1.527
 4217TIP3    H212609   6.849   2.534   1.441
 4218TIP3   OH212610   0.158   3.013   5.803
 4218TIP3    H112611   0.095   2.949   5.836
 4218TIP3    H212612   0.231   2.961   5.772
 4219TIP3   OH212613   4.701   4.073   3.621
 4219TIP3    H112614   4.608   4.064   3.645
 4219TIP3    H212615   4.747   4.071   3.705
 4220TIP3   OH212616   5.178   0.742   0.322
 4220TIP3    H112617   5.198   0.671   0.261
 4220TIP3    H212618   5.087   0.727   0.347
 4221TIP3   OH212619   7.832   0.288   0.625
 4221TIP3    H112620   7.857   0.255   0.711
 4221TIP3    H212621   7.740   0.312   0.634
 4222TIP3   OH212622   7.884   5.546   2.028
 4222TIP3    H112623   7.926   5.463   2.051
 4222TIP3    H212624   7.956   5.609   2.022
 4223TIP3   OH212625   2.893   7.052   3.596
 4223TIP3    H112626   2.914   7.123   3.657
 4223TIP3    H212627   2.956   6.983   3.617
 4224TIP3   OH212628   6.221   6.299   5.377
 4224TIP3    H112629   6.261   6.227   5.329
 4224TIP3    H212630   6.138   6.264   5.409
 4225TIP3   OH212631   0.881   7.377   1.024
 4225TIP3    H112632   0.807   7.319   1.041
 4225TIP3    H212633   0.869   7.449   1.085
 4226TIP3   OH212634   6.345   0.625   4.128
 4226TIP3    H112635   6.275   0.672   4.081
 4226TIP3    H212636   6.426   0.655   4.087
 4227TIP3   OH212637   7.360   7.201   5.087
 4227TIP3    H112638   7.405   7.221   5.004
 4227TIP3    H212639   7.390   7.268   5.147
 4228TIP3   OH212640   2.912   2.459   0.010
 4228TIP3    H112641   2.943   2.513  -0.063
 4228TIP3    H212642   2.973   2.386   0.014
 4229TIP3   OH212643   5.469   1.652   1.788
 4229TIP3    H112644   5.449   1.565   1.752
 4229TIP3    H212645   5.563   1.662   1.774
 4230TIP3   OH212646   6.895   1.535   2.289
 4230TIP3    H112647   6.811   1.578   2.302
 4230TIP3    H212648   6.906   1.531   2.193
 4231TIP3   OH212649   1.238   0.293   3.892
 4231TIP3    H112650   1.315   0.281   3.947
 4231TIP3    H212651   1.174   0.337   3.948
 4232TIP3   OH212652   5.976   7.525   5.118
 4232TIP3    H112653   6.004   7.528   5.210
 4232TIP3    H212654   6.027   7.593   5.075
 4233TIP3   OH212655   3.964   7.093   5.669
 4233TIP3    H112656   4.036   7.072   5.728
 4233TIP3    H212657   3.969   7.188   5.657
 4234TIP3   OH212658   6.518   6.473   4.923
 4234TIP3    H112659   6.472   6.432   4.849
 4234TIP3    H212660   6.537   6.562   4.893
 4235TIP3   OH212661   0.645   4.546   2.940
 4235TIP3    H112662   0.555   4.526   2.911
 4235TIP3    H212663   0.638   4.630   2.986
 4236TIP3   OH212664   0.375   3.314   0.702
 4236TIP3    H112665   0.431   3.361   0.641
 4236TIP3    H212666   0.398   3.222   0.690
 4237TIP3   OH212667   5.921   4.235   0.588
 4237TIP3    H112668   5.965   4.251   0.504
 4237TIP3    H212669   5.868   4.313   0.602
 4238TIP3   OH212670   3.399   4.658   0.742
 4238TIP3    H112671   3.406   4.673   0.648
 4238TIP3    H212672   3.323   4.709   0.770
 4239TIP3   OH212673   8.040   1.363   2.279
 4239TIP3    H112674   8.040   1.457   2.296
 4239TIP3    H212675   8.128   1.344   2.247
 4240TIP3   OH212676   6.556   5.886   3.640
 4240TIP3    H112677   6.551   5.972   3.680
 4240TIP3    H212678   6.519   5.897   3.552
 4241TIP3   OH212679   5.594   7.331   5.650
 4241TIP3    H112680   5.620   7.408   5.700
 4241TIP3    H212681   5.504   7.314   5.676
 4242TIP3   OH212682   3.574   6.860   6.290
 4242TIP3    H112683   3.480   6.864   6.310
 4242TIP3    H212684   3.599   6.952   6.278
 4243TIP3   OH212685   4.841   1.542   4.220
 4243TIP3    H112686   4.766   1.593   4.190
 4243TIP3    H212687   4.822   1.452   4.195
 4244TIP3   OH212688   1.646   0.789   1.015
 4244TIP3    H112689   1.729   0.779   0.968
 4244TIP3    H212690   1.600   0.706   1.002
 4245TIP3   OH212691   7.950   0.557   2.805
 4245TIP3    H112692   7.920   0.514   2.885
 4245TIP3    H212693   7.916   0.501   2.734
 4246TIP3   OH212694   3.416   4.738   3.328
 4246TIP3    H112695   3.431   4.697   3.414
 4246TIP3    H212696   3.353   4.809   3.346
 4247TIP3   OH212697   8.002   0.679   0.656
 4247TIP3    H112698   8.021   0.756   0.709
 4247TIP3    H212699   8.030   0.702   0.568
 4248TIP3   OH212700   7.961   2.416   2.174
 4248TIP3    H112701   7.977   2.451   2.261
 4248TIP3    H212702   7.867   2.398   2.172
 4249TIP3   OH212703   1.105   6.495   5.579
 4249TIP3    H112704   1.079   6.435   5.649
 4249TIP3    H212705   1.023   6.516   5.535
 4250TIP3   OH212706   2.641   5.523   0.050
 4250TIP3    H112707   2.681   5.514   0.137
 4250TIP3    H212708   2.714   5.541  -0.009
 4251TIP3   OH212709   1.937   0.256   5.650
 4251TIP3    H112710   1.960   0.174   5.608
 4251TIP3    H212711   2.021   0.302   5.661
 4252TIP3   OH212712   0.562   1.600   6.703
 4252TIP3    H112713   0.638   1.556   6.666
 4252TIP3    H212714   0.496   1.532   6.714
 4253TIP3   OH212715   7.393   0.763   2.614
 4253TIP3    H112716   7.438   0.679   2.624
 4253TIP3    H212717   7.338   0.752   2.537
 4254TIP3   OH212718   5.533   1.506   5.187
 4254TIP3    H112719   5.508   1.566   5.117
 4254TIP3    H212720   5.628   1.496   5.178
 4255TIP3   OH212721   3.757   6.521   4.825
 4255TIP3    H112722   3.778   6.476   4.906
 4255TIP3    H212723   3.728   6.452   4.765
 4256TIP3   OH212724   5.561   1.647   6.482
 4256TIP3    H112725   5.513   1.644   6.565
 4256TIP3    H212726   5.553   1.559   6.446
 4257TIP3   OH212727   6.125   4.905   5.873
 4257TIP3    H112728   6.173   4.971   5.824
 4257TIP3    H212729   6.033   4.931   5.864
 4258TIP3   OH212730   3.845   4.217   2.715
 4258TIP3    H112731   3.865   4.297   2.667
 4258TIP3    H212732   3.878   4.146   2.660
 4259TIP3   OH212733   3.301   6.609   1.597
 4259TIP3    H112734   3.339   6.536   1.549
 4259TIP3    H212735   3.220   6.575   1.635
 4260TIP3   OH212736   0.529   6.006   1.017
 4260TIP3    H112737   0.596   5.987   1.083
 4260TIP3    H212738   0.566   6.077   0.964
 4261TIP3   OH212739   0.424   6.383   6.071
 4261TIP3    H112740   0.489   6.398   6.003
 4261TIP3    H212741   0.475   6.375   6.152
 4262TIP3   OH212742  -0.005   4.203   4.171
 4262TIP3    H112743   0.064   4.147   4.207
 4262TIP3    H212744  -0.022   4.168   4.083
 4263TIP3   OH212745   7.563   2.931   5.157
 4263TIP3    H112746   7.519   2.846   5.165
 4263TIP3    H212747   7.544   2.959   5.068
 4264TIP3   OH212748   1.300   7.527   4.677
 4264TIP3    H112749   1.221   7.524   4.621
 4264TIP3    H212750   1.273   7.578   4.753
 4265TIP3   OH212751   1.321   1.799   4.240
 4265TIP3    H112752   1.322   1.818   4.146
 4265TIP3    H212753   1.357   1.878   4.280
 4266TIP3   OH212754   4.105   4.183   0.985
 4266TIP3    H112755   4.015   4.150   0.978
 4266TIP3    H212756   4.156   4.127   0.927
 4267TIP3   OH212757   6.742   5.208   5.658
 4267TIP3    H112758   6.811   5.273   5.655
 4267TIP3    H212759   6.784   5.126   5.631
 4268TIP3   OH212760   8.112   3.585   3.893
 4268TIP3    H112761   8.164   3.541   3.960
 4268TIP3    H212762   8.140   3.543   3.811
 4269TIP3   OH212763   6.758   1.706   0.295
 4269TIP3    H112764   6.832   1.646   0.304
 4269TIP3    H212765   6.782   1.762   0.220
 4270TIP3   OH212766   7.507   2.859   5.728
 4270TIP3    H112767   7.570   2.914   5.775
 4270TIP3    H212768   7.539   2.770   5.740
 4271TIP3   OH212769   3.218   5.089   0.042
 4271TIP3    H112770   3.170   5.017   0.083
 4271TIP3    H212771   3.293   5.047   0.001
 4272TIP3   OH212772   2.030   5.798   3.098
 4272TIP3    H112773   1.952   5.841   3.063
 4272TIP3    H212774   2.077   5.867   3.145
 4273TIP3   OH212775   6.273   1.278   2.445
 4273TIP3    H112776   6.186   1.242   2.461
 4273TIP3    H212777   6.260   1.340   2.373
 4274TIP3   OH212778   3.680   0.311   5.551
 4274TIP3    H112779   3.706   0.305   5.643
 4274TIP3    H212780   3.624   0.388   5.546
 4275TIP3   OH212781   6.317   3.660   6.272
 4275TIP3    H112782   6.307   3.730   6.207
 4275TIP3    H212783   6.343   3.584   6.221
 4276TIP3   OH212784   0.614   1.330   5.628
 4276TIP3    H112785   0.603   1.319   5.533
 4276TIP3    H212786   0.704   1.360   5.638
 4277TIP3   OH212787   4.640   1.058   0.434
 4277TIP3    H112788   4.707   1.126   0.439
 4277TIP3    H212789   4.647   1.022   0.346
 4278TIP3   OH212790   3.012   0.447   3.149
 4278TIP3    H112791   2.940   0.440   3.212
 4278TIP3    H212792   3.071   0.376   3.172
 4279TIP3   OH212793   6.061   4.155   4.206
 4279TIP3    H112794   5.995   4.222   4.190
 4279TIP3    H212795   6.016   4.088   4.257
 4280TIP3   OH212796   4.827   1.138   6.619
 4280TIP3    H112797   4.818   1.047   6.591
 4280TIP3    H212798   4.862   1.183   6.542
 4281TIP3   OH212799   5.855   2.180   2.607
 4281TIP3    H112800   5.917   2.159   2.537
 4281TIP3    H212801   5.910   2.201   2.682
 4282TIP3   OH212802   7.000   6.593   0.462
 4282TIP3    H112803   7.039   6.578   0.376
 4282TIP3    H212804   6.909   6.565   0.452
 4283TIP3   OH212805   7.069   0.884   1.419
 4283TIP3    H112806   7.060   0.958   1.360
 4283TIP3    H212807   7.153   0.845   1.396
 4284TIP3   OH212808   5.720   2.765   4.421
 4284TIP3    H112809   5.673   2.828   4.366
 4284TIP3    H212810   5.784   2.817   4.468
 4285TIP3   OH212811   0.697   4.614   5.334
 4285TIP3    H112812   0.730   4.699   5.306
 4285TIP3    H212813   0.742   4.551   5.279
 4286TIP3   OH212814   3.465   2.285   1.807
 4286TIP3    H112815   3.543   2.340   1.801
 4286TIP3    H212816   3.433   2.279   1.717
 4287TIP3   OH212817   0.647   3.160   0.275
 4287TIP3    H112818   0.567   3.124   0.239
 4287TIP3    H212819   0.634   3.159   0.370
 4288TIP3   OH212820   4.253   5.584   3.482
 4288TIP3    H112821   4.347   5.566   3.476
 4288TIP3    H212822   4.211   5.513   3.435
 4289TIP3   OH212823   7.404   2.545   6.101
 4289TIP3    H112824   7.365   2.475   6.047
 4289TIP3    H212825   7.430   2.501   6.182
 4290TIP3   OH212826   0.297   1.588   0.369
 4290TIP3    H112827   0.297   1.564   0.462
 4290TIP3    H212828   0.283   1.505   0.323
 4291TIP3   OH212829   6.746   4.696   2.509
 4291TIP3    H112830   6.737   4.601   2.501
 4291TIP3    H212831   6.671   4.732   2.461
 4292TIP3   OH212832   6.461   0.593   2.207
 4292TIP3    H112833   6.410   0.562   2.133
 4292TIP3    H212834   6.427   0.681   2.225
 4293TIP3   OH212835   0.672   5.849   4.223
 4293TIP3    H112836   0.620   5.855   4.143
 4293TIP3    H212837   0.758   5.820   4.194
 4294TIP3   OH212838   7.393   5.647   3.794
 4294TIP3    H112839   7.307   5.656   3.834
 4294TIP3    H212840   7.452   5.696   3.851
 4295TIP3   OH212841   7.504   4.833   0.085
 4295TIP3    H112842   7.501   4.750   0.036
 4295TIP3    H212843   7.502   4.807   0.177
 4296TIP3   OH212844   5.281   7.486   3.761
 4296TIP3    H112845   5.287   7.415   3.696
 4296TIP3    H212846   5.254   7.562   3.710
 4297TIP3   OH212847   2.449   4.237   0.645
 4297TIP3    H112848   2.480   4.230   0.735
 4297TIP3    H212849   2.480   4.157   0.603
 4298TIP3   OH212850   2.210   4.454   6.611
 4298TIP3    H112851   2.265   4.379   6.635
 4298TIP3    H212852   2.269   4.513   6.564
 4299TIP3   OH212853   5.416   6.898   4.799
 4299TIP3    H112854   5.428   6.848   4.718
 4299TIP3    H212855   5.429   6.989   4.772
 4300TIP3   OH212856   5.661   5.686   1.732
 4300TIP3    H112857   5.747   5.719   1.708
 4300TIP3    H212858   5.615   5.762   1.767
 4301TIP3   OH212859   0.370   6.565   5.205
 4301TIP3    H112860   0.381   6.473   5.181
 4301TIP3    H212861   0.279   6.570   5.236
 4302TIP3   OH212862   0.466   0.968   6.573
 4302TIP3    H112863   0.373   0.981   6.590
 4302TIP3    H212864   0.478   0.873   6.573
 4303TIP3   OH212865   5.914   7.676   0.804
 4303TIP3    H112866   5.916   7.650   0.712
 4303TIP3    H212867   5.890   7.769   0.802
 4304TIP3   OH212868   5.549   2.242   4.654
 4304TIP3    H112869   5.461   2.275   4.636
 4304TIP3    H212870   5.586   2.224   4.568
 4305TIP3   OH212871   0.696   7.800   1.972
 4305TIP3    H112872   0.685   7.762   1.885
 4305TIP3    H212873   0.682   7.727   2.033
 4306TIP3   OH212874   5.931   1.779   2.755
 4306TIP3    H112875   5.844   1.749   2.783
 4306TIP3    H212876   5.932   1.764   2.661
 4307TIP3   OH212877   4.446   3.861   6.579
 4307TIP3    H112878   4.525   3.873   6.631
 4307TIP3    H212879   4.422   3.949   6.550
 4308TIP3   OH212880   0.870   5.455   0.566
 4308TIP3    H112881   0.839   5.530   0.615
 4308TIP3    H212882   0.793   5.398   0.557
 4309TIP3   OH212883   0.903   2.139   0.219
 4309TIP3    H112884   0.836   2.194   0.260
 4309TIP3    H212885   0.897   2.158   0.126
 4310TIP3   OH212886   3.949   5.855   5.834
 4310TIP3    H112887   4.015   5.923   5.821
 4310TIP3    H212888   3.876   5.899   5.877
 4311TIP3   OH212889   5.479   0.945   4.843
 4311TIP3    H112890   5.480   1.026   4.895
 4311TIP3    H212891   5.570   0.929   4.821
 4312TIP3   OH212892   1.875   3.604   4.616
 4312TIP3    H112893   1.909   3.692   4.632
 4312TIP3    H212894   1.803   3.617   4.554
 4313TIP3   OH212895   2.056   5.576   0.545
 4313TIP3    H112896   1.997   5.566   0.470
 4313TIP3    H212897   2.062   5.670   0.558
 4314TIP3   OH212898   3.802   7.755   4.905
 4314TIP3    H112899   3.817   7.848   4.926
 4314TIP3    H212900   3.820   7.710   4.987
 4315TIP3   OH212901   5.101   1.885   4.135
 4315TIP3    H112902   5.191   1.893   4.164
 4315TIP3    H212903   5.092   1.794   4.107
 4316TIP3   OH212904   6.372   1.697   2.475
 4316TIP3    H112905   6.339   1.641   2.405
 4316TIP3    H212906   6.446   1.649   2.512
 4317TIP3   OH212907   8.267   3.038   3.738
 4317TIP3    H112908   8.337   3.022   3.802
 4317TIP3    H212909   8.256   3.133   3.737
 4318TIP3   OH212910   3.690   3.060   1.965
 4318TIP3    H112911   3.717   3.084   1.876
 4318TIP3    H212912   3.753   3.105   2.021
 4319TIP3   OH212913   7.343   2.814   3.864
 4319TIP3    H112914   7.355   2.750   3.795
 4319TIP3    H212915   7.254   2.846   3.853
 4320TIP3   OH212916   3.100   6.208   5.614
 4320TIP3    H112917   3.076   6.144   5.547
 4320TIP3    H212918   3.138   6.156   5.684
 4321TIP3   OH212919   5.826   6.496   0.428
 4321TIP3    H112920   5.912   6.458   0.450
 4321TIP3    H212921   5.796   6.444   0.353
 4322TIP3   OH212922   3.635   7.166   6.256
 4322TIP3    H112923   3.644   7.255   6.220
 4322TIP3    H212924   3.559   7.172   6.314
 4323TIP3   OH212925   7.525   2.621   1.251
 4323TIP3    H112926   7.494   2.531   1.245
 4323TIP3    H212927   7.460   2.665   1.305
 4324TIP3   OH212928   1.385   4.178   1.083
 4324TIP3    H112929   1.380   4.273   1.071
 4324TIP3    H212930   1.457   4.165   1.145
 4325TIP3   OH212931   6.515   1.803   5.313
 4325TIP3    H112932   6.548   1.871   5.370
 4325TIP3    H212933   6.591   1.748   5.293
 4326TIP3   OH212934   3.719   3.773   1.661
 4326TIP3    H112935   3.749   3.796   1.749
 4326TIP3    H212936   3.780   3.707   1.631
 4327TIP3   OH212937   6.999   1.850   5.640
 4327TIP3    H112938   6.966   1.928   5.685
 4327TIP3    H212939   7.052   1.884   5.568
 4328TIP3   OH212940   4.715   1.851   3.446
 4328TIP3    H112941   4.803   1.822   3.421
 4328TIP3    H212942   4.707   1.827   3.538
 4329TIP3   OH212943   6.036   5.128   6.725
 4329TIP3    H112944   6.017   5.221   6.734
 4329TIP3    H212945   5.960   5.092   6.679
 4330TIP3   OH212946   5.170   2.784   1.548
 4330TIP3    H112947   5.107   2.742   1.607
 4330TIP3    H212948   5.256   2.758   1.583
 4331TIP3   OH212949   2.848   4.857   0.313
 4331TIP3    H112950   2.769   4.909   0.325
 4331TIP3    H212951   2.887   4.852   0.401
 4332TIP3   OH212952   1.763   3.947   0.131
 4332TIP3    H112953   1.755   4.011   0.202
 4332TIP3    H212954   1.851   3.913   0.140
 4333TIP3   OH212955   3.876   6.285   6.503
 4333TIP3    H112956   3.793   6.304   6.547
 4333TIP3    H212957   3.850   6.239   6.423
 4334TIP3   OH212958   2.980   0.186   2.942
 4334TIP3    H112959   3.028   0.161   3.021
 4334TIP3    H212960   2.900   0.227   2.976
 4335TIP3   OH212961   4.786   5.060   2.728
 4335TIP3    H112962   4.811   5.075   2.819
 4335TIP3    H212963   4.783   4.965   2.718
 4336TIP3   OH212964   6.334   0.317   1.191
 4336TIP3    H112965   6.297   0.261   1.122
 4336TIP3    H212966   6.345   0.402   1.150
 4337TIP3   OH212967   3.637   4.144   6.401
 4337TIP3    H112968   3.636   4.056   6.362
 4337TIP3    H212969   3.589   4.134   6.484
 4338TIP3   OH212970   4.413   5.366   0.866
 4338TIP3    H112971   4.458   5.313   0.931
 4338TIP3    H212972   4.450   5.340   0.782
 4339TIP3   OH212973   2.590   7.708   0.910
 4339TIP3    H112974   2.602   7.613   0.910
 4339TIP3    H212975   2.656   7.741   0.971
 4340TIP3   OH212976   2.884   4.553   2.026
 4340TIP3    H112977   2.852   4.632   1.983
 4340TIP3    H212978   2.956   4.583   2.081
 4341TIP3   OH212979   2.181   2.985   5.949
 4341TIP3    H112980   2.166   3.078   5.937
 4341TIP3    H212981   2.261   2.979   6.000
 4342TIP3   OH212982   2.889   6.439   6.523
 4342TIP3    H112983   2.958   6.409   6.465
 4342TIP3    H212984   2.858   6.520   6.484
 4343TIP3   OH212985   4.594   2.472   4.862
 4343TIP3    H112986   4.673   2.521   4.840
 4343TIP3    H212987   4.526   2.538   4.869
 4344TIP3   OH212988   0.526   5.569   5.767
 4344TIP3    H112989   0.529   5.498   5.831
 4344TIP3    H212990   0.489   5.529   5.688
 4345TIP3   OH212991   6.135   7.372   4.688
 4345TIP3    H112992   6.085   7.339   4.763
 4345TIP3    H212993   6.122   7.306   4.620
 4346TIP3   OH212994   2.570   2.704   1.734
 4346TIP3    H112995   2.551   2.779   1.791
 4346TIP3    H212996   2.488   2.654   1.732
 4347TIP3   OH212997   4.568   5.994   5.999
 4347TIP3    H112998   4.477   5.982   6.025
 4347TIP3    H212999   4.590   5.915   5.950
 4348TIP3   OH213000   5.011   6.124   2.999
 4348TIP3    H113001   5.051   6.208   2.978
 4348TIP3    H213002   5.066   6.089   3.069
 4349TIP3   OH213003   7.797   2.635   0.668
 4349TIP3    H113004   7.786   2.547   0.704
 4349TIP3    H213005   7.708   2.664   0.648
 4350TIP3   OH213006   1.982   4.771   5.053
 4350TIP3    H113007   2.072   4.783   5.024
 4350TIP3    H213008   1.989   4.725   5.137
 4351TIP3   OH213009   6.405   1.451   6.370
 4351TIP3    H113010   6.427   1.366   6.334
 4351TIP3    H213011   6.377   1.503   6.294
 4352TIP3   OH213012   2.154   7.758   6.132
 4352TIP3    H113013   2.064   7.751   6.099
 4352TIP3    H213014   2.204   7.698   6.076
 4353TIP3   OH213015   0.341   4.249   0.349
 4353TIP3    H113016   0.343   4.195   0.428
 4353TIP3    H213017   0.428   4.241   0.312
 4354TIP3   OH213018   0.921   4.746   2.298
 4354TIP3    H113019   0.912   4.831   2.341
 4354TIP3    H213020   0.919   4.682   2.369
 4355TIP3   OH213021   7.439   4.831   5.416
 4355TIP3    H113022   7.366   4.846   5.476
 4355TIP3    H213023   7.418   4.748   5.373
 4356TIP3   OH213024   5.675   3.014   4.802
 4356TIP3    H113025   5.598   2.992   4.854
 4356TIP3    H213026   5.713   3.090   4.847
 4357TIP3   OH213027   7.864   3.732   6.637
 4357TIP3    H113028   7.914   3.682   6.702
 4357TIP3    H213029   7.924   3.800   6.607
 4358TIP3   OH213030   6.826   4.458   3.739
 4358TIP3    H113031   6.912   4.490   3.711
 4358TIP3    H213032   6.783   4.536   3.774
 4359TIP3   OH213033   2.958   5.712   5.109
 4359TIP3    H113034   2.924   5.633   5.067
 4359TIP3    H213035   3.028   5.741   5.051
 4360TIP3   OH213036   1.301   2.887   6.013
 4360TIP3    H113037   1.394   2.869   6.001
 4360TIP3    H213038   1.273   2.926   5.930
 4361TIP3   OH213039   3.722   6.057   4.159
 4361TIP3    H113040   3.784   6.129   4.148
 4361TIP3    H213041   3.636   6.100   4.162
 4362TIP3   OH213042   5.047   7.300   1.587
 4362TIP3    H113043   5.106   7.357   1.539
 4362TIP3    H213044   5.105   7.240   1.635
 4363TIP3   OH213045   5.201   0.317   4.560
 4363TIP3    H113046   5.267   0.377   4.594
 4363TIP3    H213047   5.245   0.232   4.558
 4364TIP3   OH213048   3.937   5.809   0.361
 4364TIP3    H113049   4.018   5.833   0.407
 4364TIP3    H213050   3.894   5.893   0.344
 4365TIP3   OH213051   2.869   3.401   1.262
 4365TIP3    H113052   2.919   3.403   1.180
 4365TIP3    H213053   2.893   3.483   1.306
 4366TIP3   OH213054   1.999   0.130   6.032
 4366TIP3    H113055   2.048   0.054   6.063
 4366TIP3    H213056   1.918   0.094   5.998
 4367TIP3   OH213057   2.170   5.838   5.014
 4367TIP3    H113058   2.141   5.929   5.007
 4367TIP3    H213059   2.258   5.837   4.978
 4368TIP3   OH213060   0.545   4.539   3.647
 4368TIP3    H113061   0.496   4.617   3.672
 4368TIP3    H213062   0.585   4.509   3.729
 4369TIP3   OH213063   2.824   4.765   6.304
 4369TIP3    H113064   2.847   4.776   6.212
 4369TIP3    H213065   2.901   4.722   6.343
 4370TIP3   OH213066   1.103   6.742   4.128
 4370TIP3    H113067   1.088   6.652   4.100
 4370TIP3    H213068   1.158   6.780   4.059
 4371TIP3   OH213069   0.801   1.578   1.567
 4371TIP3    H113070   0.796   1.656   1.512
 4371TIP3    H213071   0.773   1.506   1.509
 4372TIP3   OH213072   6.716   4.906   3.315
 4372TIP3    H113073   6.797   4.933   3.271
 4372TIP3    H213074   6.735   4.917   3.408
 4373TIP3   OH213075   6.646   1.352   5.317
 4373TIP3    H113076   6.667   1.365   5.225
 4373TIP3    H213077   6.730   1.350   5.362
 4374TIP3   OH213078   2.287   7.035   6.651
 4374TIP3    H113079   2.250   7.022   6.563
 4374TIP3    H213080   2.211   7.060   6.705
 4375TIP3   OH213081   0.764   7.449   3.413
 4375TIP3    H113082   0.745   7.479   3.325
 4375TIP3    H213083   0.857   7.429   3.413
 4376TIP3   OH213084   1.347   6.432   6.610
 4376TIP3    H113085   1.425   6.484   6.595
 4376TIP3    H213086   1.279   6.496   6.631
 4377TIP3   OH213087   5.940   4.039   6.482
 4377TIP3    H113088   5.933   4.129   6.451
 4377TIP3    H213089   6.007   3.999   6.427
 4378TIP3   OH213090   6.733   5.906   0.437
 4378TIP3    H113091   6.820   5.929   0.406
 4378TIP3    H213092   6.739   5.913   0.532
 4379TIP3   OH213093   4.304   0.325   2.722
 4379TIP3    H113094   4.294   0.420   2.724
 4379TIP3    H213095   4.292   0.302   2.630
 4380TIP3   OH213096   7.650   7.688   0.674
 4380TIP3    H113097   7.679   7.621   0.613
 4380TIP3    H213098   7.581   7.647   0.726
 4381TIP3   OH213099   0.682   6.192   0.377
 4381TIP3    H113100   0.692   6.148   0.293
 4381TIP3    H213101   0.600   6.157   0.413
 4382TIP3   OH213102   6.113   4.597   3.218
 4382TIP3    H113103   6.055   4.548   3.276
 4382TIP3    H213104   6.065   4.603   3.135
 4383TIP3   OH213105   8.154   0.530   2.271
 4383TIP3    H113106   8.198   0.597   2.219
 4383TIP3    H213107   8.223   0.468   2.293
 4384TIP3   OH213108   2.876   1.520   2.881
 4384TIP3    H113109   2.928   1.442   2.898
 4384TIP3    H213110   2.926   1.568   2.816
 4385TIP3   OH213111   6.999   2.941   6.022
 4385TIP3    H113112   7.006   3.021   5.970
 4385TIP3    H213113   6.908   2.913   6.012
 4386TIP3   OH213114   3.749   3.865   3.985
 4386TIP3    H113115   3.688   3.879   3.913
 4386TIP3    H213116   3.835   3.872   3.945
 4387TIP3   OH213117   2.376   1.958   3.715
 4387TIP3    H113118   2.357   2.004   3.633
 4387TIP3    H213119   2.401   1.870   3.687
 4388TIP3   OH213120   4.497   6.864   2.837
 4388TIP3    H113121   4.512   6.803   2.765
 4388TIP3    H213122   4.418   6.831   2.880
 4389TIP3   OH213123   3.323   3.576   4.216
 4389TIP3    H113124   3.280   3.499   4.178
 4389TIP3    H213125   3.281   3.651   4.173
 4390TIP3   OH213126   5.017   2.833   4.382
 4390TIP3    H113127   5.107   2.799   4.382
 4390TIP3    H213128   5.004   2.866   4.471
 4391TIP3   OH213129   2.541   4.156   2.683
 4391TIP3    H113130   2.547   4.232   2.740
 4391TIP3    H213131   2.468   4.175   2.625
 4392TIP3   OH213132   2.340   2.579   2.066
 4392TIP3    H113133   2.412   2.524   2.034
 4392TIP3    H213134   2.383   2.654   2.106
 4393TIP3   OH213135   1.830   3.019   1.085
 4393TIP3    H113136   1.873   3.028   1.000
 4393TIP3    H213137   1.772   3.095   1.090
 4394TIP3   OH213138   3.977   5.976   2.551
 4394TIP3    H113139   3.919   5.921   2.497
 4394TIP3    H213140   4.021   5.914   2.609
 4395TIP3   OH213141   2.877   6.524   2.943
 4395TIP3    H113142   2.904   6.469   2.869
 4395TIP3    H213143   2.894   6.614   2.913
 4396TIP3   OH213144   4.559   2.554   5.724
 4396TIP3    H113145   4.488   2.568   5.661
 4396TIP3    H213146   4.588   2.464   5.707
 4397TIP3   OH213147   1.861   5.617   0.338
 4397TIP3    H113148   1.875   5.710   0.326
 4397TIP3    H213149   1.795   5.593   0.272
 4398TIP3   OH213150   1.468   6.830   0.886
 4398TIP3    H113151   1.506   6.910   0.922
 4398TIP3    H213152   1.375   6.836   0.906
 4399TIP3   OH213153   5.899   3.433   2.757
 4399TIP3    H113154   5.813   3.437   2.716
 4399TIP3    H213155   5.953   3.494   2.706
 4400TIP3   OH213156   7.930   3.853   5.365
 4400TIP3    H113157   7.940   3.835   5.458
 4400TIP3    H213158   7.967   3.940   5.352
 4401TIP3   OH213159   0.488   5.159   1.807
 4401TIP3    H113160   0.422   5.174   1.874
 4401TIP3    H213161   0.505   5.065   1.810
 4402TIP3   OH213162   7.635   0.305   4.495
 4402TIP3    H113163   7.567   0.342   4.438
 4402TIP3    H213164   7.617   0.342   4.581
 4403TIP3   OH213165   1.761   7.585   4.157
 4403TIP3    H113166   1.816   7.662   4.164
 4403TIP3    H213167   1.786   7.530   4.232
 4404TIP3   OH213168   6.060   2.985   0.192
 4404TIP3    H113169   6.044   2.916   0.128
 4404TIP3    H213170   6.075   2.939   0.275
 4405TIP3   OH213171   1.464   6.189   2.123
 4405TIP3    H113172   1.465   6.176   2.218
 4405TIP3    H213173   1.417   6.113   2.089
 4406TIP3   OH213174   2.512   1.176   1.154
 4406TIP3    H113175   2.467   1.196   1.236
 4406TIP3    H213176   2.550   1.259   1.126
 4407TIP3   OH213177   3.506   0.933   3.132
 4407TIP3    H113178   3.471   0.947   3.220
 4407TIP3    H213179   3.557   1.011   3.113
 4408TIP3   OH213180   2.897   7.432   4.214
 4408TIP3    H113181   2.839   7.360   4.190
 4408TIP3    H213182   2.957   7.440   4.140
 4409TIP3   OH213183   8.123   5.014   4.348
 4409TIP3    H113184   8.152   4.943   4.291
 4409TIP3    H213185   8.203   5.060   4.373
 4410TIP3   OH213186   1.175   4.084   2.277
 4410TIP3    H113187   1.144   4.105   2.365
 4410TIP3    H213188   1.254   4.138   2.266
 4411TIP3   OH213189   0.897   3.509   5.160
 4411TIP3    H113190   0.806   3.492   5.135
 4411TIP3    H213191   0.910   3.457   5.239
 4412TIP3   OH213192   0.847   3.383   6.083
 4412TIP3    H113193   0.863   3.469   6.044
 4412TIP3    H213194   0.932   3.340   6.084
 4413TIP3   OH213195   3.466   2.283   6.444
 4413TIP3    H113196   3.408   2.357   6.459
 4413TIP3    H213197   3.422   2.209   6.485
 4414TIP3   OH213198   1.338   5.819   5.837
 4414TIP3    H113199   1.356   5.767   5.915
 4414TIP3    H213200   1.316   5.755   5.770
 4415TIP3   OH213201   1.863   6.396   5.641
 4415TIP3    H113202   1.870   6.423   5.732
 4415TIP3    H213203   1.787   6.444   5.607
 4416TIP3   OH213204   4.069   6.154   2.748
 4416TIP3    H113205   4.056   6.244   2.716
 4416TIP3    H213206   4.022   6.099   2.685
 4417TIP3   OH213207   6.298   5.544   4.016
 4417TIP3    H113208   6.252   5.603   3.956
 4417TIP3    H213209   6.305   5.594   4.097
 4418TIP3   OH213210   0.224   3.054   2.029
 4418TIP3    H113211   0.293   2.989   2.034
 4418TIP3    H213212   0.203   3.059   1.935
 4419TIP3   OH213213   5.757   3.886   6.613
 4419TIP3    H113214   5.699   3.957   6.639
 4419TIP3    H213215   5.827   3.929   6.563
 4420TIP3   OH213216   7.894   3.856   1.449
 4420TIP3    H113217   7.936   3.807   1.378
 4420TIP3    H213218   7.923   3.813   1.529
 4421TIP3   OH213219   5.088   4.771   3.892
 4421TIP3    H113220   5.056   4.714   3.822
 4421TIP3    H213221   5.119   4.710   3.959
 4422TIP3   OH213222   4.982   0.254   4.196
 4422TIP3    H113223   5.063   0.218   4.160
 4422TIP3    H213224   4.941   0.179   4.240
 4423TIP3   OH213225   2.007   5.421   5.739
 4423TIP3    H113226   1.945   5.472   5.687
 4423TIP3    H213227   1.955   5.388   5.812
 4424TIP3   OH213228   5.840   2.550   1.486
 4424TIP3    H113229   5.803   2.638   1.487
 4424TIP3    H213230   5.765   2.492   1.496
 4425TIP3   OH213231   6.012   0.474   5.893
 4425TIP3    H113232   5.961   0.419   5.952
 4425TIP3    H213233   6.082   0.417   5.861
 4426TIP3   OH213234   4.654   2.603   5.145
 4426TIP3    H113235   4.624   2.667   5.209
 4426TIP3    H213236   4.649   2.649   5.061
 4427TIP3   OH213237   4.058   6.325   0.476
 4427TIP3    H113238   4.081   6.406   0.430
 4427TIP3    H213239   4.134   6.268   0.463
 4428TIP3   OH213240   3.970   1.276   2.548
 4428TIP3    H113241   3.998   1.186   2.562
 4428TIP3    H213242   3.969   1.287   2.453
 4429TIP3   OH213243   0.991   0.156   3.515
 4429TIP3    H113244   1.053   0.144   3.587
 4429TIP3    H213245   1.008   0.244   3.483
 4430TIP3   OH213246   6.348   3.852   5.818
 4430TIP3    H113247   6.351   3.913   5.744
 4430TIP3    H213248   6.400   3.777   5.789
 4431TIP3   OH213249   8.270   0.922   3.483
 4431TIP3    H113250   8.306   0.996   3.531
 4431TIP3    H213251   8.316   0.846   3.518
 4432TIP3   OH213252   5.502   4.038   4.876
 4432TIP3    H113253   5.565   4.109   4.883
 4432TIP3    H213254   5.549   3.960   4.905
 4433TIP3   OH213255   0.465   7.577   5.148
 4433TIP3    H113256   0.438   7.536   5.066
 4433TIP3    H213257   0.399   7.548   5.211
 4434TIP3   OH213258   2.650   2.276   5.847
 4434TIP3    H113259   2.724   2.330   5.872
 4434TIP3    H213260   2.640   2.213   5.919
 4435TIP3   OH213261   7.104   6.500   4.034
 4435TIP3    H113262   7.180   6.552   4.061
 4435TIP3    H213263   7.032   6.562   4.031
 4436TIP3   OH213264   6.884   0.516   1.677
 4436TIP3    H113265   6.808   0.518   1.736
 4436TIP3    H213266   6.863   0.449   1.612
 4437TIP3   OH213267   5.822   7.548   3.589
 4437TIP3    H113268   5.902   7.528   3.638
 4437TIP3    H213269   5.805   7.469   3.538
 4438TIP3   OH213270   3.156   7.291   2.693
 4438TIP3    H113271   3.221   7.232   2.730
 4438TIP3    H213272   3.125   7.342   2.768
 4439TIP3   OH213273   0.484   3.590   2.109
 4439TIP3    H113274   0.418   3.647   2.148
 4439TIP3    H213275   0.478   3.607   2.015
 4440TIP3   OH213276   2.745   6.245   5.059
 4440TIP3    H113277   2.702   6.226   5.142
 4440TIP3    H213278   2.675   6.279   5.003
 4441TIP3   OH213279   5.086   4.170   2.968
 4441TIP3    H113280   5.010   4.218   2.934
 4441TIP3    H213281   5.158   4.233   2.966
 4442TIP3   OH213282   5.099   0.495   1.048
 4442TIP3    H113283   5.060   0.408   1.038
 4442TIP3    H213284   5.164   0.500   0.978
 4443TIP3   OH213285   8.067   5.304   1.254
 4443TIP3    H113286   8.048   5.276   1.164
 4443TIP3    H213287   8.153   5.344   1.248
 4444TIP3   OH213288   6.114   3.520   3.785
 4444TIP3    H113289   6.143   3.441   3.830
 4444TIP3    H213290   6.195   3.568   3.767
 4445TIP3   OH213291   7.969   4.771   6.252
 4445TIP3    H113292   7.994   4.768   6.344
 4445TIP3    H213293   7.996   4.858   6.223
 4446TIP3   OH213294   3.814   7.652   3.114
 4446TIP3    H113295   3.851   7.731   3.074
 4446TIP3    H213296   3.720   7.659   3.098
 4447TIP3   OH213297   0.893   5.222   3.715
 4447TIP3    H113298   0.828   5.212   3.646
 4447TIP3    H213299   0.911   5.316   3.718
 4448TIP3   OH213300   4.217   4.576   3.188
 4448TIP3    H113301   4.165   4.656   3.198
 4448TIP3    H213302   4.182   4.516   3.254
 4449TIP3   OH213303   5.256   4.660   1.247
 4449TIP3    H113304   5.318   4.726   1.216
 4449TIP3    H213305   5.173   4.682   1.203
 4450TIP3   OH213306   7.175   3.859   3.716
 4450TIP3    H113307   7.091   3.817   3.698
 4450TIP3    H213308   7.239   3.788   3.708
 4451TIP3   OH213309   2.014   4.934   2.143
 4451TIP3    H113310   1.921   4.917   2.126
 4451TIP3    H213311   2.044   4.982   2.066
 4452TIP3   OH213312   5.418   3.933   5.874
 4452TIP3    H113313   5.341   3.949   5.819
 4452TIP3    H213314   5.479   3.887   5.817
 4453TIP3   OH213315   2.251   6.654   5.857
 4453TIP3    H113316   2.255   6.591   5.785
 4453TIP3    H213317   2.303   6.728   5.827
 4454TIP3   OH213318   7.768   5.521   5.664
 4454TIP3    H113319   7.696   5.497   5.722
 4454TIP3    H213320   7.826   5.445   5.663
 4455TIP3   OH213321   6.114   2.922   3.322
 4455TIP3    H113322   6.190   2.952   3.371
 4455TIP3    H213323   6.148   2.857   3.260
 4456TIP3   OH213324   3.141   2.659   0.911
 4456TIP3    H113325   3.068   2.657   0.973
 4456TIP3    H213326   3.207   2.602   0.949
 4457TIP3   OH213327   6.151   3.261   1.529
 4457TIP3    H113328   6.147   3.222   1.441
 4457TIP3    H213329   6.184   3.350   1.514
 4458TIP3   OH213330   7.390   5.160   1.657
 4458TIP3    H113331   7.295   5.172   1.654
 4458TIP3    H213332   7.406   5.107   1.735
 4459TIP3   OH213333   7.216   7.607   1.962
 4459TIP3    H113334   7.153   7.560   2.016
 4459TIP3    H213335   7.213   7.697   1.993
 4460TIP3   OH213336   4.171   5.047   6.014
 4460TIP3    H113337   4.136   4.958   6.025
 4460TIP3    H213338   4.195   5.052   5.922
 4461TIP3   OH213339   6.240   0.310   5.303
 4461TIP3    H113340   6.150   0.327   5.275
 4461TIP3    H213341   6.285   0.283   5.223
 4462TIP3   OH213342   3.101   6.164   0.816
 4462TIP3    H113343   3.093   6.197   0.905
 4462TIP3    H213344   3.031   6.099   0.809
 4463TIP3   OH213345   7.079   1.350   4.306
 4463TIP3    H113346   7.122   1.290   4.245
 4463TIP3    H213347   7.146   1.414   4.328
 4464TIP3   OH213348   2.928   4.510   6.554
 4464TIP3    H113349   2.964   4.514   6.465
 4464TIP3    H213350   2.848   4.459   6.546
 4465TIP3   OH213351   2.394   5.086   3.889
 4465TIP3    H113352   2.406   5.143   3.965
 4465TIP3    H213353   2.441   5.006   3.911
 4466TIP3   OH213354   6.240   2.688   5.194
 4466TIP3    H113355   6.219   2.703   5.102
 4466TIP3    H213356   6.306   2.619   5.193
 4467TIP3   OH213357   3.589   2.396   2.710
 4467TIP3    H113358   3.576   2.399   2.805
 4467TIP3    H213359   3.508   2.359   2.676
 4468TIP3   OH213360   3.312   3.245   0.138
 4468TIP3    H113361   3.291   3.171   0.081
 4468TIP3    H213362   3.280   3.322   0.090
 4469TIP3   OH213363   0.149   5.400   2.210
 4469TIP3    H113364   0.106   5.460   2.271
 4469TIP3    H213365   0.098   5.319   2.215
 4470TIP3   OH213366   7.933   3.800   5.638
 4470TIP3    H113367   7.873   3.769   5.707
 4470TIP3    H213368   7.993   3.727   5.624
 4471TIP3   OH213369   5.585   5.015   3.605
 4471TIP3    H113370   5.554   5.071   3.534
 4471TIP3    H213371   5.680   5.023   3.603
 4472TIP3   OH213372   1.645   1.464   1.074
 4472TIP3    H113373   1.639   1.369   1.083
 4472TIP3    H213374   1.581   1.486   1.007
 4473TIP3   OH213375   2.093   4.566   5.467
 4473TIP3    H113376   2.000   4.572   5.445
 4473TIP3    H213377   2.107   4.634   5.533
 4474TIP3   OH213378   0.052   5.616   3.852
 4474TIP3    H113379  -0.001   5.550   3.897
 4474TIP3    H213380   0.102   5.567   3.787
 4475TIP3   OH213381   1.064   3.730   0.972
 4475TIP3    H113382   1.105   3.724   0.886
 4475TIP3    H213383   1.075   3.821   0.998
 4476TIP3   OH213384   2.938   5.218   0.974
 4476TIP3    H113385   2.969   5.151   1.036
 4476TIP3    H213386   2.945   5.300   1.023
 4477TIP3   OH213387   1.849   4.306   1.421
 4477TIP3    H113388   1.944   4.313   1.430
 4477TIP3    H213389   1.836   4.220   1.381
 4478TIP3   OH213390   0.591   7.168   2.785
 4478TIP3    H113391   0.652   7.111   2.737
 4478TIP3    H213392   0.518   7.111   2.809
 4479TIP3   OH213393   6.888   1.347   4.530
 4479TIP3    H113394   6.859   1.256   4.539
 4479TIP3    H213395   6.959   1.344   4.466
 4480TIP3   OH213396   6.239   6.217   3.144
 4480TIP3    H113397   6.298   6.168   3.086
 4480TIP3    H213398   6.158   6.226   3.094
 4481TIP3   OH213399   5.162   2.124   6.345
 4481TIP3    H113400   5.188   2.211   6.375
 4481TIP3    H213401   5.236   2.068   6.369
 4482TIP3   OH213402   7.378   4.693   2.578
 4482TIP3    H113403   7.370   4.599   2.569
 4482TIP3    H213404   7.412   4.722   2.493
 4483TIP3   OH213405   3.203   6.998   0.377
 4483TIP3    H113406   3.117   6.966   0.352
 4483TIP3    H213407   3.260   6.972   0.305
 4484TIP3   OH213408   4.130   5.510   3.778
 4484TIP3    H113409   4.175   5.526   3.695
 4484TIP3    H213410   4.053   5.458   3.753
 4485TIP3   OH213411   5.784   1.937   4.969
 4485TIP3    H113412   5.698   1.970   4.996
 4485TIP3    H213413   5.766   1.853   4.927
 4486TIP3   OH213414   1.832   0.855   3.327
 4486TIP3    H113415   1.765   0.907   3.372
 4486TIP3    H213416   1.794   0.768   3.319
 4487TIP3   OH213417   1.382   1.664   4.512
 4487TIP3    H113418   1.330   1.661   4.431
 4487TIP3    H213419   1.373   1.755   4.542
 4488TIP3   OH213420   3.694   3.986   5.301
 4488TIP3    H113421   3.724   4.061   5.249
 4488TIP3    H213422   3.742   3.911   5.266
 4489TIP3   OH213423   2.709   5.852   2.855
 4489TIP3    H113424   2.760   5.786   2.809
 4489TIP3    H213425   2.618   5.835   2.828
 4490TIP3   OH213426   5.565   0.934   5.604
 4490TIP3    H113427   5.529   1.009   5.557
 4490TIP3    H213428   5.658   0.952   5.614
 4491TIP3   OH213429   7.306   3.666   1.985
 4491TIP3    H113430   7.379   3.624   2.029
 4491TIP3    H213431   7.309   3.632   1.895
 4492TIP3   OH213432   4.452   0.852   1.593
 4492TIP3    H113433   4.454   0.836   1.499
 4492TIP3    H213434   4.483   0.942   1.603
 4493TIP3   OH213435   5.982   2.125   5.861
 4493TIP3    H113436   5.908   2.174   5.895
 4493TIP3    H213437   5.955   2.097   5.773
 4494TIP3   OH213438   4.411   3.925   2.940
 4494TIP3    H113439   4.472   3.993   2.967
 4494TIP3    H213440   4.443   3.896   2.854
 4495TIP3   OH213441   1.544   2.668   3.204
 4495TIP3    H113442   1.608   2.597   3.205
 4495TIP3    H213443   1.576   2.731   3.269
 4496TIP3   OH213444   0.923   0.290   2.105
 4496TIP3    H113445   0.979   0.278   2.181
 4496TIP3    H213446   0.922   0.385   2.091
 4497TIP3   OH213447   1.825   5.101   4.889
 4497TIP3    H113448   1.867   5.174   4.844
 4497TIP3    H213449   1.807   5.134   4.977
 4498TIP3   OH213450   0.875   5.035   0.955
 4498TIP3    H113451   0.842   5.054   1.042
 4498TIP3    H213452   0.966   5.011   0.968
 4499TIP3   OH213453   7.260   2.699   2.988
 4499TIP3    H113454   7.186   2.722   2.932
 4499TIP3    H213455   7.336   2.702   2.930
 4500TIP3   OH213456   4.519   5.867   5.390
 4500TIP3    H113457   4.496   5.778   5.416
 4500TIP3    H213458   4.517   5.916   5.472
 4501TIP3   OH213459   1.712   1.765   2.087
 4501TIP3    H113460   1.806   1.749   2.078
 4501TIP3    H213461   1.692   1.830   2.020
 4502TIP3   OH213462   0.087   3.914   1.660
 4502TIP3    H113463   0.008   3.943   1.616
 4502TIP3    H213464   0.159   3.953   1.611
 4503TIP3   OH213465   0.725   4.307   4.709
 4503TIP3    H113466   0.658   4.340   4.769
 4503TIP3    H213467   0.801   4.291   4.765
 4504TIP3   OH213468   6.851   0.217   6.072
 4504TIP3    H113469   6.799   0.140   6.094
 4504TIP3    H213470   6.860   0.213   5.977
 4505TIP3   OH213471   1.890   4.548   1.150
 4505TIP3    H113472   1.942   4.606   1.205
 4505TIP3    H213473   1.803   4.588   1.147
 4506TIP3   OH213474   4.632   7.178   3.807
 4506TIP3    H113475   4.594   7.214   3.727
 4506TIP3    H213476   4.633   7.084   3.793
 4507TIP3   OH213477   6.719   5.092   0.880
 4507TIP3    H113478   6.780   5.038   0.832
 4507TIP3    H213479   6.773   5.140   0.943
 4508TIP3   OH213480   0.153   1.021   2.161
 4508TIP3    H113481   0.196   1.030   2.246
 4508TIP3    H213482   0.223   0.993   2.101
 4509TIP3   OH213483   3.859   1.176   1.680
 4509TIP3    H113484   3.870   1.082   1.695
 4509TIP3    H213485   3.923   1.217   1.738
 4510TIP3   OH213486   1.088   3.662   5.055
 4510TIP3    H113487   1.128   3.656   5.142
 4510TIP3    H213488   1.015   3.600   5.057
 4511TIP3   OH213489   3.245   2.138   3.821
 4511TIP3    H113490   3.330   2.151   3.863
 4511TIP3    H213491   3.186   2.116   3.893
 4512TIP3   OH213492   2.893   7.302   2.570
 4512TIP3    H113493   2.828   7.234   2.554
 4512TIP3    H213494   2.971   7.255   2.599
 4513TIP3   OH213495   4.779   0.857   1.535
 4513TIP3    H113496   4.781   0.799   1.611
 4513TIP3    H213497   4.690   0.849   1.501
 4514TIP3   OH213498   0.132   3.355   3.196
 4514TIP3    H113499   0.191   3.282   3.176
 4514TIP3    H213500   0.177   3.432   3.160
 4515TIP3   OH213501   4.434   4.025   0.337
 4515TIP3    H113502   4.511   4.081   0.328
 4515TIP3    H213503   4.465   3.937   0.315
 4516TIP3   OH213504   3.403   1.607   1.194
 4516TIP3    H113505   3.486   1.625   1.238
 4516TIP3    H213506   3.425   1.545   1.125
 4517TIP3   OH213507   6.156   6.724   3.994
 4517TIP3    H113508   6.223   6.781   4.031
 4517TIP3    H213509   6.085   6.784   3.970
 4518TIP3   OH213510   5.165   0.908   2.715
 4518TIP3    H113511   5.134   0.876   2.800
 4518TIP3    H213512   5.259   0.924   2.728
 4519TIP3   OH213513   2.922   0.764   5.076
 4519TIP3    H113514   3.005   0.792   5.037
 4519TIP3    H213515   2.888   0.841   5.120
 4520TIP3   OH213516   5.225   6.999   5.012
 4520TIP3    H113517   5.164   7.042   4.952
 4520TIP3    H213518   5.295   6.966   4.955
 4521TIP3   OH213519   2.232   4.558   0.440
 4521TIP3    H113520   2.299   4.516   0.386
 4521TIP3    H213521   2.175   4.486   0.467
 4522TIP3   OH213522   5.225   3.991   4.817
 4522TIP3    H113523   5.183   3.976   4.902
 4522TIP3    H213524   5.318   3.995   4.837
 4523TIP3   OH213525   2.075   0.496   0.850
 4523TIP3    H113526   2.155   0.451   0.824
 4523TIP3    H213527   2.016   0.484   0.775
 4524TIP3   OH213528   0.069   5.521   5.097
 4524TIP3    H113529   0.113   5.606   5.106
 4524TIP3    H213530   0.105   5.468   5.168
 4525TIP3   OH213531   7.731   7.337   5.598
 4525TIP3    H113532   7.798   7.320   5.664
 4525TIP3    H213533   7.674   7.402   5.639
 4526TIP3   OH213534   4.461   3.193   4.977
 4526TIP3    H113535   4.464   3.121   4.914
 4526TIP3    H213536   4.375   3.184   5.019
 4527TIP3   OH213537   6.583   7.185   4.811
 4527TIP3    H113538   6.559   7.200   4.720
 4527TIP3    H213539   6.501   7.191   4.859
 4528TIP3   OH213540   1.829   7.638   4.774
 4528TIP3    H113541   1.771   7.661   4.847
 4528TIP3    H213542   1.788   7.679   4.698
 4529TIP3   OH213543   1.076   2.047   5.200
 4529TIP3    H113544   1.062   2.126   5.147
 4529TIP3    H213545   0.996   1.997   5.191
 4530TIP3   OH213546   6.229   0.370   4.549
 4530TIP3    H113547   6.192   0.449   4.511
 4530TIP3    H213548   6.292   0.338   4.484
 4531TIP3   OH213549   4.064   6.580   5.368
 4531TIP3    H113550   4.082   6.654   5.426
 4531TIP3    H213551   4.029   6.619   5.289
 4532TIP3   OH213552   6.994   5.861   4.039
 4532TIP3    H113553   7.048   5.939   4.044
 4532TIP3    H213554   6.914   5.883   4.086
 4533TIP3   OH213555   6.352   2.596   6.532
 4533TIP3    H113556   6.412   2.552   6.593
 4533TIP3    H213557   6.378   2.564   6.445
 4534TIP3   OH213558   5.007   3.314   5.111
 4534TIP3    H113559   4.920   3.315   5.069
 4534TIP3    H213560   5.017   3.224   5.142
 4535TIP3   OH213561   7.492   6.235   6.620
 4535TIP3    H113562   7.413   6.277   6.655
 4535TIP3    H213563   7.561   6.301   6.632
 4536TIP3   OH213564   1.464   1.930   4.618
 4536TIP3    H113565   1.415   1.949   4.699
 4536TIP3    H213566   1.545   1.889   4.649
 4537TIP3   OH213567   5.831   4.108   2.578
 4537TIP3    H113568   5.873   4.028   2.548
 4537TIP3    H213569   5.860   4.119   2.668
 4538TIP3   OH213570   5.850   4.106   0.198
 4538TIP3    H113571   5.922   4.160   0.164
 4538TIP3    H213572   5.822   4.053   0.123
 4539TIP3   OH213573   6.020   0.180   2.038
 4539TIP3    H113574   6.114   0.182   2.053
 4539TIP3    H213575   6.005   0.097   1.991
 4540TIP3   OH213576   8.188   1.037   1.525
 4540TIP3    H113577   8.275   1.004   1.500
 4540TIP3    H213578   8.136   1.030   1.445
 4541TIP3   OH213579   0.358   1.973   5.891
 4541TIP3    H113580   0.402   2.049   5.929
 4541TIP3    H213581   0.374   1.902   5.954
 4542TIP3   OH213582   6.270   5.962   4.405
 4542TIP3    H113583   6.181   5.985   4.377
 4542TIP3    H213584   6.262   5.944   4.498
 4543TIP3   OH213585   2.167   3.970   1.830
 4543TIP3    H113586   2.101   4.029   1.792
 4543TIP3    H213587   2.144   3.883   1.797
 4544TIP3   OH213588   6.569   0.133   3.618
 4544TIP3    H113589   6.653   0.164   3.586
 4544TIP3    H213590   6.506   0.199   3.588
 4545TIP3   OH213591   5.584   2.301   6.694
 4545TIP3    H113592   5.556   2.216   6.661
 4545TIP3    H213593   5.677   2.305   6.674
 4546TIP3   OH213594   4.876   3.433   3.761
 4546TIP3    H113595   4.934   3.432   3.838
 4546TIP3    H213596   4.788   3.439   3.799
 4547TIP3   OH213597   1.848   7.024   4.358
 4547TIP3    H113598   1.785   6.956   4.337
 4547TIP3    H213599   1.867   7.066   4.274
 4548TIP3   OH213600   5.777   6.906   2.517
 4548TIP3    H113601   5.806   6.865   2.436
 4548TIP3    H213602   5.736   6.988   2.489
 4549TIP3   OH213603   4.114   3.082   1.898
 4549TIP3    H113604   4.128   3.111   1.988
 4549TIP3    H213605   4.202   3.076   1.861
 4550TIP3   OH213606   0.573   7.699   4.447
 4550TIP3    H113607   0.581   7.702   4.542
 4550TIP3    H213608   0.589   7.607   4.424
 4551TIP3   OH213609   2.314   1.547   0.417
 4551TIP3    H113610   2.366   1.580   0.343
 4551TIP3    H213611   2.264   1.623   0.447
 4552TIP3   OH213612   6.851   0.911   1.586
 4552TIP3    H113613   6.780   0.957   1.540
 4552TIP3    H213614   6.924   0.912   1.524
 4553TIP3   OH213615   4.833   5.773   6.130
 4553TIP3    H113616   4.852   5.733   6.045
 4553TIP3    H213617   4.738   5.767   6.138
 4554TIP3   OH213618   4.903   4.544   4.396
 4554TIP3    H113619   4.888   4.610   4.464
 4554TIP3    H213620   4.864   4.464   4.431
 4555TIP3   OH213621   0.389   6.349   3.829
 4555TIP3    H113622   0.319   6.404   3.864
 4555TIP3    H213623   0.449   6.338   3.903
 4556TIP3   OH213624   0.238   1.929   1.954
 4556TIP3    H113625   0.206   1.973   2.033
 4556TIP3    H213626   0.176   1.953   1.886
 4557TIP3   OH213627   1.135   4.580   3.946
 4557TIP3    H113628   1.070   4.537   3.891
 4557TIP3    H213629   1.187   4.509   3.983
 4558TIP3   OH213630   1.785   1.252   3.258
 4558TIP3    H113631   1.845   1.309   3.306
 4558TIP3    H213632   1.698   1.277   3.291
 4559TIP3   OH213633   0.768   1.564   2.780
 4559TIP3    H113634   0.781   1.637   2.720
 4559TIP3    H213635   0.723   1.602   2.856
 4560TIP3   OH213636   4.549   2.636   2.526
 4560TIP3    H113637   4.637   2.672   2.513
 4560TIP3    H213638   4.524   2.600   2.441
 4561TIP3   OH213639   0.415   1.669   1.378
 4561TIP3    H113640   0.401   1.588   1.428
 4561TIP3    H213641   0.438   1.640   1.290
 4562TIP3   OH213642   1.349   5.946   0.327
 4562TIP3    H113643   1.285   6.016   0.316
 4562TIP3    H213644   1.308   5.869   0.287
 4563TIP3   OH213645   5.626   0.088   0.700
 4563TIP3    H113646   5.533   0.108   0.693
 4563TIP3    H213647   5.641   0.021   0.634
 4564TIP3   OH213648   7.389   1.376   1.166
 4564TIP3    H113649   7.412   1.408   1.253
 4564TIP3    H213650   7.472   1.365   1.121
 4565TIP3   OH213651   3.267   2.532   6.759
 4565TIP3    H113652   3.334   2.587   6.801
 4565TIP3    H213653   3.290   2.535   6.666
 4566TIP3   OH213654   5.868   4.820   2.987
 4566TIP3    H113655   5.832   4.770   2.913
 4566TIP3    H213656   5.796   4.874   3.017
 4567TIP3   OH213657   0.381   2.084   6.574
 4567TIP3    H113658   0.429   2.105   6.494
 4567TIP3    H213659   0.365   1.990   6.568
 4568TIP3   OH213660   3.892   0.424   1.630
 4568TIP3    H113661   3.881   0.382   1.715
 4568TIP3    H213662   3.831   0.498   1.632
 4569TIP3   OH213663   0.730   6.027   1.196
 4569TIP3    H113664   0.713   6.073   1.278
 4569TIP3    H213665   0.808   6.070   1.160
 4570TIP3   OH213666   6.949   3.279   5.174
 4570TIP3    H113667   7.021   3.249   5.119
 4570TIP3    H213668   6.873   3.230   5.143
 4571TIP3   OH213669   3.262   2.962   1.217
 4571TIP3    H113670   3.308   2.912   1.151
 4571TIP3    H213671   3.202   3.018   1.167
 4572TIP3   OH213672   4.959   5.724   5.773
 4572TIP3    H113673   5.005   5.807   5.762
 4572TIP3    H213674   4.890   5.727   5.706
 4573TIP3   OH213675   4.481   3.502   1.457
 4573TIP3    H113676   4.455   3.472   1.370
 4573TIP3    H213677   4.406   3.484   1.513
 4574TIP3   OH213678   2.451   6.573   2.622
 4574TIP3    H113679   2.530   6.572   2.569
 4574TIP3    H213680   2.417   6.662   2.614
 4575TIP3   OH213681   1.411   3.888   5.370
 4575TIP3    H113682   1.394   3.982   5.374
 4575TIP3    H213683   1.335   3.847   5.411
 4576TIP3   OH213684   7.226   3.124   2.382
 4576TIP3    H113685   7.226   3.137   2.477
 4576TIP3    H213686   7.208   3.031   2.370
 4577TIP3   OH213687   3.039   0.888   2.011
 4577TIP3    H113688   3.024   0.797   2.039
 4577TIP3    H213689   3.038   0.884   1.916
 4578TIP3   OH213690   5.081   2.341   6.809
 4578TIP3    H113691   5.018   2.347   6.737
 4578TIP3    H213692   5.165   2.364   6.768
 4579TIP3   OH213693   6.344   3.397   4.382
 4579TIP3    H113694   6.381   3.456   4.447
 4579TIP3    H213695   6.398   3.408   4.304
 4580TIP3   OH213696   2.401   6.563   1.839
 4580TIP3    H113697   2.345   6.638   1.820
 4580TIP3    H213698   2.452   6.550   1.760
 4581TIP3   OH213699   7.667   1.204   2.652
 4581TIP3    H113700   7.639   1.159   2.572
 4581TIP3    H213701   7.760   1.220   2.639
 4582TIP3   OH213702   7.906   1.417   5.746
 4582TIP3    H113703   7.864   1.343   5.790
 4582TIP3    H213704   7.835   1.463   5.702
 4583TIP3   OH213705   1.406   4.793   4.579
 4583TIP3    H113706   1.319   4.760   4.558
 4583TIP3    H213707   1.404   4.885   4.551
 4584TIP3   OH213708   7.431   1.028   6.572
 4584TIP3    H113709   7.472   1.092   6.513
 4584TIP3    H213710   7.353   1.000   6.525
 4585TIP3   OH213711   1.853   5.896   0.338
 4585TIP3    H113712   1.865   5.969   0.278
 4585TIP3    H213713   1.761   5.901   0.365
 4586TIP3   OH213714   8.137   4.534   4.884
 4586TIP3    H113715   8.076   4.475   4.840
 4586TIP3    H213716   8.154   4.493   4.969
 4587TIP3   OH213717   2.903   0.703   6.319
 4587TIP3    H113718   2.988   0.660   6.311
 4587TIP3    H213719   2.882   0.732   6.230
 4588TIP3   OH213720   6.801   4.993   0.036
 4588TIP3    H113721   6.780   4.918  -0.019
 4588TIP3    H213722   6.828   5.061  -0.026
 4589TIP3   OH213723   4.731   4.972   2.288
 4589TIP3    H113724   4.672   5.018   2.228
 4589TIP3    H213725   4.737   4.883   2.251
 4590TIP3   OH213726   6.610   7.089   5.673
 4590TIP3    H113727   6.585   7.058   5.760
 4590TIP3    H213728   6.555   7.038   5.613
 4591TIP3   OH213729   4.573   5.040   2.042
 4591TIP3    H113730   4.483   5.013   2.024
 4591TIP3    H213731   4.610   5.061   1.956
 4592TIP3   OH213732   6.082   3.785   5.770
 4592TIP3    H113733   6.093   3.731   5.692
 4592TIP3    H213734   6.172   3.803   5.800
 4593TIP3   OH213735   7.421   6.395   6.352
 4593TIP3    H113736   7.480   6.338   6.304
 4593TIP3    H213737   7.457   6.398   6.440
 4594TIP3   OH213738   4.853   6.711   1.885
 4594TIP3    H113739   4.873   6.802   1.908
 4594TIP3    H213740   4.769   6.715   1.840
 4595TIP3   OH213741   7.493   6.628   4.981
 4595TIP3    H113742   7.530   6.716   4.979
 4595TIP3    H213743   7.499   6.601   5.073
 4596TIP3   OH213744   4.899   5.662   1.182
 4596TIP3    H113745   4.903   5.620   1.096
 4596TIP3    H213746   4.815   5.634   1.218
 4597TIP3   OH213747   1.425   4.919   2.445
 4597TIP3    H113748   1.391   4.980   2.379
 4597TIP3    H213749   1.399   4.957   2.529
 4598TIP3   OH213750   2.000   2.841   2.675
 4598TIP3    H113751   1.935   2.868   2.740
 4598TIP3    H213752   2.055   2.778   2.721
 4599TIP3   OH213753   2.563   7.092   6.227
 4599TIP3    H113754   2.526   7.174   6.195
 4599TIP3    H213755   2.499   7.025   6.203
 4600TIP3   OH213756   5.470   1.567   3.905
 4600TIP3    H113757   5.508   1.632   3.965
 4600TIP3    H213758   5.513   1.583   3.821
 4601TIP3   OH213759   0.318   3.066   4.152
 4601TIP3    H113760   0.277   3.152   4.163
 4601TIP3    H213761   0.312   3.048   4.058
 4602TIP3   OH213762   7.795   6.612   3.658
 4602TIP3    H113763   7.840   6.639   3.579
 4602TIP3    H213764   7.705   6.595   3.630
 4603TIP3   OH213765   4.246   2.476   2.673
 4603TIP3    H113766   4.253   2.563   2.635
 4603TIP3    H213767   4.336   2.442   2.673
 4604TIP3   OH213768   7.364   0.129   3.308
 4604TIP3    H113769   7.410   0.125   3.225
 4604TIP3    H213770   7.285   0.180   3.290
 4605TIP3   OH213771   6.532   5.302   5.483
 4605TIP3    H113772   6.542   5.389   5.522
 4605TIP3    H213773   6.589   5.245   5.535
 4606TIP3   OH213774   6.191   5.693   2.799
 4606TIP3    H113775   6.244   5.614   2.786
 4606TIP3    H213776   6.118   5.683   2.737
 4607TIP3   OH213777   5.826   3.220   1.164
 4607TIP3    H113778   5.829   3.252   1.255
 4607TIP3    H213779   5.839   3.299   1.111
 4608TIP3   OH213780   5.603   2.336   2.564
 4608TIP3    H113781   5.690   2.296   2.562
 4608TIP3    H213782   5.615   2.419   2.611
 4609TIP3   OH213783   4.949   3.666   5.600
 4609TIP3    H113784   4.865   3.691   5.639
 4609TIP3    H213785   5.012   3.677   5.670
 4610TIP3   OH213786   4.050   4.930   4.870
 4610TIP3    H113787   4.128   4.892   4.829
 4610TIP3    H213788   4.053   4.899   4.961
 4611TIP3   OH213789   1.112   5.580   4.970
 4611TIP3    H113790   1.146   5.569   5.059
 4611TIP3    H213791   1.189   5.606   4.918
 4612TIP3   OH213792   0.288   6.652   6.330
 4612TIP3    H113793   0.330   6.670   6.246
 4612TIP3    H213794   0.219   6.719   6.337
 4613TIP3   OH213795   3.076   0.979   6.545
 4613TIP3    H113796   3.091   1.074   6.536
 4613TIP3    H213797   2.982   0.972   6.563
 4614TIP3   OH213798   8.062   0.627   4.401
 4614TIP3    H113799   8.111   0.617   4.319
 4614TIP3    H213800   8.129   0.640   4.468
 4615TIP3   OH213801   6.380   5.697   3.289
 4615TIP3    H113802   6.433   5.623   3.260
 4615TIP3    H213803   6.290   5.669   3.275
 4616TIP3   OH213804   1.934   6.746   0.385
 4616TIP3    H113805   1.962   6.693   0.459
 4616TIP3    H213806   1.854   6.789   0.415
 4617TIP3   OH213807   6.750   3.152   5.609
 4617TIP3    H113808   6.694   3.100   5.551
 4617TIP3    H213809   6.817   3.188   5.550
 4618TIP3   OH213810   1.022   5.331   1.183
 4618TIP3    H113811   0.962   5.337   1.257
 4618TIP3    H213812   1.073   5.252   1.200
 4619TIP3   OH213813   2.323   7.568   4.010
 4619TIP3    H113814   2.410   7.555   4.048
 4619TIP3    H213815   2.265   7.573   4.086
 4620TIP3   OH213816   0.730   4.803   4.731
 4620TIP3    H113817   0.748   4.713   4.759
 4620TIP3    H213818   0.635   4.807   4.721
 4621TIP3   OH213819   1.297   5.965   2.103
 4621TIP3    H113820   1.336   5.878   2.114
 4621TIP3    H213821   1.242   5.977   2.181
 4622TIP3   OH213822   4.028   0.710   5.724
 4622TIP3    H113823   4.092   0.764   5.677
 4622TIP3    H213824   4.050   0.722   5.816
 4623TIP3   OH213825   4.530   1.014   5.758
 4623TIP3    H113826   4.516   1.014   5.853
 4623TIP3    H213827   4.594   0.944   5.743
 4624TIP3   OH213828   7.548   0.720   4.364
 4624TIP3    H113829   7.531   0.791   4.303
 4624TIP3    H213830   7.638   0.693   4.347
 4625TIP3   OH213831   1.559   5.964   2.712
 4625TIP3    H113832   1.628   5.948   2.777
 4625TIP3    H213833   1.487   5.909   2.740
 4626TIP3   OH213834   2.010   0.617   1.140
 4626TIP3    H113835   2.051   0.685   1.195
 4626TIP3    H213836   2.084   0.574   1.097
 4627TIP3   OH213837   5.421   6.796   5.691
 4627TIP3    H113838   5.340   6.844   5.707
 4627TIP3    H213839   5.467   6.797   5.775
 4628TIP3   OH213840   6.365   0.338   3.566
 4628TIP3    H113841   6.300   0.331   3.635
 4628TIP3    H213842   6.418   0.414   3.592
 4629TIP3   OH213843   0.131   7.006   2.082
 4629TIP3    H113844   0.088   7.087   2.056
 4629TIP3    H213845   0.141   7.014   2.177
 4630TIP3   OH213846   7.322   3.949   6.646
 4630TIP3    H113847   7.299   3.969   6.737
 4630TIP3    H213848   7.344   3.856   6.647
 4631TIP3   OH213849   6.807   5.875   2.361
 4631TIP3    H113850   6.734   5.929   2.392
 4631TIP3    H213851   6.849   5.844   2.441
 4632TIP3   OH213852   0.223   5.324   2.968
 4632TIP3    H113853   0.185   5.249   3.015
 4632TIP3    H213854   0.311   5.295   2.944
 4633TIP3   OH213855   1.114   3.986   1.626
 4633TIP3    H113856   1.168   3.914   1.594
 4633TIP3    H213857   1.079   4.027   1.547
 4634TIP3   OH213858   2.807   2.193   3.594
 4634TIP3    H113859   2.748   2.165   3.663
 4634TIP3    H213860   2.804   2.122   3.530
 4635TIP3   OH213861   5.329   1.022   3.085
 4635TIP3    H113862   5.323   0.985   3.172
 4635TIP3    H213863   5.312   1.116   3.097
 4636TIP3   OH213864   6.969   5.202   2.933
 4636TIP3    H113865   6.896   5.222   2.874
 4636TIP3    H213866   6.987   5.110   2.917
 4637TIP3   OH213867   6.382   0.965   4.884
 4637TIP3    H113868   6.460   0.945   4.832
 4637TIP3    H213869   6.361   1.056   4.861
 4638TIP3   OH213870   2.844   1.375   6.416
 4638TIP3    H113871   2.836   1.425   6.335
 4638TIP3    H213872   2.754   1.351   6.439
 4639TIP3   OH213873   2.959   3.388   3.769
 4639TIP3    H113874   3.000   3.473   3.786
 4639TIP3    H213875   3.031   3.329   3.749
 4640TIP3   OH213876   2.460   3.213   2.741
 4640TIP3    H113877   2.449   3.262   2.822
 4640TIP3    H213878   2.514   3.269   2.686
 4641TIP3   OH213879   0.126   6.884   3.598
 4641TIP3    H113880   0.060   6.852   3.537
 4641TIP3    H213881   0.190   6.928   3.543
 4642TIP3   OH213882   3.899   1.138   4.068
 4642TIP3    H113883   3.825   1.080   4.049
 4642TIP3    H213884   3.930   1.110   4.155
 4643TIP3   OH213885   3.898   1.271   0.324
 4643TIP3    H113886   3.908   1.349   0.378
 4643TIP3    H213887   3.984   1.230   0.326
 4644TIP3   OH213888   7.873   3.316   0.843
 4644TIP3    H113889   7.969   3.319   0.842
 4644TIP3    H213890   7.846   3.403   0.814
 4645TIP3   OH213891   3.740   0.996   5.310
 4645TIP3    H113892   3.796   1.039   5.245
 4645TIP3    H213893   3.731   0.906   5.278
 4646TIP3   OH213894   3.206   0.066   3.803
 4646TIP3    H113895   3.302   0.067   3.812
 4646TIP3    H213896   3.178  -0.008   3.857
 4647TIP3   OH213897   0.916   3.902   0.389
 4647TIP3    H113898   0.901   3.967   0.457
 4647TIP3    H213899   0.828   3.877   0.359
 4648TIP3   OH213900   0.333   6.940   0.050
 4648TIP3    H113901   0.259   6.998   0.067
 4648TIP3    H213902   0.411   6.992   0.071
 4649TIP3   OH213903   5.927   2.097   6.505
 4649TIP3    H113904   5.835   2.074   6.492
 4649TIP3    H213905   5.925   2.184   6.545
 4650TIP3   OH213906   6.299   4.709   6.121
 4650TIP3    H113907   6.384   4.734   6.156
 4650TIP3    H213908   6.238   4.727   6.192
 4651TIP3   OH213909   7.370   5.750   2.773
 4651TIP3    H113910   7.441   5.809   2.799
 4651TIP3    H213911   7.334   5.718   2.855
 4652TIP3   OH213912   1.837   5.914   1.462
 4652TIP3    H113913   1.846   5.924   1.557
 4652TIP3    H213914   1.860   5.999   1.426
 4653TIP3   OH213915   4.898   1.162   3.388
 4653TIP3    H113916   4.830   1.125   3.444
 4653TIP3    H213917   4.860   1.242   3.353
 4654TIP3   OH213918   7.554   1.653   3.702
 4654TIP3    H113919   7.502   1.685   3.776
 4654TIP3    H213920   7.569   1.560   3.721
 4655TIP3   OH213921   0.840   7.719   6.466
 4655TIP3    H113922   0.780   7.771   6.520
 4655TIP3    H213923   0.783   7.653   6.425
 4656TIP3   OH213924   5.216   4.869   0.211
 4656TIP3    H113925   5.292   4.846   0.265
 4656TIP3    H213926   5.205   4.963   0.225
 4657TIP3   OH213927   4.197   2.698   0.547
 4657TIP3    H113928   4.138   2.639   0.594
 4657TIP3    H213929   4.142   2.773   0.523
 4658TIP3   OH213930   6.757   1.106   4.563
 4658TIP3    H113931   6.697   1.046   4.607
 4658TIP3    H213932   6.733   1.100   4.470
 4659TIP3   OH213933   6.686   6.477   0.162
 4659TIP3    H113934   6.699   6.414   0.091
 4659TIP3    H213935   6.641   6.551   0.120
 4660TIP3   OH213936   1.070   1.619   6.076
 4660TIP3    H113937   1.045   1.570   5.998
 4660TIP3    H213938   1.141   1.568   6.115
 4661TIP3   OH213939   2.833   6.627   4.584
 4661TIP3    H113940   2.898   6.637   4.654
 4661TIP3    H213941   2.749   6.644   4.627
 4662TIP3   OH213942   8.209   6.892   0.532
 4662TIP3    H113943   8.295   6.882   0.491
 4662TIP3    H213944   8.191   6.986   0.527
 4663TIP3   OH213945   7.391   7.440   6.134
 4663TIP3    H113946   7.322   7.505   6.128
 4663TIP3    H213947   7.353   7.361   6.095
 4664TIP3   OH213948   5.479   5.329   2.372
 4664TIP3    H113949   5.403   5.273   2.386
 4664TIP3    H213950   5.458   5.410   2.419
 4665TIP3   OH213951   0.294   1.409   6.147
 4665TIP3    H113952   0.289   1.462   6.227
 4665TIP3    H213953   0.289   1.319   6.178
 4666TIP3   OH213954   5.296   3.840   2.422
 4666TIP3    H113955   5.213   3.826   2.469
 4666TIP3    H213956   5.317   3.932   2.439
 4667TIP3   OH213957   1.272   3.843   2.447
 4667TIP3    H113958   1.361   3.810   2.437
 4667TIP3    H213959   1.216   3.766   2.434
 4668TIP3   OH213960   7.811   5.558   0.491
 4668TIP3    H113961   7.823   5.548   0.586
 4668TIP3    H213962   7.750   5.632   0.483
 4669TIP3   OH213963   4.022   6.636   2.659
 4669TIP3    H113964   3.950   6.678   2.707
 4669TIP3    H213965   4.074   6.710   2.626
 4670TIP3   OH213966   4.280   2.693   5.704
 4670TIP3    H113967   4.283   2.788   5.712
 4670TIP3    H213968   4.208   2.666   5.761
 4671TIP3   OH213969   6.124   7.548   0.272
 4671TIP3    H113970   6.201   7.519   0.224
 4671TIP3    H213971   6.112   7.639   0.246
 4672TIP3   OH213972   0.231   4.384   5.993
 4672TIP3    H113973   0.168   4.419   5.931
 4672TIP3    H213974   0.301   4.348   5.938
 4673TIP3   OH213975   5.082   7.091   6.411
 4673TIP3    H113976   5.176   7.074   6.424
 4673TIP3    H213977   5.070   7.092   6.316
 4674TIP3   OH213978   2.935   3.252   2.877
 4674TIP3    H113979   2.923   3.327   2.934
 4674TIP3    H213980   2.971   3.289   2.796
 4675TIP3   OH213981   4.444   5.741   0.569
 4675TIP3    H113982   4.372   5.709   0.625
 4675TIP3    H213983   4.420   5.832   0.550
 4676TIP3   OH213984   6.487   6.050   5.782
 4676TIP3    H113985   6.418   6.034   5.846
 4676TIP3    H213986   6.565   6.069   5.834
 4677TIP3   OH213987   6.560   6.330   4.078
 4677TIP3    H113988   6.581   6.331   4.171
 4677TIP3    H213989   6.480   6.277   4.072
 4678TIP3   OH213990   6.448   6.946   0.506
 4678TIP3    H113991   6.465   6.853   0.516
 4678TIP3    H213992   6.367   6.962   0.555
 4679TIP3   OH213993   6.691   1.096   1.843
 4679TIP3    H113994   6.648   1.016   1.874
 4679TIP3    H213995   6.716   1.142   1.923
 4680TIP3   OH213996   7.441   0.638   0.591
 4680TIP3    H113997   7.351   0.669   0.588
 4680TIP3    H213998   7.474   0.668   0.676
 4681TIP3   OH213999   2.285   5.727   6.145
 4681TIP3    H114000   2.257   5.695   6.059
 4681TIP3    H214001   2.221   5.691   6.207
 4682TIP3   OH214002   0.425   0.522   0.730
 4682TIP3    H114003   0.344   0.571   0.746
 4682TIP3    H214004   0.410   0.437   0.770
 4683TIP3   OH214005   2.986   0.822   4.242
 4683TIP3    H114006   2.908   0.842   4.189
 4683TIP3    H214007   3.059   0.854   4.190
 4684TIP3   OH214008   7.667   4.666   2.625
 4684TIP3    H114009   7.693   4.697   2.711
 4684TIP3    H214010   7.588   4.716   2.604
 4685TIP3   OH214011   3.505   7.737   6.106
 4685TIP3    H114012   3.534   7.783   6.185
 4685TIP3    H214013   3.575   7.752   6.042
 4686TIP3   OH214014   7.824   3.111   4.949
 4686TIP3    H114015   7.772   3.191   4.948
 4686TIP3    H214016   7.860   3.106   5.037
 4687TIP3   OH214017   6.433   6.085   2.144
 4687TIP3    H114018   6.385   6.005   2.120
 4687TIP3    H214019   6.416   6.145   2.071
 4688TIP3   OH214020   2.828   2.472   3.651
 4688TIP3    H114021   2.818   2.380   3.630
 4688TIP3    H214022   2.749   2.514   3.616
 4689TIP3   OH214023   6.499   5.768   4.899
 4689TIP3    H114024   6.493   5.704   4.829
 4689TIP3    H214025   6.413   5.765   4.942
 4690TIP3   OH214026   5.409   2.501   2.804
 4690TIP3    H114027   5.393   2.491   2.710
 4690TIP3    H214028   5.456   2.584   2.812
 4691TIP3   OH214029   1.254   6.938   2.927
 4691TIP3    H114030   1.187   6.913   2.863
 4691TIP3    H214031   1.206   6.947   3.010
 4692TIP3   OH214032   2.902   5.962   0.749
 4692TIP3    H114033   2.965   5.916   0.693
 4692TIP3    H214034   2.820   5.959   0.700
 4693TIP3   OH214035   4.514   0.197   5.796
 4693TIP3    H114036   4.444   0.189   5.861
 4693TIP3    H214037   4.468   0.196   5.712
 4694TIP3   OH214038   4.667   0.895   2.873
 4694TIP3    H114039   4.752   0.903   2.829
 4694TIP3    H214040   4.607   0.946   2.819
 4695TIP3   OH214041   2.909   1.728   5.597
 4695TIP3    H114042   2.972   1.800   5.603
 4695TIP3    H214043   2.881   1.713   5.688
 4696TIP3   OH214044   5.392   7.506   2.798
 4696TIP3    H114045   5.317   7.469   2.752
 4696TIP3    H214046   5.414   7.585   2.749
 4697TIP3   OH214047   6.647   7.070   6.262
 4697TIP3    H114048   6.661   7.157   6.299
 4697TIP3    H214049   6.635   7.086   6.168
 4698TIP3   OH214050   3.362   6.101   2.237
 4698TIP3    H114051   3.326   6.184   2.206
 4698TIP3    H214052   3.368   6.046   2.159
 4699TIP3   OH214053   5.994   2.821   0.466
 4699TIP3    H114054   5.911   2.805   0.422
 4699TIP3    H214055   6.051   2.750   0.437
 4700TIP3   OH214056   2.769   3.999   4.369
 4700TIP3    H114057   2.797   4.081   4.329
 4700TIP3    H214058   2.773   4.015   4.463
 4701TIP3   OH214059   3.966   5.639   0.133
 4701TIP3    H114060   3.940   5.683   0.214
 4701TIP3    H214061   4.041   5.585   0.157
 4702TIP3   OH214062   5.066   7.587   2.514
 4702TIP3    H114063   5.003   7.602   2.585
 4702TIP3    H214064   5.014   7.548   2.444
 4703TIP3   OH214065   4.461   3.135   5.563
 4703TIP3    H114066   4.470   3.192   5.487
 4703TIP3    H214067   4.551   3.113   5.588
 4704TIP3   OH214068   7.547   7.777   3.105
 4704TIP3    H114069   7.617   7.840   3.088
 4704TIP3    H214070   7.529   7.737   3.019
 4705TIP3   OH214071   1.669   2.369   2.436
 4705TIP3    H114072   1.660   2.435   2.506
 4705TIP3    H214073   1.584   2.369   2.392
 4706TIP3   OH214074   6.650   1.007   2.791
 4706TIP3    H114075   6.606   1.088   2.816
 4706TIP3    H214076   6.580   0.952   2.756
 4707TIP3   OH214077   3.488   3.565   1.004
 4707TIP3    H114078   3.537   3.647   1.002
 4707TIP3    H214079   3.547   3.503   1.047
 4708TIP3   OH214080   4.222   0.181   1.605
 4708TIP3    H114081   4.283   0.214   1.538
 4708TIP3    H214082   4.223   0.247   1.674
 4709TIP3   OH214083   6.045   5.762   2.256
 4709TIP3    H114084   6.134   5.780   2.286
 4709TIP3    H214085   6.036   5.666   2.264
 4710TIP3   OH214086   3.956   1.964   0.874
 4710TIP3    H114087   4.016   1.960   0.800
 4710TIP3    H214088   3.889   1.898   0.855
 4711TIP3   OH214089   1.071   0.885   5.116
 4711TIP3    H114090   1.161   0.917   5.110
 4711TIP3    H214091   1.018   0.965   5.123
 4712TIP3   OH214092   0.321   6.811   5.840
 4712TIP3    H114093   0.270   6.746   5.791
 4712TIP3    H214094   0.300   6.894   5.798
 4713TIP3   OH214095   1.828   7.637   5.275
 4713TIP3    H114096   1.830   7.650   5.180
 4713TIP3    H214097   1.794   7.719   5.310
 4714TIP3   OH214098   1.074   3.248   3.406
 4714TIP3    H114099   1.072   3.153   3.413
 4714TIP3    H214100   1.001   3.278   3.459
 4715TIP3   OH214101   3.108   3.382   3.188
 4715TIP3    H114102   3.178   3.317   3.184
 4715TIP3    H214103   3.045   3.345   3.249
 4716TIP3   OH214104   6.026   2.909   3.589
 4716TIP3    H114105   5.984   2.953   3.663
 4716TIP3    H214106   6.009   2.967   3.514
 4717TIP3   OH214107   0.281   3.238   0.415
 4717TIP3    H114108   0.220   3.296   0.460
 4717TIP3    H214109   0.231   3.158   0.400
 4718TIP3   OH214110   6.113   6.727   0.031
 4718TIP3    H114111   6.169   6.733   0.108
 4718TIP3    H214112   6.101   6.818   0.003
 4719TIP3   OH214113   3.157   3.685   6.423
 4719TIP3    H114114   3.213   3.623   6.468
 4719TIP3    H214115   3.080   3.693   6.479
 4720TIP3   OH214116   4.087   0.359   2.426
 4720TIP3    H114117   4.165   0.303   2.426
 4720TIP3    H214118   4.023   0.309   2.476
 4721TIP3   OH214119   7.571   1.309   4.225
 4721TIP3    H114120   7.662   1.340   4.229
 4721TIP3    H214121   7.536   1.349   4.146
 4722TIP3   OH214122   0.238   2.981   3.879
 4722TIP3    H114123   0.265   3.040   3.809
 4722TIP3    H214124   0.273   2.896   3.853
 4723TIP3   OH214125   7.899   5.412   5.184
 4723TIP3    H114126   7.813   5.444   5.212
 4723TIP3    H214127   7.922   5.469   5.110
 4724TIP3   OH214128   5.502   2.781   2.819
 4724TIP3    H114129   5.456   2.853   2.776
 4724TIP3    H214130   5.588   2.816   2.841
 4725TIP3   OH214131   0.381   0.910   0.716
 4725TIP3    H114132   0.395   0.848   0.644
 4725TIP3    H214133   0.295   0.950   0.696
 4726TIP3   OH214134   1.838   4.781   3.764
 4726TIP3    H114135   1.798   4.727   3.696
 4726TIP3    H214136   1.879   4.717   3.823
 4727TIP3   OH214137   6.460   6.568   6.487
 4727TIP3    H114138   6.380   6.544   6.439
 4727TIP3    H214139   6.430   6.584   6.576
 4728TIP3   OH214140   0.980   6.137   4.076
 4728TIP3    H114141   0.885   6.124   4.068
 4728TIP3    H214142   1.017   6.092   4.000
 4729TIP3   OH214143   6.528   4.221   4.386
 4729TIP3    H114144   6.469   4.228   4.312
 4729TIP3    H214145   6.471   4.231   4.463
 4730TIP3   OH214146   7.875   1.091   1.665
 4730TIP3    H114147   7.899   1.178   1.633
 4730TIP3    H214148   7.952   1.063   1.715
 4731TIP3   OH214149   2.479   6.894   5.832
 4731TIP3    H114150   2.492   6.987   5.816
 4731TIP3    H214151   2.497   6.852   5.747
 4732TIP3   OH214152   0.615   0.396   4.703
 4732TIP3    H114153   0.613   0.306   4.670
 4732TIP3    H214154   0.692   0.398   4.761
 4733TIP3   OH214155   8.117   5.504   0.399
 4733TIP3    H114156   8.117   5.408   0.393
 4733TIP3    H214157   8.056   5.532   0.331
 4734TIP3   OH214158   6.657   3.684   3.135
 4734TIP3    H114159   6.667   3.684   3.230
 4734TIP3    H214160   6.566   3.660   3.120
 4735TIP3   OH214161   4.714   5.019   3.267
 4735TIP3    H114162   4.641   5.058   3.218
 4735TIP3    H214163   4.762   5.095   3.301
 4736TIP3   OH214164  -0.025   2.410   6.585
 4736TIP3    H114165   0.053   2.466   6.590
 4736TIP3    H214166   0.007   2.323   6.610
 4737TIP3   OH214167   2.529   4.698   3.116
 4737TIP3    H114168   2.602   4.643   3.145
 4737TIP3    H214169   2.547   4.715   3.024
 4738TIP3   OH214170   0.338   4.502   0.974
 4738TIP3    H114171   0.365   4.471   0.887
 4738TIP3    H214172   0.243   4.511   0.967
 4739TIP3   OH214173   4.093   2.562   2.356
 4739TIP3    H114174   4.086   2.654   2.379
 4739TIP3    H214175   4.065   2.515   2.434
 4740TIP3   OH214176   6.425   4.911   4.374
 4740TIP3    H114177   6.436   4.921   4.469
 4740TIP3    H214178   6.510   4.935   4.337
 4741TIP3   OH214179   5.591   5.891   1.234
 4741TIP3    H114180   5.665   5.924   1.284
 4741TIP3    H214181   5.516   5.901   1.293
 4742TIP3   OH214182   1.542   2.173   3.001
 4742TIP3    H114183   1.574   2.114   2.932
 4742TIP3    H214184   1.450   2.185   2.982
 4743TIP3   OH214185   5.298   2.817   0.211
 4743TIP3    H114186   5.245   2.812   0.291
 4743TIP3    H214187   5.387   2.796   0.241
 4744TIP3   OH214188   4.284   3.636   2.966
 4744TIP3    H114189   4.266   3.711   2.909
 4744TIP3    H214190   4.373   3.651   2.997
 4745TIP3   OH214191   0.609   6.644   5.114
 4745TIP3    H114192   0.648   6.730   5.125
 4745TIP3    H214193   0.516   6.661   5.104
 4746TIP3   OH214194   5.925   3.875   4.050
 4746TIP3    H114195   5.892   3.909   4.133
 4746TIP3    H214196   5.917   3.949   3.989
 4747TIP3   OH214197   2.602   7.401   5.865
 4747TIP3    H114198   2.543   7.413   5.939
 4747TIP3    H214199   2.676   7.460   5.884
 4748TIP3   OH214200   3.444   1.031   6.317
 4748TIP3    H114201   3.425   0.954   6.263
 4748TIP3    H214202   3.369   1.038   6.376
 4749TIP3   OH214203   0.356   6.635   4.676
 4749TIP3    H114204   0.396   6.664   4.594
 4749TIP3    H214205   0.345   6.540   4.665
 4750TIP3   OH214206   2.482   3.073   6.221
 4750TIP3    H114207   2.540   3.039   6.290
 4750TIP3    H214208   2.505   3.166   6.214
 4751TIP3   OH214209   6.758   2.845   2.926
 4751TIP3    H114210   6.771   2.754   2.900
 4751TIP3    H214211   6.693   2.840   2.997
 4752TIP3   OH214212   5.692   6.919   2.187
 4752TIP3    H114213   5.717   6.894   2.098
 4752TIP3    H214214   5.697   6.837   2.237
 4753TIP3   OH214215   6.225   1.974   1.226
 4753TIP3    H114216   6.253   1.884   1.212
 4753TIP3    H214217   6.307   2.023   1.240
 4754TIP3   OH214218   5.931   2.509   2.515
 4754TIP3    H114219   5.927   2.582   2.454
 4754TIP3    H214220   6.025   2.491   2.525
 4755TIP3   OH214221   2.099   1.505   1.073
 4755TIP3    H114222   2.118   1.411   1.071
 4755TIP3    H214223   2.182   1.546   1.097
 4756TIP3   OH214224   6.311   5.672   0.122
 4756TIP3    H114225   6.365   5.747   0.146
 4756TIP3    H214226   6.353   5.597   0.164
 4757TIP3   OH214227   6.503   2.001   6.526
 4757TIP3    H114228   6.469   1.953   6.602
 4757TIP3    H214229   6.589   1.962   6.510
 4758TIP3   OH214230   8.019   0.500   0.379
 4758TIP3    H114231   8.092   0.548   0.419
 4758TIP3    H214232   7.942   0.525   0.431
 4759TIP3   OH214233   8.193   2.974   6.036
 4759TIP3    H114234   8.245   3.054   6.031
 4759TIP3    H214235   8.257   2.903   6.045
 4760TIP3   OH214236   6.080   5.472   2.591
 4760TIP3    H114237   6.144   5.404   2.615
 4760TIP3    H214238   6.098   5.491   2.499
 4761TIP3   OH214239   6.473   4.379   5.914
 4761TIP3    H114240   6.560   4.408   5.943
 4761TIP3    H214241   6.490   4.333   5.831
 4762TIP3   OH214242   0.065   0.315   4.853
 4762TIP3    H114243  -0.011   0.327   4.910
 4762TIP3    H214244   0.033   0.335   4.765
 4763TIP3   OH214245   6.128   1.097   0.232
 4763TIP3    H114246   6.189   1.139   0.293
 4763TIP3    H214247   6.169   1.013   0.212
 4764TIP3   OH214248   1.756   3.868   4.974
 4764TIP3    H114249   1.755   3.916   4.891
 4764TIP3    H214250   1.839   3.892   5.015
 4765TIP3   OH214251   0.986   2.560   3.119
 4765TIP3    H114252   1.023   2.637   3.075
 4765TIP3    H214253   0.988   2.582   3.212
 4766TIP3   OH214254   0.043   3.626   2.928
 4766TIP3    H114255   0.105   3.632   3.000
 4766TIP3    H214256  -0.030   3.574   2.963
 4767TIP3   OH214257   0.743   7.110   5.436
 4767TIP3    H114258   0.662   7.124   5.386
 4767TIP3    H214259   0.732   7.165   5.514
 4768TIP3   OH214260   4.707   4.417   5.240
 4768TIP3    H114261   4.619   4.441   5.269
 4768TIP3    H214262   4.710   4.322   5.249
 4769TIP3   OH214263   0.186   4.098   3.134
 4769TIP3    H114264   0.254   4.162   3.113
 4769TIP3    H214265   0.103   4.144   3.118
 4770TIP3   OH214266   1.711   0.218   1.817
 4770TIP3    H114267   1.720   0.175   1.902
 4770TIP3    H214268   1.630   0.183   1.780
 4771TIP3   OH214269   2.267   5.223   0.692
 4771TIP3    H114270   2.178   5.202   0.718
 4771TIP3    H214271   2.260   5.251   0.601
 4772TIP3   OH214272   1.426   7.740   3.641
 4772TIP3    H114273   1.491   7.671   3.633
 4772TIP3    H214274   1.392   7.731   3.731
 4773TIP3   OH214275   0.706   4.769   0.624
 4773TIP3    H114276   0.723   4.861   0.643
 4773TIP3    H214277   0.659   4.737   0.701
 4774TIP3   OH214278   2.174   5.658   2.873
 4774TIP3    H114279   2.101   5.617   2.826
 4774TIP3    H214280   2.132   5.718   2.934
 4775TIP3   OH214281   2.569   5.533   6.729
 4775TIP3    H114282   2.656   5.574   6.728
 4775TIP3    H214283   2.546   5.528   6.822
 4776TIP3   OH214284   3.896   4.460   4.825
 4776TIP3    H114285   3.827   4.510   4.869
 4776TIP3    H214286   3.887   4.372   4.861
 4777TIP3   OH214287   6.759   0.605   3.446
 4777TIP3    H114288   6.724   0.613   3.357
 4777TIP3    H214289   6.743   0.690   3.485
 4778TIP3   OH214290   0.090   7.286   2.391
 4778TIP3    H114291   0.095   7.367   2.340
 4778TIP3    H214292   0.161   7.232   2.356
 4779TIP3   OH214293   5.312   5.367  -0.002
 4779TIP3    H114294   5.388   5.357   0.056
 4779TIP3    H214295   5.294   5.278  -0.033
 4780TIP3   OH214296   2.628   2.807   6.115
 4780TIP3    H114297   2.542   2.836   6.143
 4780TIP3    H214298   2.681   2.887   6.114
 4781TIP3   OH214299   3.182   5.873   1.075
 4781TIP3    H114300   3.251   5.877   1.142
 4781TIP3    H214301   3.230   5.860   0.993
 4782TIP3   OH214302   2.692   3.926   6.587
 4782TIP3    H114303   2.673   3.941   6.679
 4782TIP3    H214304   2.749   3.998   6.562
 4783TIP3   OH214305   7.677   6.828   4.944
 4783TIP3    H114306   7.749   6.807   4.885
 4783TIP3    H214307   7.708   6.903   4.994
 4784TIP3   OH214308   2.505   7.148   5.733
 4784TIP3    H114309   2.541   7.218   5.787
 4784TIP3    H214310   2.411   7.168   5.727
 4785TIP3   OH214311   7.065   7.492   1.507
 4785TIP3    H114312   6.977   7.520   1.482
 4785TIP3    H214313   7.082   7.539   1.589
 4786TIP3   OH214314   4.714   2.818   3.296
 4786TIP3    H114315   4.659   2.853   3.226
 4786TIP3    H214316   4.667   2.741   3.327
 4787TIP3   OH214317   5.218   0.729   4.557
 4787TIP3    H114318   5.263   0.653   4.595
 4787TIP3    H214319   5.288   0.784   4.523
 4788TIP3   OH214320   6.299   5.834   2.082
 4788TIP3    H114321   6.293   5.743   2.109
 4788TIP3    H214322   6.212   5.855   2.047
 4789TIP3   OH214323   3.938   4.714   6.224
 4789TIP3    H114324   3.858   4.752   6.258
 4789TIP3    H214325   3.932   4.621   6.246
 4790TIP3   OH214326   2.592   4.249   0.410
 4790TIP3    H114327   2.531   4.321   0.424
 4790TIP3    H214328   2.640   4.242   0.493
 4791TIP3   OH214329   6.994   6.532   1.313
 4791TIP3    H114330   6.960   6.592   1.379
 4791TIP3    H214331   6.995   6.583   1.232
 4792TIP3   OH214332   6.058   3.479   6.402
 4792TIP3    H114333   5.979   3.530   6.383
 4792TIP3    H214334   6.100   3.467   6.317
 4793TIP3   OH214335   6.139   3.637   2.292
 4793TIP3    H114336   6.169   3.727   2.281
 4793TIP3    H214337   6.064   3.643   2.352
 4794TIP3   OH214338   7.194   4.243   0.130
 4794TIP3    H114339   7.141   4.233   0.051
 4794TIP3    H214340   7.143   4.199   0.198
 4795TIP3   OH214341   2.691   3.925   1.181
 4795TIP3    H114342   2.728   3.879   1.104
 4795TIP3    H214343   2.640   3.858   1.226
 4796TIP3   OH214344   1.884   4.902   4.048
 4796TIP3    H114345   1.881   4.808   4.063
 4796TIP3    H214346   1.878   4.911   3.953
 4797TIP3   OH214347   5.875   4.496   1.749
 4797TIP3    H114348   5.914   4.411   1.726
 4797TIP3    H214349   5.795   4.474   1.797
 4798TIP3   OH214350   5.090   0.194   0.785
 4798TIP3    H114351   5.053   0.192   0.873
 4798TIP3    H214352   5.115   0.285   0.771
 4799TIP3   OH214353   1.946   0.062   0.836
 4799TIP3    H114354   1.927   0.152   0.862
 4799TIP3    H214355   2.026   0.040   0.883
 4800TIP3   OH214356   0.417   1.227   1.922
 4800TIP3    H114357   0.484   1.229   1.990
 4800TIP3    H214358   0.438   1.301   1.865
 4801TIP3   OH214359   3.911   6.117   1.104
 4801TIP3    H114360   3.850   6.187   1.125
 4801TIP3    H214361   3.996   6.161   1.097
 4802TIP3   OH214362   4.688   3.944   2.055
 4802TIP3    H114363   4.702   3.892   2.134
 4802TIP3    H214364   4.619   3.898   2.007
 4803TIP3   OH214365   5.578   6.347   2.410
 4803TIP3    H114366   5.668   6.322   2.388
 4803TIP3    H214367   5.542   6.381   2.328
 4804TIP3   OH214368   4.537   3.506   1.023
 4804TIP3    H114369   4.589   3.560   0.963
 4804TIP3    H214370   4.582   3.421   1.024
 4805TIP3   OH214371   6.764   4.943   6.360
 4805TIP3    H114372   6.812   4.984   6.288
 4805TIP3    H214373   6.823   4.951   6.435
 4806TIP3   OH214374   1.840   4.461   4.595
 4806TIP3    H114375   1.790   4.532   4.636
 4806TIP3    H214376   1.864   4.495   4.509
 4807TIP3   OH214377   1.922   1.998   6.084
 4807TIP3    H114378   1.917   2.013   6.178
 4807TIP3    H214379   1.892   1.908   6.072
 4808TIP3   OH214380   4.915   5.985   4.807
 4808TIP3    H114381   4.960   6.037   4.741
 4808TIP3    H214382   4.955   5.898   4.800
 4809TIP3   OH214383   4.045   4.874   5.148
 4809TIP3    H114384   3.960   4.867   5.192
 4809TIP3    H214385   4.090   4.792   5.170
 4810TIP3   OH214386   1.005   3.923   4.645
 4810TIP3    H114387   0.997   4.007   4.600
 4810TIP3    H214388   1.061   3.941   4.721
 4811TIP3   OH214389   2.243   2.210   3.632
 4811TIP3    H114390   2.237   2.143   3.563
 4811TIP3    H214391   2.230   2.293   3.585
 4812TIP3   OH214392   3.610   3.468   1.901
 4812TIP3    H114393   3.568   3.554   1.892
 4812TIP3    H214394   3.540   3.411   1.932
 4813TIP3   OH214395   1.489   1.319   4.173
 4813TIP3    H114396   1.509   1.272   4.092
 4813TIP3    H214397   1.551   1.285   4.237
 4814TIP3   OH214398   1.522   3.844   6.618
 4814TIP3    H114399   1.522   3.836   6.713
 4814TIP3    H214400   1.500   3.756   6.587
 4815TIP3   OH214401   7.448   2.551   0.855
 4815TIP3    H114402   7.447   2.646   0.860
 4815TIP3    H214403   7.486   2.522   0.938
 4816TIP3   OH214404   3.011   6.777   2.847
 4816TIP3    H114405   3.030   6.859   2.893
 4816TIP3    H214406   3.096   6.746   2.818
 4817TIP3   OH214407   7.793   0.184   6.507
 4817TIP3    H114408   7.766   0.112   6.450
 4817TIP3    H214409   7.859   0.231   6.456
 4818TIP3   OH214410   0.631   1.270   1.451
 4818TIP3    H114411   0.554   1.221   1.478
 4818TIP3    H214412   0.704   1.226   1.494
 4819TIP3   OH214413   3.422   5.516   4.261
 4819TIP3    H114414   3.370   5.530   4.181
 4819TIP3    H214415   3.464   5.431   4.247
 4820TIP3   OH214416   5.520   6.864   1.682
 4820TIP3    H114417   5.485   6.935   1.735
 4820TIP3    H214418   5.463   6.861   1.605
 4821TIP3   OH214419   1.307   5.965   3.590
 4821TIP3    H114420   1.396   5.955   3.624
 4821TIP3    H214421   1.317   5.961   3.495
 4822TIP3   OH214422   0.998   5.655   2.922
 4822TIP3    H114423   1.026   5.598   2.850
 4822TIP3    H214424   0.952   5.596   2.982
 4823TIP3   OH214425   7.769   4.845   6.722
 4823TIP3    H114426   7.770   4.853   6.627
 4823TIP3    H214427   7.720   4.764   6.739
 4824TIP3   OH214428   7.581   1.616   2.947
 4824TIP3    H114429   7.628   1.558   2.887
 4824TIP3    H214430   7.632   1.697   2.947
 4825TIP3   OH214431   5.043   4.396   1.500
 4825TIP3    H114432   4.966   4.411   1.446
 4825TIP3    H214433   5.117   4.411   1.441
 4826TIP3   OH214434   2.195   0.592   4.759
 4826TIP3    H114435   2.208   0.585   4.665
 4826TIP3    H214436   2.107   0.556   4.774
 4827TIP3   OH214437   6.570   1.258   5.922
 4827TIP3    H114438   6.508   1.210   5.978
 4827TIP3    H214439   6.541   1.349   5.927
 4828TIP3   OH214440   3.405   0.154   1.151
 4828TIP3    H114441   3.485   0.129   1.104
 4828TIP3    H214442   3.435   0.217   1.217
 4829TIP3   OH214443   1.559   6.111   4.997
 4829TIP3    H114444   1.647   6.075   5.000
 4829TIP3    H214445   1.572   6.206   4.996
 4830TIP3   OH214446   1.078   1.184   4.914
 4830TIP3    H114447   1.025   1.109   4.884
 4830TIP3    H214448   1.093   1.235   4.834
 4831TIP3   OH214449   6.844   1.906   3.931
 4831TIP3    H114450   6.899   1.975   3.968
 4831TIP3    H214451   6.904   1.832   3.918
 4832TIP3   OH214452   7.224   6.832   0.059
 4832TIP3    H114453   7.241   6.880  -0.022
 4832TIP3    H214454   7.165   6.888   0.109
 4833TIP3   OH214455   3.630   0.104   1.005
 4833TIP3    H114456   3.658   0.195   1.018
 4833TIP3    H214457   3.618   0.096   0.910
 4834TIP3   OH214458   3.560   6.325   1.871
 4834TIP3    H114459   3.493   6.381   1.908
 4834TIP3    H214460   3.635   6.335   1.930
 4835TIP3   OH214461   4.644   0.221   3.528
 4835TIP3    H114462   4.693   0.178   3.598
 4835TIP3    H214463   4.710   0.242   3.462
 4836TIP3   OH214464   5.786   5.821   4.056
 4836TIP3    H114465   5.855   5.865   4.006
 4836TIP3    H214466   5.782   5.733   4.018
 4837TIP3   OH214467   0.686   7.268   3.171
 4837TIP3    H114468   0.641   7.214   3.235
 4837TIP3    H214469   0.665   7.228   3.087
 4838TIP3   OH214470   0.268   5.693   1.651
 4838TIP3    H114471   0.289   5.724   1.563
 4838TIP3    H214472   0.333   5.626   1.670
 4839TIP3   OH214473   2.956   2.083   6.102
 4839TIP3    H114474   2.917   2.008   6.147
 4839TIP3    H214475   2.924   2.076   6.012
 4840TIP3   OH214476   6.014   2.493   3.218
 4840TIP3    H114477   5.999   2.558   3.287
 4840TIP3    H214478   6.106   2.469   3.227
 4841TIP3   OH214479   4.486   5.123   1.439
 4841TIP3    H114480   4.569   5.125   1.391
 4841TIP3    H214481   4.447   5.209   1.423
 4842TIP3   OH214482   7.808   0.243   0.341
 4842TIP3    H114483   7.805   0.233   0.436
 4842TIP3    H214484   7.901   0.245   0.320
 4843TIP3   OH214485   0.840   0.838   0.984
 4843TIP3    H114486   0.841   0.875   0.896
 4843TIP3    H214487   0.756   0.793   0.990
 4844TIP3   OH214488   5.941   2.841   1.018
 4844TIP3    H114489   5.891   2.765   1.047
 4844TIP3    H214490   6.032   2.813   1.022
 4845TIP3   OH214491   5.111   6.172   3.665
 4845TIP3    H114492   5.136   6.102   3.725
 4845TIP3    H214493   5.024   6.146   3.633
 4846TIP3   OH214494   3.144   2.042   4.065
 4846TIP3    H114495   3.118   2.103   4.134
 4846TIP3    H214496   3.080   1.971   4.070
 4847TIP3   OH214497   5.543   7.355   4.510
 4847TIP3    H114498   5.589   7.429   4.469
 4847TIP3    H214499   5.460   7.393   4.540
 4848TIP3   OH214500   2.920   4.819   1.446
 4848TIP3    H114501   2.963   4.901   1.421
 4848TIP3    H214502   2.951   4.755   1.382
 4849TIP3   OH214503   3.040   0.298   2.021
 4849TIP3    H114504   3.044   0.374   1.963
 4849TIP3    H214505   3.119   0.248   1.999
 4850TIP3   OH214506   6.029   1.901   4.699
 4850TIP3    H114507   6.049   1.946   4.781
 4850TIP3    H214508   6.028   1.808   4.723
 4851TIP3   OH214509   6.376   2.906   0.648
 4851TIP3    H114510   6.363   2.974   0.715
 4851TIP3    H214511   6.468   2.913   0.625
 4852TIP3   OH214512   6.743   1.058   5.918
 4852TIP3    H114513   6.679   1.127   5.902
 4852TIP3    H214514   6.827   1.098   5.897
 4853TIP3   OH214515   6.122   3.552   3.005
 4853TIP3    H114516   6.088   3.611   2.938
 4853TIP3    H214517   6.213   3.578   3.016
 4854TIP3   OH214518   7.023   5.087   2.001
 4854TIP3    H114519   7.010   5.049   1.914
 4854TIP3    H214520   7.110   5.058   2.028
 4855TIP3   OH214521   1.086   0.304   5.391
 4855TIP3    H114522   0.994   0.319   5.415
 4855TIP3    H214523   1.129   0.285   5.474
 4856TIP3   OH214524   4.198   1.534   3.057
 4856TIP3    H114525   4.186   1.464   3.121
 4856TIP3    H214526   4.108   1.564   3.038
 4857TIP3   OH214527   0.304   4.069   0.571
 4857TIP3    H114528   0.282   3.994   0.515
 4857TIP3    H214529   0.224   4.085   0.621
 4858TIP3   OH214530   1.916   5.577   3.210
 4858TIP3    H114531   1.952   5.665   3.200
 4858TIP3    H214532   1.897   5.570   3.304
 4859TIP3   OH214533   2.007   3.302   2.224
 4859TIP3    H114534   2.074   3.233   2.226
 4859TIP3    H214535   2.056   3.383   2.213
 4860TIP3   OH214536   6.375   6.963   4.484
 4860TIP3    H114537   6.327   6.881   4.473
 4860TIP3    H214538   6.416   6.979   4.399
 4861TIP3   OH214539   7.308   2.367   4.290
 4861TIP3    H114540   7.222   2.332   4.267
 4861TIP3    H214541   7.366   2.336   4.221
 4862TIP3   OH214542   0.676   4.257   2.658
 4862TIP3    H114543   0.591   4.289   2.689
 4862TIP3    H214544   0.688   4.298   2.573
 4863TIP3   OH214545   0.254   0.442   4.169
 4863TIP3    H114546   0.300   0.360   4.186
 4863TIP3    H214547   0.169   0.415   4.134
 4864TIP3   OH214548   2.960   0.369   6.166
 4864TIP3    H114549   2.943   0.427   6.092
 4864TIP3    H214550   3.030   0.413   6.215
 4865TIP3   OH214551   6.836   5.662   6.235
 4865TIP3    H114552   6.748   5.701   6.235
 4865TIP3    H214553   6.888   5.721   6.289
 4866TIP3   OH214554   6.709   3.531   1.138
 4866TIP3    H114555   6.687   3.595   1.070
 4866TIP3    H214556   6.805   3.528   1.139
 4867TIP3   OH214557   1.343   7.749   5.876
 4867TIP3    H114558   1.285   7.717   5.946
 4867TIP3    H214559   1.399   7.674   5.856
 4868TIP3   OH214560   2.784   7.767   1.078
 4868TIP3    H114561   2.785   7.772   1.173
 4868TIP3    H214562   2.868   7.730   1.054
 4869TIP3   OH214563   7.148   4.524   0.333
 4869TIP3    H114564   7.202   4.452   0.300
 4869TIP3    H214565   7.123   4.573   0.254
 4870TIP3   OH214566   5.759   4.796   4.995
 4870TIP3    H114567   5.700   4.723   4.975
 4870TIP3    H214568   5.701   4.871   5.006
 4871TIP3   OH214569   5.840   4.986   1.441
 4871TIP3    H114570   5.920   5.037   1.448
 4871TIP3    H214571   5.857   4.923   1.371
 4872TIP3   OH214572   5.150   4.351   4.037
 4872TIP3    H114573   5.077   4.400   4.075
 4872TIP3    H214574   5.218   4.354   4.103
 4873TIP3   OH214575   3.884   3.056   6.356
 4873TIP3    H114576   3.920   3.102   6.281
 4873TIP3    H214577   3.818   2.997   6.318
 4874TIP3   OH214578   3.783   7.285   1.838
 4874TIP3    H114579   3.833   7.242   1.769
 4874TIP3    H214580   3.739   7.358   1.794
 4875TIP3   OH214581   0.608   4.490   4.233
 4875TIP3    H114582   0.560   4.496   4.316
 4875TIP3    H214583   0.541   4.502   4.166
 4876TIP3   OH214584   7.580   6.514   3.494
 4876TIP3    H114585   7.583   6.523   3.399
 4876TIP3    H214586   7.601   6.422   3.510
 4877TIP3   OH214587   4.324   1.704   3.442
 4877TIP3    H114588   4.257   1.735   3.381
 4877TIP3    H214589   4.352   1.783   3.488
 4878TIP3   OH214590   5.640   3.144   0.715
 4878TIP3    H114591   5.615   3.237   0.712
 4878TIP3    H214592   5.678   3.131   0.802
 4879TIP3   OH214593   1.276   2.461   2.009
 4879TIP3    H114594   1.224   2.418   2.077
 4879TIP3    H214595   1.273   2.554   2.033
 4880TIP3   OH214596   1.406   4.754   5.342
 4880TIP3    H114597   1.400   4.664   5.310
 4880TIP3    H214598   1.317   4.789   5.331
 4881TIP3   OH214599   1.410   4.163   5.401
 4881TIP3    H114600   1.437   4.204   5.319
 4881TIP3    H214601   1.480   4.182   5.463
 4882TIP3   OH214602   3.662   1.612   6.224
 4882TIP3    H114603   3.616   1.585   6.303
 4882TIP3    H214604   3.600   1.667   6.176
 4883TIP3   OH214605   3.746   6.880   4.656
 4883TIP3    H114606   3.784   6.961   4.689
 4883TIP3    H214607   3.657   6.904   4.630
 4884TIP3   OH214608   7.330   4.974   2.973
 4884TIP3    H114609   7.240   4.958   2.948
 4884TIP3    H214610   7.376   4.892   2.954
 4885TIP3   OH214611   4.159   6.403   6.565
 4885TIP3    H114612   4.074   6.360   6.561
 4885TIP3    H214613   4.148   6.483   6.514
 4886TIP3   OH214614   3.160   6.171   1.767
 4886TIP3    H114615   3.074   6.129   1.765
 4886TIP3    H214616   3.141   6.265   1.763
 4887TIP3   OH214617   3.473   2.804   3.225
 4887TIP3    H114618   3.520   2.869   3.173
 4887TIP3    H214619   3.474   2.839   3.314
 4888TIP3   OH214620   7.081   2.537   3.526
 4888TIP3    H114621   7.001   2.548   3.578
 4888TIP3    H214622   7.086   2.616   3.473
 4889TIP3   OH214623   6.736   2.767   4.750
 4889TIP3    H114624   6.730   2.713   4.671
 4889TIP3    H214625   6.809   2.729   4.799
 4890TIP3   OH214626   1.376   6.664   4.818
 4890TIP3    H114627   1.443   6.725   4.788
 4890TIP3    H214628   1.361   6.606   4.743
 4891TIP3   OH214629   6.546   0.446   5.204
 4891TIP3    H114630   6.577   0.410   5.287
 4891TIP3    H214631   6.528   0.369   5.149
 4892TIP3   OH214632   4.923   5.665   2.405
 4892TIP3    H114633   4.983   5.622   2.345
 4892TIP3    H214634   4.904   5.598   2.472
 4893TIP3   OH214635   1.595   5.867   5.734
 4893TIP3    H114636   1.552   5.910   5.808
 4893TIP3    H214637   1.527   5.810   5.697
 4894TIP3   OH214638   4.898   5.163   0.686
 4894TIP3    H114639   4.805   5.163   0.709
 4894TIP3    H214640   4.928   5.075   0.708
 4895TIP3   OH214641   0.230   1.060   5.476
 4895TIP3    H114642   0.276   1.127   5.527
 4895TIP3    H214643   0.271   0.977   5.502
 4896TIP3   OH214644   7.634   5.227   6.472
 4896TIP3    H114645   7.678   5.219   6.556
 4896TIP3    H214646   7.680   5.299   6.428
 4897TIP3   OH214647   7.700   4.963   0.870
 4897TIP3    H114648   7.653   4.963   0.954
 4897TIP3    H214649   7.673   5.045   0.828
 4898TIP3   OH214650   0.997   7.603   3.507
 4898TIP3    H114651   1.029   7.531   3.561
 4898TIP3    H214652   1.055   7.603   3.430
 4899TIP3   OH214653   0.133   4.756   3.072
 4899TIP3    H114654   0.046   4.796   3.076
 4899TIP3    H214655   0.152   4.750   2.979
 4900TIP3   OH214656   1.099   2.408   1.689
 4900TIP3    H114657   1.083   2.501   1.707
 4900TIP3    H214658   1.092   2.366   1.775
 4901TIP3   OH214659   3.091   0.174   6.462
 4901TIP3    H114660   3.085   0.112   6.535
 4901TIP3    H214661   3.001   0.200   6.446
 4902TIP3   OH214662   7.368   7.730   0.066
 4902TIP3    H114663   7.390   7.823   0.064
 4902TIP3    H214664   7.353   7.711   0.159
 4903TIP3   OH214665   3.242   2.902   2.391
 4903TIP3    H114666   3.245   2.900   2.487
 4903TIP3    H214667   3.333   2.920   2.365
 4904TIP3   OH214668   5.854   2.135   1.202
 4904TIP3    H114669   5.767   2.140   1.162
 4904TIP3    H214670   5.859   2.212   1.259
 4905TIP3   OH214671   5.660   5.471   2.550
 4905TIP3    H114672   5.590   5.531   2.524
 4905TIP3    H214673   5.614   5.394   2.583
 4906TIP3   OH214674   2.900   1.879   4.842
 4906TIP3    H114675   2.858   1.829   4.772
 4906TIP3    H214676   2.827   1.917   4.891
 4907TIP3   OH214677   0.961   0.520   6.600
 4907TIP3    H114678   0.872   0.483   6.602
 4907TIP3    H214679   1.017   0.449   6.632
 4908TIP3   OH214680   4.874   1.878   6.033
 4908TIP3    H114681   4.916   1.956   6.068
 4908TIP3    H214682   4.946   1.817   6.018
 4909TIP3   OH214683   2.675   5.013  -0.025
 4909TIP3    H114684   2.609   5.071  -0.064
 4909TIP3    H214685   2.682   5.043   0.066
 4910TIP3   OH214686   3.540   4.284   3.844
 4910TIP3    H114687   3.456   4.306   3.884
 4910TIP3    H214688   3.521   4.273   3.751
 4911TIP3   OH214689   3.089   2.830   2.050
 4911TIP3    H114690   3.017   2.858   1.992
 4911TIP3    H214691   3.084   2.890   2.124
 4912TIP3   OH214692   3.817   7.212   2.713
 4912TIP3    H114693   3.786   7.251   2.631
 4912TIP3    H214694   3.739   7.169   2.750
 4913TIP3   OH214695   1.774   3.573   6.542
 4913TIP3    H114696   1.770   3.496   6.487
 4913TIP3    H214697   1.833   3.549   6.614
 4914TIP3   OH214698   7.873   0.477   4.945
 4914TIP3    H114699   7.828   0.461   5.027
 4914TIP3    H214700   7.807   0.518   4.889
 4915TIP3   OH214701   2.525   7.541   2.681
 4915TIP3    H114702   2.610   7.547   2.637
 4915TIP3    H214703   2.506   7.630   2.708
 4916TIP3   OH214704   4.748   7.083   2.438
 4916TIP3    H114705   4.671   7.047   2.394
 4916TIP3    H214706   4.822   7.060   2.381
 4917TIP3   OH214707   7.993   0.694   6.172
 4917TIP3    H114708   8.085   0.703   6.151
 4917TIP3    H214709   7.956   0.647   6.097
 4918TIP3   OH214710   1.339   0.391   5.282
 4918TIP3    H114711   1.376   0.306   5.256
 4918TIP3    H214712   1.247   0.372   5.301
 4919TIP3   OH214713   3.575   5.204   2.727
 4919TIP3    H114714   3.598   5.215   2.819
 4919TIP3    H214715   3.535   5.287   2.702
 4920TIP3   OH214716   2.801   6.704   5.162
 4920TIP3    H114717   2.850   6.723   5.242
 4920TIP3    H214718   2.770   6.790   5.132
 4921TIP3   OH214719   0.017   5.798   0.994
 4921TIP3    H114720  -0.061   5.844   1.026
 4921TIP3    H214721   0.089   5.834   1.046
 4922TIP3   OH214722   5.814   4.584   1.499
 4922TIP3    H114723   5.872   4.570   1.574
 4922TIP3    H214724   5.851   4.529   1.430
 4923TIP3   OH214725   5.388   0.920   6.134
 4923TIP3    H114726   5.305   0.877   6.157
 4923TIP3    H214727   5.395   0.909   6.040
 4924TIP3   OH214728   0.625   5.141   2.651
 4924TIP3    H114729   0.607   5.174   2.564
 4924TIP3    H214730   0.715   5.110   2.648
 4925TIP3   OH214731   6.200   6.714   3.016
 4925TIP3    H114732   6.199   6.806   2.987
 4925TIP3    H214733   6.235   6.666   2.941
 4926TIP3   OH214734   2.573   5.444   0.878
 4926TIP3    H114735   2.631   5.372   0.851
 4926TIP3    H214736   2.603   5.467   0.966
 4927TIP3   OH214737   6.687   4.765   4.560
 4927TIP3    H114738   6.664   4.799   4.473
 4927TIP3    H214739   6.775   4.729   4.548
 4928TIP3   OH214740   4.301   5.970   5.794
 4928TIP3    H114741   4.272   6.060   5.775
 4928TIP3    H214742   4.296   5.963   5.889
 4929TIP3   OH214743   1.664   5.638   6.770
 4929TIP3    H114744   1.705   5.589   6.699
 4929TIP3    H214745   1.661   5.576   6.843
 4930TIP3   OH214746   2.353   5.864   4.064
 4930TIP3    H114747   2.334   5.781   4.109
 4930TIP3    H214748   2.317   5.853   3.976
 4931TIP3   OH214749   4.138   7.763   3.472
 4931TIP3    H114750   4.184   7.698   3.418
 4931TIP3    H214751   4.055   7.720   3.495
 4932TIP3   OH214752   4.957   5.643   2.825
 4932TIP3    H114753   4.930   5.579   2.892
 4932TIP3    H214754   4.991   5.589   2.754
 4933TIP3   OH214755   4.640   5.972   3.092
 4933TIP3    H114756   4.637   5.900   3.155
 4933TIP3    H214757   4.548   5.991   3.072
 4934TIP3   OH214758   3.442   0.539   4.780
 4934TIP3    H114759   3.511   0.472   4.777
 4934TIP3    H214760   3.469   0.598   4.850
 4935TIP3   OH214761   1.594   3.390   5.161
 4935TIP3    H114762   1.632   3.474   5.188
 4935TIP3    H214763   1.663   3.326   5.179
 4936TIP3   OH214764   8.067   2.219   3.734
 4936TIP3    H114765   8.033   2.251   3.818
 4936TIP3    H214766   8.162   2.222   3.745
 4937TIP3   OH214767   8.179   4.359   1.665
 4937TIP3    H114768   8.252   4.388   1.720
 4937TIP3    H214769   8.138   4.441   1.636
 4938TIP3   OH214770   0.111   0.900   3.975
 4938TIP3    H114771   0.058   0.839   3.923
 4938TIP3    H214772   0.068   0.903   4.060
 4939TIP3   OH214773   3.413   3.396   1.655
 4939TIP3    H114774   3.426   3.489   1.632
 4939TIP3    H214775   3.478   3.379   1.723
 4940TIP3   OH214776   6.777   7.309   0.863
 4940TIP3    H114777   6.837   7.381   0.841
 4940TIP3    H214778   6.768   7.260   0.781
 4941TIP3   OH214779   0.769   4.878   5.543
 4941TIP3    H114780   0.694   4.826   5.571
 4941TIP3    H214781   0.751   4.966   5.576
 4942TIP3   OH214782   0.196   7.555   4.384
 4942TIP3    H114783   0.189   7.644   4.417
 4942TIP3    H214784   0.134   7.552   4.311
 4943TIP3   OH214785   4.322   2.999   2.460
 4943TIP3    H114786   4.306   3.073   2.519
 4943TIP3    H214787   4.349   3.040   2.378
 4944TIP3   OH214788   1.245   2.067   6.344
 4944TIP3    H114789   1.244   2.155   6.382
 4944TIP3    H214790   1.153   2.044   6.335
 4945TIP3   OH214791   0.154   6.247   4.892
 4945TIP3    H114792   0.100   6.251   4.971
 4945TIP3    H214793   0.128   6.324   4.841
 4946TIP3   OH214794   7.114   7.515   1.241
 4946TIP3    H114795   7.192   7.465   1.217
 4946TIP3    H214796   7.107   7.504   1.335
 4947TIP3   OH214797   3.718   2.581   6.652
 4947TIP3    H114798   3.672   2.660   6.623
 4947TIP3    H214799   3.811   2.600   6.635
 4948TIP3   OH214800   3.621   7.588   0.753
 4948TIP3    H114801   3.601   7.681   0.759
 4948TIP3    H214802   3.617   7.568   0.660
 4949TIP3   OH214803   2.754   0.007   6.170
 4949TIP3    H114804   2.744   0.099   6.194
 4949TIP3    H214805   2.694  -0.005   6.096
 4950TIP3   OH214806   4.802   3.944   4.550
 4950TIP3    H114807   4.887   3.975   4.581
 4950TIP3    H214808   4.804   3.958   4.455
 4951TIP3   OH214809   6.392   4.258   1.968
 4951TIP3    H114810   6.411   4.292   2.055
 4951TIP3    H214811   6.443   4.313   1.909
 4952TIP3   OH214812   3.939   0.103   4.203
 4952TIP3    H114813   3.921   0.070   4.115
 4952TIP3    H214814   3.876   0.056   4.259
 4953TIP3   OH214815   2.512   4.432   4.532
 4953TIP3    H114816   2.436   4.378   4.507
 4953TIP3    H214817   2.473   4.510   4.572
 4954TIP3   OH214818   6.003   0.737   3.470
 4954TIP3    H114819   6.012   0.780   3.385
 4954TIP3    H214820   6.022   0.805   3.534
 4955TIP3   OH214821   4.381   1.381   2.110
 4955TIP3    H114822   4.412   1.301   2.068
 4955TIP3    H214823   4.320   1.420   2.047
 4956TIP3   OH214824   7.656   1.560   4.596
 4956TIP3    H114825   7.702   1.490   4.549
 4956TIP3    H214826   7.601   1.514   4.660
 4957TIP3   OH214827   3.160   3.145   3.898
 4957TIP3    H114828   3.252   3.159   3.918
 4957TIP3    H214829   3.151   3.171   3.806
 4958TIP3   OH214830   5.504   4.991   0.349
 4958TIP3    H114831   5.485   4.899   0.329
 4958TIP3    H214832   5.509   5.034   0.263
 4959TIP3   OH214833   2.120   2.453   1.109
 4959TIP3    H114834   2.053   2.414   1.165
 4959TIP3    H214835   2.142   2.536   1.152
 4960TIP3   OH214836   0.618   3.252   5.746
 4960TIP3    H114837   0.707   3.221   5.765
 4960TIP3    H214838   0.632   3.328   5.688
 4961TIP3   OH214839   6.894   7.053   5.633
 4961TIP3    H114840   6.923   7.030   5.545
 4961TIP3    H214841   6.798   7.049   5.628
 4962TIP3   OH214842   1.942   4.379   6.509
 4962TIP3    H114843   2.018   4.378   6.566
 4962TIP3    H214844   1.972   4.338   6.427
 4963TIP3   OH214845   5.972   5.030   0.657
 4963TIP3    H114846   5.975   4.995   0.568
 4963TIP3    H214847   6.045   4.988   0.702
 4964TIP3   OH214848   6.065   6.067   0.707
 4964TIP3    H114849   6.031   6.007   0.773
 4964TIP3    H214850   6.132   6.119   0.753
 4965TIP3   OH214851   6.967   7.232   1.677
 4965TIP3    H114852   6.983   7.296   1.745
 4965TIP3    H214853   6.972   7.282   1.595
 4966TIP3   OH214854   3.882   7.764   5.608
 4966TIP3    H114855   3.896   7.849   5.650
 4966TIP3    H214856   3.933   7.769   5.527
 4967TIP3   OH214857   7.750   1.593   4.175
 4967TIP3    H114858   7.748   1.681   4.213
 4967TIP3    H214859   7.811   1.544   4.230
 4968TIP3   OH214860   1.274   5.505   1.328
 4968TIP3    H114861   1.258   5.481   1.237
 4968TIP3    H214862   1.364   5.479   1.344
 4969TIP3   OH214863   3.135   5.655   4.107
 4969TIP3    H114864   3.059   5.675   4.053
 4969TIP3    H214865   3.099   5.625   4.190
 4970TIP3   OH214866   1.464   0.341   4.595
 4970TIP3    H114867   1.420   0.359   4.679
 4970TIP3    H214868   1.412   0.390   4.531
 4971TIP3   OH214869   3.180   5.674   4.458
 4971TIP3    H114870   3.207   5.759   4.493
 4971TIP3    H214871   3.260   5.635   4.424
 4972TIP3   OH214872   0.474   5.553   1.943
 4972TIP3    H114873   0.466   5.632   1.997
 4972TIP3    H214874   0.384   5.528   1.922
 4973TIP3   OH214875   0.139   2.639   4.922
 4973TIP3    H114876   0.131   2.568   4.859
 4973TIP3    H214877   0.131   2.597   5.008
 4974TIP3   OH214878   1.516   2.734   2.912
 4974TIP3    H114879   1.507   2.829   2.912
 4974TIP3    H214880   1.534   2.711   3.003
 4975TIP3   OH214881   6.608   3.725   2.767
 4975TIP3    H114882   6.643   3.811   2.791
 4975TIP3    H214883   6.569   3.738   2.681
 4976TIP3   OH214884   0.553   0.476   2.407
 4976TIP3    H114885   0.543   0.571   2.395
 4976TIP3    H214886   0.600   0.447   2.329
 4977TIP3   OH214887   4.546   6.854   1.996
 4977TIP3    H114888   4.530   6.760   1.984
 4977TIP3    H214889   4.507   6.895   1.918
 4978TIP3   OH214890   1.365   4.016   6.360
 4978TIP3    H114891   1.309   4.085   6.326
 4978TIP3    H214892   1.388   4.045   6.449
 4979TIP3   OH214893   0.922   5.144   2.665
 4979TIP3    H114894   0.996   5.127   2.723
 4979TIP3    H214895   0.941   5.092   2.586
 4980TIP3   OH214896   6.201   5.457   5.180
 4980TIP3    H114897   6.188   5.409   5.098
 4980TIP3    H214898   6.294   5.478   5.182
 4981TIP3   OH214899   3.360   7.255   6.042
 4981TIP3    H114900   3.278   7.222   6.078
 4981TIP3    H214901   3.370   7.342   6.079
 4982TIP3   OH214902   5.164   3.912   0.533
 4982TIP3    H114903   5.126   3.981   0.586
 4982TIP3    H214904   5.233   3.956   0.483
 4983TIP3   OH214905   1.938   6.142   6.384
 4983TIP3    H114906   1.905   6.179   6.303
 4983TIP3    H214907   2.012   6.087   6.358
 4984TIP3   OH214908   7.223   3.333   6.239
 4984TIP3    H114909   7.196   3.242   6.240
 4984TIP3    H214910   7.316   3.331   6.216
 4985TIP3   OH214911   5.465   0.298   4.791
 4985TIP3    H114912   5.545   0.342   4.761
 4985TIP3    H214913   5.494   0.243   4.863
 4986TIP3   OH214914   0.323   2.923   2.978
 4986TIP3    H114915   0.278   2.941   2.895
 4986TIP3    H214916   0.258   2.876   3.030
 4987TIP3   OH214917   1.851   5.280   1.518
 4987TIP3    H114918   1.773   5.261   1.570
 4987TIP3    H214919   1.878   5.195   1.483
 4988TIP3   OH214920   7.612   2.354   1.538
 4988TIP3    H114921   7.624   2.372   1.444
 4988TIP3    H214922   7.616   2.440   1.580
 4989TIP3   OH214923   2.986   7.504   5.151
 4989TIP3    H114924   3.072   7.526   5.115
 4989TIP3    H214925   2.947   7.446   5.087
 4990TIP3   OH214926   0.381   2.846   1.990
 4990TIP3    H114927   0.422   2.823   1.907
 4990TIP3    H214928   0.373   2.762   2.036
 4991TIP3   OH214929   3.637   1.304   0.248
 4991TIP3    H114930   3.715   1.298   0.302
 4991TIP3    H214931   3.583   1.371   0.291
 4992TIP3   OH214932   7.646   6.763   5.872
 4992TIP3    H114933   7.725   6.818   5.863
 4992TIP3    H214934   7.665   6.686   5.819
 4993TIP3   OH214935   3.529   7.387   5.388
 4993TIP3    H114936   3.538   7.380   5.293
 4993TIP3    H214937   3.585   7.460   5.412
 4994TIP3   OH214938   2.885   3.879   6.320
 4994TIP3    H114939   2.821   3.935   6.364
 4994TIP3    H214940   2.833   3.827   6.259
 4995TIP3   OH214941   2.689   3.810   4.908
 4995TIP3    H114942   2.630   3.813   4.832
 4995TIP3    H214943   2.776   3.821   4.870
 4996TIP3   OH214944   4.535   2.003   5.650
 4996TIP3    H114945   4.574   1.979   5.734
 4996TIP3    H214946   4.608   2.006   5.589
 4997TIP3   OH214947   1.516   0.548   1.000
 4997TIP3    H114948   1.441   0.564   1.057
 4997TIP3    H214949   1.562   0.475   1.041
 4998TIP3   OH214950   2.562   3.551   3.909
 4998TIP3    H114951   2.576   3.639   3.943
 4998TIP3    H214952   2.572   3.560   3.814
 4999TIP3   OH214953   4.768   4.878   1.230
 4999TIP3    H114954   4.767   4.951   1.168
 4999TIP3    H214955   4.841   4.897   1.289
 5000TIP3   OH214956   4.793   6.811   5.516
 5000TIP3    H114957   4.786   6.899   5.477
 5000TIP3    H214958   4.831   6.757   5.447
 5001TIP3   OH214959   7.567   0.473   4.726
 5001TIP3    H114960   7.589   0.556   4.682
 5001TIP3    H214961   7.562   0.497   4.819
 5002TIP3   OH214962   2.710   3.450   6.060
 5002TIP3    H114963   2.777   3.413   6.118
 5002TIP3    H214964   2.736   3.424   5.972
 5003TIP3   OH214965   3.457   1.247   2.985
 5003TIP3    H114966   3.489   1.231   2.896
 5003TIP3    H214967   3.533   1.233   3.041
 5004TIP3   OH214968   2.711   6.646   3.668
 5004TIP3    H114969   2.802   6.630   3.690
 5004TIP3    H214970   2.668   6.659   3.753
 5005TIP3   OH214971   2.204   5.730   0.208
 5005TIP3    H114972   2.258   5.666   0.161
 5005TIP3    H214973   2.235   5.725   0.299
 5006TIP3   OH214974   6.565   1.480   6.756
 5006TIP3    H114975   6.566   1.451   6.664
 5006TIP3    H214976   6.472   1.490   6.777
 5007TIP3   OH214977   2.786   0.065   2.355
 5007TIP3    H114978   2.873   0.102   2.339
 5007TIP3    H214979   2.791   0.032   2.445
 5008TIP3   OH214980   1.438   7.006   3.242
 5008TIP3    H114981   1.517   7.012   3.187
 5008TIP3    H214982   1.392   7.088   3.226
 5009TIP3   OH214983   4.918   3.020   3.546
 5009TIP3    H114984   4.825   3.029   3.566
 5009TIP3    H214985   4.920   3.008   3.451
 5010TIP3   OH214986   0.377   0.357   4.564
 5010TIP3    H114987   0.445   0.397   4.619
 5010TIP3    H214988   0.425   0.299   4.505
 5011TIP3   OH214989   4.948   4.497   4.136
 5011TIP3    H114990   4.874   4.544   4.096
 5011TIP3    H214991   4.948   4.526   4.227
 5012TIP3   OH214992   7.120   7.060   2.047
 5012TIP3    H114993   7.166   7.138   2.078
 5012TIP3    H214994   7.146   6.990   2.107
 5013TIP3   OH214995   1.933   0.902   3.891
 5013TIP3    H114996   1.883   0.884   3.811
 5013TIP3    H214997   1.978   0.820   3.910
 5014TIP3   OH214998   0.134   0.440   5.882
 5014TIP3    H114999   0.041   0.460   5.880
 5014TIP3    H215000   0.176   0.525   5.897
 5015TIP3   OH215001   1.825   1.864   3.751
 5015TIP3    H115002   1.858   1.924   3.684
 5015TIP3    H215003   1.864   1.779   3.728
 5016TIP3   OH215004   7.925   6.756   3.450
 5016TIP3    H115005   8.005   6.785   3.406
 5016TIP3    H215006   7.865   6.831   3.443
 5017TIP3   OH215007   0.917   6.701   0.753
 5017TIP3    H115008   0.894   6.658   0.671
 5017TIP3    H215009   0.841   6.688   0.810
 5018TIP3   OH215010   7.939   1.994   5.556
 5018TIP3    H115011   7.967   1.982   5.647
 5018TIP3    H215012   7.902   1.909   5.531
 5019TIP3   OH215013   2.127   3.609   6.131
 5019TIP3    H115014   2.188   3.681   6.141
 5019TIP3    H215015   2.182   3.531   6.130
 5020TIP3   OH215016   5.673   2.526   3.560
 5020TIP3    H115017   5.646   2.600   3.505
 5020TIP3    H215018   5.725   2.470   3.501
 5021TIP3   OH215019   5.995   4.924   6.124
 5021TIP3    H115020   6.064   4.902   6.061
 5021TIP3    H215021   5.923   4.959   6.071
 5022TIP3   OH215022   4.944   3.079   0.546
 5022TIP3    H115023   4.972   3.122   0.465
 5022TIP3    H215024   4.947   3.149   0.612
 5023TIP3   OH215025   4.552   2.933   3.084
 5023TIP3    H115026   4.533   3.007   3.025
 5023TIP3    H215027   4.508   2.955   3.166
 5024TIP3   OH215028   2.003   1.474   4.804
 5024TIP3    H115029   2.076   1.422   4.773
 5024TIP3    H215030   1.935   1.461   4.738
 5025TIP3   OH215031   2.630   4.862   0.697
 5025TIP3    H115032   2.693   4.810   0.748
 5025TIP3    H215033   2.595   4.925   0.760
 5026TIP3   OH215034   5.382   4.601   2.035
 5026TIP3    H115035   5.355   4.678   2.085
 5026TIP3    H215036   5.453   4.633   1.980
 5027TIP3   OH215037   2.102   5.963   3.303
 5027TIP3    H115038   2.127   5.910   3.379
 5027TIP3    H215039   2.029   6.016   3.333
 5028TIP3   OH215040   4.418   4.683   4.803
 5028TIP3    H115041   4.369   4.764   4.793
 5028TIP3    H215042   4.442   4.657   4.713
 5029TIP3   OH215043   8.037   5.552   4.997
 5029TIP3    H115044   8.009   5.627   4.945
 5029TIP3    H215045   8.132   5.561   5.003
 5030TIP3   OH215046   2.559   0.407   4.531
 5030TIP3    H115047   2.591   0.412   4.621
 5030TIP3    H215048   2.633   0.436   4.478
 5031TIP3   OH215049   3.194   1.209   4.545
 5031TIP3    H115050   3.217   1.291   4.588
 5031TIP3    H215051   3.139   1.164   4.609
 5032TIP3   OH215052   2.317   2.234   4.052
 5032TIP3    H115053   2.412   2.232   4.067
 5032TIP3    H215054   2.288   2.313   4.096
 5033TIP3   OH215055   7.061   4.752  -0.041
 5033TIP3    H115056   7.045   4.662  -0.013
 5033TIP3    H215057   7.077   4.800   0.041
 5034TIP3   OH215058   5.952   2.723   2.310
 5034TIP3    H115059   5.999   2.663   2.253
 5034TIP3    H215060   5.864   2.728   2.273
 5035TIP3   OH215061   2.244   6.629   0.337
 5035TIP3    H115062   2.249   6.722   0.361
 5035TIP3    H215063   2.172   6.625   0.274
 5036TIP3   OH215064   7.703   4.073   6.407
 5036TIP3    H115065   7.697   4.059   6.312
 5036TIP3    H215066   7.706   4.168   6.417
 5037TIP3   OH215067   7.558   2.406   6.287
 5037TIP3    H115068   7.501   2.364   6.352
 5037TIP3    H215069   7.626   2.448   6.339
 5038TIP3   OH215070   2.865   1.411   3.910
 5038TIP3    H115071   2.938   1.351   3.924
 5038TIP3    H215072   2.803   1.392   3.981
 5039TIP3   OH215073   3.028   6.682   4.810
 5039TIP3    H115074   3.030   6.613   4.876
 5039TIP3    H215075   3.032   6.764   4.861
 5040TIP3   OH215076   3.291   6.589   4.630
 5040TIP3    H115077   3.200   6.571   4.654
 5040TIP3    H215078   3.343   6.532   4.686
 5041TIP3   OH215079   0.001   1.810   2.750
 5041TIP3    H115080   0.094   1.826   2.761
 5041TIP3    H215081  -0.040   1.852   2.826
 5042TIP3   OH215082   2.903   7.222   3.809
 5042TIP3    H115083   2.869   7.157   3.870
 5042TIP3    H215084   2.993   7.236   3.837
 5043TIP3   OH215085   2.861   6.282   1.248
 5043TIP3    H115086   2.839   6.367   1.287
 5043TIP3    H215087   2.943   6.256   1.292
 5044TIP3   OH215088   0.250   4.855   1.005
 5044TIP3    H115089   0.328   4.898   1.042
 5044TIP3    H215090   0.199   4.828   1.082
 5045TIP3   OH215091   5.390   6.787   2.288
 5045TIP3    H115092   5.409   6.767   2.197
 5045TIP3    H215093   5.417   6.709   2.336
 5046TIP3   OH215094   6.335   7.082   6.429
 5046TIP3    H115095   6.301   7.001   6.390
 5046TIP3    H215096   6.269   7.148   6.408
 5047TIP3   OH215097   5.767   4.896   1.981
 5047TIP3    H115098   5.776   4.851   1.897
 5047TIP3    H215099   5.673   4.913   1.990
 5048TIP3   OH215100   2.460   0.753   1.233
 5048TIP3    H115101   2.458   0.712   1.319
 5048TIP3    H215102   2.552   0.773   1.217
 5049TIP3   OH215103   1.812   3.977   2.055
 5049TIP3    H115104   1.780   3.990   1.965
 5049TIP3    H215105   1.829   3.883   2.062
 5050TIP3   OH215106   7.402   4.442   4.351
 5050TIP3    H115107   7.365   4.357   4.376
 5050TIP3    H215108   7.330   4.503   4.366
 5051TIP3   OH215109   3.613   5.143   3.427
 5051TIP3    H115110   3.528   5.111   3.396
 5051TIP3    H215111   3.628   5.094   3.508
 5052TIP3   OH215112   0.548   2.713   1.230
 5052TIP3    H115113   0.549   2.618   1.221
 5052TIP3    H215114   0.470   2.741   1.182
 5053TIP3   OH215115   3.215   1.260   1.338
 5053TIP3    H115116   3.257   1.177   1.315
 5053TIP3    H215117   3.277   1.304   1.396
 5054TIP3   OH215118   1.611   0.549   2.716
 5054TIP3    H115119   1.582   0.473   2.665
 5054TIP3    H215120   1.541   0.564   2.779
 5055TIP3   OH215121   4.383   1.558   0.591
 5055TIP3    H115122   4.435   1.478   0.588
 5055TIP3    H215123   4.336   1.553   0.675
 5056TIP3   OH215124   0.411   2.145   1.493
 5056TIP3    H115125   0.437   2.236   1.505
 5056TIP3    H215126   0.493   2.098   1.482
 5057TIP3   OH215127   0.833   6.650   1.162
 5057TIP3    H115128   0.742   6.678   1.164
 5057TIP3    H215129   0.832   6.568   1.113
 5058TIP3   OH215130   5.176   4.309   4.855
 5058TIP3    H115131   5.228   4.354   4.788
 5058TIP3    H215132   5.085   4.320   4.826
 5059TIP3   OH215133   5.021   2.810   6.363
 5059TIP3    H115134   5.026   2.726   6.316
 5059TIP3    H215135   5.107   2.818   6.405
 5060TIP3   OH215136   0.455   3.846   3.446
 5060TIP3    H115137   0.476   3.883   3.532
 5060TIP3    H215138   0.360   3.856   3.438
 5061TIP3   OH215139   1.139   1.636   4.388
 5061TIP3    H115140   1.189   1.559   4.363
 5061TIP3    H215141   1.163   1.703   4.324
 5062TIP3   OH215142   2.118   2.754   2.985
 5062TIP3    H115143   2.145   2.741   2.894
 5062TIP3    H215144   2.189   2.717   3.037
 5063TIP3   OH215145   4.778   1.467   2.859
 5063TIP3    H115146   4.726   1.404   2.910
 5063TIP3    H215147   4.859   1.477   2.908
 5064TIP3   OH215148   0.050   5.621   1.790
 5064TIP3    H115149  -0.026   5.602   1.737
 5064TIP3    H215150   0.111   5.665   1.731
 5065TIP3   OH215151   5.260   5.382   0.433
 5065TIP3    H115152   5.311   5.446   0.384
 5065TIP3    H215153   5.323   5.338   0.489
 5066TIP3   OH215154   0.635   5.728   2.725
 5066TIP3    H115155   0.672   5.816   2.721
 5066TIP3    H215156   0.698   5.679   2.778
 5067TIP3   OH215157   2.289   2.599   6.201
 5067TIP3    H115158   2.291   2.690   6.230
 5067TIP3    H215159   2.380   2.571   6.203
 5068TIP3   OH215160   2.775   0.051   3.633
 5068TIP3    H115161   2.698   0.023   3.683
 5068TIP3    H215162   2.812  -0.031   3.600
 5069TIP3   OH215163   2.809   5.309   3.272
 5069TIP3    H115164   2.782   5.227   3.313
 5069TIP3    H215165   2.777   5.377   3.332
 5070TIP3   OH215166   4.063   7.349   5.564
 5070TIP3    H115167   4.083   7.389   5.480
 5070TIP3    H215168   4.000   7.409   5.605
 5071TIP3   OH215169   0.919   5.919   4.929
 5071TIP3    H115170   0.907   6.004   4.887
 5071TIP3    H215171   1.001   5.885   4.892
 5072TIP3   OH215172   4.109   4.631   0.349
 5072TIP3    H115173   4.039   4.581   0.307
 5072TIP3    H215174   4.149   4.570   0.411
 5073TIP3   OH215175   5.478   5.264   5.814
 5073TIP3    H115176   5.513   5.191   5.763
 5073TIP3    H215177   5.423   5.312   5.752
 5074TIP3   OH215178   3.802   6.216   0.675
 5074TIP3    H115179   3.816   6.130   0.715
 5074TIP3    H215180   3.711   6.216   0.648
 5075TIP3   OH215181   4.507   4.778   1.242
 5075TIP3    H115182   4.599   4.805   1.242
 5075TIP3    H215183   4.505   4.697   1.191
 5076TIP3   OH215184   1.835   5.678   6.398
 5076TIP3    H115185   1.744   5.666   6.372
 5076TIP3    H215186   1.852   5.606   6.459
 5077TIP3   OH215187   0.893   1.335   4.456
 5077TIP3    H115188   0.943   1.291   4.387
 5077TIP3    H215189   0.872   1.420   4.420
 5078TIP3   OH215190   5.942   0.343   2.453
 5078TIP3    H115191   6.032   0.320   2.432
 5078TIP3    H215192   5.899   0.258   2.469
 5079TIP3   OH215193   2.754   4.129   6.140
 5079TIP3    H115194   2.681   4.082   6.099
 5079TIP3    H215195   2.814   4.060   6.167
 5080TIP3   OH215196   7.125   0.512   5.830
 5080TIP3    H115197   7.080   0.596   5.838
 5080TIP3    H215198   7.187   0.525   5.758
 5081TIP3   OH215199   7.520   4.757   4.145
 5081TIP3    H115200   7.497   4.849   4.153
 5081TIP3    H215201   7.446   4.718   4.097
 5082TIP3   OH215202   5.404   2.015   4.395
 5082TIP3    H115203   5.467   1.943   4.396
 5082TIP3    H215204   5.458   2.094   4.395
 5083TIP3   OH215205   1.311   5.576   0.562
 5083TIP3    H115206   1.362   5.653   0.585
 5083TIP3    H215207   1.283   5.540   0.646
 5084TIP3   OH215208   5.628   3.364   3.118
 5084TIP3    H115209   5.659   3.428   3.182
 5084TIP3    H215210   5.565   3.310   3.166
 5085TIP3   OH215211   0.902   4.752   1.149
 5085TIP3    H115212   0.985   4.784   1.112
 5085TIP3    H215213   0.907   4.777   1.242
 5086TIP3   OH215214   1.320   4.507   2.503
 5086TIP3    H115215   1.328   4.561   2.424
 5086TIP3    H215216   1.372   4.429   2.484
 5087TIP3   OH215217   6.244   6.003   6.693
 5087TIP3    H115218   6.159   5.990   6.734
 5087TIP3    H215219   6.276   6.086   6.728
 5088TIP3   OH215220   3.983   1.683   1.584
 5088TIP3    H115221   3.995   1.719   1.672
 5088TIP3    H215222   4.044   1.610   1.579
 5089TIP3   OH215223   0.149   6.907   2.767
 5089TIP3    H115224   0.178   6.933   2.680
 5089TIP3    H215225   0.105   6.823   2.754
 5090TIP3   OH215226   5.333   3.315   0.461
 5090TIP3    H115227   5.365   3.398   0.425
 5090TIP3    H215228   5.410   3.257   0.458
 5091TIP3   OH215229   7.648   2.312   3.923
 5091TIP3    H115230   7.558   2.328   3.951
 5091TIP3    H215231   7.650   2.219   3.900
 5092TIP3   OH215232   4.579   2.283   5.706
 5092TIP3    H115233   4.668   2.257   5.727
 5092TIP3    H215234   4.528   2.202   5.716
 5093TIP3   OH215235   6.331   5.254   0.909
 5093TIP3    H115236   6.377   5.271   0.991
 5093TIP3    H215237   6.238   5.249   0.934
 5094TIP3   OH215238   2.313   4.374   6.160
 5094TIP3    H115239   2.271   4.395   6.076
 5094TIP3    H215240   2.407   4.374   6.140
 5095TIP3   OH215241   1.776   2.077   4.440
 5095TIP3    H115242   1.739   2.079   4.528
 5095TIP3    H215243   1.809   1.988   4.429
 5096TIP3   OH215244   2.761   6.983   6.664
 5096TIP3    H115245   2.733   6.976   6.755
 5096TIP3    H215246   2.759   7.077   6.645
 5097TIP3   OH215247   7.859   3.679   0.450
 5097TIP3    H115248   7.767   3.663   0.470
 5097TIP3    H215249   7.903   3.671   0.534
 5098TIP3   OH215250   1.682   7.743   4.571
 5098TIP3    H115251   1.690   7.810   4.503
 5098TIP3    H215252   1.602   7.694   4.547
 5099TIP3   OH215253   8.257   6.442   6.737
 5099TIP3    H115254   8.289   6.518   6.687
 5099TIP3    H215255   8.323   6.374   6.721
 5100TIP3   OH215256   2.191   6.735   1.833
 5100TIP3    H115257   2.192   6.739   1.738
 5100TIP3    H215258   2.115   6.680   1.854
 5101TIP3   OH215259   3.217   7.069   0.795
 5101TIP3    H115260   3.124   7.068   0.816
 5101TIP3    H215261   3.224   7.132   0.723
 5102TIP3   OH215262   7.497   7.499   3.783
 5102TIP3    H115263   7.477   7.511   3.690
 5102TIP3    H215264   7.517   7.406   3.792
 5103TIP3   OH215265   5.144   1.502   5.745
 5103TIP3    H115266   5.206   1.574   5.747
 5103TIP3    H215267   5.081   1.522   5.815
 5104TIP3   OH215268   5.885   3.295   0.851
 5104TIP3    H115269   5.904   3.370   0.908
 5104TIP3    H215270   5.866   3.334   0.766
 5105TIP3   OH215271   1.678   1.811   5.926
 5105TIP3    H115272   1.647   1.723   5.946
 5105TIP3    H215273   1.767   1.799   5.895
 5106TIP3   OH215274   4.018   2.903   4.672
 5106TIP3    H115275   3.968   2.979   4.641
 5106TIP3    H215276   3.963   2.865   4.741
 5107TIP3   OH215277   6.948   1.347   6.340
 5107TIP3    H115278   6.925   1.331   6.249
 5107TIP3    H215279   6.889   1.291   6.390
 5108TIP3   OH215280   4.200   7.467   2.761
 5108TIP3    H115281   4.121   7.461   2.816
 5108TIP3    H215282   4.190   7.550   2.714
 5109TIP3   OH215283   4.127   7.573   0.321
 5109TIP3    H115284   4.065   7.550   0.390
 5109TIP3    H215285   4.195   7.505   0.326
 5110TIP3   OH215286   7.005   0.155   1.779
 5110TIP3    H115287   7.000   0.153   1.683
 5110TIP3    H215288   6.915   0.136   1.808
 5111TIP3   OH215289   1.090   2.177   6.691
 5111TIP3    H115290   1.010   2.150   6.646
 5111TIP3    H215291   1.152   2.198   6.620
 5112TIP3   OH215292   0.443   7.423   4.127
 5112TIP3    H115293   0.422   7.487   4.194
 5112TIP3    H215294   0.496   7.470   4.063
 5113TIP3   OH215295   5.634   4.651   0.434
 5113TIP3    H115296   5.596   4.685   0.353
 5113TIP3    H215297   5.562   4.607   0.478
 5114TIP3   OH215298   6.760   5.963   4.101
 5114TIP3    H115299   6.776   6.056   4.085
 5114TIP3    H215300   6.727   5.929   4.018
 5115TIP3   OH215301   6.259   3.134   0.096
 5115TIP3    H115302   6.252   3.230   0.101
 5115TIP3    H215303   6.180   3.102   0.138
 5116TIP3   OH215304   8.210   7.173   2.569
 5116TIP3    H115305   8.191   7.233   2.641
 5116TIP3    H215306   8.278   7.217   2.518
 5117TIP3   OH215307   5.873   7.541   0.102
 5117TIP3    H115308   5.863   7.461   0.050
 5117TIP3    H215309   5.950   7.525   0.156
 5118TIP3   OH215310   4.924   4.889   0.936
 5118TIP3    H115311   4.839   4.870   0.897
 5118TIP3    H215312   4.908   4.966   0.990
 5119TIP3   OH215313   8.237   3.651   1.566
 5119TIP3    H115314   8.146   3.668   1.593
 5119TIP3    H215315   8.290   3.708   1.621
 5120TIP3   OH215316   0.432   6.405   3.559
 5120TIP3    H115317   0.414   6.393   3.652
 5120TIP3    H215318   0.383   6.483   3.534
 5121TIP3   OH215319   3.305   0.352   4.359
 5121TIP3    H115320   3.224   0.315   4.324
 5121TIP3    H215321   3.314   0.311   4.445
 5122TIP3   OH215322   0.316   0.094   3.910
 5122TIP3    H115323   0.368   0.085   3.989
 5122TIP3    H215324   0.357   0.167   3.862
 5123TIP3   OH215325   2.829   4.234   4.242
 5123TIP3    H115326   2.895   4.251   4.174
 5123TIP3    H215327   2.763   4.302   4.229
 5124TIP3   OH215328   0.163   0.729   3.589
 5124TIP3    H115329   0.209   0.660   3.541
 5124TIP3    H215330   0.219   0.747   3.665
 5125TIP3   OH215331   8.152   7.618   0.077
 5125TIP3    H115332   8.162   7.636  -0.017
 5125TIP3    H215333   8.162   7.703   0.119
 5126TIP3   OH215334   0.669   1.985   4.934
 5126TIP3    H115335   0.584   1.979   4.890
 5126TIP3    H215336   0.732   1.997   4.863
 5127TIP3   OH215337   6.562   2.911   1.533
 5127TIP3    H115338   6.556   2.929   1.626
 5127TIP3    H215339   6.471   2.914   1.502
 5128TIP3   OH215340   3.763   3.749   5.169
 5128TIP3    H115341   3.733   3.688   5.101
 5128TIP3    H215342   3.859   3.743   5.165
 5129TIP3   OH215343   2.662   5.874   6.159
 5129TIP3    H115344   2.699   5.943   6.214
 5129TIP3    H215345   2.735   5.847   6.102
 5130TIP3   OH215346   1.687   4.804   3.491
 5130TIP3    H115347   1.759   4.831   3.434
 5130TIP3    H215348   1.671   4.881   3.547
 5131TIP3   OH215349   0.787   2.332   1.271
 5131TIP3    H115350   0.868   2.363   1.310
 5131TIP3    H215351   0.791   2.236   1.280
 5132TIP3   OH215352   6.733   6.209   0.503
 5132TIP3    H115353   6.642   6.199   0.476
 5132TIP3    H215354   6.753   6.129   0.552
 5133TIP3   OH215355   6.375   4.817   2.222
 5133TIP3    H115356   6.345   4.901   2.187
 5133TIP3    H215357   6.331   4.811   2.307
 5134TIP3   OH215358   8.069   6.190   0.347
 5134TIP3    H115359   8.091   6.110   0.395
 5134TIP3    H215360   8.137   6.198   0.281
 5135TIP3   OH215361   3.168   6.059   5.367
 5135TIP3    H115362   3.127   6.121   5.308
 5135TIP3    H215363   3.175   5.978   5.316
 5136TIP3   OH215364   3.231   0.725   0.426
 5136TIP3    H115365   3.318   0.713   0.464
 5136TIP3    H215366   3.246   0.777   0.348
 5137TIP3   OH215367   0.745   3.870   2.603
 5137TIP3    H115368   0.810   3.932   2.572
 5137TIP3    H215369   0.787   3.828   2.679
 5138TIP3   OH215370   1.864   0.960   5.522
 5138TIP3    H115371   1.923   0.920   5.458
 5138TIP3    H215372   1.844   0.889   5.583
 5139TIP3   OH215373   6.337   6.923   4.064
 5139TIP3    H115374   6.327   6.984   3.991
 5139TIP3    H215375   6.424   6.939   4.098
 5140TIP3   OH215376   0.626   0.693   4.724
 5140TIP3    H115377   0.601   0.744   4.801
 5140TIP3    H215378   0.640   0.605   4.758
 5141TIP3   OH215379   5.066   5.744   4.419
 5141TIP3    H115380   5.048   5.698   4.501
 5141TIP3    H215381   5.129   5.688   4.374
 5142TIP3   OH215382   4.293   0.809   3.709
 5142TIP3    H115383   4.330   0.894   3.684
 5142TIP3    H215384   4.219   0.797   3.649
 5143TIP3   OH215385   4.924   3.039   6.182
 5143TIP3    H115386   4.845   3.030   6.129
 5143TIP3    H215387   4.995   3.042   6.118
 5144TIP3   OH215388   5.069   6.903   1.944
 5144TIP3    H115389   5.091   6.830   1.886
 5144TIP3    H215390   5.146   6.959   1.943
 5145TIP3   OH215391   5.065   3.733   5.310
 5145TIP3    H115392   5.159   3.718   5.323
 5145TIP3    H215393   5.033   3.756   5.397
 5146TIP3   OH215394   5.697   5.467   5.751
 5146TIP3    H115395   5.684   5.397   5.814
 5146TIP3    H215396   5.618   5.466   5.697
 5147TIP3   OH215397   1.897   3.870   6.532
 5147TIP3    H115398   1.858   3.783   6.526
 5147TIP3    H215399   1.830   3.928   6.495
 5148TIP3   OH215400   5.103   6.820   5.435
 5148TIP3    H115401   5.028   6.764   5.415
 5148TIP3    H215402   5.105   6.825   5.530
 5149TIP3   OH215403   5.672   6.328   2.759
 5149TIP3    H115404   5.699   6.269   2.688
 5149TIP3    H215405   5.750   6.379   2.779
 5150TIP3   OH215406   5.500   6.159   0.982
 5150TIP3    H115407   5.571   6.182   1.043
 5150TIP3    H215408   5.506   6.064   0.974
 5151TIP3   OH215409   6.151   6.550   4.622
 5151TIP3    H115410   6.206   6.595   4.686
 5151TIP3    H215411   6.207   6.538   4.545
 5152TIP3   OH215412   3.424   1.545   6.612
 5152TIP3    H115413   3.410   1.619   6.672
 5152TIP3    H215414   3.353   1.552   6.548
 5153TIP3   OH215415   2.455   5.320   4.078
 5153TIP3    H115416   2.469   5.415   4.072
 5153TIP3    H215417   2.466   5.300   4.171
 5154TIP3   OH215418   2.670   0.047   1.838
 5154TIP3    H115419   2.713   0.090   1.913
 5154TIP3    H215420   2.676  -0.047   1.858
 5155TIP3   OH215421   4.384   3.445   5.993
 5155TIP3    H115422   4.408   3.495   5.916
 5155TIP3    H215423   4.306   3.489   6.028
 5156TIP3   OH215424   3.790   1.541   1.010
 5156TIP3    H115425   3.736   1.513   1.084
 5156TIP3    H215426   3.741   1.512   0.933
 5157TIP3   OH215427   6.316   3.015   3.034
 5157TIP3    H115428   6.227   2.982   3.047
 5157TIP3    H215429   6.308   3.081   2.965
 5158TIP3   OH215430   7.655   2.292   4.443
 5158TIP3    H115431   7.747   2.271   4.432
 5158TIP3    H215432   7.637   2.358   4.376
 5159TIP3   OH215433   5.083   1.615   4.074
 5159TIP3    H115434   5.000   1.585   4.112
 5159TIP3    H215435   5.105   1.547   4.010
 5160TIP3   OH215436   8.127   1.227   0.863
 5160TIP3    H115437   8.156   1.142   0.896
 5160TIP3    H215438   8.031   1.220   0.862
 5161TIP3   OH215439   6.191   7.484   6.616
 5161TIP3    H115440   6.099   7.501   6.636
 5161TIP3    H215441   6.237   7.561   6.651
 5162TIP3   OH215442   0.537   4.050   0.709
 5162TIP3    H115443   0.457   4.070   0.660
 5162TIP3    H215444   0.506   4.004   0.787
 5163TIP3   OH215445   0.853   4.764   1.660
 5163TIP3    H115446   0.823   4.677   1.688
 5163TIP3    H215447   0.875   4.810   1.741
 5164TIP3   OH215448   5.379   0.625   2.218
 5164TIP3    H115449   5.293   0.608   2.178
 5164TIP3    H215450   5.438   0.562   2.175
 5165TIP3   OH215451   3.519   5.648   1.539
 5165TIP3    H115452   3.554   5.735   1.521
 5165TIP3    H215453   3.590   5.602   1.585
 5166TIP3   OH215454   2.622   6.938   3.651
 5166TIP3    H115455   2.706   6.983   3.659
 5166TIP3    H215456   2.641   6.861   3.598
 5167TIP3   OH215457   2.114   6.833   4.429
 5167TIP3    H115458   2.181   6.897   4.449
 5167TIP3    H215459   2.069   6.817   4.512
 5168TIP3   OH215460   2.363   5.599   4.185
 5168TIP3    H115461   2.285   5.554   4.152
 5168TIP3    H215462   2.332   5.643   4.264
 5169TIP3   OH215463   2.804   0.662   6.564
 5169TIP3    H115464   2.792   0.739   6.620
 5169TIP3    H215465   2.828   0.698   6.479
 5170TIP3   OH215466   2.827   1.199   5.545
 5170TIP3    H115467   2.887   1.262   5.504
 5170TIP3    H215468   2.795   1.244   5.622
 5171TIP3   OH215469   7.196   0.934   5.686
 5171TIP3    H115470   7.221   0.865   5.625
 5171TIP3    H215471   7.241   1.012   5.653
 5172TIP3   OH215472   3.763   1.702   3.968
 5172TIP3    H115473   3.670   1.689   3.988
 5172TIP3    H215474   3.775   1.656   3.885
 5173TIP3   OH215475   3.716   7.382   0.302
 5173TIP3    H115476   3.688   7.385   0.210
 5173TIP3    H215477   3.794   7.328   0.302
 5174TIP3   OH215478   5.415   5.180   6.062
 5174TIP3    H115479   5.330   5.218   6.083
 5174TIP3    H215480   5.428   5.197   5.969
 5175TIP3   OH215481   0.122   6.644   5.521
 5175TIP3    H115482   0.065   6.701   5.573
 5175TIP3    H215483   0.204   6.641   5.571
 5176TIP3   OH215484   0.191   2.382   5.356
 5176TIP3    H115485   0.206   2.449   5.423
 5176TIP3    H215486   0.122   2.419   5.301
 5177TIP3   OH215487   0.624   3.058   5.494
 5177TIP3    H115488   0.651   3.085   5.582
 5177TIP3    H215489   0.695   3.003   5.463
 5178TIP3   OH215490   5.749   1.709   5.417
 5178TIP3    H115491   5.828   1.761   5.404
 5178TIP3    H215492   5.677   1.772   5.409
 5179TIP3   OH215493   4.245   4.905   2.321
 5179TIP3    H115494   4.183   4.861   2.263
 5179TIP3    H215495   4.304   4.951   2.261
 5180TIP3   OH215496   0.903   2.910   3.509
 5180TIP3    H115497   0.855   2.923   3.427
 5180TIP3    H215498   0.862   2.833   3.548
 5181TIP3   OH215499   5.550   4.331   3.421
 5181TIP3    H115500   5.563   4.248   3.466
 5181TIP3    H215501   5.627   4.340   3.364
 5182TIP3   OH215502   7.211   4.730   0.770
 5182TIP3    H115503   7.305   4.720   0.787
 5182TIP3    H215504   7.200   4.822   0.748
 5183TIP3   OH215505   1.784   7.321   0.122
 5183TIP3    H115506   1.740   7.342   0.040
 5183TIP3    H215507   1.766   7.228   0.136
 5184TIP3   OH215508   7.383   1.681   3.479
 5184TIP3    H115509   7.427   1.702   3.397
 5184TIP3    H215510   7.453   1.653   3.538
 5185TIP3   OH215511   6.821   4.133   6.679
 5185TIP3    H115512   6.776   4.195   6.622
 5185TIP3    H215513   6.782   4.148   6.765
 5186TIP3   OH215514   4.913   3.178   2.625
 5186TIP3    H115515   5.006   3.164   2.607
 5186TIP3    H215516   4.905   3.168   2.720
 5187TIP3   OH215517   3.595   6.027   6.649
 5187TIP3    H115518   3.597   5.993   6.559
 5187TIP3    H215519   3.521   5.983   6.690
 5188TIP3   OH215520   6.221   2.038   0.256
 5188TIP3    H115521   6.250   1.952   0.288
 5188TIP3    H215522   6.302   2.090   0.251
 5189TIP3   OH215523   0.361   1.774   3.070
 5189TIP3    H115524   0.338   1.860   3.035
 5189TIP3    H215525   0.288   1.717   3.046
 5190TIP3   OH215526   1.264   5.755   5.331
 5190TIP3    H115527   1.192   5.785   5.275
 5190TIP3    H215528   1.343   5.785   5.287
 5191TIP3   OH215529   1.532   1.052   4.885
 5191TIP3    H115530   1.501   1.098   4.808
 5191TIP3    H215531   1.452   1.023   4.929
 5192TIP3   OH215532   6.583   6.359   2.547
 5192TIP3    H115533   6.515   6.299   2.517
 5192TIP3    H215534   6.565   6.441   2.501
 5193TIP3   OH215535   0.283   6.031   2.013
 5193TIP3    H115536   0.357   6.078   1.975
 5193TIP3    H215537   0.206   6.064   1.965
 5194TIP3   OH215538   7.795   2.679   4.023
 5194TIP3    H115539   7.845   2.634   3.956
 5194TIP3    H215540   7.771   2.611   4.086
 5195TIP3   OH215541   0.262   5.979   6.650
 5195TIP3    H115542   0.340   5.925   6.661
 5195TIP3    H215543   0.252   5.990   6.556
 5196TIP3   OH215544   3.259   5.821   5.271
 5196TIP3    H115545   3.351   5.839   5.255
 5196TIP3    H215546   3.238   5.748   5.213
 5197TIP3   OH215547   6.073   5.418   0.356
 5197TIP3    H115548   6.167   5.404   0.345
 5197TIP3    H215549   6.054   5.387   0.445
 5198TIP3   OH215550   8.079   5.662   1.612
 5198TIP3    H115551   8.089   5.579   1.566
 5198TIP3    H215552   8.091   5.729   1.545
 5199TIP3   OH215553   4.249   1.516   1.887
 5199TIP3    H115554   4.157   1.538   1.872
 5199TIP3    H215555   4.298   1.591   1.854
 5200TIP3   OH215556   1.557   2.566   6.584
 5200TIP3    H115557   1.642   2.521   6.584
 5200TIP3    H215558   1.534   2.572   6.491
 5201TIP3   OH215559   5.166   7.016   1.066
 5201TIP3    H115560   5.113   6.945   1.102
 5201TIP3    H215561   5.231   6.972   1.011
 5202TIP3   OH215562   5.671   2.875   6.080
 5202TIP3    H115563   5.620   2.926   6.142
 5202TIP3    H215564   5.668   2.926   5.999
 5203TIP3   OH215565   7.094   5.200   0.117
 5203TIP3    H115566   7.152   5.124   0.111
 5203TIP3    H215567   7.095   5.223   0.210
 5204TIP3   OH215568   3.482   1.775   3.837
 5204TIP3    H115569   3.546   1.821   3.783
 5204TIP3    H215570   3.466   1.833   3.911
 5205TIP3   OH215571   7.336   7.367   2.954
 5205TIP3    H115572   7.282   7.395   3.028
 5205TIP3    H215573   7.293   7.407   2.877
 5206TIP3   OH215574   7.196   4.438   3.421
 5206TIP3    H115575   7.264   4.376   3.394
 5206TIP3    H215576   7.223   4.521   3.381
 5207TIP3   OH215577  -0.020   0.409   2.755
 5207TIP3    H115578  -0.093   0.455   2.714
 5207TIP3    H215579   0.057   0.462   2.736
 5208TIP3   OH215580   3.856   2.865   6.086
 5208TIP3    H115581   3.860   2.785   6.035
 5208TIP3    H215582   3.797   2.845   6.158
 5209TIP3   OH215583   4.089   6.643   6.433
 5209TIP3    H115584   4.174   6.677   6.405
 5209TIP3    H215585   4.026   6.707   6.399
 5210TIP3   OH215586   7.807   3.914   1.734
 5210TIP3    H115587   7.712   3.927   1.728
 5210TIP3    H215588   7.841   4.000   1.758
 5211TIP3   OH215589   4.094   6.918   0.837
 5211TIP3    H115590   3.999   6.907   0.840
 5211TIP3    H215591   4.111   6.995   0.892
 5212TIP3   OH215592   4.235   4.200   2.191
 5212TIP3    H115593   4.309   4.142   2.177
 5212TIP3    H215594   4.271   4.274   2.240
 5213TIP3   OH215595   0.759   7.339   3.899
 5213TIP3    H115596   0.682   7.355   3.845
 5213TIP3    H215597   0.833   7.344   3.839
 5214TIP3   OH215598   4.583   1.780   0.305
 5214TIP3    H115599   4.509   1.744   0.255
 5214TIP3    H215600   4.543   1.817   0.384
 5215TIP3   OH215601   2.556   4.060   5.977
 5215TIP3    H115602   2.508   3.992   5.930
 5215TIP3    H215603   2.542   4.139   5.925
 5216TIP3   OH215604   7.941   2.938   2.656
 5216TIP3    H115605   7.857   2.911   2.618
 5216TIP3    H215606   7.982   2.855   2.683
 5217TIP3   OH215607   5.104   3.591   6.642
 5217TIP3    H115608   5.138   3.631   6.722
 5217TIP3    H215609   5.010   3.608   6.644
 5218TIP3   OH215610   7.291   6.892   5.001
 5218TIP3    H115611   7.349   6.961   5.032
 5218TIP3    H215612   7.240   6.933   4.931
 5219TIP3   OH215613   1.601   3.320   1.867
 5219TIP3    H115614   1.637   3.332   1.779
 5219TIP3    H215615   1.676   3.336   1.925
 5220TIP3   OH215616   2.076   7.673   3.944
 5220TIP3    H115617   2.168   7.652   3.962
 5220TIP3    H215618   2.031   7.589   3.948
 5221TIP3   OH215619   5.046   0.513   5.085
 5221TIP3    H115620   4.985   0.575   5.047
 5221TIP3    H215621   5.104   0.488   5.013
 5222TIP3   OH215622   5.281   1.902   2.737
 5222TIP3    H115623   5.322   1.985   2.712
 5222TIP3    H215624   5.232   1.922   2.816
 5223TIP3   OH215625   7.028   2.817   2.827
 5223TIP3    H115626   6.958   2.811   2.892
 5223TIP3    H215627   7.047   2.910   2.820
 5224TIP3   OH215628   7.126   2.568   0.782
 5224TIP3    H115629   7.209   2.526   0.806
 5224TIP3    H215630   7.104   2.530   0.696
 5225TIP3   OH215631   4.099   2.840   2.316
 5225TIP3    H115632   4.153   2.881   2.248
 5225TIP3    H215633   4.053   2.914   2.357
 5226TIP3   OH215634   7.073   6.024   2.515
 5226TIP3    H115635   6.979   6.042   2.525
 5226TIP3    H215636   7.085   6.009   2.422
 5227TIP3   OH215637   7.731   2.916   4.784
 5227TIP3    H115638   7.752   2.974   4.857
 5227TIP3    H215639   7.769   2.959   4.708
 5228TIP3   OH215640   6.925   3.076   2.053
 5228TIP3    H115641   7.011   3.054   2.016
 5228TIP3    H215642   6.909   3.166   2.025
 5229TIP3   OH215643   1.726   3.295   3.457
 5229TIP3    H115644   1.674   3.229   3.503
 5229TIP3    H215645   1.816   3.265   3.467
 5230TIP3   OH215646   2.211   7.277   3.199
 5230TIP3    H115647   2.220   7.372   3.200
 5230TIP3    H215648   2.277   7.247   3.137
 5231TIP3   OH215649   4.319   7.602   3.997
 5231TIP3    H115650   4.346   7.644   3.916
 5231TIP3    H215651   4.353   7.512   3.990
 5232TIP3   OH215652   8.165   3.205   3.181
 5232TIP3    H115653   8.246   3.251   3.201
 5232TIP3    H215654   8.170   3.186   3.088
 5233TIP3   OH215655   1.406   6.133   2.385
 5233TIP3    H115656   1.428   6.158   2.475
 5233TIP3    H215657   1.324   6.084   2.394
 5234TIP3   OH215658   4.544   1.991   1.973
 5234TIP3    H115659   4.599   2.069   1.979
 5234TIP3    H215660   4.460   2.023   1.943
 5235TIP3   OH215661   6.958   6.224   5.477
 5235TIP3    H115662   6.912   6.296   5.519
 5235TIP3    H215663   6.902   6.148   5.491
 5236TIP3   OH215664   4.189   6.423   2.617
 5236TIP3    H115665   4.123   6.487   2.645
 5236TIP3    H215666   4.251   6.475   2.565
 5237TIP3   OH215667   5.773   7.051   0.625
 5237TIP3    H115668   5.680   7.041   0.602
 5237TIP3    H215669   5.772   7.076   0.718
 5238TIP3   OH215670   4.590   7.638   3.363
 5238TIP3    H115671   4.596   7.551   3.325
 5238TIP3    H215672   4.646   7.693   3.309
 5239TIP3   OH215673   3.656   3.423   0.324
 5239TIP3    H115674   3.646   3.331   0.297
 5239TIP3    H215675   3.750   3.438   0.325
 5240TIP3   OH215676   5.904   1.057   0.062
 5240TIP3    H115677   5.963   1.095   0.127
 5240TIP3    H215678   5.824   1.037   0.110
 5241TIP3   OH215679   5.004   1.359   0.671
 5241TIP3    H115680   5.066   1.397   0.609
 5241TIP3    H215681   4.984   1.430   0.732
 5242TIP3   OH215682   5.076   5.387   2.002
 5242TIP3    H115683   5.005   5.335   1.963
 5242TIP3    H215684   5.104   5.335   2.078
 5243TIP3   OH215685   3.104   4.844   0.999
 5243TIP3    H115686   3.085   4.902   1.072
 5243TIP3    H215687   3.183   4.797   1.026
 5244TIP3   OH215688   2.967   7.123   4.751
 5244TIP3    H115689   2.961   7.105   4.845
 5244TIP3    H215690   2.964   7.218   4.745
 5245TIP3   OH215691   0.753   3.884   3.401
 5245TIP3    H115692   0.661   3.871   3.377
 5245TIP3    H215693   0.761   3.839   3.485
 5246TIP3   OH215694   8.221   3.913   4.038
 5246TIP3    H115695   8.247   3.832   4.082
 5246TIP3    H215696   8.300   3.966   4.037
 5247TIP3   OH215697   3.403   6.628   3.852
 5247TIP3    H115698   3.493   6.616   3.880
 5247TIP3    H215699   3.363   6.541   3.861
 5248TIP3   OH215700   1.195   2.508   5.169
 5248TIP3    H115701   1.186   2.539   5.259
 5248TIP3    H215702   1.178   2.586   5.115
 5249TIP3   OH215703   3.174   3.748   1.653
 5249TIP3    H115704   3.190   3.751   1.559
 5249TIP3    H215705   3.151   3.657   1.671
 5250TIP3   OH215706   1.859   3.895   4.453
 5250TIP3    H115707   1.786   3.832   4.454
 5250TIP3    H215708   1.868   3.919   4.361
 5251TIP3   OH215709   2.259   2.053   3.401
 5251TIP3    H115710   2.352   2.073   3.399
 5251TIP3    H215711   2.241   2.013   3.316
 5252TIP3   OH215712   5.857   3.564   4.122
 5252TIP3    H115713   5.797   3.521   4.182
 5252TIP3    H215714   5.940   3.519   4.134
 5253TIP3   OH215715   2.644  -0.015   1.031
 5253TIP3    H115716   2.703   0.027   0.968
 5253TIP3    H215717   2.657   0.033   1.112
 5254TIP3   OH215718   5.409   4.986   5.198
 5254TIP3    H115719   5.388   4.985   5.105
 5254TIP3    H215720   5.377   5.071   5.229
 5255TIP3   OH215721   6.224   2.231   2.595
 5255TIP3    H115722   6.188   2.242   2.683
 5255TIP3    H215723   6.223   2.320   2.558
 5256TIP3   OH215724   2.584   5.454   1.544
 5256TIP3    H115725   2.492   5.443   1.523
 5256TIP3    H215726   2.602   5.386   1.608
 5257TIP3   OH215727   3.760   7.745   2.783
 5257TIP3    H115728   3.841   7.796   2.790
 5257TIP3    H215729   3.738   7.746   2.690
 5258TIP3   OH215730   2.206   0.474   4.314
 5258TIP3    H115731   2.182   0.396   4.365
 5258TIP3    H215732   2.233   0.439   4.229
 5259TIP3   OH215733   3.589   0.742   6.567
 5259TIP3    H115734   3.620   0.793   6.492
 5259TIP3    H215735   3.511   0.790   6.597
 5260TIP3   OH215736   4.299   6.836   3.642
 5260TIP3    H115737   4.266   6.776   3.576
 5260TIP3    H215738   4.221   6.865   3.690
 5261TIP3   OH215739   4.101   5.422   3.093
 5261TIP3    H115740   4.078   5.330   3.081
 5261TIP3    H215741   4.045   5.452   3.164
 5262TIP3   OH215742   0.476   1.303   1.239
 5262TIP3    H115743   0.413   1.366   1.272
 5262TIP3    H215744   0.547   1.304   1.303
 5263TIP3   OH215745   2.423   3.218   5.400
 5263TIP3    H115746   2.471   3.283   5.349
 5263TIP3    H215747   2.336   3.256   5.414
 5264TIP3   OH215748   4.678   1.017   6.186
 5264TIP3    H115749   4.748   1.047   6.128
 5264TIP3    H215750   4.611   0.983   6.126
 5265TIP3   OH215751   2.210   2.365   4.915
 5265TIP3    H115752   2.178   2.454   4.905
 5265TIP3    H215753   2.268   2.369   4.991
 5266TIP3   OH215754   4.696   5.566   1.952
 5266TIP3    H115755   4.679   5.603   1.865
 5266TIP3    H215756   4.751   5.631   1.996
 5267TIP3   OH215757   3.701   2.681   2.576
 5267TIP3    H115758   3.713   2.589   2.551
 5267TIP3    H215759   3.789   2.712   2.598
 5268TIP3   OH215760   6.517   2.722   6.152
 5268TIP3    H115761   6.485   2.770   6.076
 5268TIP3    H215762   6.461   2.751   6.224
 5269TIP3   OH215763   4.458   5.292   4.088
 5269TIP3    H115764   4.540   5.329   4.120
 5269TIP3    H215765   4.398   5.299   4.162
 5270TIP3   OH215766   0.270   5.552   6.580
 5270TIP3    H115767   0.184   5.519   6.555
 5270TIP3    H215768   0.315   5.568   6.498
 5271TIP3   OH215769   7.211   5.954   2.736
 5271TIP3    H115770   7.189   5.965   2.643
 5271TIP3    H215771   7.232   5.861   2.745
 5272TIP3   OH215772   0.074   6.608   6.093
 5272TIP3    H115773   0.099   6.518   6.072
 5272TIP3    H215774   0.146   6.662   6.060
 5273TIP3   OH215775   2.835   7.602   5.979
 5273TIP3    H115776   2.746   7.631   5.996
 5273TIP3    H215777   2.854   7.630   5.890
 5274TIP3   OH215778   6.142   2.403   6.509
 5274TIP3    H115779   6.099   2.467   6.564
 5274TIP3    H215780   6.079   2.385   6.439
 5275TIP3   OH215781   5.917   6.434   2.497
 5275TIP3    H115782   5.935   6.398   2.584
 5275TIP3    H215783   5.858   6.508   2.514
 5276TIP3   OH215784   0.064   1.526   4.159
 5276TIP3    H115785   0.004   1.509   4.086
 5276TIP3    H215786   0.149   1.538   4.116
 5277TIP3   OH215787   6.970   0.208   3.531
 5277TIP3    H115788   6.952   0.117   3.506
 5277TIP3    H215789   6.892   0.256   3.503
 5278TIP3   OH215790   1.558   3.809   2.446
 5278TIP3    H115791   1.630   3.870   2.463
 5278TIP3    H215792   1.576   3.775   2.358
 5279TIP3   OH215793   2.833   7.725   2.830
 5279TIP3    H115794   2.821   7.634   2.805
 5279TIP3    H215795   2.756   7.747   2.882
 5280TIP3   OH215796   5.119   3.863   2.735
 5280TIP3    H115797   5.127   3.873   2.830
 5280TIP3    H215798   5.077   3.777   2.724
 5281TIP3   OH215799   4.328   2.423   6.618
 5281TIP3    H115800   4.308   2.400   6.709
 5281TIP3    H215801   4.364   2.343   6.580
 5282TIP3   OH215802   3.485   0.949   4.781
 5282TIP3    H115803   3.416   0.897   4.739
 5282TIP3    H215804   3.515   0.894   4.854
 5283TIP3   OH215805   7.090   7.208   2.781
 5283TIP3    H115806   7.160   7.254   2.735
 5283TIP3    H215807   7.010   7.237   2.738
 5284TIP3   OH215808   8.186   0.502   1.776
 5284TIP3    H115809   8.183   0.573   1.713
 5284TIP3    H215810   8.152   0.426   1.729
 5285TIP3   OH215811   5.511   1.351   3.148
 5285TIP3    H115812   5.510   1.436   3.192
 5285TIP3    H215813   5.435   1.305   3.184
 5286TIP3   OH215814   5.508   1.213   2.160
 5286TIP3    H115815   5.429   1.172   2.125
 5286TIP3    H215816   5.570   1.212   2.087
 5287TIP3   OH215817   1.946   4.488   3.451
 5287TIP3    H115818   1.881   4.508   3.518
 5287TIP3    H215819   1.918   4.403   3.416
 5288TIP3   OH215820   3.697   3.746   5.434
 5288TIP3    H115821   3.726   3.693   5.360
 5288TIP3    H215822   3.695   3.835   5.401
 5289TIP3   OH215823   0.021   1.675   5.892
 5289TIP3    H115824   0.035   1.769   5.901
 5289TIP3    H215825   0.107   1.640   5.867
 5290TIP3   OH215826   5.884   5.221   2.445
 5290TIP3    H115827   5.970   5.192   2.477
 5290TIP3    H215828   5.828   5.144   2.454
 5291TIP3   OH215829   4.106   3.311   0.530
 5291TIP3    H115830   4.157   3.297   0.450
 5291TIP3    H215831   4.158   3.269   0.599
 5292TIP3   OH215832   4.927   7.718   5.933
 5292TIP3    H115833   4.850   7.730   5.878
 5292TIP3    H215834   4.899   7.745   6.020
 5293TIP3   OH215835   0.271   1.708   5.043
 5293TIP3    H115836   0.223   1.739   4.966
 5293TIP3    H215837   0.362   1.699   5.012
 5294TIP3   OH215838   3.389   3.254   3.987
 5294TIP3    H115839   3.379   3.239   4.080
 5294TIP3    H215840   3.483   3.269   3.974
 5295TIP3   OH215841   1.930   6.127   0.507
 5295TIP3    H115842   1.910   6.054   0.449
 5295TIP3    H215843   2.025   6.128   0.512
 5296TIP3   OH215844   4.931   5.765   3.837
 5296TIP3    H115845   4.931   5.670   3.849
 5296TIP3    H215846   4.845   5.794   3.869
 5297TIP3   OH215847   5.545   3.261   1.432
 5297TIP3    H115848   5.531   3.334   1.372
 5297TIP3    H215849   5.473   3.268   1.496
 5298TIP3   OH215850   0.818   0.196   6.451
 5298TIP3    H115851   0.861   0.267   6.403
 5298TIP3    H215852   0.886   0.130   6.462
 5299TIP3   OH215853   0.093   6.443   4.694
 5299TIP3    H115854   0.020   6.504   4.700
 5299TIP3    H215855   0.126   6.452   4.605
 5300TIP3   OH215856   6.567   4.799   6.214
 5300TIP3    H115857   6.632   4.736   6.183
 5300TIP3    H215858   6.617   4.875   6.240
 5301TIP3   OH215859   3.778   5.781   6.141
 5301TIP3    H115860   3.731   5.758   6.221
 5301TIP3    H215861   3.793   5.875   6.148
 5302TIP3   OH215862   0.951   2.090   3.255
 5302TIP3    H115863   1.016   2.143   3.301
 5302TIP3    H215864   0.999   2.052   3.181
 5303TIP3   OH215865   3.908   4.176   6.455
 5303TIP3    H115866   3.813   4.179   6.453
 5303TIP3    H215867   3.932   4.121   6.380
 5304TIP3   OH215868   5.088   5.585   0.506
 5304TIP3    H115869   5.005   5.559   0.465
 5304TIP3    H215870   5.148   5.514   0.486
 5305TIP3   OH215871   7.408   6.606   6.687
 5305TIP3    H115872   7.320   6.585   6.655
 5305TIP3    H215873   7.395   6.628   6.779
 5306TIP3   OH215874   0.459   2.266   5.367
 5306TIP3    H115875   0.421   2.272   5.455
 5306TIP3    H215876   0.383   2.260   5.309
 5307TIP3   OH215877   3.597   4.332   2.621
 5307TIP3    H115878   3.605   4.256   2.563
 5307TIP3    H215879   3.686   4.366   2.628
 5308TIP3   OH215880   7.208   6.318   5.512
 5308TIP3    H115881   7.116   6.304   5.491
 5308TIP3    H215882   7.250   6.234   5.492
 5309TIP3   OH215883   5.895   7.323   6.211
 5309TIP3    H115884   5.978   7.293   6.173
 5309TIP3    H215885   5.846   7.243   6.229
 5310TIP3   OH215886   0.204   6.893   6.195
 5310TIP3    H115887   0.130   6.905   6.135
 5310TIP3    H215888   0.179   6.940   6.274
 5311TIP3   OH215889   7.369   7.249   3.342
 5311TIP3    H115890   7.352   7.340   3.316
 5311TIP3    H215891   7.283   7.213   3.363
 5312TIP3   OH215892   1.721   4.505   2.385
 5312TIP3    H115893   1.664   4.430   2.401
 5312TIP3    H215894   1.791   4.497   2.450
 5313TIP3   OH215895   0.082   3.150   2.516
 5313TIP3    H115896   0.028   3.200   2.577
 5313TIP3    H215897   0.021   3.093   2.470
 5314TIP3   OH215898   1.478   2.526   4.032
 5314TIP3    H115899   1.473   2.502   4.124
 5314TIP3    H215900   1.542   2.597   4.029
 5315TIP3   OH215901   6.695   0.920   6.151
 5315TIP3    H115902   6.681   0.834   6.112
 5315TIP3    H215903   6.728   0.974   6.080
 5316TIP3   OH215904   0.010   2.315   2.492
 5316TIP3    H115905   0.079   2.262   2.534
 5316TIP3    H215906  -0.066   2.257   2.490
 5317TIP3   OH215907   5.524   2.972   4.336
 5317TIP3    H115908   5.452   3.027   4.369
 5317TIP3    H215909   5.564   3.025   4.267
 5318TIP3   OH215910   3.585   4.908   0.432
 5318TIP3    H115911   3.665   4.935   0.476
 5318TIP3    H215912   3.613   4.882   0.344
 5319TIP3   OH215913   7.876   4.390   2.786
 5319TIP3    H115914   7.782   4.378   2.790
 5319TIP3    H215915   7.913   4.307   2.817
 5320TIP3   OH215916   1.436   3.064   0.983
 5320TIP3    H115917   1.514   3.088   1.033
 5320TIP3    H215918   1.369   3.049   1.048
 5321TIP3   OH215919   1.882   3.888   0.463
 5321TIP3    H115920   1.833   3.960   0.422
 5321TIP3    H215921   1.887   3.821   0.395
 5322TIP3   OH215922   6.401   1.844   1.714
 5322TIP3    H115923   6.445   1.860   1.797
 5322TIP3    H215924   6.333   1.911   1.710
 5323TIP3   OH215925   7.156   4.116   0.758
 5323TIP3    H115926   7.166   4.206   0.790
 5323TIP3    H215927   7.085   4.120   0.695
 5324TIP3   OH215928   4.065   1.726   3.991
 5324TIP3    H115929   3.988   1.753   3.941
 5324TIP3    H215930   4.078   1.634   3.967
 5325TIP3   OH215931   0.931   3.348   0.212
 5325TIP3    H115932   0.902   3.439   0.204
 5325TIP3    H215933   0.913   3.310   0.126
 5326TIP3   OH215934   4.003   0.253   5.044
 5326TIP3    H115935   4.080   0.274   5.096
 5326TIP3    H215936   3.936   0.230   5.108
 5327TIP3   OH215937   3.827   6.831   6.615
 5327TIP3    H115938   3.912   6.811   6.654
 5327TIP3    H215939   3.766   6.769   6.655
 5328TIP3   OH215940   1.771   4.788   6.527
 5328TIP3    H115941   1.694   4.772   6.580
 5328TIP3    H215942   1.834   4.828   6.587
 5329TIP3   OH215943   7.516   0.076   1.982
 5329TIP3    H115944   7.463   0.156   1.985
 5329TIP3    H215945   7.597   0.099   2.028
 5330TIP3   OH215946   4.492   0.020   3.851
 5330TIP3    H115947   4.405   0.059   3.864
 5330TIP3    H215948   4.553   0.092   3.866
 5331TIP3   OH215949   3.483   2.079   6.137
 5331TIP3    H115950   3.487   2.145   6.067
 5331TIP3    H215951   3.573   2.071   6.167
 5332TIP3   OH215952   2.510   5.968   5.741
 5332TIP3    H115953   2.486   5.878   5.723
 5332TIP3    H215954   2.472   5.986   5.827
 5333TIP3   OH215955   1.863   7.241   5.529
 5333TIP3    H115956   1.863   7.193   5.612
 5333TIP3    H215957   1.955   7.257   5.510
 5334TIP3   OH215958   1.224   7.026   6.297
 5334TIP3    H115959   1.139   7.001   6.262
 5334TIP3    H215960   1.250   7.102   6.245
 5335TIP3   OH215961   7.000   2.041   6.112
 5335TIP3    H115962   7.095   2.049   6.121
 5335TIP3    H215963   6.971   2.128   6.087
 5336TIP3   OH215964   8.144   5.174   2.896
 5336TIP3    H115965   8.101   5.200   2.978
 5336TIP3    H215966   8.080   5.117   2.852
 5337TIP3   OH215967   0.464   5.212   4.418
 5337TIP3    H115968   0.418   5.141   4.373
 5337TIP3    H215969   0.437   5.205   4.509
 5338TIP3   OH215970   6.415   0.133   2.429
 5338TIP3    H115971   6.446   0.056   2.382
 5338TIP3    H215972   6.345   0.100   2.486
 5339TIP3   OH215973   5.984   3.199   3.210
 5339TIP3    H115974   5.893   3.173   3.223
 5339TIP3    H215975   6.028   3.174   3.292
 5340TIP3   OH215976   4.768   6.208   5.929
 5340TIP3    H115977   4.810   6.125   5.906
 5340TIP3    H215978   4.675   6.193   5.912
 5341TIP3   OH215979   3.685   0.961   4.110
 5341TIP3    H115980   3.741   0.888   4.138
 5341TIP3    H215981   3.634   0.984   4.187
 5342TIP3   OH215982   4.928   3.841   6.328
 5342TIP3    H115983   4.936   3.787   6.249
 5342TIP3    H215984   4.988   3.913   6.314
 5343TIP3   OH215985   5.624   4.844   0.738
 5343TIP3    H115986   5.557   4.829   0.672
 5343TIP3    H215987   5.663   4.928   0.713
 5344TIP3   OH215988   2.254   6.739   2.852
 5344TIP3    H115989   2.239   6.791   2.931
 5344TIP3    H215990   2.269   6.650   2.885
 5345TIP3   OH215991   2.678   5.113   6.071
 5345TIP3    H115992   2.679   5.074   6.159
 5345TIP3    H215993   2.679   5.039   6.011
 5346TIP3   OH215994   6.418   6.444   6.187
 5346TIP3    H115995   6.467   6.378   6.235
 5346TIP3    H215996   6.335   6.453   6.235
 5347TIP3   OH215997   5.489   7.599   3.065
 5347TIP3    H115998   5.516   7.509   3.083
 5347TIP3    H215999   5.455   7.596   2.976
 5348TIP3   OH216000   2.884   5.752   1.483
 5348TIP3    H116001   2.814   5.817   1.481
 5348TIP3    H216002   2.964   5.801   1.462
 5349TIP3   OH216003   5.090   5.327   5.280
 5349TIP3    H116004   5.072   5.330   5.186
 5349TIP3    H216005   5.167   5.271   5.288
 5350TIP3   OH216006   1.080   0.835   5.764
 5350TIP3    H116007   1.066   0.927   5.788
 5350TIP3    H216008   1.090   0.836   5.669
 5351TIP3   OH216009   5.141   6.349   0.457
 5351TIP3    H116010   5.069   6.323   0.515
 5351TIP3    H216011   5.215   6.296   0.485
 5352TIP3   OH216012   5.366   5.652   4.705
 5352TIP3    H116013   5.341   5.713   4.774
 5352TIP3    H216014   5.443   5.691   4.664
 5353TIP3   OH216015   8.189   1.076   2.203
 5353TIP3    H116016   8.166   1.011   2.270
 5353TIP3    H216017   8.282   1.061   2.187
 5354TIP3   OH216018   3.546   6.990   5.239
 5354TIP3    H116019   3.527   6.896   5.243
 5354TIP3    H216020   3.490   7.029   5.306
 5355TIP3   OH216021   5.326   3.723   5.006
 5355TIP3    H116022   5.392   3.733   5.074
 5355TIP3    H216023   5.251   3.683   5.051
 5356TIP3   OH216024   7.072   4.605   5.471
 5356TIP3    H116025   7.140   4.667   5.500
 5356TIP3    H216026   7.099   4.580   5.383
 5357TIP3   OH216027   0.975   4.787   1.411
 5357TIP3    H116028   1.051   4.741   1.445
 5357TIP3    H216029   0.907   4.773   1.478
 5358TIP3   OH216030   6.654   3.646   0.706
 5358TIP3    H116031   6.696   3.664   0.790
 5358TIP3    H216032   6.597   3.571   0.723
 5359TIP3   OH216033   3.084   2.056   3.443
 5359TIP3    H116034   3.052   2.104   3.367
 5359TIP3    H216035   3.030   1.977   3.446
 5360TIP3   OH216036   2.811   0.391   3.335
 5360TIP3    H116037   2.812   0.355   3.424
 5360TIP3    H216038   2.734   0.448   3.333
 5361TIP3   OH216039   4.667   6.044   0.779
 5361TIP3    H116040   4.660   6.064   0.686
 5361TIP3    H216041   4.729   6.108   0.813
 5362TIP3   OH216042   4.451   6.999   1.508
 5362TIP3    H116043   4.472   7.074   1.451
 5362TIP3    H216044   4.531   6.948   1.511
 5363TIP3   OH216045   4.870   0.044   5.461
 5363TIP3    H116046   4.876   0.123   5.516
 5363TIP3    H216047   4.779   0.044   5.431
 5364TIP3   OH216048   5.626   3.587   0.954
 5364TIP3    H116049   5.714   3.557   0.977
 5364TIP3    H216050   5.589   3.513   0.905
 5365TIP3   OH216051   0.115   6.169   4.616
 5365TIP3    H116052   0.208   6.152   4.607
 5365TIP3    H216053   0.108   6.232   4.687
 5366TIP3   OH216054   2.407   6.789   6.689
 5366TIP3    H116055   2.371   6.877   6.676
 5366TIP3    H216056   2.330   6.734   6.704
 5367TIP3   OH216057   0.493   7.299   5.371
 5367TIP3    H116058   0.470   7.368   5.433
 5367TIP3    H216059   0.438   7.225   5.395
 5368TIP3   OH216060   6.942   5.802   1.821
 5368TIP3    H116061   6.962   5.774   1.911
 5368TIP3    H216062   6.847   5.798   1.816
 5369TIP3   OH216063   3.827   1.215   3.372
 5369TIP3    H116064   3.750   1.267   3.394
 5369TIP3    H216065   3.901   1.276   3.381
 5370TIP3   OH216066   4.408   6.644   3.385
 5370TIP3    H116067   4.368   6.608   3.464
 5370TIP3    H216068   4.347   6.712   3.356
 5371TIP3   OH216069   0.103   5.744   5.629
 5371TIP3    H116070   0.162   5.797   5.682
 5371TIP3    H216071   0.039   5.708   5.691
 5372TIP3   OH216072   2.126   2.040   0.942
 5372TIP3    H116073   2.090   1.995   1.018
 5372TIP3    H216074   2.057   2.100   0.914
 5373TIP3   OH216075   1.682   5.692   2.514
 5373TIP3    H116076   1.776   5.708   2.502
 5373TIP3    H216077   1.642   5.777   2.493
 5374TIP3   OH216078   7.184   5.012   0.412
 5374TIP3    H116079   7.191   4.965   0.329
 5374TIP3    H216080   7.200   4.945   0.478
 5375TIP3   OH216081   4.850   4.389   4.805
 5375TIP3    H116082   4.821   4.335   4.879
 5375TIP3    H216083   4.843   4.479   4.836
 5376TIP3   OH216084   6.465   7.151   5.274
 5376TIP3    H116085   6.420   7.067   5.264
 5376TIP3    H216086   6.437   7.203   5.199
 5377TIP3   OH216087   2.591   2.607   3.202
 5377TIP3    H116088   2.678   2.597   3.240
 5377TIP3    H216089   2.539   2.537   3.242
 5378TIP3   OH216090   7.795   0.640   1.331
 5378TIP3    H116091   7.866   0.577   1.327
 5378TIP3    H216092   7.816   0.704   1.263
 5379TIP3   OH216093   6.489   3.091   1.748
 5379TIP3    H116094   6.470   3.164   1.689
 5379TIP3    H216095   6.584   3.090   1.755
 5380TIP3   OH216096   6.387   4.855   6.401
 5380TIP3    H116097   6.387   4.947   6.375
 5380TIP3    H216098   6.439   4.811   6.333
 5381TIP3   OH216099   0.802   2.493   5.841
 5381TIP3    H116100   0.778   2.584   5.825
 5381TIP3    H216101   0.755   2.444   5.773
 5382TIP3   OH216102   4.085   6.712   3.520
 5382TIP3    H116103   4.009   6.668   3.558
 5382TIP3    H216104   4.057   6.738   3.432
 5383TIP3   OH216105   7.253   4.079   1.098
 5383TIP3    H116106   7.219   4.154   1.048
 5383TIP3    H216107   7.218   4.091   1.186
 5384TIP3   OH216108   7.321   7.453   5.734
 5384TIP3    H116109   7.414   7.452   5.758
 5384TIP3    H216110   7.275   7.453   5.818
 5385TIP3   OH216111   3.707   2.034   5.568
 5385TIP3    H116112   3.747   1.993   5.491
 5385TIP3    H216113   3.742   1.984   5.643
 5386TIP3   OH216114   3.386   3.898   4.609
 5386TIP3    H116115   3.476   3.871   4.629
 5386TIP3    H216116   3.384   3.992   4.628
 5387TIP3   OH216117   7.091   1.295   1.883
 5387TIP3    H116118   7.070   1.228   1.819
 5387TIP3    H216119   7.163   1.258   1.934
 5388TIP3   OH216120   1.499   3.568   1.995
 5388TIP3    H116121   1.566   3.507   1.964
 5388TIP3    H216122   1.448   3.588   1.916
 5389TIP3   OH216123   0.989   2.181   6.254
 5389TIP3    H116124   1.028   2.257   6.297
 5389TIP3    H216125   0.960   2.214   6.168
 5390TIP3   OH216126   1.605   5.049   6.404
 5390TIP3    H116127   1.537   5.008   6.457
 5390TIP3    H216128   1.556   5.092   6.333
 5391TIP3   OH216129   2.910   0.805   2.415
 5391TIP3    H116130   2.874   0.725   2.450
 5391TIP3    H216131   2.838   0.868   2.419
 5392TIP3   OH216132   1.073   2.910   2.649
 5392TIP3    H116133   1.087   2.991   2.601
 5392TIP3    H216134   1.016   2.858   2.592
 5393TIP3   OH216135   6.298   6.726   0.219
 5393TIP3    H116136   6.257   6.671   0.287
 5393TIP3    H216137   6.293   6.815   0.255
 5394TIP3   OH216138   2.510   1.484   5.750
 5394TIP3    H116139   2.462   1.538   5.813
 5394TIP3    H216140   2.442   1.432   5.706
 5395TIP3   OH216141   5.807   0.218   6.011
 5395TIP3    H116142   5.773   0.282   6.073
 5395TIP3    H216143   5.852   0.154   6.066
 5396TIP3   OH216144   1.049   6.914   3.577
 5396TIP3    H116145   1.082   6.989   3.527
 5396TIP3    H216146   1.077   6.932   3.667
 5397TIP3   OH216147   1.930   3.083   0.801
 5397TIP3    H116148   1.864   3.152   0.797
 5397TIP3    H216149   1.895   3.013   0.746
 5398TIP3   OH216150   1.362   4.800   0.363
 5398TIP3    H116151   1.400   4.859   0.298
 5398TIP3    H216152   1.432   4.786   0.427
 5399TIP3   OH216153   5.447   3.132   5.901
 5399TIP3    H116154   5.492   3.068   5.846
 5399TIP3    H216155   5.363   3.090   5.922
 5400TIP3   OH216156   8.184   3.116   0.407
 5400TIP3    H116157   8.109   3.057   0.413
 5400TIP3    H216158   8.259   3.062   0.429
 5401TIP3   OH216159   1.672   4.924   4.663
 5401TIP3    H116160   1.590   4.940   4.710
 5401TIP3    H216161   1.656   4.955   4.574
 5402TIP3   OH216162   5.663   1.858   0.416
 5402TIP3    H116163   5.627   1.915   0.348
 5402TIP3    H216164   5.639   1.900   0.498
 5403TIP3   OH216165   1.462   4.503   4.370
 5403TIP3    H116166   1.497   4.442   4.306
 5403TIP3    H216167   1.462   4.454   4.452
 5404TIP3   OH216168   6.606   7.688   1.942
 5404TIP3    H116169   6.637   7.626   2.008
 5404TIP3    H216170   6.671   7.759   1.943
 5405TIP3   OH216171   4.916   6.242   5.617
 5405TIP3    H116172   4.888   6.295   5.691
 5405TIP3    H216173   4.937   6.306   5.549
 5406TIP3   OH216174   0.105   2.559   6.127
 5406TIP3    H116175   0.174   2.541   6.191
 5406TIP3    H216176   0.092   2.475   6.082
 5407TIP3   OH216177   0.789   7.713   4.117
 5407TIP3    H116178   0.701   7.730   4.151
 5407TIP3    H216179   0.798   7.774   4.044
 5408TIP3   OH216180   0.833   3.296   1.908
 5408TIP3    H116181   0.757   3.316   1.852
 5408TIP3    H216182   0.814   3.342   1.990
 5409TIP3   OH216183   5.049   0.937   1.839
 5409TIP3    H116184   5.087   0.890   1.764
 5409TIP3    H216185   5.073   0.884   1.915
 5410TIP3   OH216186   1.152   3.219   6.505
 5410TIP3    H116187   1.080   3.275   6.536
 5410TIP3    H216188   1.108   3.149   6.455
 5411TIP3   OH216189   4.938   0.705   6.336
 5411TIP3    H116190   4.908   0.641   6.399
 5411TIP3    H216191   4.896   0.681   6.254
 5412TIP3   OH216192   4.013   3.439   4.620
 5412TIP3    H116193   3.998   3.388   4.540
 5412TIP3    H216194   4.108   3.434   4.634
 5413TIP3   OH216195   7.714   5.467   4.936
 5413TIP3    H116196   7.622   5.470   4.911
 5413TIP3    H216197   7.739   5.559   4.943
 5414TIP3   OH216198   2.574   5.209   5.808
 5414TIP3    H116199   2.562   5.239   5.898
 5414TIP3    H216200   2.669   5.201   5.798
 5415TIP3   OH216201   6.691   4.856   2.784
 5415TIP3    H116202   6.682   4.861   2.689
 5415TIP3    H216203   6.785   4.856   2.800
 5416TIP3   OH216204   2.962   4.331   3.371
 5416TIP3    H116205   2.979   4.372   3.456
 5416TIP3    H216206   2.916   4.398   3.321
 5417TIP3   OH216207   1.952   7.508   3.492
 5417TIP3    H116208   1.918   7.567   3.559
 5417TIP3    H216209   1.961   7.562   3.414
 5418TIP3   OH216210   5.383   3.487   4.407
 5418TIP3    H116211   5.290   3.482   4.430
 5418TIP3    H216212   5.392   3.570   4.360
 5419TIP3   OH216213   3.560   1.493   3.263
 5419TIP3    H116214   3.618   1.516   3.190
 5419TIP3    H216215   3.478   1.467   3.222
 5420TIP3   OH216216   5.570   6.712   3.626
 5420TIP3    H116217   5.604   6.721   3.715
 5420TIP3    H216218   5.486   6.666   3.637
 5421TIP3   OH216219   7.723   6.748   2.025
 5421TIP3    H116220   7.672   6.811   2.077
 5421TIP3    H216221   7.810   6.749   2.065
 5422TIP3   OH216222   6.272   6.039   0.438
 5422TIP3    H116223   6.281   6.019   0.345
 5422TIP3    H216224   6.177   6.040   0.453
 5423TIP3   OH216225   1.496   1.988   4.332
 5423TIP3    H116226   1.573   1.953   4.287
 5423TIP3    H216227   1.518   1.983   4.425
 5424TIP3   OH216228   7.146   2.552   2.268
 5424TIP3    H116229   7.117   2.462   2.250
 5424TIP3    H216230   7.140   2.561   2.363
 5425TIP3   OH216231   6.635   5.068   6.046
 5425TIP3    H116232   6.617   5.132   6.115
 5425TIP3    H216233   6.551   5.025   6.032
 5426TIP3   OH216234   4.808   6.792   0.863
 5426TIP3    H116235   4.808   6.846   0.941
 5426TIP3    H216236   4.858   6.714   0.887
 5427TIP3   OH216237   5.394   2.343   2.072
 5427TIP3    H116238   5.353   2.281   2.012
 5427TIP3    H216239   5.448   2.289   2.130
 5428TIP3   OH216240   6.834   5.755   6.566
 5428TIP3    H116241   6.836   5.816   6.493
 5428TIP3    H216242   6.746   5.718   6.565
 5429TIP3   OH216243   5.621   3.169   1.009
 5429TIP3    H116244   5.565   3.168   1.087
 5429TIP3    H216245   5.704   3.207   1.039
 5430TIP3   OH216246   1.416   7.218   3.949
 5430TIP3    H116247   1.482   7.287   3.950
 5430TIP3    H216248   1.434   7.168   3.869
 5431TIP3   OH216249   2.960   6.602   3.761
 5431TIP3    H116250   2.999   6.618   3.847
 5431TIP3    H216251   2.996   6.517   3.734
 5432TIP3   OH216252   8.184   4.424   4.319
 5432TIP3    H116253   8.236   4.383   4.251
 5432TIP3    H216254   8.172   4.514   4.289
 5433TIP3   OH216255   6.793   5.570   0.969
 5433TIP3    H116256   6.777   5.513   1.044
 5433TIP3    H216257   6.714   5.624   0.963
 5434TIP3   OH216258   7.449   1.265   0.440
 5434TIP3    H116259   7.535   1.222   0.435
 5434TIP3    H216260   7.468   1.358   0.424
 5435TIP3   OH216261   3.161   4.015   5.515
 5435TIP3    H116262   3.124   3.955   5.451
 5435TIP3    H216263   3.180   3.960   5.591
 5436TIP3   OH216264   4.275   3.864   1.692
 5436TIP3    H116265   4.314   3.937   1.740
 5436TIP3    H216266   4.270   3.895   1.602
 5437TIP3   OH216267   1.128   4.763   0.058
 5437TIP3    H116268   1.070   4.730  -0.012
 5437TIP3    H216269   1.196   4.697   0.065
 5438TIP3   OH216270   6.862   6.955   5.376
 5438TIP3    H116271   6.900   6.899   5.309
 5438TIP3    H216272   6.866   7.043   5.339
 5439TIP3   OH216273   1.197   4.773   6.668
 5439TIP3    H116274   1.115   4.731   6.641
 5439TIP3    H216275   1.173   4.823   6.746
 5440TIP3   OH216276   2.770   4.809   2.035
 5440TIP3    H116277   2.820   4.867   2.094
 5440TIP3    H216278   2.758   4.861   1.956
 5441TIP3   OH216279   1.434   4.196   6.567
 5441TIP3    H116280   1.481   4.271   6.530
 5441TIP3    H216281   1.435   4.212   6.662
 5442TIP3   OH216282   6.277   0.028   1.787
 5442TIP3    H116283   6.285   0.056   1.878
 5442TIP3    H216284   6.197  -0.023   1.783
 5443TIP3   OH216285   6.461   4.816   5.444
 5443TIP3    H116286   6.485   4.762   5.519
 5443TIP3    H216287   6.410   4.757   5.388
 5444TIP3   OH216288   0.799   4.839   6.445
 5444TIP3    H116289   0.874   4.890   6.474
 5444TIP3    H216290   0.748   4.823   6.524
 5445TIP3   OH216291   1.352   4.665   2.848
 5445TIP3    H116292   1.418   4.640   2.783
 5445TIP3    H216293   1.403   4.704   2.919
 5446TIP3   OH216294   3.106   1.000   0.635
 5446TIP3    H116295   3.075   0.910   0.634
 5446TIP3    H216296   3.033   1.051   0.599
 5447TIP3   OH216297   4.207   5.318   4.774
 5447TIP3    H116298   4.143   5.370   4.724
 5447TIP3    H216299   4.156   5.279   4.845
 5448TIP3   OH216300   2.789   3.281   4.689
 5448TIP3    H116301   2.837   3.363   4.671
 5448TIP3    H216302   2.703   3.295   4.649
 5449TIP3   OH216303   0.434   4.802   5.808
 5449TIP3    H116304   0.449   4.785   5.715
 5449TIP3    H216305   0.411   4.895   5.812
 5450TIP3   OH216306   7.860   6.123   6.462
 5450TIP3    H116307   7.941   6.105   6.508
 5450TIP3    H216308   7.806   6.045   6.476
 5451TIP3   OH216309   5.414   4.426   6.472
 5451TIP3    H116310   5.412   4.508   6.422
 5451TIP3    H216311   5.505   4.397   6.467
 5452TIP3   OH216312   4.046   6.445   0.760
 5452TIP3    H116313   3.989   6.509   0.802
 5452TIP3    H216314   4.134   6.468   0.790
 5453TIP3   OH216315   7.670   6.285   1.380
 5453TIP3    H116316   7.676   6.318   1.469
 5453TIP3    H216317   7.582   6.307   1.351
 5454TIP3   OH216318   4.118   5.737   3.959
 5454TIP3    H116319   4.027   5.763   3.975
 5454TIP3    H216320   4.111   5.660   3.902
 5455TIP3   OH216321   1.087   2.670   2.856
 5455TIP3    H116322   1.132   2.716   2.927
 5455TIP3    H216323   1.026   2.735   2.820
 5456TIP3   OH216324   8.256   4.332   5.429
 5456TIP3    H116325   8.235   4.273   5.502
 5456TIP3    H216326   8.200   4.409   5.444
 5457TIP3   OH216327   6.314   6.929   4.982
 5457TIP3    H116328   6.310   7.018   4.948
 5457TIP3    H216329   6.404   6.919   5.013
 5458TIP3   OH216330   2.673   5.668   5.567
 5458TIP3    H116331   2.675   5.599   5.501
 5458TIP3    H216332   2.636   5.626   5.645
 5459TIP3   OH216333   4.003   1.772   1.183
 5459TIP3    H116334   3.990   1.736   1.095
 5459TIP3    H216335   4.017   1.695   1.238
 5460TIP3   OH216336   0.920   6.332   6.650
 5460TIP3    H116337   0.968   6.329   6.733
 5460TIP3    H216338   0.953   6.256   6.600
 5461TIP3   OH216339   2.102   3.281   1.866
 5461TIP3    H116340   2.081   3.257   1.776
 5461TIP3    H216341   2.165   3.353   1.858
 5462TIP3   OH216342   5.403   2.831   3.150
 5462TIP3    H116343   5.438   2.763   3.093
 5462TIP3    H216344   5.319   2.797   3.180
 5463TIP3   OH216345   4.963   4.427   3.298
 5463TIP3    H116346   5.018   4.468   3.230
 5463TIP3    H216347   4.995   4.464   3.380
 5464TIP3   OH216348   1.741   1.317   2.534
 5464TIP3    H116349   1.662   1.271   2.561
 5464TIP3    H216350   1.805   1.247   2.518
 5465TIP3   OH216351   6.379   1.203   6.256
 5465TIP3    H116352   6.394   1.110   6.273
 5465TIP3    H216353   6.322   1.204   6.179
 5466TIP3   OH216354   1.086   5.950   2.683
 5466TIP3    H116355   1.005   5.940   2.732
 5466TIP3    H216356   1.100   6.045   2.679
 5467TIP3   OH216357   6.088   6.164   0.057
 5467TIP3    H116358   6.180   6.148   0.038
 5467TIP3    H216359   6.076   6.258   0.044
 5468TIP3   OH216360   6.716   7.170   1.390
 5468TIP3    H116361   6.708   7.093   1.447
 5468TIP3    H216362   6.667   7.146   1.311
 5469TIP3   OH216363   3.696   1.021   5.564
 5469TIP3    H116364   3.754   1.091   5.595
 5469TIP3    H216365   3.709   1.018   5.470
 5470TIP3   OH216366   0.272   2.328   0.402
 5470TIP3    H116367   0.230   2.270   0.338
 5470TIP3    H216368   0.346   2.366   0.355
 5471TIP3   OH216369   6.454   6.666   6.034
 5471TIP3    H116370   6.369   6.709   6.040
 5471TIP3    H216371   6.441   6.581   6.075
 5472TIP3   OH216372   2.105   0.600   5.657
 5472TIP3    H116373   2.041   0.590   5.587
 5472TIP3    H216374   2.087   0.686   5.695
 5473TIP3   OH216375   7.028   6.518   6.291
 5473TIP3    H116376   7.064   6.572   6.221
 5473TIP3    H216377   6.946   6.561   6.315
 5474TIP3   OH216378   6.237   1.673   3.357
 5474TIP3    H116379   6.303   1.618   3.399
 5474TIP3    H216380   6.235   1.752   3.412
 5475TIP3   OH216381   2.305   6.264   2.308
 5475TIP3    H116382   2.222   6.218   2.319
 5475TIP3    H216383   2.287   6.332   2.244
 5476TIP3   OH216384   4.957   1.838   4.539
 5476TIP3    H116385   5.002   1.868   4.618
 5476TIP3    H216386   4.897   1.909   4.517
 5477TIP3   OH216387   7.603   0.387   6.616
 5477TIP3    H116388   7.650   0.304   6.611
 5477TIP3    H216389   7.564   0.387   6.704
 5478TIP3   OH216390   5.452   6.891   3.243
 5478TIP3    H116391   5.399   6.883   3.163
 5478TIP3    H216392   5.467   6.800   3.270
 5479TIP3   OH216393   4.563   4.365   3.187
 5479TIP3    H116394   4.584   4.437   3.248
 5479TIP3    H216395   4.523   4.298   3.242
 5480TIP3   OH216396   3.405   4.232   1.455
 5480TIP3    H116397   3.358   4.222   1.538
 5480TIP3    H216398   3.493   4.259   1.480
 5481TIP3   OH216399   7.361   1.031   0.562
 5481TIP3    H116400   7.324   0.953   0.521
 5481TIP3    H216401   7.368   1.095   0.490
 5482TIP3   OH216402   5.629   3.117   4.103
 5482TIP3    H116403   5.719   3.147   4.096
 5482TIP3    H216404   5.583   3.189   4.148
 5483TIP3   OH216405   2.629   6.701   0.670
 5483TIP3    H116406   2.548   6.751   0.669
 5483TIP3    H216407   2.611   6.628   0.730
 5484TIP3   OH216408   1.451   4.039   0.338
 5484TIP3    H116409   1.460   3.994   0.254
 5484TIP3    H216410   1.371   4.091   0.330
 5485TIP3   OH216411   2.479   6.054   3.161
 5485TIP3    H116412   2.472   5.962   3.185
 5485TIP3    H216413   2.411   6.067   3.095
 5486TIP3   OH216414   3.930   4.044   6.025
 5486TIP3    H116415   4.010   4.000   6.054
 5486TIP3    H216416   3.941   4.135   6.054
 5487TIP3   OH216417   1.150   1.225   5.228
 5487TIP3    H116418   1.145   1.257   5.318
 5487TIP3    H216419   1.062   1.190   5.210
 5488TIP3   OH216420   1.039   6.654   3.811
 5488TIP3    H116421   1.019   6.742   3.844
 5488TIP3    H216422   1.037   6.664   3.716
 5489TIP3   OH216423   1.108   6.845   2.689
 5489TIP3    H116424   1.174   6.816   2.626
 5489TIP3    H216425   1.025   6.841   2.641
 5490TIP3   OH216426   7.844   1.741   5.611
 5490TIP3    H116427   7.807   1.653   5.622
 5490TIP3    H216428   7.902   1.734   5.536
 5491TIP3   OH216429   2.077   6.478   2.145
 5491TIP3    H116430   2.140   6.537   2.186
 5491TIP3    H216431   2.007   6.469   2.209
 5492TIP3   OH216432   3.774   5.963   0.733
 5492TIP3    H116433   3.812   5.895   0.677
 5492TIP3    H216434   3.688   5.930   0.757
 5493TIP3   OH216435   7.058   1.994   3.654
 5493TIP3    H116436   7.057   1.944   3.572
 5493TIP3    H216437   7.147   1.982   3.688
 5494TIP3   OH216438   4.844   4.786   5.780
 5494TIP3    H116439   4.783   4.741   5.721
 5494TIP3    H216440   4.801   4.869   5.799
 5495TIP3   OH216441   4.367   0.488   1.085
 5495TIP3    H116442   4.319   0.407   1.063
 5495TIP3    H216443   4.430   0.499   1.013
 5496TIP3   OH216444   3.035   4.561   6.285
 5496TIP3    H116445   3.123   4.575   6.251
 5496TIP3    H216446   3.006   4.479   6.246
 5497TIP3   OH216447   7.705   3.849   0.961
 5497TIP3    H116448   7.724   3.871   0.869
 5497TIP3    H216449   7.629   3.902   0.983
 5498TIP3   OH216450   1.620   6.636   5.770
 5498TIP3    H116451   1.605   6.542   5.775
 5498TIP3    H216452   1.649   6.651   5.680
 5499TIP3   OH216453   0.907   2.293   4.336
 5499TIP3    H116454   0.926   2.344   4.415
 5499TIP3    H216455   0.820   2.256   4.351
 5500TIP3   OH216456   0.887   4.854   5.872
 5500TIP3    H116457   0.888   4.828   5.964
 5500TIP3    H216458   0.909   4.775   5.824
 5501TIP3   OH216459   3.681   7.143   5.890
 5501TIP3    H116460   3.681   7.238   5.889
 5501TIP3    H216461   3.773   7.118   5.899
 5502TIP3   OH216462   1.111   0.810   1.030
 5502TIP3    H116463   1.017   0.816   1.014
 5502TIP3    H216464   1.137   0.899   1.055
 5503TIP3   OH216465   4.196   2.249   6.309
 5503TIP3    H116466   4.268   2.311   6.318
 5503TIP3    H216467   4.235   2.172   6.268
 5504TIP3   OH216468   4.357   6.156   3.183
 5504TIP3    H116469   4.397   6.144   3.097
 5504TIP3    H216470   4.275   6.107   3.179
 5505TIP3   OH216471   6.488   3.977   6.556
 5505TIP3    H116472   6.551   3.919   6.514
 5505TIP3    H216473   6.498   4.061   6.511
 5506TIP3   OH216474   6.520   2.817   3.103
 5506TIP3    H116475   6.486   2.728   3.111
 5506TIP3    H216476   6.441   2.872   3.095
 5507TIP3   OH216477   7.549   1.847   2.727
 5507TIP3    H116478   7.600   1.842   2.808
 5507TIP3    H216479   7.614   1.839   2.658
 5508TIP3   OH216480   5.421   6.322   4.890
 5508TIP3    H116481   5.359   6.285   4.953
 5508TIP3    H216482   5.420   6.416   4.907
 5509TIP3   OH216483   2.249   7.434   1.924
 5509TIP3    H116484   2.240   7.510   1.981
 5509TIP3    H216485   2.264   7.361   1.983
 5510TIP3   OH216486   6.560   4.006   1.114
 5510TIP3    H116487   6.585   4.081   1.061
 5510TIP3    H216488   6.467   3.993   1.095
 5511TIP3   OH216489   8.003   2.554   5.124
 5511TIP3    H116490   7.927   2.582   5.175
 5511TIP3    H216491   8.013   2.461   5.147
 5512TIP3   OH216492   4.268   0.852   5.664
 5512TIP3    H116493   4.310   0.917   5.721
 5512TIP3    H216494   4.306   0.867   5.578
 5513TIP3   OH216495   2.764   5.654   4.547
 5513TIP3    H116496   2.814   5.734   4.564
 5513TIP3    H216497   2.750   5.615   4.634
 5514TIP3   OH216498   2.624   3.563   3.640
 5514TIP3    H116499   2.557   3.577   3.574
 5514TIP3    H216500   2.699   3.615   3.609
 5515TIP3   OH216501   4.803   2.814   1.397
 5515TIP3    H116502   4.856   2.747   1.353
 5515TIP3    H216503   4.813   2.794   1.490
 5516TIP3   OH216504   1.042   6.122   6.549
 5516TIP3    H116505   1.115   6.161   6.501
 5516TIP3    H216506   1.083   6.077   6.622
 5517TIP3   OH216507   5.053   3.090   5.244
 5517TIP3    H116508   5.104   3.114   5.322
 5517TIP3    H216509   5.017   3.004   5.265
 5518TIP3   OH216510   3.358   5.690   0.622
 5518TIP3    H116511   3.286   5.649   0.574
 5518TIP3    H216512   3.410   5.617   0.655
 5519TIP3   OH216513   8.067   6.370   0.666
 5519TIP3    H116514   7.980   6.339   0.640
 5519TIP3    H216515   8.094   6.430   0.597
 5520TIP3   OH216516   2.828   0.066   0.606
 5520TIP3    H116517   2.732   0.060   0.603
 5520TIP3    H216518   2.854   0.070   0.514
 5521TIP3   OH216519   1.561   3.024   0.380
 5521TIP3    H116520   1.507   2.978   0.316
 5521TIP3    H216521   1.608   3.090   0.329
 5522TIP3   OH216522   7.821   1.671   0.318
 5522TIP3    H116523   7.746   1.723   0.289
 5522TIP3    H216524   7.859   1.721   0.390
 5523TIP3   OH216525   1.420   5.298   5.740
 5523TIP3    H116526   1.512   5.318   5.752
 5523TIP3    H216527   1.402   5.322   5.649
 5524TIP3   OH216528   1.037   1.864   6.380
 5524TIP3    H116529   1.026   1.810   6.301
 5524TIP3    H216530   1.076   1.804   6.444
 5525TIP3   OH216531   2.714   3.646   0.195
 5525TIP3    H116532   2.636   3.659   0.249
 5525TIP3    H216533   2.700   3.560   0.155
 5526TIP3   OH216534   7.088   7.456   3.114
 5526TIP3    H116535   7.001   7.425   3.139
 5526TIP3    H216536   7.071   7.534   3.061
 5527TIP3   OH216537   6.674   0.685   0.777
 5527TIP3    H116538   6.759   0.694   0.819
 5527TIP3    H216539   6.623   0.761   0.806
 5528TIP3   OH216540   3.200   5.107   2.542
 5528TIP3    H116541   3.205   5.194   2.583
 5528TIP3    H216542   3.288   5.070   2.554
 5529TIP3   OH216543   3.595   2.355   6.212
 5529TIP3    H116544   3.652   2.280   6.194
 5529TIP3    H216545   3.550   2.331   6.293
 5530TIP3   OH216546   1.003   2.841   4.680
 5530TIP3    H116547   0.949   2.775   4.724
 5530TIP3    H216548   0.940   2.896   4.633
 5531TIP3   OH216549   0.414   4.507   1.865
 5531TIP3    H116550   0.459   4.576   1.914
 5531TIP3    H216551   0.374   4.552   1.791
 5532TIP3   OH216552   5.631   3.405   3.874
 5532TIP3    H116553   5.672   3.490   3.884
 5532TIP3    H216554   5.600   3.383   3.962
 5533TIP3   OH216555   2.847   5.005   4.324
 5533TIP3    H116556   2.772   4.963   4.367
 5533TIP3    H216557   2.924   4.965   4.365
 5534TIP3   OH216558   5.398   0.486   6.519
 5534TIP3    H116559   5.344   0.414   6.549
 5534TIP3    H216560   5.451   0.510   6.595
 5535TIP3   OH216561   3.804   7.061   1.558
 5535TIP3    H116562   3.780   7.037   1.469
 5535TIP3    H216563   3.721   7.085   1.600
 5536TIP3   OH216564   0.278   6.137   1.559
 5536TIP3    H116565   0.293   6.211   1.619
 5536TIP3    H216566   0.238   6.070   1.614
 5537TIP3   OH216567   1.009   7.486   5.342
 5537TIP3    H116568   1.015   7.581   5.351
 5537TIP3    H216569   0.925   7.471   5.298
 5538TIP3   OH216570   6.213   3.073   6.146
 5538TIP3    H116571   6.143   3.127   6.110
 5538TIP3    H216572   6.208   2.991   6.097
 5539TIP3   OH216573   1.429   5.960   0.866
 5539TIP3    H116574   1.360   5.962   0.801
 5539TIP3    H216575   1.406   5.887   0.924
 5540TIP3   OH216576   3.977   1.290   2.247
 5540TIP3    H116577   3.919   1.227   2.203
 5540TIP3    H216578   3.941   1.376   2.224
 5541TIP3   OH216579   8.047   2.366   6.419
 5541TIP3    H116580   8.084   2.341   6.335
 5541TIP3    H216581   8.122   2.394   6.472
 5542TIP3   OH216582   4.065   5.101   0.759
 5542TIP3    H116583   4.049   5.195   0.757
 5542TIP3    H216584   4.160   5.093   0.770
 5543TIP3   OH216585   6.778   3.565   0.350
 5543TIP3    H116586   6.861   3.547   0.394
 5543TIP3    H216587   6.800   3.626   0.280
 5544TIP3   OH216588   5.827   3.627   6.396
 5544TIP3    H116589   5.748   3.677   6.375
 5544TIP3    H216590   5.795   3.556   6.453
 5545TIP3   OH216591   2.537   2.896   0.208
 5545TIP3    H116592   2.554   2.977   0.159
 5545TIP3    H216593   2.583   2.828   0.158
 5546TIP3   OH216594   1.378   5.363   2.254
 5546TIP3    H116595   1.311   5.428   2.235
 5546TIP3    H216596   1.427   5.354   2.172
 5547TIP3   OH216597   7.334   6.117   0.897
 5547TIP3    H116598   7.266   6.056   0.925
 5547TIP3    H216599   7.309   6.141   0.808
 5548TIP3   OH216600   6.451   2.325   6.496
 5548TIP3    H116601   6.466   2.382   6.420
 5548TIP3    H216602   6.358   2.332   6.513
 5549TIP3   OH216603   0.299   7.179   4.710
 5549TIP3    H116604   0.328   7.263   4.674
 5549TIP3    H216605   0.300   7.120   4.635
 5550TIP3   OH216606   7.157   3.187   5.034
 5550TIP3    H116607   7.188   3.210   4.947
 5550TIP3    H216608   7.236   3.164   5.083
 5551TIP3   OH216609   6.652   6.852   1.850
 5551TIP3    H116610   6.628   6.860   1.758
 5551TIP3    H216611   6.726   6.912   1.862
 5552TIP3   OH216612   4.237   4.294   5.999
 5552TIP3    H116613   4.175   4.278   6.071
 5552TIP3    H216614   4.234   4.214   5.946
 5553TIP3   OH216615   6.255   4.604   6.757
 5553TIP3    H116616   6.250   4.691   6.717
 5553TIP3    H216617   6.347   4.595   6.783
 5554TIP3   OH216618   0.769   0.166   5.042
 5554TIP3    H116619   0.851   0.211   5.064
 5554TIP3    H216620   0.794   0.103   4.975
 5555TIP3   OH216621   3.104   1.851   4.592
 5555TIP3    H116622   3.129   1.767   4.631
 5555TIP3    H216623   3.027   1.879   4.643
 5556TIP3   OH216624   3.586   2.212   1.484
 5556TIP3    H116625   3.626   2.235   1.400
 5556TIP3    H216626   3.492   2.227   1.471
 5557TIP3   OH216627   4.921   7.232   5.457
 5557TIP3    H116628   4.843   7.178   5.442
 5557TIP3    H216629   4.899   7.286   5.533
 5558TIP3   OH216630   7.784   3.091   4.573
 5558TIP3    H116631   7.871   3.127   4.584
 5558TIP3    H216632   7.734   3.161   4.530
 5559TIP3   OH216633   3.349   6.666   4.368
 5559TIP3    H116634   3.298   6.745   4.389
 5559TIP3    H216635   3.344   6.612   4.447
 5560TIP3   OH216636   6.871   3.932   3.774
 5560TIP3    H116637   6.885   4.023   3.748
 5560TIP3    H216638   6.848   3.887   3.693
 5561TIP3   OH216639   0.037   3.217   6.019
 5561TIP3    H116640   0.101   3.270   6.067
 5561TIP3    H216641  -0.026   3.281   5.985
 5562TIP3   OH216642   0.257   1.471   4.788
 5562TIP3    H116643   0.334   1.434   4.744
 5562TIP3    H216644   0.291   1.505   4.871
 5563TIP3   OH216645   5.824   1.304   4.304
 5563TIP3    H116646   5.916   1.284   4.322
 5563TIP3    H216647   5.793   1.229   4.254
 5564TIP3   OH216648   0.336   1.564   6.392
 5564TIP3    H116649   0.431   1.573   6.383
 5564TIP3    H216650   0.317   1.605   6.477
 5565TIP3   OH216651   1.745   4.559   3.611
 5565TIP3    H116652   1.690   4.488   3.645
 5565TIP3    H216653   1.686   4.611   3.556
 5566TIP3   OH216654   1.207   4.860   5.570
 5566TIP3    H116655   1.198   4.943   5.524
 5566TIP3    H216656   1.160   4.797   5.516
 5567TIP3   OH216657   6.241   5.733   3.834
 5567TIP3    H116658   6.307   5.690   3.779
 5567TIP3    H216659   6.235   5.822   3.798
 5568TIP3   OH216660   0.454   1.432   1.751
 5568TIP3    H116661   0.455   1.413   1.657
 5568TIP3    H216662   0.429   1.524   1.756
 5569TIP3   OH216663   1.992   1.776   5.127
 5569TIP3    H116664   1.984   1.834   5.203
 5569TIP3    H216665   1.917   1.718   5.133
 5570TIP3   OH216666   1.584   0.770   6.710
 5570TIP3    H116667   1.621   0.711   6.776
 5570TIP3    H216668   1.603   0.858   6.743
 5571TIP3   OH216669   8.041   5.416   5.868
 5571TIP3    H116670   8.120   5.434   5.817
 5571TIP3    H216671   7.987   5.361   5.810
 5572TIP3   OH216672   0.262   5.288   6.073
 5572TIP3    H116673   0.296   5.207   6.111
 5572TIP3    H216674   0.187   5.310   6.128
 5573TIP3   OH216675   3.621   1.725   0.807
 5573TIP3    H116676   3.573   1.652   0.768
 5573TIP3    H216677   3.710   1.716   0.773
 5574TIP3   OH216678   4.978   2.475   3.869
 5574TIP3    H116679   4.983   2.535   3.943
 5574TIP3    H216680   4.889   2.441   3.871
 5575TIP3   OH216681   3.313   4.983   5.324
 5575TIP3    H116682   3.407   4.974   5.339
 5575TIP3    H216683   3.301   4.961   5.232
 5576TIP3   OH216684   1.223   0.362   0.775
 5576TIP3    H116685   1.224   0.457   0.785
 5576TIP3    H216686   1.153   0.344   0.713
 5577TIP3   OH216687   8.209   0.299   0.462
 5577TIP3    H116688   8.133   0.348   0.431
 5577TIP3    H216689   8.178   0.256   0.543
 5578TIP3   OH216690   5.472   3.395   0.827
 5578TIP3    H116691   5.492   3.424   0.738
 5578TIP3    H216692   5.383   3.359   0.822
 5579TIP3   OH216693   5.849   1.400   3.057
 5579TIP3    H116694   5.816   1.431   3.142
 5579TIP3    H216695   5.801   1.319   3.041
 5580TIP3   OH216696   1.466   3.715   5.650
 5580TIP3    H116697   1.492   3.661   5.576
 5580TIP3    H216698   1.542   3.772   5.665
 5581TIP3   OH216699   2.505   0.695   1.727
 5581TIP3    H116700   2.511   0.636   1.802
 5581TIP3    H216701   2.479   0.779   1.764
 5582TIP3   OH216702   4.767   7.606   1.907
 5582TIP3    H116703   4.697   7.550   1.941
 5582TIP3    H216704   4.730   7.694   1.909
 5583TIP3   OH216705   2.926   5.338   0.622
 5583TIP3    H116706   2.964   5.423   0.645
 5583TIP3    H216707   2.996   5.275   0.638
 5584TIP3   OH216708   5.851   6.779   4.854
 5584TIP3    H116709   5.760   6.794   4.878
 5584TIP3    H216710   5.901   6.841   4.907
 5585TIP3   OH216711   4.405   2.622   1.550
 5585TIP3    H116712   4.397   2.551   1.487
 5585TIP3    H216713   4.424   2.579   1.633
 5586TIP3   OH216714   5.360   1.940   6.377
 5586TIP3    H116715   5.410   1.866   6.342
 5586TIP3    H216716   5.422   1.985   6.435
 5587TIP3   OH216717   6.642   2.355   5.465
 5587TIP3    H116718   6.550   2.366   5.487
 5587TIP3    H216719   6.672   2.443   5.443
 5588TIP3   OH216720   4.834   6.381   4.348
 5588TIP3    H116721   4.855   6.291   4.371
 5588TIP3    H216722   4.790   6.376   4.263
 5589TIP3   OH216723   1.191   6.078   4.931
 5589TIP3    H116724   1.209   5.991   4.967
 5589TIP3    H216725   1.138   6.121   4.998
 5590TIP3   OH216726   6.535   5.031   0.466
 5590TIP3    H116727   6.595   5.060   0.397
 5590TIP3    H216728   6.514   5.110   0.515
 5591TIP3   OH216729   5.506   2.587   2.114
 5591TIP3    H116730   5.510   2.593   2.210
 5591TIP3    H216731   5.460   2.505   2.098
 5592TIP3   OH216732   2.481   2.802   0.989
 5592TIP3    H116733   2.427   2.822   0.913
 5592TIP3    H216734   2.491   2.707   0.987
 5593TIP3   OH216735   1.744   6.374   4.550
 5593TIP3    H116736   1.832   6.405   4.573
 5593TIP3    H216737   1.740   6.285   4.584
 5594TIP3   OH216738   6.836   2.613   3.713
 5594TIP3    H116739   6.848   2.698   3.755
 5594TIP3    H216740   6.742   2.602   3.705
 5595TIP3   OH216741   7.914   0.811   2.798
 5595TIP3    H116742   7.924   0.716   2.793
 5595TIP3    H216743   7.997   0.841   2.835
 5596TIP3   OH216744   4.798   4.151   2.578
 5596TIP3    H116745   4.862   4.082   2.557
 5596TIP3    H216746   4.739   4.151   2.502
 5597TIP3   OH216747   6.245   0.484   3.807
 5597TIP3    H116748   6.336   0.486   3.780
 5597TIP3    H216749   6.227   0.572   3.839
 5598TIP3   OH216750   2.544   5.858   5.416
 5598TIP3    H116751   2.611   5.815   5.470
 5598TIP3    H216752   2.569   5.837   5.326
 5599TIP3   OH216753   1.058   6.210   5.145
 5599TIP3    H116754   1.066   6.303   5.123
 5599TIP3    H216755   1.063   6.207   5.240
 5600TIP3   OH216756   2.506   4.916   0.950
 5600TIP3    H116757   2.503   4.821   0.960
 5600TIP3    H216758   2.545   4.948   1.031
 5601TIP3   OH216759   5.839   0.680   6.230
 5601TIP3    H116760   5.882   0.721   6.306
 5601TIP3    H216761   5.892   0.707   6.155
 5602TIP3   OH216762   2.165   0.267   1.168
 5602TIP3    H116763   2.086   0.213   1.160
 5602TIP3    H216764   2.214   0.250   1.088
 5603TIP3   OH216765   3.644   2.179   0.613
 5603TIP3    H116766   3.614   2.123   0.542
 5603TIP3    H216767   3.564   2.206   0.658
 5604TIP3   OH216768   0.139   3.589   0.330
 5604TIP3    H116769   0.088   3.507   0.329
 5604TIP3    H216770   0.139   3.618   0.239
 5605TIP3   OH216771   5.300   0.797   5.630
 5605TIP3    H116772   5.343   0.854   5.694
 5605TIP3    H216773   5.237   0.855   5.586
 5606TIP3   OH216774   4.091   5.311   2.035
 5606TIP3    H116775   4.159   5.330   1.971
 5606TIP3    H216776   4.020   5.272   1.984
 5607TIP3   OH216777   0.976   0.352   0.648
 5607TIP3    H116778   0.922   0.378   0.722
 5607TIP3    H216779   0.925   0.285   0.603
 5608TIP3   OH216780   7.757   6.338   4.649
 5608TIP3    H116781   7.705   6.287   4.587
 5608TIP3    H216782   7.705   6.417   4.664
 5609TIP3   OH216783   0.713   6.910   5.178
 5609TIP3    H116784   0.777   6.901   5.248
 5609TIP3    H216785   0.639   6.955   5.218
 5610TIP3   OH216786   5.867   3.649   3.824
 5610TIP3    H116787   5.944   3.597   3.800
 5610TIP3    H216788   5.841   3.692   3.743
 5611TIP3   OH216789   2.116   4.643   6.259
 5611TIP3    H116790   2.166   4.611   6.185
 5611TIP3    H216791   2.029   4.604   6.248
 5612TIP3   OH216792   1.180   4.822   3.446
 5612TIP3    H116793   1.183   4.736   3.489
 5612TIP3    H216794   1.088   4.846   3.445
 5613TIP3   OH216795   7.585   3.282   5.832
 5613TIP3    H116796   7.637   3.326   5.900
 5613TIP3    H216797   7.582   3.191   5.859
 5614TIP3   OH216798   6.557   1.319   3.717
 5614TIP3    H116799   6.647   1.345   3.696
 5614TIP3    H216800   6.522   1.287   3.634
 5615TIP3   OH216801   8.137   1.475   1.761
 5615TIP3    H116802   8.148   1.541   1.829
 5615TIP3    H216803   8.216   1.483   1.706
 5616TIP3   OH216804   1.614   6.110   4.304
 5616TIP3    H116805   1.700   6.098   4.344
 5616TIP3    H216806   1.584   6.020   4.285
 5617TIP3   OH216807   4.315   7.160   4.698
 5617TIP3    H116808   4.272   7.078   4.720
 5617TIP3    H216809   4.264   7.227   4.742
 5618TIP3   OH216810   7.272   7.551   2.676
 5618TIP3    H116811   7.328   7.610   2.727
 5618TIP3    H216812   7.213   7.609   2.628
 5619TIP3   OH216813   6.601   2.339   1.453
 5619TIP3    H116814   6.642   2.354   1.539
 5619TIP3    H216815   6.608   2.424   1.409
 5620TIP3   OH216816   2.437   5.732   4.977
 5620TIP3    H116817   2.494   5.764   5.046
 5620TIP3    H216818   2.480   5.759   4.896
 5621TIP3   OH216819   2.809   4.015   3.629
 5621TIP3    H116820   2.794   4.106   3.654
 5621TIP3    H216821   2.735   3.993   3.572
 5622TIP3   OH216822   0.540   1.998   0.256
 5622TIP3    H116823   0.545   2.044   0.340
 5622TIP3    H216824   0.577   2.060   0.192
 5623TIP3   OH216825   1.222   0.555   2.045
 5623TIP3    H116826   1.293   0.511   1.998
 5623TIP3    H216827   1.261   0.580   2.129
 5624TIP3   OH216828   5.770   1.112   0.932
 5624TIP3    H116829   5.834   1.042   0.920
 5624TIP3    H216830   5.692   1.069   0.967
 5625TIP3   OH216831   0.980   7.456   6.155
 5625TIP3    H116832   0.922   7.493   6.222
 5625TIP3    H216833   0.921   7.409   6.096
 5626TIP3   OH216834   0.390   3.492   2.857
 5626TIP3    H116835   0.369   3.415   2.804
 5626TIP3    H216836   0.436   3.551   2.797
 5627TIP3   OH216837   6.586   6.835   5.071
 5627TIP3    H116838   6.646   6.904   5.100
 5627TIP3    H216839   6.584   6.773   5.144
 5628TIP3   OH216840   3.414   2.262   0.749
 5628TIP3    H116841   3.321   2.248   0.766
 5628TIP3    H216842   3.455   2.256   0.835
 5629TIP3   OH216843   1.593   6.148   2.939
 5629TIP3    H116844   1.672   6.188   2.903
 5629TIP3    H216845   1.528   6.218   2.938
 5630TIP3   OH216846   2.163   2.276   5.429
 5630TIP3    H116847   2.119   2.360   5.438
 5630TIP3    H216848   2.155   2.254   5.336
 5631TIP3   OH216849   7.347   4.534   5.676
 5631TIP3    H116850   7.363   4.499   5.589
 5631TIP3    H216851   7.394   4.618   5.678
 5632TIP3   OH216852   2.812   2.296   2.428
 5632TIP3    H116853   2.879   2.290   2.496
 5632TIP3    H216854   2.804   2.390   2.410
 5633TIP3   OH216855   2.786   7.768   3.178
 5633TIP3    H116856   2.789   7.673   3.173
 5633TIP3    H216857   2.698   7.791   3.149
 5634TIP3   OH216858   6.208   1.671   0.068
 5634TIP3    H116859   6.161   1.597   0.030
 5634TIP3    H216860   6.162   1.749   0.036
 5635TIP3   OH216861   3.506   0.056   6.704
 5635TIP3    H116862   3.591   0.041   6.747
 5635TIP3    H216863   3.456   0.107   6.767
 5636TIP3   OH216864   4.744   1.537   2.069
 5636TIP3    H116865   4.660   1.571   2.039
 5636TIP3    H216866   4.763   1.463   2.012
 5637TIP3   OH216867   1.032   6.618   5.278
 5637TIP3    H116868   0.951   6.572   5.254
 5637TIP3    H216869   1.031   6.697   5.224
 5638TIP3   OH216870   6.423   2.223   4.599
 5638TIP3    H116871   6.417   2.146   4.544
 5638TIP3    H216872   6.493   2.202   4.662
 5639TIP3   OH216873   1.751   1.234   2.919
 5639TIP3    H116874   1.778   1.157   2.969
 5639TIP3    H216875   1.825   1.250   2.859
 5640TIP3   OH216876   3.347   2.940   5.657
 5640TIP3    H116877   3.420   2.959   5.598
 5640TIP3    H216878   3.338   2.845   5.653
 5641TIP3   OH216879   5.858   2.404   6.032
 5641TIP3    H116880   5.818   2.489   6.051
 5641TIP3    H216881   5.787   2.341   6.046
 5642TIP3   OH216882   6.276   7.248   3.084
 5642TIP3    H116883   6.248   7.173   3.136
 5642TIP3    H216884   6.303   7.210   3.000
 5643TIP3   OH216885   5.172   0.282   5.551
 5643TIP3    H116886   5.216   0.232   5.620
 5643TIP3    H216887   5.241   0.303   5.488
 5644TIP3   OH216888   5.612   2.585   2.380
 5644TIP3    H116889   5.678   2.568   2.448
 5644TIP3    H216890   5.576   2.671   2.402
 5645TIP3   OH216891   1.487   7.195   2.516
 5645TIP3    H116892   1.397   7.217   2.494
 5645TIP3    H216893   1.480   7.125   2.581
 5646TIP3   OH216894   5.506   0.084   4.110
 5646TIP3    H116895   5.595   0.114   4.128
 5646TIP3    H216896   5.506   0.061   4.017
 5647TIP3   OH216897   3.961   5.428   0.662
 5647TIP3    H116898   3.994   5.404   0.575
 5647TIP3    H216899   3.920   5.514   0.649
 5648TIP3   OH216900   7.426   0.483   4.370
 5648TIP3    H116901   7.435   0.578   4.357
 5648TIP3    H216902   7.379   0.476   4.454
 5649TIP3   OH216903   3.345   4.992   3.741
 5649TIP3    H116904   3.420   5.042   3.709
 5649TIP3    H216905   3.288   5.058   3.780
 5650TIP3   OH216906   0.051   5.635   0.278
 5650TIP3    H116907   0.042   5.722   0.317
 5650TIP3    H216908  -0.034   5.593   0.293
 5651TIP3   OH216909   2.626   1.424  -0.006
 5651TIP3    H116910   2.533   1.449  -0.006
 5651TIP3    H216911   2.661   1.463   0.074
 5652TIP3   OH216912   6.064   5.196   0.921
 5652TIP3    H116913   6.076   5.102   0.913
 5652TIP3    H216914   5.994   5.216   0.858
 5653TIP3   OH216915   6.768   2.776   4.173
 5653TIP3    H116916   6.763   2.688   4.211
 5653TIP3    H216917   6.699   2.777   4.107
 5654TIP3   OH216918   0.109   2.548   4.168
 5654TIP3    H116919   0.057   2.591   4.236
 5654TIP3    H216920   0.159   2.618   4.128
 5655TIP3   OH216921   2.037   1.045   0.165
 5655TIP3    H116922   2.038   0.950   0.156
 5655TIP3    H216923   2.024   1.078   0.076
 5656TIP3   OH216924   8.037   5.084   5.521
 5656TIP3    H116925   8.049   5.136   5.441
 5656TIP3    H216926   8.102   5.119   5.582
 5657TIP3   OH216927   7.243   5.301   6.505
 5657TIP3    H116928   7.200   5.324   6.423
 5657TIP3    H216929   7.260   5.207   6.498
 5658TIP3   OH216930   4.571   6.338   0.994
 5658TIP3    H116931   4.499   6.296   1.043
 5658TIP3    H216932   4.626   6.265   0.965
 5659TIP3   OH216933   7.593   1.662   2.451
 5659TIP3    H116934   7.556   1.575   2.463
 5659TIP3    H216935   7.564   1.690   2.364
 5660TIP3   OH216936   0.135   2.610   1.020
 5660TIP3    H116937   0.177   2.527   1.043
 5660TIP3    H216938   0.081   2.632   1.096
 5661TIP3   OH216939   6.878   3.995   0.999
 5661TIP3    H116940   6.829   4.076   1.005
 5661TIP3    H216941   6.970   4.022   0.994
 5662TIP3   OH216942   1.472   3.403   3.115
 5662TIP3    H116943   1.480   3.356   3.198
 5662TIP3    H216944   1.491   3.494   3.138
 5663TIP3   OH216945   4.757   0.789   1.148
 5663TIP3    H116946   4.840   0.837   1.153
 5663TIP3    H216947   4.727   0.802   1.058
 5664TIP3   OH216948   8.142   3.435   5.278
 5664TIP3    H116949   8.228   3.400   5.300
 5664TIP3    H216950   8.149   3.529   5.294
 5665TIP3   OH216951   4.447   7.188   2.051
 5665TIP3    H116952   4.522   7.135   2.077
 5665TIP3    H216953   4.479   7.239   1.976
 5666TIP3   OH216954   2.208   4.968   0.902
 5666TIP3    H116955   2.172   5.001   0.820
 5666TIP3    H216956   2.298   4.943   0.881
 5667TIP3   OH216957   1.696   3.748   3.214
 5667TIP3    H116958   1.702   3.687   3.287
 5667TIP3    H216959   1.637   3.817   3.245
 5668TIP3   OH216960   1.233   6.305   6.409
 5668TIP3    H116961   1.277   6.307   6.324
 5668TIP3    H216962   1.287   6.360   6.466
 5669TIP3   OH216963   5.729   7.631   1.721
 5669TIP3    H116964   5.740   7.567   1.790
 5669TIP3    H216965   5.796   7.609   1.656
 5670TIP3   OH216966   8.135   3.708   4.640
 5670TIP3    H116967   8.150   3.786   4.693
 5670TIP3    H216968   8.056   3.727   4.590
 5671TIP3   OH216969   0.263   4.228   4.470
 5671TIP3    H116970   0.312   4.285   4.529
 5671TIP3    H216971   0.196   4.188   4.525
 5672TIP3   OH216972   7.399   3.191   5.260
 5672TIP3    H116973   7.452   3.127   5.307
 5672TIP3    H216974   7.363   3.247   5.328
 5673TIP3   OH216975   1.861   4.902   3.278
 5673TIP3    H116976   1.939   4.955   3.262
 5673TIP3    H216977   1.849   4.853   3.197
 5674TIP3   OH216978   5.130   4.529   3.102
 5674TIP3    H116979   5.207   4.472   3.098
 5674TIP3    H216980   5.156   4.602   3.158
 5675TIP3   OH216981   0.284   5.639   0.483
 5675TIP3    H116982   0.315   5.581   0.552
 5675TIP3    H216983   0.191   5.616   0.472
 5676TIP3   OH216984   3.807   0.664   6.815
 5676TIP3    H116985   3.844   0.605   6.749
 5676TIP3    H216986   3.797   0.748   6.769
 5677TIP3   OH216987   6.671   1.410   1.229
 5677TIP3    H116988   6.607   1.346   1.259
 5677TIP3    H216989   6.694   1.382   1.141
 5678TIP3   OH216990   3.926   3.599   1.605
 5678TIP3    H116991   3.988   3.637   1.668
 5678TIP3    H216992   3.981   3.571   1.532
 5679TIP3   OH216993   6.600   5.874   5.325
 5679TIP3    H116994   6.521   5.822   5.307
 5679TIP3    H216995   6.666   5.809   5.350
 5680TIP3   OH216996   5.299   3.739   2.154
 5680TIP3    H116997   5.295   3.761   2.247
 5680TIP3    H216998   5.266   3.650   2.149
 5681TIP3   OH216999   5.625   3.774   6.302
 5681TIP3    H117000   5.562   3.756   6.233
 5681TIP3    H217001   5.672   3.852   6.272
 5682TIP3   OH217002   1.325   1.825   6.223
 5682TIP3    H117003   1.351   1.836   6.131
 5682TIP3    H217004   1.316   1.914   6.256
 5683TIP3   OH217005   7.801   7.513   5.411
 5683TIP3    H117006   7.885   7.553   5.436
 5683TIP3    H217007   7.772   7.467   5.490
 5684TIP3   OH217008   6.720   1.958   4.812
 5684TIP3    H117009   6.728   1.875   4.859
 5684TIP3    H217010   6.643   1.947   4.756
 5685TIP3   OH217011   4.494   6.134   5.289
 5685TIP3    H117012   4.525   6.180   5.211
 5685TIP3    H217013   4.545   6.171   5.361
 5686TIP3   OH217014   6.070   0.617   4.636
 5686TIP3    H117015   5.984   0.615   4.678
 5686TIP3    H217016   6.053   0.643   4.546
 5687TIP3   OH217017   6.102   0.930   3.940
 5687TIP3    H117018   6.107   0.976   4.024
 5687TIP3    H217019   6.148   0.986   3.878
 5688TIP3   OH217020   6.220   5.816   3.023
 5688TIP3    H117021   6.214   5.792   2.931
 5688TIP3    H217022   6.192   5.738   3.070
 5689TIP3   OH217023   2.569   7.454   6.485
 5689TIP3    H117024   2.536   7.484   6.401
 5689TIP3    H217025   2.547   7.361   6.489
 5690TIP3   OH217026   5.200   2.585   0.075
 5690TIP3    H117027   5.282   2.540   0.054
 5690TIP3    H217028   5.225   2.675   0.091
 5691TIP3   OH217029   0.977   5.535   1.714
 5691TIP3    H117030   0.930   5.473   1.768
 5691TIP3    H217031   1.035   5.581   1.774
 5692TIP3   OH217032   1.357   1.032   2.407
 5692TIP3    H117033   1.379   1.110   2.355
 5692TIP3    H217034   1.428   0.970   2.387
 5693TIP3   OH217035   7.428   0.213   6.227
 5693TIP3    H117036   7.373   0.232   6.151
 5693TIP3    H217037   7.480   0.292   6.240
 5694TIP3   OH217038   1.381   0.887   1.344
 5694TIP3    H117039   1.471   0.854   1.335
 5694TIP3    H217040   1.338   0.823   1.400
 5695TIP3   OH217041   4.775   5.816   2.045
 5695TIP3    H117042   4.760   5.827   2.139
 5695TIP3    H217043   4.723   5.884   2.003
 5696TIP3   OH217044   1.561   6.633   5.260
 5696TIP3    H117045   1.555   6.682   5.178
 5696TIP3    H217046   1.493   6.567   5.254
 5697TIP3   OH217047   3.864   6.058   0.408
 5697TIP3    H117048   3.821   6.107   0.338
 5697TIP3    H217049   3.894   6.125   0.469
 5698TIP3   OH217050   7.047   7.725   3.302
 5698TIP3    H117051   7.066   7.704   3.211
 5698TIP3    H217052   7.042   7.639   3.346
 5699TIP3   OH217053   7.855   2.132   0.940
 5699TIP3    H117054   7.837   2.204   1.000
 5699TIP3    H217055   7.775   2.079   0.941
 5700TIP3   OH217056   2.317   3.714   2.379
 5700TIP3    H117057   2.360   3.710   2.465
 5700TIP3    H217058   2.271   3.798   2.379
 5701TIP3   OH217059   3.347   4.001   2.508
 5701TIP3    H117060   3.337   4.069   2.575
 5701TIP3    H217061   3.271   4.013   2.451
 5702TIP3   OH217062   1.451   6.955   2.686
 5702TIP3    H117063   1.403   6.924   2.609
 5702TIP3    H217064   1.391   6.942   2.759
 5703TIP3   OH217065   1.531   6.455   5.520
 5703TIP3    H117066   1.446   6.412   5.518
 5703TIP3    H217067   1.529   6.515   5.445
 5704TIP3   OH217068   1.695   6.945   6.584
 5704TIP3    H117069   1.627   7.011   6.570
 5704TIP3    H217070   1.718   6.952   6.677
 5705TIP3   OH217071   8.079   6.731   0.750
 5705TIP3    H117072   8.002   6.788   0.742
 5705TIP3    H217073   8.143   6.770   0.692
 5706TIP3   OH217074   2.944   4.401   0.080
 5706TIP3    H117075   2.910   4.449   0.005
 5706TIP3    H217076   2.873   4.404   0.145
 5707TIP3   OH217077   1.235   6.441   2.381
 5707TIP3    H117078   1.274   6.459   2.467
 5707TIP3    H217079   1.155   6.393   2.401
 5708TIP3   OH217080   4.304   0.595   2.841
 5708TIP3    H117081   4.396   0.621   2.839
 5708TIP3    H217082   4.288   0.573   2.932
 5709TIP3   OH217083   7.085   7.049   2.344
 5709TIP3    H117084   7.035   7.097   2.410
 5709TIP3    H217085   7.152   7.111   2.315
 5710TIP3   OH217086   7.804   6.511   1.857
 5710TIP3    H117087   7.759   6.483   1.937
 5710TIP3    H217088   7.768   6.597   1.838
 5711TIP3   OH217089   5.541   3.367   2.153
 5711TIP3    H117090   5.541   3.459   2.128
 5711TIP3    H217091   5.609   3.327   2.099
 5712TIP3   OH217092   0.458   3.956   6.622
 5712TIP3    H117093   0.408   3.949   6.704
 5712TIP3    H217094   0.549   3.959   6.650
 5713TIP3   OH217095   7.742   0.608   0.779
 5713TIP3    H117096   7.822   0.660   0.773
 5713TIP3    H217097   7.673   0.673   0.796
 5714TIP3   OH217098   5.057   7.526   3.873
 5714TIP3    H117099   5.098   7.551   3.791
 5714TIP3    H217100   4.993   7.459   3.848
 5715TIP3   OH217101   8.107   5.969   1.132
 5715TIP3    H117102   8.013   5.956   1.123
 5715TIP3    H217103   8.121   6.062   1.115
 5716TIP3   OH217104   2.864   4.036   5.674
 5716TIP3    H117105   2.874   4.045   5.769
 5716TIP3    H217106   2.892   3.946   5.655
 5717TIP3   OH217107   4.789   1.301   1.892
 5717TIP3    H117108   4.821   1.231   1.835
 5717TIP3    H217109   4.789   1.378   1.836
 5718TIP3   OH217110   1.434   6.212   2.641
 5718TIP3    H117111   1.485   6.286   2.675
 5718TIP3    H217112   1.480   6.134   2.674
 5719TIP3   OH217113   5.827   2.627   1.165
 5719TIP3    H117114   5.762   2.651   1.231
 5719TIP3    H217115   5.911   2.649   1.206
 5720TIP3   OH217116   1.408   3.788   4.345
 5720TIP3    H117117   1.323   3.786   4.302
 5720TIP3    H217118   1.471   3.776   4.274
 5721TIP3   OH217119   1.853   3.399   3.774
 5721TIP3    H117120   1.847   3.306   3.798
 5721TIP3    H217121   1.934   3.429   3.815
 5722TIP3   OH217122   3.573   2.942   0.560
 5722TIP3    H117123   3.495   2.995   0.545
 5722TIP3    H217124   3.646   3.004   0.561
 5723TIP3   OH217125   5.970   7.306   5.506
 5723TIP3    H117126   5.952   7.287   5.598
 5723TIP3    H217127   5.951   7.399   5.496
 5724TIP3   OH217128   6.426   2.084   3.688
 5724TIP3    H117129   6.467   2.027   3.752
 5724TIP3    H217130   6.498   2.137   3.653
 5725TIP3   OH217131   0.026   0.252   0.087
 5725TIP3    H117132   0.089   0.254   0.014
 5725TIP3    H217133   0.022   0.343   0.117
 5726TIP3   OH217134   5.149   5.660   5.990
 5726TIP3    H117135   5.089   5.731   5.967
 5726TIP3    H217136   5.112   5.583   5.947
 5727TIP3   OH217137   0.436   5.133   0.105
 5727TIP3    H117138   0.447   5.200   0.038
 5727TIP3    H217139   0.435   5.181   0.188
 5728TIP3   OH217140   1.900   4.613   0.431
 5728TIP3    H117141   1.950   4.674   0.377
 5728TIP3    H217142   1.964   4.547   0.458
 5729TIP3   OH217143   2.064   6.909   5.033
 5729TIP3    H117144   1.970   6.923   5.020
 5729TIP3    H217145   2.071   6.874   5.122
 5730TIP3   OH217146   3.805   3.878   4.530
 5730TIP3    H117147   3.848   3.962   4.543
 5730TIP3    H217148   3.752   3.866   4.610
 5731TIP3   OH217149   8.252   5.328   2.631
 5731TIP3    H117150   8.347   5.330   2.646
 5731TIP3    H217151   8.214   5.317   2.717
 5732TIP3   OH217152   5.783   0.350   2.726
 5732TIP3    H117153   5.774   0.257   2.748
 5732TIP3    H217154   5.859   0.353   2.667
 5733TIP3   OH217155   4.743   3.122   1.716
 5733TIP3    H117156   4.801   3.050   1.689
 5733TIP3    H217157   4.717   3.100   1.805
 5734TIP3   OH217158   7.820   1.221   1.192
 5734TIP3    H117159   7.830   1.225   1.097
 5734TIP3    H217160   7.735   1.180   1.207
 5735TIP3   OH217161   0.534   0.691   1.856
 5735TIP3    H117162   0.618   0.729   1.828
 5735TIP3    H217163   0.558   0.634   1.930
 5736TIP3   OH217164   4.661   1.844   6.724
 5736TIP3    H117165   4.675   1.920   6.668
 5736TIP3    H217166   4.633   1.775   6.664
 5737TIP3   OH217167   1.787   5.891   6.224
 5737TIP3    H117168   1.838   5.971   6.236
 5737TIP3    H217169   1.800   5.841   6.305
 5738TIP3   OH217170   1.984   2.353   3.934
 5738TIP3    H117171   1.988   2.288   3.865
 5738TIP3    H217172   1.988   2.302   4.015
 5739TIP3   OH217173   0.396   5.811   2.501
 5739TIP3    H117174   0.354   5.726   2.498
 5739TIP3    H217175   0.490   5.792   2.499
 5740TIP3   OH217176   3.370   1.077   2.425
 5740TIP3    H117177   3.439   1.011   2.421
 5740TIP3    H217178   3.345   1.081   2.517
 5741TIP3   OH217179   1.373   6.040   5.200
 5741TIP3    H117180   1.293   5.987   5.197
 5741TIP3    H217181   1.421   6.016   5.121
 5742TIP3   OH217182   3.709   1.031   0.433
 5742TIP3    H117183   3.640   1.082   0.476
 5742TIP3    H217184   3.769   1.097   0.398
 5743TIP3   OH217185   1.136   3.606   3.312
 5743TIP3    H117186   1.173   3.670   3.251
 5743TIP3    H217187   1.185   3.618   3.393
 5744TIP3   OH217188   4.688   5.581   3.945
 5744TIP3    H117189   4.737   5.619   4.018
 5744TIP3    H217190   4.611   5.541   3.985
 5745TIP3   OH217191   8.011   7.195   2.188
 5745TIP3    H117192   8.013   7.117   2.243
 5745TIP3    H217193   8.034   7.267   2.248
 5746TIP3   OH217194   6.367   3.214   2.250
 5746TIP3    H117195   6.382   3.289   2.192
 5746TIP3    H217196   6.394   3.246   2.336
 5747TIP3   OH217197   1.682   6.878   1.576
 5747TIP3    H117198   1.676   6.903   1.484
 5747TIP3    H217199   1.667   6.959   1.624
 5748TIP3   OH217200   4.909   2.104   1.721
 5748TIP3    H117201   4.830   2.056   1.747
 5748TIP3    H217202   4.950   2.048   1.655
 5749TIP3   OH217203   1.254   3.290   2.650
 5749TIP3    H117204   1.273   3.261   2.740
 5749TIP3    H217205   1.252   3.386   2.656
 5750TIP3   OH217206   4.758   3.280   2.084
 5750TIP3    H117207   4.854   3.279   2.085
 5750TIP3    H217208   4.736   3.373   2.076
 5751TIP3   OH217209   2.104   3.643   3.604
 5751TIP3    H117210   2.010   3.653   3.622
 5751TIP3    H217211   2.146   3.656   3.688
 5752TIP3   OH217212   0.152   0.486   6.218
 5752TIP3    H117213   0.123   0.408   6.171
 5752TIP3    H217214   0.173   0.454   6.306
 5753TIP3   OH217215   6.812   1.188   4.107
 5753TIP3    H117216   6.842   1.133   4.034
 5753TIP3    H217217   6.818   1.130   4.184
 5754TIP3   OH217218   3.655   6.666   0.646
 5754TIP3    H117219   3.689   6.755   0.646
 5754TIP3    H217220   3.578   6.670   0.703
 5755TIP3   OH217221   7.559   2.504   2.039
 5755TIP3    H117222   7.475   2.544   2.061
 5755TIP3    H217223   7.600   2.487   2.123
 5756TIP3   OH217224   4.599   6.413   1.605
 5756TIP3    H117225   4.558   6.399   1.519
 5756TIP3    H217226   4.693   6.408   1.588
 5757TIP3   OH217227   5.795   5.344   5.519
 5757TIP3    H117228   5.868   5.367   5.463
 5757TIP3    H217229   5.812   5.389   5.602
 5758TIP3   OH217230   6.852   3.343   4.247
 5758TIP3    H117231   6.815   3.297   4.172
 5758TIP3    H217232   6.793   3.418   4.261
 5759TIP3   OH217233   2.522   6.713   0.233
 5759TIP3    H117234   2.456   6.752   0.291
 5759TIP3    H217235   2.471   6.665   0.168
 5760TIP3   OH217236   0.056   6.296   0.419
 5760TIP3    H117237  -0.024   6.304   0.470
 5760TIP3    H217238   0.030   6.245   0.342
 5761TIP3   OH217239   1.085   6.635   0.400
 5761TIP3    H117240   1.160   6.624   0.342
 5761TIP3    H217241   1.045   6.718   0.373
 5762TIP3   OH217242   1.396   1.341   1.429
 5762TIP3    H117243   1.423   1.256   1.395
 5762TIP3    H217244   1.360   1.387   1.353
 5763TIP3   OH217245   2.962   6.455   4.969
 5763TIP3    H117246   2.973   6.421   5.058
 5763TIP3    H217247   2.978   6.379   4.912
 5764TIP3   OH217248   1.947   6.458   3.304
 5764TIP3    H117249   1.966   6.528   3.242
 5764TIP3    H217250   2.031   6.441   3.347
 5765TIP3   OH217251   3.231   6.840   3.203
 5765TIP3    H117252   3.226   6.764   3.145
 5765TIP3    H217253   3.317   6.879   3.186
 5766TIP3   OH217254   7.562   0.904   3.058
 5766TIP3    H117255   7.600   0.957   2.988
 5766TIP3    H217256   7.557   0.816   3.021
 5767TIP3   OH217257   1.226   3.841   4.023
 5767TIP3    H117258   1.221   3.746   4.013
 5767TIP3    H217259   1.176   3.859   4.102
 5768TIP3   OH217260   5.870   4.490   3.874
 5768TIP3    H117261   5.827   4.405   3.880
 5768TIP3    H217262   5.800   4.551   3.851
 5769TIP3   OH217263   5.273   4.408   0.799
 5769TIP3    H117264   5.350   4.460   0.773
 5769TIP3    H217265   5.270   4.416   0.894
 5770TIP3   OH217266   3.554   1.209   2.241
 5770TIP3    H117267   3.593   1.123   2.226
 5770TIP3    H217268   3.517   1.205   2.329
 5771TIP3   OH217269   7.255   1.056   4.429
 5771TIP3    H117270   7.161   1.071   4.421
 5771TIP3    H217271   7.277   1.001   4.354
 5772TIP3   OH217272   4.961   5.026   3.599
 5772TIP3    H117273   4.919   5.050   3.516
 5772TIP3    H217274   4.952   4.931   3.604
 5773TIP3   OH217275   0.625   3.644   4.685
 5773TIP3    H117276   0.542   3.691   4.695
 5773TIP3    H217277   0.652   3.626   4.775
 5774TIP3   OH217278   7.340   1.608   2.067
 5774TIP3    H117279   7.290   1.689   2.079
 5774TIP3    H217280   7.325   1.584   1.975
 5775TIP3   OH217281   2.170   6.277   5.825
 5775TIP3    H117282   2.079   6.260   5.849
 5775TIP3    H217283   2.221   6.235   5.894
 5776TIP3   OH217284   0.136   2.957   0.518
 5776TIP3    H117285   0.073   2.885   0.513
 5776TIP3    H217286   0.178   2.946   0.603
 5777TIP3   OH217287   0.065   2.694   2.302
 5777TIP3    H117288   0.062   2.754   2.228
 5777TIP3    H217289   0.143   2.721   2.351
 5778TIP3   OH217290   3.565   3.225   2.711
 5778TIP3    H117291   3.558   3.236   2.616
 5778TIP3    H217292   3.557   3.314   2.746
 5779TIP3   OH217293   2.946   5.272   4.322
 5779TIP3    H117294   2.924   5.184   4.292
 5779TIP3    H217295   3.007   5.306   4.257
 5780TIP3   OH217296   6.440   2.644   1.208
 5780TIP3    H117297   6.477   2.727   1.178
 5780TIP3    H217298   6.465   2.580   1.141
 5781TIP3   OH217299   0.015   1.005   6.134
 5781TIP3    H117300  -0.007   0.915   6.158
 5781TIP3    H217301   0.111   1.007   6.137
 5782TIP3   OH217302   3.455   1.783   5.182
 5782TIP3    H117303   3.406   1.821   5.109
 5782TIP3    H217304   3.400   1.799   5.259
 5783TIP3   OH217305   7.072   7.674   3.993
 5783TIP3    H117306   7.129   7.723   4.052
 5783TIP3    H217307   7.114   7.682   3.907
 5784TIP3   OH217308   2.425   1.026   4.486
 5784TIP3    H117309   2.366   0.979   4.545
 5784TIP3    H217310   2.371   1.097   4.450
 5785TIP3   OH217311   2.832   5.982   5.502
 5785TIP3    H117312   2.768   6.051   5.483
 5785TIP3    H217313   2.819   5.963   5.594
 5786TIP3   OH217314   0.180   3.889   6.754
 5786TIP3    H117315   0.155   3.854   6.668
 5786TIP3    H217316   0.249   3.830   6.785
 5787TIP3   OH217317   3.542   0.821   1.934
 5787TIP3    H117318   3.530   0.915   1.950
 5787TIP3    H217319   3.453   0.786   1.931
 5788TIP3   OH217320   0.774   4.071   0.580
 5788TIP3    H117321   0.689   4.069   0.622
 5788TIP3    H217322   0.781   4.159   0.542
 5789TIP3   OH217323   0.570   0.110   5.285
 5789TIP3    H117324   0.614   0.153   5.212
 5789TIP3    H217325   0.513   0.177   5.321
 5790TIP3   OH217326   3.853   1.625   4.464
 5790TIP3    H117327   3.802   1.672   4.397
 5790TIP3    H217328   3.861   1.687   4.536
 5791TIP3   OH217329   1.134   4.396   5.061
 5791TIP3    H117330   1.139   4.331   5.130
 5791TIP3    H217331   1.067   4.458   5.091
 5792TIP3   OH217332   0.306   1.768   3.832
 5792TIP3    H117333   0.390   1.813   3.831
 5792TIP3    H217334   0.300   1.725   3.747
 5793TIP3   OH217335   7.963   1.743   3.523
 5793TIP3    H117336   7.959   1.805   3.595
 5793TIP3    H217337   7.875   1.745   3.485
 5794TIP3   OH217338   0.259   5.007   1.503
 5794TIP3    H117339   0.327   5.049   1.450
 5794TIP3    H217340   0.305   4.978   1.582
 5795TIP3   OH217341   3.283   5.781   5.968
 5795TIP3    H117342   3.273   5.689   5.944
 5795TIP3    H217343   3.372   5.803   5.941
 5796TIP3   OH217344   0.694   7.545   6.276
 5796TIP3    H117345   0.659   7.629   6.246
 5796TIP3    H217346   0.656   7.480   6.217
 5797TIP3   OH217347   2.669   1.743   4.181
 5797TIP3    H117348   2.741   1.696   4.224
 5797TIP3    H217349   2.673   1.832   4.216
 5798TIP3   OH217350   0.709   0.835   2.548
 5798TIP3    H117351   0.635   0.867   2.600
 5798TIP3    H217352   0.735   0.910   2.495
 5799TIP3   OH217353   8.098   7.091   4.425
 5799TIP3    H117354   8.025   7.084   4.362
 5799TIP3    H217355   8.056   7.119   4.506
 5800TIP3   OH217356   3.860   1.256   5.779
 5800TIP3    H117357   3.919   1.186   5.807
 5800TIP3    H217358   3.863   1.252   5.683
 5801TIP3   OH217359   2.982   3.195   4.130
 5801TIP3    H117360   2.968   3.246   4.050
 5801TIP3    H217361   3.019   3.112   4.099
 5802TIP3   OH217362   2.449   6.375   1.344
 5802TIP3    H117363   2.501   6.392   1.422
 5802TIP3    H217364   2.364   6.415   1.362
 5803TIP3   OH217365   6.815   4.477   4.060
 5803TIP3    H117366   6.788   4.535   3.989
 5803TIP3    H217367   6.757   4.401   4.053
 5804TIP3   OH217368   1.953   2.183   5.906
 5804TIP3    H117369   1.947   2.123   5.831
 5804TIP3    H217370   1.947   2.127   5.983
 5805TIP3   OH217371   7.594   1.333   0.992
 5805TIP3    H117372   7.658   1.286   0.939
 5805TIP3    H217373   7.540   1.379   0.928
 5806TIP3   OH217374   5.863   0.775   6.640
 5806TIP3    H117375   5.927   0.832   6.681
 5806TIP3    H217376   5.784   0.786   6.692
 5807TIP3   OH217377   6.094   6.097   1.723
 5807TIP3    H117378   6.096   6.025   1.660
 5807TIP3    H217379   6.100   6.054   1.809
 5808TIP3   OH217380   5.717   7.182   5.274
 5808TIP3    H117381   5.633   7.136   5.277
 5808TIP3    H217382   5.699   7.269   5.311
 5809TIP3   OH217383   5.257   7.476   6.432
 5809TIP3    H117384   5.238   7.520   6.514
 5809TIP3    H217385   5.332   7.523   6.396
 5810TIP3   OH217386   2.405   2.545   3.603
 5810TIP3    H117387   2.353   2.497   3.539
 5810TIP3    H217388   2.370   2.518   3.688
 5811TIP3   OH217389   2.907   3.802   4.748
 5811TIP3    H117390   2.919   3.861   4.674
 5811TIP3    H217391   2.997   3.778   4.774
 5812TIP3   OH217392   5.563   5.465   1.596
 5812TIP3    H117393   5.546   5.501   1.509
 5812TIP3    H217394   5.570   5.542   1.652
 5813TIP3   OH217395   4.957   7.508   4.478
 5813TIP3    H117396   4.946   7.490   4.385
 5813TIP3    H217397   5.017   7.440   4.508
 5814TIP3   OH217398   2.005   4.753   1.266
 5814TIP3    H117399   2.090   4.732   1.304
 5814TIP3    H217400   1.990   4.845   1.289
 5815TIP3   OH217401   7.443   5.820   6.482
 5815TIP3    H117402   7.357   5.816   6.524
 5815TIP3    H217403   7.461   5.730   6.456
 5816TIP3   OH217404   7.602   4.115   4.930
 5816TIP3    H117405   7.597   4.184   4.864
 5816TIP3    H217406   7.513   4.107   4.964
 5817TIP3   OH217407   2.419   4.689   0.671
 5817TIP3    H117408   2.463   4.609   0.701
 5817TIP3    H217409   2.485   4.758   0.680
 5818TIP3   OH217410   3.757   3.575   5.890
 5818TIP3    H117411   3.709   3.629   5.828
 5818TIP3    H217412   3.789   3.501   5.838
 5819TIP3   OH217413   7.137   4.194   3.095
 5819TIP3    H117414   7.081   4.268   3.118
 5819TIP3    H217415   7.132   4.136   3.171
 5820TIP3   OH217416   4.459   6.210   0.742
 5820TIP3    H117417   4.531   6.154   0.772
 5820TIP3    H217418   4.384   6.181   0.793
 5821TIP3   OH217419   5.261   6.614   3.535
 5821TIP3    H117420   5.265   6.540   3.596
 5821TIP3    H217421   5.168   6.628   3.521
 5822TIP3   OH217422   7.050   7.453   2.104
 5822TIP3    H117423   6.979   7.395   2.133
 5822TIP3    H217424   7.118   7.444   2.170
 5823TIP3   OH217425   0.565   2.351   0.690
 5823TIP3    H117426   0.595   2.335   0.779
 5823TIP3    H217427   0.641   2.390   0.646
 5824TIP3   OH217428   2.627   6.594   0.964
 5824TIP3    H117429   2.654   6.530   0.899
 5824TIP3    H217430   2.549   6.557   1.004
 5825TIP3   OH217431   1.115   5.131   2.850
 5825TIP3    H117432   1.119   5.078   2.929
 5825TIP3    H217433   1.166   5.209   2.872
 5826TIP3   OH217434   2.404   5.103   0.413
 5826TIP3    H117435   2.344   5.175   0.395
 5826TIP3    H217436   2.457   5.134   0.487
 5827TIP3   OH217437   7.469   4.808   3.609
 5827TIP3    H117438   7.418   4.861   3.548
 5827TIP3    H217439   7.508   4.873   3.669
 5828TIP3   OH217440   6.593   1.341   3.149
 5828TIP3    H117441   6.655   1.292   3.203
 5828TIP3    H217442   6.507   1.320   3.185
 5829TIP3   OH217443   5.149   5.799   5.011
 5829TIP3    H117444   5.209   5.740   5.057
 5829TIP3    H217445   5.113   5.745   4.940
 5830TIP3   OH217446   1.969   3.060   4.660
 5830TIP3    H117447   1.958   2.969   4.633
 5830TIP3    H217448   1.981   3.108   4.578
 5831TIP3   OH217449   6.786   6.914   4.373
 5831TIP3    H117450   6.875   6.944   4.354
 5831TIP3    H217451   6.797   6.837   4.427
 5832TIP3   OH217452   4.619   3.499   4.891
 5832TIP3    H117453   4.524   3.486   4.895
 5832TIP3    H217454   4.630   3.593   4.883
 5833TIP3   OH217455   2.051   1.232   1.272
 5833TIP3    H117456   2.080   1.222   1.182
 5833TIP3    H217457   2.101   1.308   1.305
 5834TIP3   OH217458   1.800   0.608   3.186
 5834TIP3    H117459   1.710   0.628   3.211
 5834TIP3    H217460   1.793   0.566   3.100
 5835TIP3   OH217461   3.339   2.548   0.070
 5835TIP3    H117462   3.408   2.612   0.086
 5835TIP3    H217463   3.386   2.469   0.041
 5836TIP3   OH217464   3.397   1.574   2.462
 5836TIP3    H117465   3.334   1.572   2.389
 5836TIP3    H217466   3.413   1.667   2.477
 5837TIP3   OH217467   7.038   4.355   6.141
 5837TIP3    H117468   7.072   4.442   6.120
 5837TIP3    H217469   7.108   4.295   6.115
 5838TIP3   OH217470   4.011   0.430   5.639
 5838TIP3    H117471   3.978   0.520   5.642
 5838TIP3    H217472   3.942   0.377   5.679
 5839TIP3   OH217473   2.670   6.414   5.686
 5839TIP3    H117474   2.611   6.432   5.759
 5839TIP3    H217475   2.713   6.332   5.709
 5840TIP3   OH217476   4.209   7.223   2.638
 5840TIP3    H117477   4.208   7.313   2.670
 5840TIP3    H217478   4.167   7.172   2.707
 5841TIP3   OH217479   5.795   6.018   4.242
 5841TIP3    H117480   5.830   6.088   4.187
 5841TIP3    H217481   5.769   5.950   4.181
 5842TIP3   OH217482   7.573   6.422   5.421
 5842TIP3    H117483   7.511   6.493   5.435
 5842TIP3    H217484   7.622   6.416   5.503
 5843TIP3   OH217485   0.272   2.969   6.697
 5843TIP3    H117486   0.265   2.938   6.606
 5843TIP3    H217487   0.350   2.926   6.731
 5844TIP3   OH217488   8.249   3.361   0.290
 5844TIP3    H117489   8.166   3.402   0.266
 5844TIP3    H217490   8.224   3.283   0.341
 5845TIP3   OH217491   0.609   0.201   1.927
 5845TIP3    H117492   0.615   0.244   1.842
 5845TIP3    H217493   0.692   0.153   1.935
 5846TIP3   OH217494   3.816   3.083   2.608
 5846TIP3    H117495   3.734   3.042   2.582
 5846TIP3    H217496   3.791   3.169   2.641
 5847TIP3   OH217497   1.896   6.616   1.422
 5847TIP3    H117498   1.920   6.706   1.442
 5847TIP3    H217499   1.847   6.586   1.499
 5848TIP3   OH217500   7.321   6.120   5.959
 5848TIP3    H117501   7.342   6.176   5.884
 5848TIP3    H217502   7.259   6.171   6.010
 5849TIP3   OH217503   0.679   1.265   3.215
 5849TIP3    H117504   0.699   1.339   3.272
 5849TIP3    H217505   0.759   1.212   3.216
 5850TIP3   OH217506   2.087   5.552   4.518
 5850TIP3    H117507   2.158   5.534   4.580
 5850TIP3    H217508   2.131   5.569   4.435
 5851TIP3   OH217509   5.027   3.580   3.276
 5851TIP3    H117510   5.108   3.556   3.320
 5851TIP3    H217511   5.032   3.675   3.266
 5852TIP3   OH217512   2.910   5.839   4.736
 5852TIP3    H117513   2.969   5.847   4.811
 5852TIP3    H217514   2.968   5.835   4.660
 5853TIP3   OH217515   7.547   7.171   3.580
 5853TIP3    H117516   7.515   7.183   3.491
 5853TIP3    H217517   7.468   7.154   3.632
 5854TIP3   OH217518   8.145   4.384   5.134
 5854TIP3    H117519   8.225   4.374   5.186
 5854TIP3    H217520   8.088   4.439   5.187
 5855TIP3   OH217521   6.995   2.588   3.099
 5855TIP3    H117522   7.086   2.607   3.123
 5855TIP3    H217523   6.966   2.524   3.163
 5856TIP3   OH217524   7.283   7.450   0.017
 5856TIP3    H117525   7.306   7.381   0.078
 5856TIP3    H217526   7.355   7.513   0.023
 5857TIP3   OH217527   4.486   1.162   2.433
 5857TIP3    H117528   4.410   1.216   2.410
 5857TIP3    H217529   4.524   1.137   2.349
 5858TIP3   OH217530   5.719   6.752   4.520
 5858TIP3    H117531   5.779   6.680   4.536
 5858TIP3    H217532   5.634   6.720   4.550
 5859TIP3   OH217533   5.913   4.129   2.830
 5859TIP3    H117534   5.853   4.055   2.838
 5859TIP3    H217535   5.990   4.102   2.880
 5860TIP3   OH217536   2.306   5.173   1.796
 5860TIP3    H117537   2.315   5.104   1.862
 5860TIP3    H217538   2.393   5.213   1.791
 5861TIP3   OH217539   4.748   6.058   0.212
 5861TIP3    H117540   4.710   5.971   0.227
 5861TIP3    H217541   4.842   6.043   0.211
 5862TIP3   OH217542   3.796   7.726   2.079
 5862TIP3    H117543   3.714   7.774   2.091
 5862TIP3    H217544   3.865   7.791   2.093
 5863TIP3   OH217545   7.311   6.649   1.916
 5863TIP3    H117546   7.220   6.653   1.889
 5863TIP3    H217547   7.325   6.557   1.941
 5864TIP3   OH217548   7.279   2.605   6.397
 5864TIP3    H117549   7.349   2.594   6.462
 5864TIP3    H217550   7.285   2.697   6.371
 5865TIP3   OH217551   6.556   0.406   0.487
 5865TIP3    H117552   6.600   0.490   0.478
 5865TIP3    H217553   6.574   0.360   0.405
 5866TIP3   OH217554   0.156   4.482   1.185
 5866TIP3    H117555   0.192   4.393   1.190
 5866TIP3    H217556   0.221   4.537   1.229
 5867TIP3   OH217557   5.378   7.029   5.469
 5867TIP3    H117558   5.308   7.094   5.470
 5867TIP3    H217559   5.363   6.976   5.547
 5868TIP3   OH217560   5.378   7.190   1.142
 5868TIP3    H117561   5.461   7.161   1.105
 5868TIP3    H217562   5.313   7.129   1.107
 5869TIP3   OH217563   6.142   0.376   6.709
 5869TIP3    H117564   6.087   0.436   6.658
 5869TIP3    H217565   6.161   0.423   6.790
 5870TIP3   OH217566   6.768   6.472   5.097
 5870TIP3    H117567   6.714   6.543   5.132
 5870TIP3    H217568   6.731   6.392   5.135
 5871TIP3   OH217569   7.928   4.939   3.842
 5871TIP3    H117570   7.890   4.923   3.929
 5871TIP3    H217571   7.986   4.865   3.828
 5872TIP3   OH217572   4.004   3.689   4.766
 5872TIP3    H117573   4.020   3.740   4.686
 5872TIP3    H217574   3.990   3.600   4.736
 5873TIP3   OH217575   0.985   3.367   3.690
 5873TIP3    H117576   0.977   3.273   3.706
 5873TIP3    H217577   1.037   3.401   3.763
 5874TIP3   OH217578   7.667   0.524   1.989
 5874TIP3    H117579   7.620   0.507   1.907
 5874TIP3    H217580   7.757   0.497   1.971
 5875TIP3   OH217581   6.921   3.465   3.810
 5875TIP3    H117582   6.982   3.433   3.877
 5875TIP3    H217583   6.933   3.405   3.736
 5876TIP3   OH217584   1.665   5.485   4.773
 5876TIP3    H117585   1.628   5.459   4.858
 5876TIP3    H217586   1.748   5.526   4.795
 5877TIP3   OH217587   2.806   6.417   5.451
 5877TIP3    H117588   2.784   6.337   5.403
 5877TIP3    H217589   2.742   6.421   5.522
 5878TIP3   OH217590   1.127   3.910   4.903
 5878TIP3    H117591   1.115   3.826   4.948
 5878TIP3    H217592   1.216   3.936   4.926
 5879TIP3   OH217593   3.649   0.620   1.548
 5879TIP3    H117594   3.567   0.670   1.547
 5879TIP3    H217595   3.650   0.576   1.633
 5880TIP3   OH217596   0.429   4.212   3.069
 5880TIP3    H117597   0.394   4.298   3.043
 5880TIP3    H217598   0.465   4.176   2.988
 5881TIP3   OH217599   2.871   3.581   5.053
 5881TIP3    H117600   2.845   3.589   5.145
 5881TIP3    H217601   2.789   3.563   5.006
 5882TIP3   OH217602   4.612   1.418   4.706
 5882TIP3    H117603   4.696   1.395   4.668
 5882TIP3    H217604   4.609   1.514   4.702
 5883TIP3   OH217605   6.919   5.537   2.842
 5883TIP3    H117606   6.930   5.594   2.766
 5883TIP3    H217607   6.932   5.594   2.918
 5884TIP3   OH217608   4.013   0.603   2.910
 5884TIP3    H117609   4.093   0.626   2.864
 5884TIP3    H217610   4.021   0.510   2.929
 5885TIP3   OH217611   1.983   7.636   0.506
 5885TIP3    H117612   2.028   7.560   0.470
 5885TIP3    H217613   2.002   7.633   0.600
 5886TIP3   OH217614   2.549   5.710   3.411
 5886TIP3    H117615   2.498   5.741   3.336
 5886TIP3    H217616   2.549   5.615   3.402
 5887TIP3   OH217617   3.081   2.395   3.264
 5887TIP3    H117618   3.003   2.357   3.223
 5887TIP3    H217619   3.075   2.489   3.245
 5888TIP3   OH217620   5.306   0.868   4.044
 5888TIP3    H117621   5.329   0.861   3.951
 5888TIP3    H217622   5.387   0.846   4.090
 5889TIP3   OH217623   4.461   6.846   3.870
 5889TIP3    H117624   4.410   6.786   3.925
 5889TIP3    H217625   4.414   6.848   3.787
 5890TIP3   OH217626   2.126   6.338   6.290
 5890TIP3    H117627   2.051   6.280   6.303
 5890TIP3    H217628   2.136   6.344   6.195
 5891TIP3   OH217629   3.174   4.632   4.634
 5891TIP3    H117630   3.176   4.566   4.703
 5891TIP3    H217631   3.081   4.652   4.622
 5892TIP3   OH217632   2.705   3.526   5.523
 5892TIP3    H117633   2.683   3.455   5.583
 5892TIP3    H217634   2.798   3.543   5.539
 5893TIP3   OH217635   5.681   0.483   2.462
 5893TIP3    H117636   5.678   0.443   2.375
 5893TIP3    H217637   5.775   0.495   2.479
 5894TIP3   OH217638   2.843   3.691   3.512
 5894TIP3    H117639   2.899   3.766   3.491
 5894TIP3    H217640   2.850   3.634   3.436
 5895TIP3   OH217641   3.607   0.436   0.630
 5895TIP3    H117642   3.598   0.530   0.613
 5895TIP3    H217643   3.589   0.427   0.724
 5896TIP3   OH217644   3.722   5.246   3.839
 5896TIP3    H117645   3.771   5.234   3.920
 5896TIP3    H217646   3.630   5.249   3.868
 5897TIP3   OH217647   1.803   4.359   0.848
 5897TIP3    H117648   1.823   4.355   0.942
 5897TIP3    H217649   1.734   4.425   0.841
 5898TIP3   OH217650   0.876   4.831   5.292
 5898TIP3    H117651   0.855   4.907   5.238
 5898TIP3    H217652   0.868   4.862   5.382
 5899TIP3   OH217653   8.004   0.104   3.405
 5899TIP3    H117654   8.048   0.069   3.328
 5899TIP3    H217655   7.911   0.101   3.382
 5900TIP3   OH217656   5.312   4.753   2.485
 5900TIP3    H117657   5.323   4.754   2.390
 5900TIP3    H217658   5.401   4.747   2.520
 5901TIP3   OH217659   6.537   2.867   4.897
 5901TIP3    H117660   6.604   2.816   4.852
 5901TIP3    H217661   6.563   2.958   4.883
 5902TIP3   OH217662   4.929   1.577   6.260
 5902TIP3    H117663   5.014   1.570   6.217
 5902TIP3    H217664   4.911   1.488   6.292
 5903TIP3   OH217665   7.708   5.222   3.305
 5903TIP3    H117666   7.745   5.214   3.392
 5903TIP3    H217667   7.706   5.133   3.271
 5904TIP3   OH217668   7.703   7.215   1.732
 5904TIP3    H117669   7.722   7.121   1.735
 5904TIP3    H217670   7.768   7.254   1.791
 5905TIP3   OH217671   6.063   0.198   5.814
 5905TIP3    H117672   5.993   0.137   5.837
 5905TIP3    H217673   6.027   0.248   5.741
 5906TIP3   OH217674   4.066   2.179   3.286
 5906TIP3    H117675   4.037   2.094   3.252
 5906TIP3    H217676   4.141   2.158   3.342
 5907TIP3   OH217677   0.917   1.571   1.315
 5907TIP3    H117678   0.984   1.567   1.383
 5907TIP3    H217679   0.902   1.665   1.301
 5908TIP3   OH217680   6.039   0.284   6.355
 5908TIP3    H117681   6.096   0.329   6.417
 5908TIP3    H217682   6.099   0.240   6.294
 5909TIP3   OH217683   5.550   1.330   2.686
 5909TIP3    H117684   5.489   1.275   2.637
 5909TIP3    H217685   5.505   1.348   2.769
 5910TIP3   OH217686   8.314   3.747   4.251
 5910TIP3    H117687   8.274   3.668   4.288
 5910TIP3    H217688   8.275   3.819   4.300
 5911TIP3   OH217689   6.091   5.833   0.544
 5911TIP3    H117690   6.121   5.763   0.602
 5911TIP3    H217691   6.086   5.910   0.601
 5912TIP3   OH217692   6.192   0.374   1.635
 5912TIP3    H117693   6.256   0.306   1.654
 5912TIP3    H217694   6.128   0.332   1.578
 5913TIP3   OH217695   0.797   6.450   3.919
 5913TIP3    H117696   0.743   6.376   3.947
 5913TIP3    H217697   0.815   6.434   3.826
 5914TIP3   OH217698   1.629   4.383   0.325
 5914TIP3    H117699   1.571   4.382   0.249
 5914TIP3    H217700   1.697   4.446   0.302
 5915TIP3   OH217701   2.121   1.264   4.688
 5915TIP3    H117702   2.145   1.240   4.599
 5915TIP3    H217703   2.029   1.240   4.695
 5916TIP3   OH217704   1.436   0.118   2.219
 5916TIP3    H117705   1.426   0.033   2.262
 5916TIP3    H217706   1.429   0.181   2.290
 5917TIP3   OH217707   5.966   3.739   2.078
 5917TIP3    H117708   5.907   3.739   2.003
 5917TIP3    H217709   5.935   3.667   2.133
 5918TIP3   OH217710   0.046   2.875   4.992
 5918TIP3    H117711   0.074   2.892   5.082
 5918TIP3    H217712   0.102   2.805   4.962
 5919TIP3   OH217713   2.763   1.940   3.433
 5919TIP3    H117714   2.773   1.877   3.504
 5919TIP3    H217715   2.753   1.886   3.354
 5920TIP3   OH217716   1.864   3.062   1.999
 5920TIP3    H117717   1.836   3.153   1.986
 5920TIP3    H217718   1.791   3.021   2.045
 5921TIP3   OH217719   2.780   4.996   2.514
 5921TIP3    H117720   2.696   5.023   2.479
 5921TIP3    H217721   2.815   4.934   2.450
 5922TIP3   OH217722   1.319   2.436   6.118
 5922TIP3    H117723   1.272   2.442   6.201
 5922TIP3    H217724   1.253   2.457   6.052
 5923TIP3   OH217725   3.791   1.061   2.067
 5923TIP3    H117726   3.804   0.993   2.133
 5923TIP3    H217727   3.859   1.044   2.001
 5924TIP3   OH217728   2.229   7.566   5.182
 5924TIP3    H117729   2.139   7.594   5.163
 5924TIP3    H217730   2.266   7.638   5.233
 5925TIP3   OH217731   4.417   4.284   1.557
 5925TIP3    H117732   4.337   4.322   1.592
 5925TIP3    H217733   4.411   4.298   1.463
 5926TIP3   OH217734   0.570   3.358   6.648
 5926TIP3    H117735   0.626   3.355   6.571
 5926TIP3    H217736   0.629   3.377   6.720
 5927TIP3   OH217737   2.240   3.290   2.510
 5927TIP3    H117738   2.216   3.291   2.603
 5927TIP3    H217739   2.160   3.260   2.466
 5928TIP3   OH217740   1.115   0.051   5.099
 5928TIP3    H117741   1.178   0.093   5.157
 5928TIP3    H217742   1.139   0.081   5.012
 5929TIP3   OH217743   1.063   2.600   4.297
 5929TIP3    H117744   1.015   2.683   4.287
 5929TIP3    H217745   1.048   2.575   4.388
 5930TIP3   OH217746   1.545   4.498   3.999
 5930TIP3    H117747   1.582   4.585   4.015
 5930TIP3    H217748   1.590   4.440   4.060
 5931TIP3   OH217749   7.865   5.005   3.439
 5931TIP3    H117750   7.831   4.923   3.404
 5931TIP3    H217751   7.955   4.985   3.464
 5932TIP3   OH217752   1.284   5.998   0.638
 5932TIP3    H117753   1.321   5.974   0.553
 5932TIP3    H217754   1.252   6.087   0.626
 5933TIP3   OH217755   0.767   6.022   6.533
 5933TIP3    H117756   0.781   5.935   6.495
 5933TIP3    H217757   0.851   6.067   6.524
 5934TIP3   OH217758   0.155   2.895   0.829
 5934TIP3    H117759   0.178   2.915   0.919
 5934TIP3    H217760   0.061   2.909   0.824
 5935TIP3   OH217761   7.619   5.763   0.501
 5935TIP3    H117762   7.592   5.769   0.409
 5935TIP3    H217763   7.590   5.846   0.540
 5936TIP3   OH217764   7.242   5.618   6.163
 5936TIP3    H117765   7.257   5.592   6.253
 5936TIP3    H217766   7.222   5.711   6.167
 5937TIP3   OH217767   1.185   7.062   5.668
 5937TIP3    H117768   1.131   6.995   5.709
 5937TIP3    H217769   1.130   7.140   5.665
 5938TIP3   OH217770   6.767   4.779   1.018
 5938TIP3    H117771   6.858   4.784   1.046
 5938TIP3    H217772   6.770   4.739   0.932
 5939TIP3   OH217773   8.063   0.193   5.144
 5939TIP3    H117774   8.080   0.280   5.107
 5939TIP3    H217775   7.991   0.159   5.091
 5940TIP3   OH217776   2.773   2.533   0.279
 5940TIP3    H117777   2.813   2.564   0.198
 5940TIP3    H217778   2.842   2.485   0.323
 5941TIP3   OH217779   5.840   0.916   5.668
 5941TIP3    H117780   5.872   0.826   5.665
 5941TIP3    H217781   5.860   0.946   5.756
 5942TIP3   OH217782   4.135   4.699   2.808
 5942TIP3    H117783   4.141   4.606   2.829
 5942TIP3    H217784   4.215   4.737   2.846
 5943TIP3   OH217785   5.731   2.443   0.481
 5943TIP3    H117786   5.650   2.473   0.521
 5943TIP3    H217787   5.707   2.364   0.434
 5944TIP3   OH217788   2.882   4.682   4.587
 5944TIP3    H117789   2.812   4.747   4.588
 5944TIP3    H217790   2.874   4.639   4.502
 5945TIP3   OH217791   6.786   2.682   0.533
 5945TIP3    H117792   6.866   2.695   0.584
 5945TIP3    H217793   6.716   2.708   0.592
 5946TIP3   OH217794   4.289   6.202   1.776
 5946TIP3    H117795   4.264   6.192   1.868
 5946TIP3    H217796   4.373   6.247   1.779
 5947TIP3   OH217797   7.243   2.030   0.996
 5947TIP3    H117798   7.199   2.046   1.079
 5947TIP3    H217799   7.173   2.005   0.935
 5948TIP3   OH217800   3.021   1.121   4.083
 5948TIP3    H117801   3.093   1.098   4.141
 5948TIP3    H217802   3.062   1.172   4.013
 5949TIP3   OH217803   0.531   4.909   1.838
 5949TIP3    H117804   0.575   4.835   1.880
 5949TIP3    H217805   0.525   4.883   1.746
 5950TIP3   OH217806   0.368   0.180   2.810
 5950TIP3    H117807   0.420   0.256   2.785
 5950TIP3    H217808   0.346   0.195   2.902
 5951TIP3   OH217809   3.829   4.830   3.097
 5951TIP3    H117810   3.784   4.900   3.049
 5951TIP3    H217811   3.762   4.763   3.110
 5952TIP3   OH217812   0.623   6.587   1.388
 5952TIP3    H117813   0.564   6.528   1.340
 5952TIP3    H217814   0.568   6.662   1.411
 5953TIP3   OH217815   7.205   3.309   3.292
 5953TIP3    H117816   7.205   3.250   3.216
 5953TIP3    H217817   7.112   3.324   3.311
 5954TIP3   OH217818   6.760   3.725   5.230
 5954TIP3    H117819   6.849   3.749   5.204
 5954TIP3    H217820   6.716   3.701   5.149
 5955TIP3   OH217821   0.746   7.055   4.140
 5955TIP3    H117822   0.722   6.987   4.203
 5955TIP3    H217823   0.731   7.137   4.187
 5956TIP3   OH217824   2.761   7.019   4.352
 5956TIP3    H117825   2.795   6.984   4.435
 5956TIP3    H217826   2.678   6.974   4.340
 5957TIP3   OH217827   5.969   2.391   0.825
 5957TIP3    H117828   5.892   2.359   0.872
 5957TIP3    H217829   6.043   2.348   0.867
 5958TIP3   OH217830   7.163   6.386   1.163
 5958TIP3    H117831   7.114   6.443   1.222
 5958TIP3    H217832   7.096   6.346   1.107
 5959TIP3   OH217833   6.962   7.631   2.925
 5959TIP3    H117834   6.991   7.701   2.866
 5959TIP3    H217835   6.897   7.673   2.982
 5960TIP3   OH217836   4.156   7.095   1.932
 5960TIP3    H117837   4.102   7.167   1.966
 5960TIP3    H217838   4.246   7.120   1.953
 5961TIP3   OH217839   5.166   6.606   3.188
 5961TIP3    H117840   5.077   6.573   3.201
 5961TIP3    H217841   5.223   6.530   3.204
 5962TIP3   OH217842   2.242   5.050   5.147
 5962TIP3    H117843   2.180   5.025   5.215
 5962TIP3    H217844   2.255   4.970   5.096
 5963TIP3   OH217845   1.367   0.661   5.332
 5963TIP3    H117846   1.345   0.568   5.325
 5963TIP3    H217847   1.378   0.676   5.426
 5964TIP3   OH217848   5.261   2.813   1.279
 5964TIP3    H117849   5.206   2.776   1.348
 5964TIP3    H217850   5.201   2.863   1.224
 5965TIP3   OH217851   1.926   6.678   2.537
 5965TIP3    H117852   1.877   6.658   2.617
 5965TIP3    H217853   1.974   6.758   2.558
 5966TIP3   OH217854   4.288   1.771   3.780
 5966TIP3    H117855   4.326   1.685   3.763
 5966TIP3    H217856   4.200   1.752   3.813
 5967TIP3   OH217857   4.966   0.262   1.027
 5967TIP3    H117858   4.878   0.226   1.025
 5967TIP3    H217859   5.001   0.237   1.112
 5968TIP3   OH217860   2.838   2.356   4.654
 5968TIP3    H117861   2.930   2.333   4.647
 5968TIP3    H217862   2.798   2.280   4.696
 5969TIP3   OH217863   1.329   2.269   1.620
 5969TIP3    H117864   1.252   2.320   1.645
 5969TIP3    H217865   1.314   2.182   1.657
 5970TIP3   OH217866   2.195   2.932   0.851
 5970TIP3    H117867   2.215   2.867   0.784
 5970TIP3    H217868   2.120   2.896   0.898
 5971TIP3   OH217869   0.341   3.805   3.946
 5971TIP3    H117870   0.352   3.785   4.039
 5971TIP3    H217871   0.308   3.723   3.908
 5972TIP3   OH217872   7.200   5.504   1.874
 5972TIP3    H117873   7.123   5.452   1.851
 5972TIP3    H217874   7.265   5.481   1.808
 5973TIP3   OH217875   0.643   4.542   5.919
 5973TIP3    H117876   0.578   4.604   5.954
 5973TIP3    H217877   0.681   4.588   5.844
 5974TIP3   OH217878   4.605   1.661   4.109
 5974TIP3    H117879   4.603   1.752   4.080
 5974TIP3    H217880   4.594   1.610   4.029
 5975TIP3   OH217881   7.021   4.448   1.704
 5975TIP3    H117882   7.019   4.369   1.650
 5975TIP3    H217883   7.054   4.419   1.789
 5976TIP3   OH217884   6.337   4.810   1.780
 5976TIP3    H117885   6.308   4.901   1.783
 5976TIP3    H217886   6.283   4.770   1.712
 5977TIP3   OH217887   2.998   1.126   3.108
 5977TIP3    H117888   2.951   1.176   3.175
 5977TIP3    H217889   2.945   1.136   3.029
 5978TIP3   OH217890   6.674   0.164   2.791
 5978TIP3    H117891   6.617   0.241   2.790
 5978TIP3    H217892   6.723   0.170   2.709
 5979TIP3   OH217893   2.203   6.133   0.602
 5979TIP3    H117894   2.259   6.068   0.644
 5979TIP3    H217895   2.261   6.178   0.540
 5980TIP3   OH217896   0.812   2.239   3.456
 5980TIP3    H117897   0.861   2.197   3.385
 5980TIP3    H217898   0.751   2.298   3.412
 5981TIP3   OH217899   2.594   6.853   6.508
 5981TIP3    H117900   2.656   6.898   6.566
 5981TIP3    H217901   2.523   6.826   6.566
 5982TIP3   OH217902   3.335   5.831   2.144
 5982TIP3    H117903   3.332   5.737   2.124
 5982TIP3    H217904   3.386   5.869   2.072
 5983TIP3   OH217905   2.676   1.815   5.236
 5983TIP3    H117906   2.744   1.748   5.229
 5983TIP3    H217907   2.648   1.811   5.327
 5984TIP3   OH217908   5.059   7.020   3.930
 5984TIP3    H117909   4.997   7.004   4.001
 5984TIP3    H217910   5.008   7.004   3.850
 5985TIP3   OH217911   4.610   0.121   5.391
 5985TIP3    H117912   4.523   0.144   5.423
 5985TIP3    H217913   4.643   0.202   5.352
 5986TIP3   OH217914   5.494   7.523   4.838
 5986TIP3    H117915   5.507   7.533   4.932
 5986TIP3    H217916   5.582   7.523   4.801
 5987TIP3   OH217917   6.186   0.230   0.935
 5987TIP3    H117918   6.191   0.301   0.872
 5987TIP3    H217919   6.101   0.241   0.978
 5988TIP3   OH217920   1.012   2.223   3.904
 5988TIP3    H117921   1.020   2.287   3.975
 5988TIP3    H217922   0.957   2.154   3.941
 5989TIP3   OH217923   5.565   5.371   0.114
 5989TIP3    H117924   5.578   5.368   0.209
 5989TIP3    H217925   5.611   5.450   0.087
 5990TIP3   OH217926   7.469   3.806   3.651
 5990TIP3    H117927   7.500   3.724   3.612
 5990TIP3    H217928   7.426   3.852   3.579
 5991TIP3   OH217929   1.469   1.899   0.710
 5991TIP3    H117930   1.479   1.985   0.752
 5991TIP3    H217931   1.503   1.837   0.774
 5992TIP3   OH217932   6.196   2.813   1.125
 5992TIP3    H117933   6.142   2.767   1.188
 5992TIP3    H217934   6.276   2.761   1.119
 5993TIP3   OH217935   1.038   1.942   3.027
 5993TIP3    H117936   0.951   1.959   2.991
 5993TIP3    H217937   1.065   1.859   2.986
 5994TIP3   OH217938   2.834   1.826   0.968
 5994TIP3    H117939   2.914   1.789   1.006
 5994TIP3    H217940   2.815   1.903   1.021
 5995TIP3   OH217941   3.752   2.494   5.312
 5995TIP3    H117942   3.773   2.439   5.237
 5995TIP3    H217943   3.735   2.432   5.383
 5996TIP3   OH217944   6.807   4.196   3.662
 5996TIP3    H117945   6.786   4.276   3.710
 5996TIP3    H217946   6.860   4.226   3.588
 5997TIP3   OH217947   3.792   1.360   2.739
 5997TIP3    H117948   3.843   1.343   2.661
 5997TIP3    H217949   3.731   1.429   2.713
 5998TIP3   OH217950   5.400   5.368   4.663
 5998TIP3    H117951   5.384   5.462   4.657
 5998TIP3    H217952   5.314   5.328   4.654
 5999TIP3   OH217953   7.175   7.464   2.394
 5999TIP3    H117954   7.094   7.484   2.440
 5999TIP3    H217955   7.228   7.415   2.457
 6000TIP3   OH217956   1.464   1.772   3.422
 6000TIP3    H117957   1.492   1.813   3.504
 6000TIP3    H217958   1.544   1.737   3.384
 6001TIP3   OH217959   3.643   6.727   1.956
 6001TIP3    H117960   3.727   6.705   1.997
 6001TIP3    H217961   3.577   6.685   2.011
 6002TIP3   OH217962   0.071   7.669   6.579
 6002TIP3    H117963   0.047   7.604   6.645
 6002TIP3    H217964   0.147   7.714   6.616
 6003TIP3   OH217965   1.093   3.522   0.492
 6003TIP3    H117966   1.133   3.475   0.418
 6003TIP3    H217967   1.124   3.612   0.482
 6004TIP3   OH217968   0.331   2.656   5.231
 6004TIP3    H117969   0.323   2.563   5.209
 6004TIP3    H217970   0.270   2.669   5.304
 6005TIP3   OH217971   0.406   4.019   5.494
 6005TIP3    H117972   0.418   4.110   5.465
 6005TIP3    H217973   0.403   3.969   5.412
 6006TIP3   OH217974   4.463   0.810   4.174
 6006TIP3    H117975   4.494   0.874   4.238
 6006TIP3    H217976   4.369   0.825   4.169
 6007TIP3   OH217977   5.024   7.720   1.830
 6007TIP3    H117978   4.930   7.702   1.834
 6007TIP3    H217979   5.065   7.634   1.843
 6008TIP3   OH217980   1.276   5.403   5.501
 6008TIP3    H117981   1.206   5.346   5.533
 6008TIP3    H217982   1.270   5.482   5.555
 6009TIP3   OH217983   1.816   0.779   6.184
 6009TIP3    H117984   1.912   0.788   6.187
 6009TIP3    H217985   1.798   0.747   6.096
 6010TIP3   OH217986   1.967   3.440   1.442
 6010TIP3    H117987   1.981   3.432   1.347
 6010TIP3    H217988   2.051   3.469   1.476
 6011TIP3   OH217989   6.926   6.524   3.279
 6011TIP3    H117990   6.982   6.448   3.263
 6011TIP3    H217991   6.903   6.556   3.192
 6012TIP3   OH217992   5.697   0.941   2.837
 6012TIP3    H117993   5.683   0.868   2.898
 6012TIP3    H217994   5.674   0.906   2.751
 6013TIP3   OH217995   6.033   7.526   2.000
 6013TIP3    H117996   6.059   7.472   2.074
 6013TIP3    H217997   6.112   7.532   1.946
 6014TIP3   OH217998   7.625   1.411   3.393
 6014TIP3    H117999   7.588   1.399   3.481
 6014TIP3    H218000   7.554   1.386   3.334
 6015TIP3   OH218001   0.119   1.147   3.626
 6015TIP3    H118002   0.171   1.174   3.701
 6015TIP3    H218003   0.153   1.198   3.553
 6016TIP3   OH218004   1.701   6.648   2.052
 6016TIP3    H118005   1.754   6.724   2.072
 6016TIP3    H218006   1.611   6.681   2.052
 6017TIP3   OH218007   7.517   0.765   0.828
 6017TIP3    H118008   7.522   0.727   0.916
 6017TIP3    H218009   7.513   0.860   0.844
 6018TIP3   OH218010   7.182   3.551   0.329
 6018TIP3    H118011   7.118   3.595   0.273
 6018TIP3    H218012   7.153   3.460   0.333
 6019TIP3   OH218013   1.462   0.012   2.485
 6019TIP3    H118014   1.463  -0.079   2.455
 6019TIP3    H218015   1.486   0.007   2.578
 6020TIP3   OH218016   4.440   4.852   4.048
 6020TIP3    H118017   4.350   4.840   4.018
 6020TIP3    H218018   4.480   4.766   4.035
 6021TIP3   OH218019   0.371   2.928   5.427
 6021TIP3    H118020   0.358   2.850   5.481
 6021TIP3    H218021   0.451   2.967   5.461
 6022TIP3   OH218022   4.496   6.270   5.743
 6022TIP3    H118023   4.467   6.258   5.653
 6022TIP3    H218024   4.565   6.337   5.738
 6023TIP3   OH218025   6.906   5.443   0.509
 6023TIP3    H118026   6.822   5.480   0.537
 6023TIP3    H218027   6.934   5.389   0.582
 6024TIP3   OH218028   4.100   1.909   2.009
 6024TIP3    H118029   4.143   1.971   2.068
 6024TIP3    H218030   4.036   1.962   1.961
 6025TIP3   OH218031   0.374   3.790   5.280
 6025TIP3    H118032   0.280   3.804   5.269
 6025TIP3    H218033   0.383   3.695   5.290
 6026TIP3   OH218034   4.867   4.213   0.845
 6026TIP3    H118035   4.799   4.161   0.888
 6026TIP3    H218036   4.848   4.205   0.752
 6027TIP3   OH218037   5.019   2.927   4.632
 6027TIP3    H118038   5.065   3.011   4.637
 6027TIP3    H218039   5.078   2.864   4.672
 6028TIP3   OH218040   0.229   7.413   6.380
 6028TIP3    H118041   0.161   7.474   6.350
 6028TIP3    H218042   0.193   7.326   6.362
 6029TIP3   OH218043   4.276   1.894   0.384
 6029TIP3    H118044   4.221   1.961   0.424
 6029TIP3    H218045   4.260   1.902   0.290
 6030TIP3   OH218046   0.478   3.193   1.464
 6030TIP3    H118047   0.469   3.273   1.516
 6030TIP3    H218048   0.539   3.139   1.514
 6031TIP3   OH218049   3.693   3.343   1.031
 6031TIP3    H118050   3.763   3.368   1.091
 6031TIP3    H218051   3.692   3.247   1.033
 6032TIP3   OH218052   3.658   4.251   5.622
 6032TIP3    H118053   3.713   4.250   5.701
 6032TIP3    H218054   3.671   4.338   5.585
 6033TIP3   OH218055   1.055   0.338   4.120
 6033TIP3    H118056   1.011   0.350   4.036
 6033TIP3    H218057   1.004   0.390   4.182
 6034TIP3   OH218058   3.646   1.764   5.384
 6034TIP3    H118059   3.647   1.857   5.361
 6034TIP3    H218060   3.594   1.760   5.464
 6035TIP3   OH218061   3.757   2.796   3.370
 6035TIP3    H118062   3.672   2.840   3.377
 6035TIP3    H218063   3.736   2.704   3.359
 6036TIP3   OH218064   7.270   3.926   2.023
 6036TIP3    H118065   7.289   3.964   2.109
 6036TIP3    H218066   7.290   3.833   2.034
 6037TIP3   OH218067   6.172   2.395   3.986
 6037TIP3    H118068   6.190   2.312   3.943
 6037TIP3    H218069   6.132   2.449   3.918
 6038TIP3   OH218070   0.570   5.190   0.983
 6038TIP3    H118071   0.576   5.285   0.973
 6038TIP3    H218072   0.648   5.156   0.941
 6039TIP3   OH218073   6.578   3.951   3.298
 6039TIP3    H118074   6.520   4.025   3.279
 6039TIP3    H218075   6.538   3.877   3.253
 6040TIP3   OH218076   3.997   3.379   3.693
 6040TIP3    H118077   3.948   3.379   3.775
 6040TIP3    H218078   3.999   3.471   3.665
 6041TIP3   OH218079   5.648   5.183   1.422
 6041TIP3    H118080   5.686   5.096   1.413
 6041TIP3    H218081   5.724   5.242   1.432
 6042TIP3   OH218082   3.523   2.921   3.475
 6042TIP3    H118083   3.504   2.987   3.541
 6042TIP3    H218084   3.539   2.841   3.525
 6043TIP3   OH218085   5.481   2.494   0.914
 6043TIP3    H118086   5.509   2.584   0.895
 6043TIP3    H218087   5.388   2.493   0.889
 6044TIP3   OH218088   5.705   5.631   0.414
 6044TIP3    H118089   5.799   5.642   0.405
 6044TIP3    H218090   5.672   5.719   0.430
 6045TIP3   OH218091   5.646   6.612   5.582
 6045TIP3    H118092   5.598   6.688   5.615
 6045TIP3    H218093   5.633   6.615   5.487
 6046TIP3   OH218094   4.796   0.583   4.676
 6046TIP3    H118095   4.862   0.555   4.612
 6046TIP3    H218096   4.752   0.657   4.634
 6047TIP3   OH218097   1.024   1.961   1.869
 6047TIP3    H118098   1.053   1.874   1.897
 6047TIP3    H218099   0.940   1.974   1.913
 6048TIP3   OH218100   2.739   5.992   3.113
 6048TIP3    H118101   2.654   6.013   3.150
 6048TIP3    H218102   2.748   6.049   3.037
 6049TIP3   OH218103   2.413   3.776   1.518
 6049TIP3    H118104   2.500   3.756   1.484
 6049TIP3    H218105   2.428   3.803   1.609
 6050TIP3   OH218106   6.055   5.660   5.501
 6050TIP3    H118107   6.016   5.746   5.522
 6050TIP3    H218108   6.036   5.606   5.578
 6051TIP3   OH218109   5.276   0.189   3.946
 6051TIP3    H118110   5.299   0.109   3.899
 6051TIP3    H218111   5.185   0.206   3.922
 6052TIP3   OH218112   2.116   0.999   3.396
 6052TIP3    H118113   2.115   0.986   3.491
 6052TIP3    H218114   2.041   0.949   3.364
 6053TIP3   OH218115   6.509   4.910   0.981
 6053TIP3    H118116   6.590   4.880   1.020
 6053TIP3    H218117   6.531   4.995   0.942
 6054TIP3   OH218118   3.339   7.545   3.654
 6054TIP3    H118119   3.316   7.452   3.649
 6054TIP3    H218120   3.255   7.591   3.658
 6055TIP3   OH218121   6.479   3.253   2.500
 6055TIP3    H118122   6.537   3.189   2.459
 6055TIP3    H218123   6.508   3.257   2.591
 6056TIP3   OH218124   4.275   3.967   1.434
 6056TIP3    H118125   4.365   3.954   1.405
 6056TIP3    H218126   4.222   3.919   1.370
 6057TIP3   OH218127   0.497   1.318   6.428
 6057TIP3    H118128   0.572   1.342   6.481
 6057TIP3    H218129   0.528   1.323   6.337
 6058TIP3   OH218130   2.978   1.742   2.730
 6058TIP3    H118131   3.025   1.816   2.769
 6058TIP3    H218132   2.890   1.776   2.714
 6059TIP3   OH218133   4.213   0.127   0.513
 6059TIP3    H118134   4.264   0.054   0.479
 6059TIP3    H218135   4.207   0.111   0.607
 6060TIP3   OH218136   1.554   0.089   4.879
 6060TIP3    H118137   1.562   0.027   4.807
 6060TIP3    H218138   1.559   0.035   4.958
 6061TIP3   OH218139   2.671   3.753   1.451
 6061TIP3    H118140   2.707   3.835   1.484
 6061TIP3    H218141   2.729   3.685   1.486
 6062TIP3   OH218142   5.614   4.566   4.811
 6062TIP3    H118143   5.697   4.531   4.778
 6062TIP3    H218144   5.583   4.623   4.741
 6063TIP3   OH218145   4.947   2.216   3.259
 6063TIP3    H118146   4.994   2.203   3.341
 6063TIP3    H218147   5.013   2.204   3.191
 6064TIP3   OH218148   3.383   6.341   0.281
 6064TIP3    H118149   3.330   6.280   0.333
 6064TIP3    H218150   3.320   6.405   0.248
 6065TIP3   OH218151   2.245   1.827   1.228
 6065TIP3    H118152   2.159   1.834   1.268
 6065TIP3    H218153   2.288   1.911   1.248
 6066TIP3   OH218154   3.129   4.069   4.690
 6066TIP3    H118155   3.091   4.031   4.769
 6066TIP3    H218156   3.095   4.015   4.619
 6067TIP3   OH218157   5.920   4.167   1.437
 6067TIP3    H118158   5.829   4.135   1.433
 6067TIP3    H218159   5.931   4.197   1.527
 6068TIP3   OH218160   3.996   4.503   6.611
 6068TIP3    H118161   3.902   4.489   6.612
 6068TIP3    H218162   4.032   4.429   6.660
 6069TIP3   OH218163   0.984   2.907   1.122
 6069TIP3    H118164   0.914   2.895   1.187
 6069TIP3    H218165   0.998   2.820   1.085
 6070TIP3   OH218166   2.114   3.310   5.621
 6070TIP3    H118167   2.105   3.383   5.682
 6070TIP3    H218168   2.133   3.351   5.537
 6071TIP3   OH218169   1.555   2.755   1.878
 6071TIP3    H118170   1.628   2.757   1.940
 6071TIP3    H218171   1.547   2.846   1.848
 6072TIP3   OH218172   6.863   2.061   2.169
 6072TIP3    H118173   6.916   1.982   2.177
 6072TIP3    H218174   6.838   2.083   2.259
 6073TIP3   OH218175   5.640   3.745   4.420
 6073TIP3    H118176   5.550   3.754   4.451
 6073TIP3    H218177   5.656   3.825   4.370
 6074TIP3   OH218178   1.312   4.355   5.907
 6074TIP3    H118179   1.383   4.344   5.970
 6074TIP3    H218180   1.337   4.432   5.856
 6075TIP3   OH218181   4.615   0.627   2.567
 6075TIP3    H118182   4.702   0.656   2.540
 6075TIP3    H218183   4.564   0.707   2.574
 6076TIP3   OH218184   1.782   3.457   1.023
 6076TIP3    H118185   1.691   3.434   1.005
 6076TIP3    H218186   1.831   3.419   0.950
 6077TIP3   OH218187   7.023   4.123   2.592
 6077TIP3    H118188   7.038   4.095   2.502
 6077TIP3    H218189   7.089   4.190   2.608
 6078TIP3   OH218190   6.572   5.327   1.458
 6078TIP3    H118191   6.484   5.347   1.488
 6078TIP3    H218192   6.626   5.399   1.490
 6079TIP3   OH218193   7.043   3.846   5.756
 6079TIP3    H118194   6.982   3.901   5.706
 6079TIP3    H218195   7.101   3.809   5.690
 6080TIP3   OH218196   0.107   6.484   2.508
 6080TIP3    H118197   0.180   6.423   2.496
 6080TIP3    H218198   0.031   6.438   2.472
 6081TIP3   OH218199   0.532   5.542   1.679
 6081TIP3    H118200   0.541   5.533   1.774
 6081TIP3    H218201   0.617   5.572   1.649
 6082TIP3   OH218202   5.072   6.668   6.409
 6082TIP3    H118203   4.978   6.681   6.423
 6082TIP3    H218204   5.104   6.633   6.492
 6083TIP3   OH218205   7.650   2.398   3.459
 6083TIP3    H118206   7.592   2.354   3.522
 6083TIP3    H218207   7.738   2.369   3.483
 6084TIP3   OH218208   2.354   7.591   0.169
 6084TIP3    H118209   2.351   7.497   0.183
 6084TIP3    H218210   2.445   7.615   0.184
 6085TIP3   OH218211   5.783   0.262   5.726
 6085TIP3    H118212   5.708   0.206   5.703
 6085TIP3    H218213   5.808   0.234   5.814
 6086TIP3   OH218214   2.615   3.443   5.027
 6086TIP3    H118215   2.564   3.472   4.951
 6086TIP3    H218216   2.567   3.478   5.103
 6087TIP3   OH218217   2.850   5.687   2.677
 6087TIP3    H118218   2.857   5.744   2.601
 6087TIP3    H218219   2.798   5.613   2.647
 6088TIP3   OH218220   5.477   4.657   2.983
 6088TIP3    H118221   5.536   4.638   3.056
 6088TIP3    H218222   5.522   4.623   2.906
 6089TIP3   OH218223   6.015   0.029   2.830
 6089TIP3    H118224   6.024  -0.036   2.899
 6089TIP3    H218225   5.924   0.058   2.835
 6090TIP3   OH218226   5.722   2.114   5.940
 6090TIP3    H118227   5.737   2.027   5.902
 6090TIP3    H218228   5.637   2.106   5.984
 6091TIP3   OH218229   0.029   5.692   3.058
 6091TIP3    H118230  -0.024   5.684   2.979
 6091TIP3    H218231   0.116   5.714   3.027
 6092TIP3   OH218232   2.522   6.907   3.021
 6092TIP3    H118233   2.432   6.938   3.032
 6092TIP3    H218234   2.527   6.828   3.075
 6093TIP3   OH218235   3.712   7.583   2.323
 6093TIP3    H118236   3.701   7.584   2.228
 6093TIP3    H218237   3.803   7.609   2.337
 6094TIP3   OH218238   1.139   0.157   6.266
 6094TIP3    H118239   1.126   0.251   6.263
 6094TIP3    H218240   1.135   0.129   6.175
 6095TIP3   OH218241   0.450   5.129   2.893
 6095TIP3    H118242   0.483   5.150   2.806
 6095TIP3    H218243   0.378   5.069   2.878
 6096TIP3   OH218244   7.064   6.945   6.224
 6096TIP3    H118245   6.987   6.899   6.257
 6096TIP3    H218246   7.102   6.885   6.159
 6097TIP3   OH218247   7.529   0.564   3.473
 6097TIP3    H118248   7.536   0.470   3.488
 6097TIP3    H218249   7.543   0.604   3.558
 6098TIP3   OH218250   2.823   0.518   5.945
 6098TIP3    H118251   2.825   0.541   5.852
 6098TIP3    H218252   2.737   0.549   5.975
 6099TIP3   OH218253   5.271   1.259   3.164
 6099TIP3    H118254   5.234   1.286   3.249
 6099TIP3    H218255   5.214   1.302   3.099
 6100TIP3   OH218256   1.854   3.842   6.174
 6100TIP3    H118257   1.944   3.869   6.192
 6100TIP3    H218258   1.816   3.915   6.124
 6101TIP3   OH218259   1.611   2.574   1.696
 6101TIP3    H118260   1.704   2.590   1.681
 6101TIP3    H218261   1.580   2.651   1.744
 6102TIP3   OH218262   5.851   5.202   1.956
 6102TIP3    H118263   5.810   5.225   2.039
 6102TIP3    H218264   5.805   5.122   1.929
 6103TIP3   OH218265   5.740   5.629   1.195
 6103TIP3    H118266   5.712   5.713   1.159
 6103TIP3    H218267   5.819   5.607   1.145
 6104TIP3   OH218268   1.447   1.210   3.921
 6104TIP3    H118269   1.472   1.269   3.850
 6104TIP3    H218270   1.447   1.123   3.881
 6105TIP3   OH218271   2.408   4.110   1.874
 6105TIP3    H118272   2.467   4.039   1.900
 6105TIP3    H218273   2.337   4.066   1.827
 6106TIP3   OH218274   6.924   4.388   3.224
 6106TIP3    H118275   6.918   4.423   3.135
 6106TIP3    H218276   6.872   4.448   3.277
 6107TIP3   OH218277   6.182   6.439   1.952
 6107TIP3    H118278   6.180   6.530   1.921
 6107TIP3    H218279   6.210   6.389   1.876
 6108TIP3   OH218280   7.565   6.938   2.150
 6108TIP3    H118281   7.576   6.966   2.241
 6108TIP3    H218282   7.567   7.019   2.099
 6109TIP3   OH218283   2.544   6.848   2.331
 6109TIP3    H118284   2.522   6.774   2.274
 6109TIP3    H218285   2.590   6.910   2.273
 6110TIP3   OH218286   5.452   2.226   5.337
 6110TIP3    H118287   5.459   2.192   5.248
 6110TIP3    H218288   5.443   2.321   5.326
 6111TIP3   OH218289   7.410   4.814   1.328
 6111TIP3    H118290   7.343   4.745   1.329
 6111TIP3    H218291   7.427   4.831   1.421
 6112TIP3   OH218292   1.598   1.164   0.711
 6112TIP3    H118293   1.528   1.106   0.739
 6112TIP3    H218294   1.673   1.141   0.766
 6113TIP3   OH218295   1.925   2.597   4.045
 6113TIP3    H118296   1.932   2.507   4.011
 6113TIP3    H218297   1.856   2.593   4.111
 6114TIP3   OH218298   3.073   0.674   3.380
 6114TIP3    H118299   3.066   0.584   3.412
 6114TIP3    H218300   3.129   0.718   3.444
 6115TIP3   OH218301   2.597   4.730   4.872
 6115TIP3    H118302   2.600   4.734   4.776
 6115TIP3    H218303   2.682   4.694   4.897
 6116TIP3   OH218304   5.157   0.998   5.519
 6116TIP3    H118305   5.139   1.070   5.580
 6116TIP3    H218306   5.074   0.985   5.472
 6117TIP3   OH218307   7.304   4.661   3.288
 6117TIP3    H118308   7.393   4.696   3.285
 6117TIP3    H218309   7.249   4.730   3.252
 6118TIP3   OH218310   6.742   1.888   4.400
 6118TIP3    H118311   6.651   1.874   4.375
 6118TIP3    H218312   6.738   1.953   4.470
 6119TIP3   OH218313   4.901   4.661   1.420
 6119TIP3    H118314   4.983   4.710   1.425
 6119TIP3    H218315   4.838   4.716   1.467
 6120TIP3   OH218316   0.505   7.640   3.978
 6120TIP3    H118317   0.413   7.660   3.991
 6120TIP3    H218318   0.552   7.705   4.030
 6121TIP3   OH218319   7.205   2.693   5.366
 6121TIP3    H118320   7.210   2.789   5.361
 6121TIP3    H218321   7.170   2.667   5.281
 6122TIP3   OH218322   1.220   3.648   3.589
 6122TIP3    H118323   1.175   3.716   3.639
 6122TIP3    H218324   1.310   3.650   3.621
 6123TIP3   OH218325   4.810   7.535   5.365
 6123TIP3    H118326   4.849   7.461   5.318
 6123TIP3    H218327   4.723   7.504   5.389
 6124TIP3   OH218328   2.050   6.515   0.123
 6124TIP3    H118329   2.034   6.606   0.100
 6124TIP3    H218330   1.974   6.490   0.175
 6125TIP3   OH218331   4.328   3.591   4.083
 6125TIP3    H118332   4.344   3.600   3.989
 6125TIP3    H218333   4.253   3.531   4.088
 6126TIP3   OH218334   0.501   5.732   6.459
 6126TIP3    H118335   0.514   5.643   6.494
 6126TIP3    H218336   0.531   5.726   6.369
 6127TIP3   OH218337   5.997   3.292   2.440
 6127TIP3    H118338   6.017   3.247   2.522
 6127TIP3    H218339   5.955   3.374   2.468
 6128TIP3   OH218340   2.027   0.586   0.461
 6128TIP3    H118341   2.094   0.551   0.519
 6128TIP3    H218342   1.947   0.586   0.513
 6129TIP3   OH218343   1.992   3.384   1.164
 6129TIP3    H118344   1.904   3.409   1.138
 6129TIP3    H218345   2.047   3.412   1.091
 6130TIP3   OH218346   7.638   7.275   2.314
 6130TIP3    H118347   7.726   7.305   2.336
 6130TIP3    H218348   7.581   7.348   2.337
 6131TIP3   OH218349   5.448   4.136   1.058
 6131TIP3    H118350   5.431   4.223   1.022
 6131TIP3    H218351   5.402   4.136   1.142
 6132TIP3   OH218352   1.981   2.894   3.686
 6132TIP3    H118353   1.925   2.822   3.716
 6132TIP3    H218354   2.070   2.863   3.702
 6133TIP3   OH218355   1.525   7.702   4.055
 6133TIP3    H118356   1.509   7.763   4.127
 6133TIP3    H218357   1.615   7.673   4.067
 6134TIP3   OH218358   2.981   4.331   3.985
 6134TIP3    H118359   3.035   4.377   3.921
 6134TIP3    H218360   2.906   4.388   4.000
 6135TIP3   OH218361   3.164   0.882   5.318
 6135TIP3    H118362   3.075   0.858   5.344
 6135TIP3    H218363   3.168   0.977   5.329
 6136TIP3   OH218364   0.310   1.284   5.663
 6136TIP3    H118365   0.346   1.316   5.745
 6136TIP3    H218366   0.271   1.362   5.622
 6137TIP3   OH218367   2.672   0.968   3.161
 6137TIP3    H118368   2.736   0.900   3.139
 6137TIP3    H218369   2.670   0.970   3.257
 6138TIP3   OH218370   7.640   4.169   0.137
 6138TIP3    H118371   7.646   4.178   0.233
 6138TIP3    H218372   7.578   4.237   0.111
 6139TIP3   OH218373   2.169   4.102   3.206
 6139TIP3    H118374   2.182   4.175   3.146
 6139TIP3    H218375   2.192   4.024   3.155
 6140TIP3   OH218376   0.517   4.789   5.041
 6140TIP3    H118377   0.428   4.820   5.026
 6140TIP3    H218378   0.553   4.849   5.106
 6141TIP3   OH218379   7.276   1.564   6.411
 6141TIP3    H118380   7.336   1.634   6.386
 6141TIP3    H218381   7.252   1.583   6.502
 6142TIP3   OH218382   2.626   5.885   4.795
 6142TIP3    H118383   2.626   5.976   4.765
 6142TIP3    H218384   2.718   5.859   4.794
 6143TIP3   OH218385   3.420   5.839   4.938
 6143TIP3    H118386   3.439   5.933   4.945
 6143TIP3    H218387   3.504   5.799   4.916
 6144TIP3   OH218388   6.108   6.664   1.814
 6144TIP3    H118389   6.188   6.714   1.831
 6144TIP3    H218390   6.105   6.655   1.719
 6145TIP3   OH218391   5.921   0.484   0.670
 6145TIP3    H118392   5.979   0.478   0.594
 6145TIP3    H218393   5.980   0.477   0.745
 6146TIP3   OH218394   5.495   5.937   4.647
 6146TIP3    H118395   5.557   5.906   4.581
 6146TIP3    H218396   5.409   5.934   4.603
 6147TIP3   OH218397   2.170   6.541   5.205
 6147TIP3    H118398   2.104   6.484   5.166
 6147TIP3    H218399   2.131   6.570   5.288
 6148TIP3   OH218400   3.777   3.468   2.527
 6148TIP3    H118401   3.693   3.458   2.570
 6148TIP3    H218402   3.840   3.429   2.588
 6149TIP3   OH218403   6.823   2.080   2.926
 6149TIP3    H118404   6.856   2.007   2.979
 6149TIP3    H218405   6.790   2.143   2.991
 6150TIP3   OH218406   8.267   4.723   1.507
 6150TIP3    H118407   8.204   4.698   1.574
 6150TIP3    H218408   8.220   4.713   1.424
 6151TIP3   OH218409   1.356   2.973   5.100
 6151TIP3    H118410   1.403   3.029   5.039
 6151TIP3    H218411   1.264   2.988   5.080
 6152TIP3   OH218412   0.313   5.423   1.172
 6152TIP3    H118413   0.303   5.354   1.106
 6152TIP3    H218414   0.407   5.438   1.178
 6153TIP3   OH218415   2.133   5.678   2.190
 6153TIP3    H118416   2.097   5.624   2.119
 6153TIP3    H218417   2.081   5.759   2.187
 6154TIP3   OH218418   3.593   0.721   1.124
 6154TIP3    H118419   3.610   0.631   1.153
 6154TIP3    H218420   3.524   0.753   1.183
 6155TIP3   OH218421   8.172   6.942   6.269
 6155TIP3    H118422   8.159   6.942   6.174
 6155TIP3    H218423   8.089   6.910   6.304
 6156TIP3   OH218424   5.510   1.876   5.360
 6156TIP3    H118425   5.483   1.902   5.272
 6156TIP3    H218426   5.445   1.811   5.387
 6157TIP3   OH218427   0.822   0.450   4.861
 6157TIP3    H118428   0.808   0.528   4.914
 6157TIP3    H218429   0.902   0.411   4.896
 6158TIP3   OH218430   5.988   7.566   6.293
 6158TIP3    H118431   5.969   7.480   6.254
 6158TIP3    H218432   6.026   7.547   6.378
 6159TIP3   OH218433   1.147   6.593   6.637
 6159TIP3    H118434   1.121   6.678   6.603
 6159TIP3    H218435   1.092   6.580   6.714
 6160TIP3   OH218436   0.253   2.948   3.352
 6160TIP3    H118437   0.293   2.862   3.365
 6160TIP3    H218438   0.172   2.929   3.304
 6161TIP3   OH218439   6.311   2.497   3.466
 6161TIP3    H118440   6.229   2.499   3.516
 6161TIP3    H218441   6.337   2.405   3.464
 6162TIP3   OH218442   3.934   3.957   2.608
 6162TIP3    H118443   4.010   3.925   2.656
 6162TIP3    H218444   3.873   3.884   2.607
 6163TIP3   OH218445   6.585   3.798   6.377
 6163TIP3    H118446   6.533   3.767   6.302
 6163TIP3    H218447   6.676   3.791   6.347
 6164TIP3   OH218448   3.516   2.255   0.997
 6164TIP3    H118449   3.574   2.326   1.025
 6164TIP3    H218450   3.575   2.191   0.957
 6165TIP3   OH218451   0.275   3.669   4.214
 6165TIP3    H118452   0.251   3.597   4.155
 6165TIP3    H218453   0.195   3.721   4.222
 6166TIP3   OH218454   2.895   0.282   4.124
 6166TIP3    H118455   2.818   0.335   4.145
 6166TIP3    H218456   2.919   0.309   4.035
 6167TIP3   OH218457   6.327   6.178   1.303
 6167TIP3    H118458   6.364   6.254   1.349
 6167TIP3    H218459   6.235   6.200   1.291
 6168TIP3   OH218460   2.334   1.055   6.352
 6168TIP3    H118461   2.389   0.978   6.371
 6168TIP3    H218462   2.369   1.089   6.269
 6169TIP3   OH218463   7.437   2.269   2.667
 6169TIP3    H118464   7.531   2.266   2.646
 6169TIP3    H218465   7.433   2.241   2.759
 6170TIP3   OH218466   7.100   7.708   6.594
 6170TIP3    H118467   7.010   7.710   6.561
 6170TIP3    H218468   7.120   7.615   6.604
 6171TIP3   OH218469   2.470   4.676   3.895
 6171TIP3    H118470   2.484   4.616   3.821
 6171TIP3    H218471   2.409   4.741   3.862
 6172TIP3   OH218472   3.560   4.810   5.809
 6172TIP3    H118473   3.616   4.855   5.872
 6172TIP3    H218474   3.481   4.788   5.859
 6173TIP3   OH218475   5.671   6.449   0.996
 6173TIP3    H118476   5.580   6.458   1.026
 6173TIP3    H218477   5.690   6.355   1.007
 6174TIP3   OH218478   4.369   1.802   6.624
 6174TIP3    H118479   4.392   1.733   6.686
 6174TIP3    H218480   4.338   1.874   6.678
 6175TIP3   OH218481   3.855   4.815   3.434
 6175TIP3    H118482   3.830   4.723   3.422
 6175TIP3    H218483   3.834   4.834   3.525
 6176TIP3   OH218484   0.780   3.136   5.059
 6176TIP3    H118485   0.735   3.176   5.134
 6176TIP3    H218486   0.715   3.138   4.989
 6177TIP3   OH218487   4.630   3.828   2.334
 6177TIP3    H118488   4.577   3.902   2.363
 6177TIP3    H218489   4.574   3.780   2.273
 6178TIP3   OH218490   7.925   7.512   6.606
 6178TIP3    H118491   7.862   7.583   6.620
 6178TIP3    H218492   7.961   7.529   6.519
 6179TIP3   OH218493   3.745   0.564   2.380
 6179TIP3    H118494   3.746   0.521   2.465
 6179TIP3    H218495   3.653   0.586   2.366
 6180TIP3   OH218496   1.898   1.803   6.384
 6180TIP3    H118497   1.817   1.834   6.344
 6180TIP3    H218498   1.880   1.712   6.407
 6181TIP3   OH218499   0.448   2.416   1.562
 6181TIP3    H118500   0.515   2.426   1.630
 6181TIP3    H218501   0.367   2.449   1.602
 6182TIP3   OH218502   0.936   4.124   0.177
 6182TIP3    H118503   0.933   4.048   0.235
 6182TIP3    H218504   0.979   4.092   0.098
 6183TIP3   OH218505   3.094   3.987   0.467
 6183TIP3    H118506   3.038   4.005   0.543
 6183TIP3    H218507   3.182   4.012   0.497
 6184TIP3   OH218508   5.037   4.128   3.899
 6184TIP3    H118509   5.060   4.208   3.946
 6184TIP3    H218510   5.039   4.153   3.807
 6185TIP3   OH218511   5.491   2.658   6.705
 6185TIP3    H118512   5.586   2.650   6.705
 6185TIP3    H218513   5.474   2.739   6.657
 6186TIP3   OH218514   5.375   0.932   5.311
 6186TIP3    H118515   5.422   0.864   5.360
 6186TIP3    H218516   5.283   0.918   5.334
 6187TIP3   OH218517   6.132   2.844   5.980
 6187TIP3    H118518   6.112   2.838   5.886
 6187TIP3    H218519   6.065   2.790   6.022
 6188TIP3   OH218520   0.570   1.277   0.298
 6188TIP3    H118521   0.642   1.317   0.347
 6188TIP3    H218522   0.508   1.247   0.365
 6189TIP3   OH218523   8.213   0.013   4.256
 6189TIP3    H118524   8.154  -0.011   4.183
 6189TIP3    H218525   8.161   0.072   4.310
 6190TIP3   OH218526   4.796   0.562   3.509
 6190TIP3    H118527   4.756   0.626   3.568
 6190TIP3    H218528   4.775   0.593   3.421
 6191TIP3   OH218529   1.098   0.984   4.573
 6191TIP3    H118530   1.015   0.955   4.536
 6191TIP3    H218531   1.084   1.077   4.593
 6192TIP3   OH218532   1.578   1.818   1.041
 6192TIP3    H118533   1.658   1.854   1.004
 6192TIP3    H218534   1.557   1.743   0.985
 6193TIP3   OH218535   0.712   7.011   0.341
 6193TIP3    H118536   0.747   6.976   0.422
 6193TIP3    H218537   0.704   7.105   0.356
 6194TIP3   OH218538   5.696   4.116   4.594
 6194TIP3    H118539   5.715   4.071   4.512
 6194TIP3    H218540   5.693   4.209   4.570
 6195TIP3   OH218541   5.191   2.853   3.966
 6195TIP3    H118542   5.164   2.839   3.876
 6195TIP3    H218543   5.132   2.799   4.018
 6196TIP3   OH218544   2.234   6.904   2.048
 6196TIP3    H118545   2.218   6.844   1.975
 6196TIP3    H218546   2.175   6.874   2.117
 6197TIP3   OH218547   7.092   0.714   2.856
 6197TIP3    H118548   7.155   0.784   2.841
 6197TIP3    H218549   7.010   0.759   2.879
 6198TIP3   OH218550   4.168   0.735   0.594
 6198TIP3    H118551   4.145   0.828   0.597
 6198TIP3    H218552   4.256   0.733   0.557
 6199TIP3   OH218553   3.985   3.441   5.068
 6199TIP3    H118554   4.024   3.528   5.061
 6199TIP3    H218555   4.014   3.408   5.153
 6200TIP3   OH218556   2.110   1.132   6.593
 6200TIP3    H118557   2.153   1.217   6.600
 6200TIP3    H218558   2.172   1.070   6.631
 6201TIP3   OH218559   5.516   2.530   4.430
 6201TIP3    H118560   5.610   2.526   4.449
 6201TIP3    H218561   5.510   2.582   4.350
 6202TIP3   OH218562   6.788   4.821   5.530
 6202TIP3    H118563   6.718   4.755   5.531
 6202TIP3    H218564   6.842   4.800   5.607
 6203TIP3   OH218565   2.388   1.865   2.628
 6203TIP3    H118566   2.377   1.781   2.673
 6203TIP3    H218567   2.352   1.850   2.540
 6204TIP3   OH218568   5.817   7.368   1.641
 6204TIP3    H118569   5.770   7.314   1.705
 6204TIP3    H218570   5.909   7.347   1.655
 6205TIP3   OH218571   5.835   2.733   1.840
 6205TIP3    H118572   5.776   2.658   1.848
 6205TIP3    H218573   5.916   2.696   1.805
 6206TIP3   OH218574   1.027   2.716   3.998
 6206TIP3    H118575   0.995   2.779   4.063
 6206TIP3    H218576   1.120   2.736   3.989
 6207TIP3   OH218577   3.510   3.694   4.988
 6207TIP3    H118578   3.424   3.735   4.992
 6207TIP3    H218579   3.527   3.662   5.077
 6208TIP3   OH218580   1.909   4.594   4.311
 6208TIP3    H118581   1.997   4.611   4.278
 6208TIP3    H218582   1.874   4.680   4.332
 6209TIP3   OH218583   4.729   2.234   1.486
 6209TIP3    H118584   4.676   2.154   1.492
 6209TIP3    H218585   4.796   2.212   1.421
 6210TIP3   OH218586   7.204   5.140   5.048
 6210TIP3    H118587   7.265   5.130   4.975
 6210TIP3    H218588   7.231   5.074   5.111
 6211TIP3   OH218589   8.111   7.646   4.529
 6211TIP3    H118590   8.037   7.647   4.469
 6211TIP3    H218591   8.087   7.583   4.597
 6212TIP3   OH218592   7.171   4.142   3.664
 6212TIP3    H118593   7.118   4.169   3.590
 6212TIP3    H218594   7.172   4.046   3.660
 6213TIP3   OH218595   0.742   1.794   1.384
 6213TIP3    H118596   0.698   1.864   1.433
 6213TIP3    H218597   0.738   1.822   1.293
 6214TIP3   OH218598   5.275   3.697   0.780
 6214TIP3    H118599   5.366   3.673   0.766
 6214TIP3    H218600   5.225   3.633   0.729
 6215TIP3   OH218601   4.274   5.064   5.117
 6215TIP3    H118602   4.206   4.997   5.115
 6215TIP3    H218603   4.236   5.140   5.073
 6216TIP3   OH218604   3.090   0.141   4.271
 6216TIP3    H118605   3.053   0.055   4.289
 6216TIP3    H218606   3.014   0.199   4.265
 6217TIP3   OH218607   6.078   5.999   5.294
 6217TIP3    H118608   6.017   6.069   5.316
 6217TIP3    H218609   6.047   5.965   5.210
 6218TIP3   OH218610   0.239  -0.014   5.803
 6218TIP3    H118611   0.225   0.036   5.884
 6218TIP3    H218612   0.173   0.020   5.742
 6219TIP3   OH218613   2.173   5.593   5.898
 6219TIP3    H118614   2.131   5.539   5.831
 6219TIP3    H218615   2.225   5.656   5.849
 6220TIP3   OH218616   1.040   0.815   0.548
 6220TIP3    H118617   0.970   0.880   0.549
 6220TIP3    H218618   1.118   0.864   0.520
 6221TIP3   OH218619   2.514   2.150   1.944
 6221TIP3    H118620   2.437   2.107   1.983
 6221TIP3    H218621   2.481   2.189   1.863
 6222TIP3   OH218622   3.947   0.740   2.502
 6222TIP3    H118623   3.880   0.674   2.519
 6222TIP3    H218624   3.982   0.761   2.589
 6223TIP3   OH218625   1.716   1.969   3.173
 6223TIP3    H118626   1.694   2.062   3.178
 6223TIP3    H218627   1.632   1.925   3.157
 6224TIP3   OH218628   5.624   3.717   4.017
 6224TIP3    H118629   5.600   3.683   4.103
 6224TIP3    H218630   5.550   3.771   3.992
 6225TIP3   OH218631   3.557   2.395   2.991
 6225TIP3    H118632   3.465   2.409   3.014
 6225TIP3    H218633   3.585   2.322   3.046
 6226TIP3   OH218634   6.795   0.481   1.302
 6226TIP3    H118635   6.850   0.403   1.304
 6226TIP3    H218636   6.842   0.545   1.355
 6227TIP3   OH218637   7.947   3.852   1.081
 6227TIP3    H118638   7.863   3.892   1.059
 6227TIP3    H218639   7.985   3.910   1.147
 6228TIP3   OH218640   2.133   6.510   6.057
 6228TIP3    H118641   2.166   6.564   5.985
 6228TIP3    H218642   2.038   6.520   6.053
 6229TIP3   OH218643   0.560   6.444   1.879
 6229TIP3    H118644   0.557   6.420   1.972
 6229TIP3    H218645   0.605   6.529   1.878
 6230TIP3   OH218646   7.255   6.810   3.342
 6230TIP3    H118647   7.172   6.844   3.376
 6230TIP3    H218648   7.258   6.841   3.251
 6231TIP3   OH218649   3.535   5.865   5.230
 6231TIP3    H118650   3.500   5.947   5.264
 6231TIP3    H218651   3.630   5.876   5.234
 6232TIP3   OH218652   8.094   1.824   0.195
 6232TIP3    H118653   8.095   1.844   0.289
 6232TIP3    H218654   8.141   1.741   0.188
 6233TIP3   OH218655   3.569   7.760   6.687
 6233TIP3    H118656   3.599   7.675   6.654
 6233TIP3    H218657   3.490   7.778   6.636
 6234TIP3   OH218658   8.117   5.249   3.789
 6234TIP3    H118659   8.024   5.254   3.766
 6234TIP3    H218660   8.129   5.319   3.854
 6235TIP3   OH218661   0.263   6.396   1.190
 6235TIP3    H118662   0.354   6.368   1.198
 6235TIP3    H218663   0.218   6.353   1.263
 6236TIP3   OH218664   8.053   2.797   4.991
 6236TIP3    H118665   8.139   2.837   5.006
 6236TIP3    H218666   8.046   2.731   5.060
 6237TIP3   OH218667   7.795   7.660   2.863
 6237TIP3    H118668   7.787   7.747   2.825
 6237TIP3    H218669   7.888   7.653   2.887
 6238TIP3   OH218670   6.743   0.344   3.476
 6238TIP3    H118671   6.744   0.439   3.477
 6238TIP3    H218672   6.687   0.321   3.402
 6239TIP3   OH218673   4.748   6.411   4.991
 6239TIP3    H118674   4.814   6.463   5.037
 6239TIP3    H218675   4.700   6.475   4.938
 6240TIP3   OH218676   5.497   6.095   2.782
 6240TIP3    H118677   5.560   6.167   2.769
 6240TIP3    H218678   5.441   6.098   2.705
 6241TIP3   OH218679   7.112   6.999   1.574
 6241TIP3    H118680   7.057   7.069   1.609
 6241TIP3    H218681   7.175   7.044   1.518
 6242TIP3   OH218682   7.069   4.279   6.492
 6242TIP3    H118683   7.059   4.350   6.556
 6242TIP3    H218684   7.151   4.300   6.447
 6243TIP3   OH218685   0.042   0.984   0.821
 6243TIP3    H118686  -0.050   0.956   0.818
 6243TIP3    H218687   0.073   0.955   0.907
 6244TIP3   OH218688   2.847   3.720   5.345
 6244TIP3    H118689   2.858   3.728   5.439
 6244TIP3    H218690   2.771   3.775   5.325
 6245TIP3   OH218691   5.728   5.713   6.367
 6245TIP3    H118692   5.752   5.675   6.452
 6245TIP3    H218693   5.791   5.783   6.352
 6246TIP3   OH218694   4.736   0.260   3.023
 6246TIP3    H118695   4.725   0.341   2.973
 6246TIP3    H218696   4.799   0.209   2.972
 6247TIP3   OH218697   5.734   1.695   3.437
 6247TIP3    H118698   5.751   1.725   3.348
 6247TIP3    H218699   5.674   1.759   3.474
 6248TIP3   OH218700   5.493   5.839   6.245
 6248TIP3    H118701   5.533   5.814   6.162
 6248TIP3    H218702   5.564   5.833   6.309
 6249TIP3   OH218703   3.660   6.559   3.942
 6249TIP3    H118704   3.674   6.619   4.016
 6249TIP3    H218705   3.747   6.545   3.906
 6250TIP3   OH218706   0.289   0.916   5.816
 6250TIP3    H118707   0.214   0.974   5.831
 6250TIP3    H218708   0.351   0.939   5.885
 6251TIP3   OH218709   1.399   0.173   0.917
 6251TIP3    H118710   1.347   0.102   0.956
 6251TIP3    H218711   1.338   0.219   0.860
 6252TIP3   OH218712   1.146   4.415   4.468
 6252TIP3    H118713   1.053   4.435   4.459
 6252TIP3    H218714   1.180   4.414   4.378
 6253TIP3   OH218715   0.080   1.383   6.692
 6253TIP3    H118716  -0.014   1.386   6.709
 6253TIP3    H218717   0.087   1.350   6.602
 6254TIP3   OH218718   2.357   5.386   6.029
 6254TIP3    H118719   2.265   5.390   6.055
 6254TIP3    H218720   2.354   5.370   5.934
 6255TIP3   OH218721   1.904   6.105   0.164
 6255TIP3    H118722   1.975   6.062   0.117
 6255TIP3    H218723   1.827   6.094   0.108
 6256TIP3   OH218724   0.087   0.152   2.669
 6256TIP3    H118725   0.039   0.233   2.687
 6256TIP3    H218726   0.158   0.152   2.732
 6257TIP3   OH218727   6.181   2.108   1.467
 6257TIP3    H118728   6.094   2.146   1.479
 6257TIP3    H218729   6.178   2.067   1.380
 6258TIP3   OH218730   7.228   3.179   0.731
 6258TIP3    H118731   7.306   3.193   0.785
 6258TIP3    H218732   7.254   3.207   0.643
 6259TIP3   OH218733   3.910   0.916   1.778
 6259TIP3    H118734   3.958   0.928   1.860
 6259TIP3    H218735   3.965   0.859   1.726
 6260TIP3   OH218736   4.503   6.518   2.976
 6260TIP3    H118737   4.544   6.467   3.045
 6260TIP3    H218738   4.481   6.454   2.908
 6261TIP3   OH218739   2.771   2.619   5.575
 6261TIP3    H118740   2.709   2.603   5.504
 6261TIP3    H218741   2.726   2.590   5.654
 6262TIP3   OH218742   3.978   0.966   0.116
 6262TIP3    H118743   3.950   0.991   0.028
 6262TIP3    H218744   3.915   0.899   0.143
 6263TIP3   OH218745   4.993   7.462   5.925
 6263TIP3    H118746   4.969   7.554   5.943
 6263TIP3    H218747   5.072   7.447   5.977
 6264TIP3   OH218748   3.543   0.369   5.884
 6264TIP3    H118749   3.467   0.314   5.863
 6264TIP3    H218750   3.520   0.456   5.850
 6265TIP3   OH218751   6.572   5.006   2.981
 6265TIP3    H118752   6.607   4.954   2.909
 6265TIP3    H218753   6.510   5.066   2.940
 6266TIP3   OH218754   7.087   4.656   3.828
 6266TIP3    H118755   7.107   4.573   3.784
 6266TIP3    H218756   7.044   4.709   3.761
 6267TIP3   OH218757   8.038   1.520   3.755
 6267TIP3    H118758   8.044   1.579   3.680
 6267TIP3    H218759   7.958   1.547   3.800
 6268TIP3   OH218760   8.156   2.501   0.125
 6268TIP3    H118761   8.124   2.412   0.112
 6268TIP3    H218762   8.118   2.551   0.053
 6269TIP3   OH218763   5.821   2.677   6.429
 6269TIP3    H118764   5.763   2.605   6.405
 6269TIP3    H218765   5.880   2.639   6.494
 6270TIP3   OH218766   7.579   0.115   0.813
 6270TIP3    H118767   7.516   0.134   0.882
 6270TIP3    H218768   7.600   0.200   0.776
 6271TIP3   OH218769   7.230   5.272   0.355
 6271TIP3    H118770   7.310   5.318   0.383
 6271TIP3    H218771   7.229   5.192   0.407
 6272TIP3   OH218772   7.183   1.687   3.673
 6272TIP3    H118773   7.237   1.685   3.594
 6272TIP3    H218774   7.226   1.750   3.730
 6273TIP3   OH218775   4.899   2.560   5.017
 6273TIP3    H118776   4.828   2.520   5.068
 6273TIP3    H218777   4.937   2.487   4.968
 6274TIP3   OH218778   1.331   1.059   6.680
 6274TIP3    H118779   1.425   1.074   6.672
 6274TIP3    H218780   1.320   1.024   6.768
 6275TIP3   OH218781   2.966   4.324   2.522
 6275TIP3    H118782   2.984   4.418   2.520
 6275TIP3    H218783   2.906   4.309   2.449
 6276TIP3   OH218784   5.284   4.923   5.890
 6276TIP3    H118785   5.230   4.915   5.812
 6276TIP3    H218786   5.268   4.843   5.939
 6277TIP3   OH218787   5.149   4.079   4.161
 6277TIP3    H118788   5.092   4.107   4.089
 6277TIP3    H218789   5.202   4.157   4.180
 6278TIP3   OH218790   5.894   3.197   4.132
 6278TIP3    H118791   5.919   3.125   4.191
 6278TIP3    H218792   5.968   3.257   4.136
 6279TIP3   OH218793   2.564   1.091   5.836
 6279TIP3    H118794   2.526   1.115   5.921
 6279TIP3    H218795   2.635   1.030   5.858
 6280TIP3   OH218796   4.700   4.061   0.109
 6280TIP3    H118797   4.755   4.053   0.031
 6280TIP3    H218798   4.631   3.996   0.097
 6281TIP3   OH218799   5.364   5.805   1.395
 6281TIP3    H118800   5.300   5.751   1.441
 6281TIP3    H218801   5.352   5.893   1.430
 6282TIP3   OH218802   0.861   7.479   0.218
 6282TIP3    H118803   0.834   7.412   0.280
 6282TIP3    H218804   0.875   7.432   0.136
 6283TIP3   OH218805   7.512   5.762   1.533
 6283TIP3    H118806   7.558   5.729   1.456
 6283TIP3    H218807   7.442   5.817   1.498
 6284TIP3   OH218808   0.588   1.312   6.154
 6284TIP3    H118809   0.630   1.243   6.103
 6284TIP3    H218810   0.545   1.367   6.089
 6285TIP3   OH218811   4.741   4.782   2.670
 6285TIP3    H118812   4.742   4.710   2.734
 6285TIP3    H218813   4.742   4.738   2.585
 6286TIP3   OH218814   0.249   1.646   5.298
 6286TIP3    H118815   0.337   1.628   5.331
 6286TIP3    H218816   0.260   1.654   5.204
 6287TIP3   OH218817   6.938   5.098   6.199
 6287TIP3    H118818   6.915   5.189   6.219
 6287TIP3    H218819   6.902   5.083   6.111
 6288TIP3   OH218820   6.241   5.979   1.073
 6288TIP3    H118821   6.294   5.903   1.051
 6288TIP3    H218822   6.267   6.046   1.009
 6289TIP3   OH218823   5.169   2.427   1.345
 6289TIP3    H118824   5.206   2.427   1.257
 6289TIP3    H218825   5.235   2.471   1.400
 6290TIP3   OH218826   0.355   1.354   4.510
 6290TIP3    H118827   0.326   1.347   4.419
 6290TIP3    H218828   0.448   1.333   4.507
 6291TIP3   OH218829   5.585   5.316   4.460
 6291TIP3    H118830   5.536   5.325   4.542
 6291TIP3    H218831   5.549   5.384   4.403
 6292TIP3   OH218832   5.648   1.604   0.391
 6292TIP3    H118833   5.620   1.580   0.302
 6292TIP3    H218834   5.637   1.699   0.394
 6293TIP3   OH218835   2.081   6.154   2.398
 6293TIP3    H118836   2.096   6.242   2.432
 6293TIP3    H218837   2.008   6.164   2.338
 6294TIP3   OH218838   4.308   2.816   3.211
 6294TIP3    H118839   4.306   2.740   3.153
 6294TIP3    H218840   4.217   2.829   3.237
 6295TIP3   OH218841   0.327   3.087   2.388
 6295TIP3    H118842   0.248   3.083   2.443
 6295TIP3    H218843   0.337   3.180   2.367
 6296TIP3   OH218844   1.425   5.031   0.211
 6296TIP3    H118845   1.379   5.015   0.128
 6296TIP3    H218846   1.517   5.017   0.190
 6297TIP3   OH218847   0.407   0.247   2.425
 6297TIP3    H118848   0.437   0.215   2.340
 6297TIP3    H218849   0.430   0.340   2.425
 6298TIP3   OH218850   4.402   5.006   1.097
 6298TIP3    H118851   4.331   5.028   1.158
 6298TIP3    H218852   4.440   4.926   1.132
 6299TIP3   OH218853   5.649   1.632   2.048
 6299TIP3    H118854   5.713   1.566   2.019
 6299TIP3    H218855   5.645   1.694   1.976
 6300TIP3   OH218856   7.626   2.041   4.535
 6300TIP3    H118857   7.694   2.020   4.599
 6300TIP3    H218858   7.645   2.132   4.509
 6301TIP3   OH218859   7.986   5.093   0.464
 6301TIP3    H118860   7.971   5.006   0.501
 6301TIP3    H218861   8.046   5.135   0.525
 6302TIP3   OH218862   2.453   4.308   1.641
 6302TIP3    H118863   2.439   4.253   1.718
 6302TIP3    H218864   2.397   4.270   1.573
 6303TIP3   OH218865   4.195   6.828   1.143
 6303TIP3    H118866   4.143   6.866   1.214
 6303TIP3    H218867   4.268   6.785   1.188
 6304TIP3   OH218868   2.980   4.002   0.965
 6304TIP3    H118869   3.055   4.054   0.935
 6304TIP3    H218870   2.992   3.994   1.059
 6305TIP3   OH218871   7.781   6.106   6.768
 6305TIP3    H118872   7.695   6.147   6.761
 6305TIP3    H218873   7.819   6.117   6.681
 6306TIP3   OH218874   6.413   2.916   3.827
 6306TIP3    H118875   6.360   2.943   3.903
 6306TIP3    H218876   6.350   2.876   3.767
 6307TIP3   OH218877   4.743   7.189   3.223
 6307TIP3    H118878   4.742   7.115   3.162
 6307TIP3    H218879   4.745   7.150   3.310
 6308TIP3   OH218880   1.637   0.156   4.510
 6308TIP3    H118881   1.628   0.078   4.565
 6308TIP3    H218882   1.560   0.210   4.533
 6309TIP3   OH218883   3.519   6.136   0.161
 6309TIP3    H118884   3.478   6.200   0.219
 6309TIP3    H218885   3.454   6.122   0.092
 6310TIP3   OH218886   0.749   5.024   0.728
 6310TIP3    H118887   0.796   5.038   0.810
 6310TIP3    H218888   0.750   5.108   0.684
 6311TIP3   OH218889   2.178   3.902   4.440
 6311TIP3    H118890   2.220   3.977   4.399
 6311TIP3    H218891   2.102   3.938   4.486
 6312TIP3   OH218892   4.485   1.854   4.628
 6312TIP3    H118893   4.425   1.904   4.684
 6312TIP3    H218894   4.428   1.813   4.563
 6313TIP3   OH218895   2.664   1.034   3.429
 6313TIP3    H118896   2.598   0.986   3.480
 6313TIP3    H218897   2.742   1.035   3.484
 6314TIP3   OH218898   5.202   1.435   1.003
 6314TIP3    H118899   5.287   1.478   1.018
 6314TIP3    H218900   5.223   1.357   0.952
 6315TIP3   OH218901   2.612   4.909   3.929
 6315TIP3    H118902   2.571   4.825   3.949
 6315TIP3    H218903   2.664   4.892   3.850
 6316TIP3   OH218904   6.716   4.075   5.397
 6316TIP3    H118905   6.783   4.008   5.384
 6316TIP3    H218906   6.762   4.158   5.386
 6317TIP3   OH218907   0.281   5.053   4.280
 6317TIP3    H118908   0.218   5.105   4.332
 6317TIP3    H218909   0.248   4.964   4.285
 6318TIP3   OH218910   6.710   7.373   1.124
 6318TIP3    H118911   6.623   7.335   1.123
 6318TIP3    H218912   6.745   7.355   1.036
 6319TIP3   OH218913   4.116   2.736   5.918
 6319TIP3    H118914   4.026   2.703   5.924
 6319TIP3    H218915   4.114   2.819   5.966
 6320TIP3   OH218916   1.324   3.717   2.170
 6320TIP3    H118917   1.301   3.666   2.248
 6320TIP3    H218918   1.382   3.660   2.120
 6321TIP3   OH218919   2.630   5.106   3.344
 6321TIP3    H118920   2.631   5.061   3.259
 6321TIP3    H218921   2.617   5.037   3.408
 6322TIP3   OH218922   6.354   3.660   6.545
 6322TIP3    H118923   6.320   3.648   6.456
 6322TIP3    H218924   6.411   3.585   6.559
 6323TIP3   OH218925   5.676   2.251   1.415
 6323TIP3    H118926   5.641   2.313   1.479
 6323TIP3    H218927   5.603   2.233   1.356
 6324TIP3   OH218928   1.708   2.224   6.351
 6324TIP3    H118929   1.628   2.192   6.309
 6324TIP3    H218930   1.692   2.316   6.368
 6325TIP3   OH218931   0.526   2.484   6.388
 6325TIP3    H118932   0.546   2.528   6.471
 6325TIP3    H218933   0.578   2.531   6.323
 6326TIP3   OH218934   1.349   1.396   5.660
 6326TIP3    H118935   1.427   1.412   5.606
 6326TIP3    H218936   1.377   1.329   5.723
 6327TIP3   OH218937   5.410   5.521   6.094
 6327TIP3    H118938   5.480   5.513   6.159
 6327TIP3    H218939   5.435   5.598   6.042
 6328TIP3   OH218940   5.294   0.259   5.125
 6328TIP3    H118941   5.273   0.323   5.058
 6328TIP3    H218942   5.303   0.310   5.206
 6329TIP3   OH218943   3.360   6.872   1.865
 6329TIP3    H118944   3.425   6.807   1.893
 6329TIP3    H218945   3.277   6.824   1.863
 6330TIP3   OH218946   5.309   7.565   4.313
 6330TIP3    H118947   5.272   7.588   4.227
 6330TIP3    H218948   5.271   7.629   4.373
 6331TIP3   OH218949   2.971   2.656   4.851
 6331TIP3    H118950   3.044   2.594   4.856
 6331TIP3    H218951   2.924   2.643   4.933
 6332TIP3   OH218952   5.571   6.390   6.457
 6332TIP3    H118953   5.539   6.325   6.395
 6332TIP3    H218954   5.531   6.365   6.541
 6333TIP3   OH218955   7.540   5.862   3.910
 6333TIP3    H118956   7.488   5.937   3.938
 6333TIP3    H218957   7.564   5.883   3.819
 6334TIP3   OH218958   6.040   7.399   3.661
 6334TIP3    H118959   6.125   7.406   3.704
 6334TIP3    H218960   6.007   7.313   3.687
 6335TIP3   OH218961   1.259   2.237   0.235
 6335TIP3    H118962   1.311   2.262   0.311
 6335TIP3    H218963   1.177   2.205   0.272
 6336TIP3   OH218964   0.406   1.113   3.184
 6336TIP3    H118965   0.411   1.038   3.124
 6336TIP3    H218966   0.498   1.137   3.199
 6337TIP3   OH218967   3.980   4.132   2.279
 6337TIP3    H118968   4.058   4.147   2.227
 6337TIP3    H218969   3.925   4.209   2.263
 6338TIP3   OH218970   3.389   3.111   0.450
 6338TIP3    H118971   3.401   3.111   0.355
 6338TIP3    H218972   3.321   3.176   0.466
 6339TIP3   OH218973   1.211   1.205   2.972
 6339TIP3    H118974   1.278   1.215   3.040
 6339TIP3    H218975   1.259   1.215   2.890
 6340TIP3   OH218976   0.156   2.855   1.232
 6340TIP3    H118977   0.211   2.825   1.304
 6340TIP3    H218978   0.086   2.789   1.226
 6341TIP3   OH218979   4.615   2.584   3.391
 6341TIP3    H118980   4.589   2.529   3.317
 6341TIP3    H218981   4.667   2.527   3.446
 6342TIP3   OH218982   2.639   3.880   2.423
 6342TIP3    H118983   2.695   3.902   2.497
 6342TIP3    H218984   2.586   3.959   2.409
 6343TIP3   OH218985   5.745   5.096   5.161
 6343TIP3    H118986   5.730   5.184   5.128
 6343TIP3    H218987   5.691   5.039   5.107
 6344TIP3   OH218988   5.952   4.977   4.090
 6344TIP3    H118989   6.040   4.987   4.125
 6344TIP3    H218990   5.923   4.892   4.123
 6345TIP3   OH218991   3.930   7.561   3.364
 6345TIP3    H118992   3.945   7.478   3.411
 6345TIP3    H218993   3.959   7.628   3.426
 6346TIP3   OH218994   4.308   4.824   1.429
 6346TIP3    H118995   4.363   4.764   1.380
 6346TIP3    H218996   4.356   4.907   1.427
 6347TIP3   OH218997   7.129   6.536   6.545
 6347TIP3    H118998   7.104   6.628   6.560
 6347TIP3    H218999   7.101   6.518   6.455
 6348TIP3   OH219000   2.201   0.263   4.105
 6348TIP3    H119001   2.109   0.287   4.115
 6348TIP3    H219002   2.206   0.226   4.017
 6349TIP3   OH219003   0.317   1.693   2.167
 6349TIP3    H119004   0.236   1.642   2.169
 6349TIP3    H219005   0.292   1.775   2.126
 6350TIP3   OH219006   3.616   1.473   0.010
 6350TIP3    H119007   3.706   1.471  -0.022
 6350TIP3    H219008   3.598   1.383   0.039
 6351TIP3   OH219009   2.858   5.245   5.779
 6351TIP3    H119010   2.923   5.238   5.849
 6351TIP3    H219011   2.869   5.334   5.745
 6352TIP3   OH219012   0.680   7.108   6.125
 6352TIP3    H119013   0.588   7.131   6.136
 6352TIP3    H219014   0.680   7.036   6.062
 6353TIP3   OH219015   0.965   5.478   4.766
 6353TIP3    H119016   1.025   5.538   4.810
 6353TIP3    H219017   0.904   5.534   4.719
 6354TIP3   OH219018   2.657   5.120   1.513
 6354TIP3    H119019   2.616   5.148   1.431
 6354TIP3    H219020   2.584   5.098   1.570
 6355TIP3   OH219021   5.511   5.587   1.349
 6355TIP3    H119022   5.469   5.672   1.355
 6355TIP3    H219023   5.591   5.603   1.299
 6356TIP3   OH219024   4.969   2.456   4.416
 6356TIP3    H119025   4.959   2.444   4.510
 6356TIP3    H219026   5.063   2.458   4.401
 6357TIP3   OH219027   0.143   0.805   6.404
 6357TIP3    H119028   0.197   0.728   6.425
 6357TIP3    H219029   0.178   0.837   6.321
 6358TIP3   OH219030   7.265   6.281   5.088
 6358TIP3    H119031   7.348   6.317   5.118
 6358TIP3    H219032   7.200   6.314   5.150
 6359TIP3   OH219033   4.189   5.793   4.696
 6359TIP3    H119034   4.147   5.763   4.615
 6359TIP3    H219035   4.267   5.840   4.667
 6360TIP3   OH219036   5.504   5.388   5.071
 6360TIP3    H119037   5.541   5.381   4.983
 6360TIP3    H219038   5.580   5.400   5.128
 6361TIP3   OH219039   7.637   6.561   4.762
 6361TIP3    H119040   7.584   6.577   4.840
 6361TIP3    H219041   7.719   6.609   4.779
 6362TIP3   OH219042   2.460   7.313   0.818
 6362TIP3    H119043   2.436   7.300   0.910
 6362TIP3    H219044   2.504   7.398   0.816
 6363TIP3   OH219045   5.690   4.980   4.507
 6363TIP3    H119046   5.750   4.919   4.463
 6363TIP3    H219047   5.659   5.038   4.438
 6364TIP3   OH219048   5.723   7.691   0.321
 6364TIP3    H119049   5.734   7.779   0.285
 6364TIP3    H219050   5.711   7.635   0.244
 6365TIP3   OH219051   6.786   4.002   0.619
 6365TIP3    H119052   6.691   3.993   0.629
 6365TIP3    H219053   6.809   3.934   0.556
 6366TIP3   OH219054   0.929   2.463   4.542
 6366TIP3    H119055   0.870   2.537   4.553
 6366TIP3    H219056   0.968   2.450   4.628
 6367TIP3   OH219057   5.528   3.279   2.863
 6367TIP3    H119058   5.466   3.351   2.874
 6367TIP3    H219059   5.589   3.288   2.935
 6368TIP3   OH219060   5.951   7.163   1.063
 6368TIP3    H119061   5.992   7.132   1.144
 6368TIP3    H219062   5.902   7.240   1.091
 6369TIP3   OH219063   0.043   5.408   3.274
 6369TIP3    H119064   0.129   5.371   3.258
 6369TIP3    H219065   0.060   5.488   3.325
 6370TIP3   OH219066   8.039   4.545   3.208
 6370TIP3    H119067   8.094   4.547   3.130
 6370TIP3    H219068   8.095   4.576   3.279
 6371TIP3   OH219069   0.766   1.602   0.526
 6371TIP3    H119070   0.675   1.624   0.549
 6371TIP3    H219071   0.791   1.669   0.462
 6372TIP3   OH219072   0.295   7.293   3.928
 6372TIP3    H119073   0.345   7.343   3.993
 6372TIP3    H219074   0.223   7.255   3.977
 6373TIP3   OH219075   0.362   4.503   4.592
 6373TIP3    H119076   0.449   4.513   4.554
 6373TIP3    H219077   0.377   4.501   4.687
 6374TIP3   OH219078   3.272   3.007   3.024
 6374TIP3    H119079   3.295   2.914   3.033
 6374TIP3    H219080   3.273   3.022   2.930
 6375TIP3   OH219081   4.695   2.307   2.815
 6375TIP3    H119082   4.637   2.234   2.835
 6375TIP3    H219083   4.754   2.313   2.889
 6376TIP3   OH219084   0.366   1.516   0.615
 6376TIP3    H119085   0.425   1.550   0.682
 6376TIP3    H219086   0.283   1.501   0.661
 6377TIP3   OH219087   3.319   6.975   4.251
 6377TIP3    H119088   3.331   6.922   4.172
 6377TIP3    H219089   3.224   6.991   4.254
 6378TIP3   OH219090   4.250   1.346   5.792
 6378TIP3    H119091   4.213   1.433   5.786
 6378TIP3    H219092   4.344   1.359   5.780
 6379TIP3   OH219093   4.622   2.268   1.927
 6379TIP3    H119094   4.688   2.333   1.904
 6379TIP3    H219095   4.565   2.264   1.851
 6380TIP3   OH219096   7.143   1.141   3.710
 6380TIP3    H119097   7.176   1.059   3.674
 6380TIP3    H219098   7.205   1.207   3.679
 6381TIP3   OH219099   7.773   6.247   0.302
 6381TIP3    H119100   7.851   6.206   0.340
 6381TIP3    H219101   7.790   6.247   0.207
 6382TIP3   OH219102   0.732   2.600   3.279
 6382TIP3    H119103   0.680   2.675   3.252
 6382TIP3    H219104   0.739   2.609   3.374
 6383TIP3   OH219105   0.799   3.170   0.673
 6383TIP3    H119106   0.796   3.225   0.752
 6383TIP3    H219107   0.830   3.229   0.604
 6384TIP3   OH219108   2.088   7.706   0.146
 6384TIP3    H119109   2.165   7.650   0.147
 6384TIP3    H219110   2.091   7.749   0.061
 6385TIP3   OH219111   0.723   5.856   1.909
 6385TIP3    H119112   0.646   5.858   1.852
 6385TIP3    H219113   0.697   5.907   1.987
 6386TIP3   OH219114   0.702   4.869   2.159
 6386TIP3    H119115   0.655   4.930   2.216
 6386TIP3    H219116   0.773   4.835   2.213
 6387TIP3   OH219117   3.641   0.983   4.374
 6387TIP3    H119118   3.603   1.066   4.405
 6387TIP3    H219119   3.614   0.919   4.440
 6388TIP3   OH219120   5.132   3.878   3.875
 6388TIP3    H119121   5.120   3.967   3.843
 6388TIP3    H219122   5.048   3.855   3.914
 6389TIP3   OH219123   3.852   6.899   1.845
 6389TIP3    H119124   3.858   6.995   1.848
 6389TIP3    H219125   3.772   6.878   1.892
 6390TIP3   OH219126   7.772   4.474   3.160
 6390TIP3    H119127   7.865   4.482   3.138
 6390TIP3    H219128   7.766   4.498   3.252
 6391TIP3   OH219129   4.059   5.455   6.207
 6391TIP3    H119130   4.015   5.381   6.166
 6391TIP3    H219131   4.119   5.488   6.141
 6392TIP3   OH219132   3.271   6.013   0.048
 6392TIP3    H119133   3.268   6.052  -0.039
 6392TIP3    H219134   3.237   5.924   0.036
 6393TIP3   OH219135   4.383   7.185   4.449
 6393TIP3    H119136   4.346   7.182   4.537
 6393TIP3    H219137   4.348   7.266   4.411
 6394TIP3   OH219138   1.355   7.605   2.999
 6394TIP3    H119139   1.321   7.516   2.992
 6394TIP3    H219140   1.436   7.597   3.049
 6395TIP3   OH219141   1.069   5.268   0.649
 6395TIP3    H119142   0.989   5.309   0.616
 6395TIP3    H219143   1.124   5.342   0.677
 6396TIP3   OH219144   5.314   2.998   1.783
 6396TIP3    H119145   5.343   2.949   1.706
 6396TIP3    H219146   5.331   3.090   1.761
 6397TIP3   OH219147   5.815   0.964   1.896
 6397TIP3    H119148   5.890   0.928   1.943
 6397TIP3    H219149   5.752   0.892   1.891
 6398TIP3   OH219150   6.678   0.875   5.365
 6398TIP3    H119151   6.743   0.937   5.396
 6398TIP3    H219152   6.699   0.862   5.273
 6399TIP3   OH219153   6.956   5.159   0.405
 6399TIP3    H119154   6.979   5.228   0.467
 6399TIP3    H219155   7.024   5.093   0.418
 6400TIP3   OH219156   4.029   6.714   1.472
 6400TIP3    H119157   3.988   6.757   1.547
 6400TIP3    H219158   4.065   6.787   1.421
 6401TIP3   OH219159   5.348   6.827   0.423
 6401TIP3    H119160   5.386   6.861   0.342
 6401TIP3    H219161   5.254   6.821   0.405
 6402TIP3   OH219162   5.476   3.699   3.565
 6402TIP3    H119163   5.443   3.624   3.616
 6402TIP3    H219164   5.460   3.674   3.474
 6403TIP3   OH219165   7.249   1.015   2.343
 6403TIP3    H119166   7.324   0.972   2.385
 6403TIP3    H219167   7.235   1.094   2.394
 6404TIP3   OH219168   6.229   6.000   5.595
 6404TIP3    H119169   6.172   6.011   5.519
 6404TIP3    H219170   6.315   6.026   5.565
 6405TIP3   OH219171   3.246   6.700   5.736
 6405TIP3    H119172   3.160   6.695   5.695
 6405TIP3    H219173   3.259   6.793   5.755
 6406TIP3   OH219174   2.201   1.614   5.006
 6406TIP3    H119175   2.131   1.668   5.043
 6406TIP3    H219176   2.176   1.603   4.914
 6407TIP3   OH219177   1.808   1.027   3.106
 6407TIP3    H119178   1.807   0.947   3.159
 6407TIP3    H219179   1.802   1.098   3.170
 6408TIP3   OH219180   6.471   4.384   0.306
 6408TIP3    H119181   6.452   4.461   0.360
 6408TIP3    H219182   6.492   4.315   0.369
 6409TIP3   OH219183   6.834   4.042   4.086
 6409TIP3    H119184   6.864   3.956   4.057
 6409TIP3    H219185   6.898   4.103   4.049
 6410TIP3   OH219186   8.113   4.895   1.766
 6410TIP3    H119187   8.061   4.968   1.732
 6410TIP3    H219188   8.071   4.817   1.731
 6411TIP3   OH219189   4.896   1.206   5.042
 6411TIP3    H119190   4.882   1.145   4.970
 6411TIP3    H219191   4.885   1.293   5.002
 6412TIP3   OH219192   4.643   4.446   1.258
 6412TIP3    H119193   4.692   4.397   1.324
 6412TIP3    H219194   4.558   4.402   1.254
 6413TIP3   OH219195   4.554   3.827   3.815
 6413TIP3    H119196   4.479   3.880   3.841
 6413TIP3    H219197   4.517   3.742   3.793
 6414TIP3   OH219198   5.806   2.208   5.154
 6414TIP3    H119199   5.874   2.274   5.144
 6414TIP3    H219200   5.763   2.204   5.069
 6415TIP3   OH219201   5.051   5.498   5.615
 6415TIP3    H119202   5.025   5.575   5.666
 6415TIP3    H219203   5.054   5.530   5.524
 6416TIP3   OH219204   6.343   3.044   0.907
 6416TIP3    H119205   6.327   3.135   0.931
 6416TIP3    H219206   6.264   2.997   0.935
 6417TIP3   OH219207   2.602   3.378   3.354
 6417TIP3    H119208   2.608   3.468   3.324
 6417TIP3    H219209   2.692   3.353   3.375
 6418TIP3   OH219210   5.407   3.805   1.514
 6418TIP3    H119211   5.467   3.880   1.519
 6418TIP3    H219212   5.377   3.806   1.423
 6419TIP3   OH219213   7.113   0.123   2.733
 6419TIP3    H119214   7.170   0.168   2.794
 6419TIP3    H219215   7.125   0.169   2.650
 6420TIP3   OH219216   6.748   6.179   3.923
 6420TIP3    H119217   6.688   6.231   3.977
 6420TIP3    H219218   6.702   6.166   3.840
 6421TIP3   OH219219   8.297   0.125   5.712
 6421TIP3    H119220   8.205   0.106   5.692
 6421TIP3    H219221   8.320   0.196   5.653
 6422TIP3   OH219222   1.769   7.284   6.662
 6422TIP3    H119223   1.805   7.254   6.745
 6422TIP3    H219224   1.720   7.363   6.684
 6423TIP3   OH219225   4.191   4.334   5.656
 6423TIP3    H119226   4.203   4.250   5.701
 6423TIP3    H219227   4.144   4.388   5.719
 6424TIP3   OH219228   3.052   1.258   6.111
 6424TIP3    H119229   3.041   1.188   6.175
 6424TIP3    H219230   3.050   1.338   6.163
 6425TIP3   OH219231   0.013   0.201   1.561
 6425TIP3    H119232  -0.059   0.193   1.624
 6425TIP3    H219233   0.073   0.129   1.583
 6426TIP3   OH219234   6.306   5.303   2.595
 6426TIP3    H119235   6.354   5.345   2.666
 6426TIP3    H219236   6.373   5.280   2.531
 6427TIP3   OH219237   0.194   7.203   3.560
 6427TIP3    H119238   0.192   7.248   3.475
 6427TIP3    H219239   0.253   7.129   3.547
 6428TIP3   OH219240   5.989   3.521   3.540
 6428TIP3    H119241   6.022   3.441   3.499
 6428TIP3    H219242   6.012   3.512   3.633
 6429TIP3   OH219243   1.802   5.090   0.557
 6429TIP3    H119244   1.879   5.068   0.504
 6429TIP3    H219245   1.749   5.145   0.500
 6430TIP3   OH219246   7.181   3.367   2.105
 6430TIP3    H119247   7.227   3.435   2.155
 6430TIP3    H219248   7.198   3.389   2.013
 6431TIP3   OH219249   7.017   3.159   4.132
 6431TIP3    H119250   6.988   3.242   4.169
 6431TIP3    H219251   6.946   3.134   4.071
 6432TIP3   OH219252   1.851   5.097   2.816
 6432TIP3    H119253   1.761   5.109   2.844
 6432TIP3    H219254   1.903   5.152   2.875
 6433TIP3   OH219255   7.596   3.941   6.656
 6433TIP3    H119256   7.517   3.995   6.658
 6433TIP3    H219257   7.647   3.976   6.583
 6434TIP3   OH219258   1.118   0.519   2.813
 6434TIP3    H119259   1.129   0.564   2.729
 6434TIP3    H219260   1.034   0.549   2.846
 6435TIP3   OH219261   4.545   7.228   3.531
 6435TIP3    H119262   4.509   7.264   3.450
 6435TIP3    H219263   4.551   7.134   3.514
 6436TIP3   OH219264   6.366   7.362   6.181
 6436TIP3    H119265   6.405   7.293   6.127
 6436TIP3    H219266   6.341   7.431   6.119
 6437TIP3   OH219267   6.036   5.825   5.070
 6437TIP3    H119268   5.984   5.805   4.993
 6437TIP3    H219269   6.002   5.767   5.138
 6438TIP3   OH219270   5.071   2.624   2.942
 6438TIP3    H119271   4.982   2.601   2.966
 6438TIP3    H219272   5.126   2.557   2.982
 6439TIP3   OH219273   4.302   4.744   4.300
 6439TIP3    H119274   4.288   4.834   4.327
 6439TIP3    H219275   4.214   4.706   4.293
 6440TIP3   OH219276   1.542   4.306   2.421
 6440TIP3    H119277   1.496   4.236   2.468
 6440TIP3    H219278   1.520   4.292   2.329
 6441TIP3   OH219279   3.539   5.584   5.322
 6441TIP3    H119280   3.465   5.572   5.262
 6441TIP3    H219281   3.546   5.679   5.332
 6442TIP3   OH219282   7.708   0.063   4.572
 6442TIP3    H119283   7.677   0.153   4.573
 6442TIP3    H219284   7.651   0.018   4.510
 6443TIP3   OH219285   3.557   5.280   6.035
 6443TIP3    H119286   3.591   5.260   6.122
 6443TIP3    H219287   3.465   5.253   6.038
 6444TIP3   OH219288   2.677   3.116   0.794
 6444TIP3    H119289   2.711   3.078   0.714
 6444TIP3    H219290   2.749   3.171   0.826
 6445TIP3   OH219291   6.009   1.840   3.748
 6445TIP3    H119292   6.076   1.841   3.816
 6445TIP3    H219293   6.009   1.750   3.715
 6446TIP3   OH219294   8.230   6.887   1.302
 6446TIP3    H119295   8.297   6.955   1.301
 6446TIP3    H219296   8.147   6.935   1.302
 6447TIP3   OH219297   5.106   4.587   3.458
 6447TIP3    H119298   5.195   4.620   3.448
 6447TIP3    H219299   5.082   4.610   3.548
 6448TIP3   OH219300   5.559   2.859   1.068
 6448TIP3    H119301   5.644   2.895   1.093
 6448TIP3    H219302   5.498   2.893   1.134
 6449TIP3   OH219303   6.084   2.421   1.187
 6449TIP3    H119304   5.991   2.405   1.176
 6449TIP3    H219305   6.109   2.471   1.109
 6450TIP3   OH219306   3.359   5.899   2.867
 6450TIP3    H119307   3.431   5.917   2.927
 6450TIP3    H219308   3.400   5.887   2.782
 6451TIP3   OH219309   5.815   5.986   0.200
 6451TIP3    H119310   5.740   6.026   0.245
 6451TIP3    H219311   5.835   6.047   0.129
 6452TIP3   OH219312   0.450   0.204   6.680
 6452TIP3    H119313   0.448   0.109   6.691
 6452TIP3    H219314   0.478   0.238   6.766
 6453TIP3   OH219315   6.953   3.243   5.454
 6453TIP3    H119316   6.944   3.243   5.359
 6453TIP3    H219317   7.043   3.272   5.469
 6454TIP3   OH219318   4.471   4.524   6.254
 6454TIP3    H119319   4.489   4.532   6.347
 6454TIP3    H219320   4.557   4.531   6.212
 6455TIP3   OH219321   5.886   5.529   6.038
 6455TIP3    H119322   5.834   5.451   6.021
 6455TIP3    H219323   5.957   5.498   6.095
 6456TIP3   OH219324   6.158   1.166   3.091
 6456TIP3    H119325   6.078   1.112   3.090
 6456TIP3    H219326   6.157   1.211   3.007
 6457TIP3   OH219327   7.708   6.556   2.859
 6457TIP3    H119328   7.652   6.627   2.891
 6457TIP3    H219329   7.686   6.550   2.766
 6458TIP3   OH219330   0.915   2.708   2.451
 6458TIP3    H119331   0.900   2.617   2.428
 6458TIP3    H219332   0.835   2.753   2.424
 6459TIP3   OH219333   4.067   3.934   4.300
 6459TIP3    H119334   4.115   4.011   4.269
 6459TIP3    H219335   4.024   3.964   4.381
 6460TIP3   OH219336   0.139   5.875   3.870
 6460TIP3    H119337   0.225   5.897   3.834
 6460TIP3    H219338   0.132   5.780   3.858
 6461TIP3   OH219339   6.054   7.214   6.013
 6461TIP3    H119340   6.138   7.248   5.983
 6461TIP3    H219341   6.012   7.181   5.934
 6462TIP3   OH219342   5.546   3.361   5.508
 6462TIP3    H119343   5.501   3.308   5.442
 6462TIP3    H219344   5.504   3.447   5.502
 6463TIP3   OH219345   7.320   1.615   2.404
 6463TIP3    H119346   7.315   1.569   2.321
 6463TIP3    H219347   7.241   1.589   2.451
 6464TIP3   OH219348   4.379   5.465   4.602
 6464TIP3    H119349   4.350   5.436   4.689
 6464TIP3    H219350   4.380   5.385   4.550
 6465TIP3   OH219351   5.056   5.657   1.984
 6465TIP3    H119352   4.979   5.631   2.034
 6465TIP3    H219353   5.100   5.574   1.963
 6466TIP3   OH219354   4.172   6.904   2.948
 6466TIP3    H119355   4.198   6.812   2.938
 6466TIP3    H219356   4.096   6.914   2.891
 6467TIP3   OH219357   8.157   0.752   1.603
 6467TIP3    H119358   8.168   0.822   1.539
 6467TIP3    H219359   8.233   0.761   1.662
 6468TIP3   OH219360   4.151   1.619   5.794
 6468TIP3    H119361   4.127   1.633   5.702
 6468TIP3    H219362   4.199   1.698   5.818
 6469TIP3   OH219363   1.786   7.214   1.461
 6469TIP3    H119364   1.724   7.215   1.534
 6469TIP3    H219365   1.867   7.180   1.499
 6470TIP3   OH219366   4.341   5.205   3.611
 6470TIP3    H119367   4.306   5.213   3.700
 6470TIP3    H219368   4.414   5.144   3.619
 6471TIP3   OH219369   4.917   6.958   2.182
 6471TIP3    H119370   4.964   6.936   2.101
 6471TIP3    H219371   4.956   6.901   2.248
 6472TIP3   OH219372   4.003   4.070   4.753
 6472TIP3    H119373   4.068   4.028   4.809
 6472TIP3    H219374   3.921   4.065   4.803
 6473TIP3   OH219375   6.588   1.557   6.018
 6473TIP3    H119376   6.665   1.542   5.962
 6473TIP3    H219377   6.602   1.643   6.055
 6474TIP3   OH219378   5.721   3.622   4.754
 6474TIP3    H119379   5.752   3.612   4.664
 6474TIP3    H219380   5.742   3.713   4.777
 6475TIP3   OH219381   3.431   1.915   4.310
 6475TIP3    H119382   3.441   1.998   4.356
 6475TIP3    H219383   3.519   1.876   4.312
 6476TIP3   OH219384   5.586   3.861   0.927
 6476TIP3    H119385   5.606   3.768   0.939
 6476TIP3    H219386   5.551   3.866   0.839
 6477TIP3   OH219387   7.225   0.912   3.598
 6477TIP3    H119388   7.255   0.860   3.673
 6477TIP3    H219389   7.251   0.862   3.521
 6478TIP3   OH219390   4.412   1.731   1.893
 6478TIP3    H119391   4.478   1.709   1.828
 6478TIP3    H219392   4.456   1.792   1.953
 6479TIP3   OH219393   4.634   2.585   4.487
 6479TIP3    H119394   4.600   2.666   4.449
 6479TIP3    H219395   4.566   2.520   4.470
 6480TIP3   OH219396   1.087   6.390   3.971
 6480TIP3    H119397   1.047   6.438   3.898
 6480TIP3    H219398   1.024   6.321   3.991
 6481TIP3   OH219399   5.716   7.659   2.505
 6481TIP3    H119400   5.782   7.704   2.558
 6481TIP3    H219401   5.633   7.681   2.546
 6482TIP3   OH219402   2.953   1.802   6.505
 6482TIP3    H119403   3.012   1.730   6.527
 6482TIP3    H219404   2.979   1.828   6.417
 6483TIP3   OH219405   3.415   2.519   3.975
 6483TIP3    H119406   3.444   2.594   3.923
 6483TIP3    H219407   3.353   2.473   3.918
 6484TIP3   OH219408   3.104   1.855   5.311
 6484TIP3    H119409   3.132   1.852   5.220
 6484TIP3    H219410   3.185   1.861   5.362
 6485TIP3   OH219411   0.990   1.506   0.663
 6485TIP3    H119412   1.045   1.465   0.596
 6485TIP3    H219413   0.919   1.547   0.614
 6486TIP3   OH219414   1.342   1.488   5.318
 6486TIP3    H119415   1.285   1.531   5.255
 6486TIP3    H219416   1.413   1.451   5.265
 6487TIP3   OH219417   3.270   3.767   5.745
 6487TIP3    H119418   3.239   3.678   5.727
 6487TIP3    H219419   3.346   3.777   5.689
 6488TIP3   OH219420   0.518   2.516   2.514
 6488TIP3    H119421   0.583   2.509   2.445
 6488TIP3    H219422   0.569   2.521   2.595
 6489TIP3   OH219423   2.588   4.841   2.860
 6489TIP3    H119424   2.655   4.847   2.792
 6489TIP3    H219425   2.508   4.873   2.818
 6490TIP3   OH219426   1.078   1.582   3.362
 6490TIP3    H119427   1.130   1.662   3.366
 6490TIP3    H219428   1.112   1.528   3.433
 6491TIP3   OH219429   4.349   5.399   5.774
 6491TIP3    H119430   4.418   5.453   5.814
 6491TIP3    H219431   4.393   5.353   5.703
 6492TIP3   OH219432   6.762   2.325   0.524
 6492TIP3    H119433   6.769   2.421   0.520
 6492TIP3    H219434   6.669   2.307   0.513
 6493TIP3   OH219435   3.353   1.753   0.459
 6493TIP3    H119436   3.297   1.823   0.492
 6493TIP3    H219437   3.348   1.685   0.526
 6494TIP3   OH219438   0.769   5.628   1.534
 6494TIP3    H119439   0.816   5.681   1.471
 6494TIP3    H219440   0.835   5.602   1.598
 6495TIP3   OH219441   5.255   3.295   6.351
 6495TIP3    H119442   5.328   3.246   6.314
 6495TIP3    H219443   5.272   3.296   6.445
 6496TIP3   OH219444   1.115   6.493   2.863
 6496TIP3    H119445   1.115   6.405   2.900
 6496TIP3    H219446   1.121   6.551   2.939
 6497TIP3   OH219447   3.392   6.025   1.950
 6497TIP3    H119448   3.383   5.969   1.873
 6497TIP3    H219449   3.374   6.113   1.917
 6498TIP3   OH219450   5.307   6.770   3.025
 6498TIP3    H119451   5.242   6.726   3.080
 6498TIP3    H219452   5.363   6.700   2.994
 6499TIP3   OH219453   0.758   1.373   4.682
 6499TIP3    H119454   0.811   1.365   4.603
 6499TIP3    H219455   0.692   1.439   4.660
 6500TIP3   OH219456   2.064   4.277   5.694
 6500TIP3    H119457   2.083   4.276   5.600
 6500TIP3    H219458   2.073   4.186   5.721
 6501TIP3   OH219459   4.828   4.816   4.239
 6501TIP3    H119460   4.894   4.840   4.304
 6501TIP3    H219461   4.806   4.725   4.260
 6502TIP3   OH219462   7.412   4.576   5.319
 6502TIP3    H119463   7.357   4.509   5.360
 6502TIP3    H219464   7.479   4.527   5.271
 6503TIP3   OH219465   6.306   0.780   1.386
 6503TIP3    H119466   6.215   0.763   1.362
 6503TIP3    H219467   6.335   0.848   1.325
 6504TIP3   OH219468   1.923   3.812   2.411
 6504TIP3    H119469   1.860   3.876   2.445
 6504TIP3    H219470   2.008   3.853   2.426
 6505TIP3   OH219471   2.364   6.029   1.643
 6505TIP3    H119472   2.305   6.100   1.664
 6505TIP3    H219473   2.430   6.030   1.712
 6506TIP3   OH219474   3.723   5.492   2.088
 6506TIP3    H119475   3.783   5.454   2.152
 6506TIP3    H219476   3.701   5.578   2.123
 6507TIP3   OH219477   7.996   7.229   2.958
 6507TIP3    H119478   8.071   7.270   2.916
 6507TIP3    H219479   7.972   7.157   2.899
 6508TIP3   OH219480   5.409   5.864   0.343
 6508TIP3    H119481   5.435   5.926   0.275
 6508TIP3    H219482   5.487   5.855   0.397
 6509TIP3   OH219483   2.654   2.092   3.785
 6509TIP3    H119484   2.560   2.108   3.778
 6509TIP3    H219485   2.660   1.998   3.802
 6510TIP3   OH219486   4.328   3.882   3.570
 6510TIP3    H119487   4.352   3.964   3.614
 6510TIP3    H219488   4.329   3.903   3.477
 6511TIP3   OH219489   3.595   7.554   4.898
 6511TIP3    H119490   3.633   7.641   4.887
 6511TIP3    H219491   3.572   7.527   4.810
 6512TIP3   OH219492   3.631   1.479   6.460
 6512TIP3    H119493   3.560   1.481   6.525
 6512TIP3    H219494   3.694   1.416   6.496
 6513TIP3   OH219495   8.146   4.333   6.427
 6513TIP3    H119496   8.112   4.261   6.373
 6513TIP3    H219497   8.211   4.291   6.484
 6514TIP3   OH219498   4.338   1.879   1.410
 6514TIP3    H119499   4.329   1.805   1.470
 6514TIP3    H219500   4.430   1.878   1.383
 6515TIP3   OH219501   8.177   0.561   5.808
 6515TIP3    H119502   8.130   0.578   5.726
 6515TIP3    H219503   8.217   0.645   5.830
 6516TIP3   OH219504   5.961   2.707   6.154
 6516TIP3    H119505   5.941   2.686   6.246
 6516TIP3    H219506   5.880   2.686   6.107
 6517TIP3   OH219507   1.965   1.934   1.135
 6517TIP3    H119508   1.938   1.855   1.087
 6517TIP3    H219509   1.908   1.935   1.212
 6518TIP3   OH219510   1.502   7.356   1.348
 6518TIP3    H119511   1.500   7.421   1.278
 6518TIP3    H219512   1.594   7.330   1.355
 6519TIP3   OH219513   8.019   3.291   2.480
 6519TIP3    H119514   7.994   3.213   2.429
 6519TIP3    H219515   8.100   3.321   2.440
 6520TIP3   OH219516   0.387   0.349   1.388
 6520TIP3    H119517   0.475   0.313   1.400
 6520TIP3    H219518   0.343   0.287   1.330
 6521TIP3   OH219519   2.186   7.576   4.264
 6521TIP3    H119520   2.257   7.622   4.309
 6521TIP3    H219521   2.116   7.571   4.328
 6522TIP3   OH219522   1.261   4.249   0.265
 6522TIP3    H119523   1.221   4.336   0.255
 6522TIP3    H219524   1.272   4.217   0.175
 6523TIP3   OH219525   5.171   4.241  -0.010
 6523TIP3    H119526   5.166   4.245   0.086
 6523TIP3    H219527   5.088   4.276  -0.040
 6524TIP3   OH219528   4.749   2.873   4.526
 6524TIP3    H119529   4.700   2.805   4.572
 6524TIP3    H219530   4.832   2.879   4.573
 6525TIP3   OH219531   2.245   2.406   3.421
 6525TIP3    H119532   2.300   2.385   3.346
 6525TIP3    H219533   2.167   2.445   3.383
 6526TIP3   OH219534   8.004   3.134   1.626
 6526TIP3    H119535   7.942   3.075   1.668
 6526TIP3    H219536   7.949   3.199   1.582
 6527TIP3   OH219537   2.113   6.810   6.158
 6527TIP3    H119538   2.048   6.865   6.202
 6527TIP3    H219539   2.095   6.721   6.188
 6528TIP3   OH219540   4.099   6.537   4.868
 6528TIP3    H119541   4.041   6.613   4.868
 6528TIP3    H219542   4.081   6.492   4.950
 6529TIP3   OH219543   1.795   7.373   3.216
 6529TIP3    H119544   1.744   7.366   3.136
 6529TIP3    H219545   1.848   7.293   3.219
 6530TIP3   OH219546   8.114   4.419   3.947
 6530TIP3    H119547   8.032   4.376   3.970
 6530TIP3    H219548   8.125   4.487   4.014
 6531TIP3   OH219549   3.934   7.462   2.823
 6531TIP3    H119550   3.888   7.381   2.801
 6531TIP3    H219551   3.866   7.519   2.859
 6532TIP3   OH219552   5.563   3.508   0.066
 6532TIP3    H119553   5.557   3.419   0.100
 6532TIP3    H219554   5.475   3.526   0.033
 6533TIP3   OH219555   1.034   4.523   1.810
 6533TIP3    H119556   1.015   4.546   1.901
 6533TIP3    H219557   0.949   4.529   1.766
 6534TIP3   OH219558   7.814   3.890   2.239
 6534TIP3    H119559   7.892   3.836   2.246
 6534TIP3    H219560   7.785   3.879   2.149
 6535TIP3   OH219561   1.528   2.793   1.063
 6535TIP3    H119562   1.457   2.732   1.048
 6535TIP3    H219563   1.520   2.857   0.993
 6536TIP3   OH219564   2.314   7.304   4.625
 6536TIP3    H119565   2.236   7.273   4.581
 6536TIP3    H219566   2.317   7.398   4.605
 6537TIP3   OH219567   5.345   6.110   6.238
 6537TIP3    H119568   5.317   6.121   6.329
 6537TIP3    H219569   5.367   6.017   6.231
 6538TIP3   OH219570   7.594   1.254   1.584
 6538TIP3    H119571   7.618   1.170   1.625
 6538TIP3    H219572   7.568   1.309   1.658
 6539TIP3   OH219573   0.707   4.025   6.073
 6539TIP3    H119574   0.674   4.114   6.060
 6539TIP3    H219575   0.638   3.982   6.124
 6540TIP3   OH219576   4.590   2.010   1.573
 6540TIP3    H119577   4.650   1.976   1.639
 6540TIP3    H219578   4.588   1.943   1.505
 6541TIP3   OH219579   0.170   5.822   4.741
 6541TIP3    H119580   0.109   5.819   4.667
 6541TIP3    H219581   0.216   5.906   4.731
 6542TIP3   OH219582   0.559   0.580   3.563
 6542TIP3    H119583   0.545   0.486   3.570
 6542TIP3    H219584   0.581   0.608   3.652
 6543TIP3   OH219585   6.232   2.388   0.604
 6543TIP3    H119586   6.257   2.469   0.648
 6543TIP3    H219587   6.137   2.382   0.615
 6544TIP3   OH219588   4.814   7.075   0.652
 6544TIP3    H119589   4.745   7.137   0.630
 6544TIP3    H219590   4.841   7.098   0.741
 6545TIP3   OH219591   4.325   3.482   1.201
 6545TIP3    H119592   4.262   3.455   1.135
 6545TIP3    H219593   4.404   3.505   1.151
 6546TIP3   OH219594   3.949   6.581   1.150
 6546TIP3    H119595   3.962   6.573   1.056
 6546TIP3    H219596   3.938   6.675   1.165
 6547TIP3   OH219597   4.084   5.255   5.025
 6547TIP3    H119598   4.099   5.345   5.054
 6547TIP3    H219599   3.991   5.239   5.043
 6548TIP3   OH219600   2.801   5.592   2.356
 6548TIP3    H119601   2.778   5.502   2.333
 6548TIP3    H219602   2.735   5.646   2.312
 6549TIP3   OH219603   1.882   2.207   5.455
 6549TIP3    H119604   1.863   2.151   5.530
 6549TIP3    H219605   1.969   2.180   5.426
 6550TIP3   OH219606   6.599   2.649   0.813
 6550TIP3    H119607   6.652   2.713   0.861
 6550TIP3    H219608   6.587   2.577   0.875
 6551TIP3   OH219609   1.311   6.178   3.994
 6551TIP3    H119610   1.281   6.267   4.015
 6551TIP3    H219611   1.234   6.136   3.955
 6552TIP3   OH219612   3.085   5.995   2.078
 6552TIP3    H119613   3.147   5.926   2.104
 6552TIP3    H219614   3.018   5.948   2.028
 6553TIP3   OH219615   6.405   4.411   3.825
 6553TIP3    H119616   6.318   4.452   3.825
 6553TIP3    H219617   6.399   4.343   3.892
 6554TIP3   OH219618   7.259   6.547   4.854
 6554TIP3    H119619   7.296   6.602   4.923
 6554TIP3    H219620   7.216   6.608   4.795
 6555TIP3   OH219621   1.700   3.982   2.946
 6555TIP3    H119622   1.787   3.976   2.905
 6555TIP3    H219623   1.675   3.891   2.962
 6556TIP3   OH219624   4.282   4.958   4.731
 6556TIP3    H119625   4.266   4.947   4.637
 6556TIP3    H219626   4.271   5.051   4.746
 6557TIP3   OH219627   4.754   1.799   5.768
 6557TIP3    H119628   4.723   1.753   5.691
 6557TIP3    H219629   4.839   1.835   5.742
 6558TIP3   OH219630   2.014   2.541   3.323
 6558TIP3    H119631   1.979   2.628   3.303
 6558TIP3    H219632   2.040   2.506   3.238
 6559TIP3   OH219633   1.916   0.709   2.183
 6559TIP3    H119634   1.996   0.752   2.215
 6559TIP3    H219635   1.941   0.672   2.099
 6560TIP3   OH219636   8.240   2.678   1.245
 6560TIP3    H119637   8.193   2.624   1.309
 6560TIP3    H219638   8.173   2.737   1.211
 6561TIP3   OH219639   1.837   3.740   3.641
 6561TIP3    H119640   1.859   3.725   3.733
 6561TIP3    H219641   1.751   3.783   3.644
 6562TIP3   OH219642   4.110   7.580   5.035
 6562TIP3    H119643   4.119   7.641   4.962
 6562TIP3    H219644   4.016   7.577   5.053
 6563TIP3   OH219645   6.860   1.172   3.746
 6563TIP3    H119646   6.814   1.112   3.805
 6563TIP3    H219647   6.945   1.131   3.732
 6564TIP3   OH219648   4.927   0.687   0.431
 6564TIP3    H119649   4.911   0.613   0.490
 6564TIP3    H219650   4.839   0.716   0.406
 6565TIP3   OH219651   2.100   1.880   5.393
 6565TIP3    H119652   2.155   1.802   5.386
 6565TIP3    H219653   2.091   1.895   5.487
 6566TIP3   OH219654   5.842   7.561   5.482
 6566TIP3    H119655   5.913   7.609   5.441
 6566TIP3    H219656   5.762   7.603   5.450
 6567TIP3   OH219657   3.968   5.690   2.932
 6567TIP3    H119658   3.988   5.738   2.851
 6567TIP3    H219659   4.053   5.654   2.959
 6568TIP3   OH219660   4.384   4.008   4.180
 6568TIP3    H119661   4.305   3.957   4.194
 6568TIP3    H219662   4.455   3.952   4.215
 6569TIP3   OH219663   4.369   2.645   5.955
 6569TIP3    H119664   4.275   2.662   5.948
 6569TIP3    H219665   4.399   2.646   5.864
 6570TIP3   OH219666   5.619   5.656   4.596
 6570TIP3    H119667   5.684   5.588   4.578
 6570TIP3    H219668   5.632   5.720   4.526
 6571TIP3   OH219669   6.992   0.247   4.576
 6571TIP3    H119670   7.081   0.250   4.541
 6571TIP3    H219671   6.987   0.323   4.635
 6572TIP3   OH219672   7.068   0.991   6.038
 6572TIP3    H119673   7.089   1.072   6.084
 6572TIP3    H219674   7.140   0.931   6.061
 6573TIP3   OH219675   7.669   3.469   4.203
 6573TIP3    H119676   7.728   3.400   4.233
 6573TIP3    H219677   7.715   3.510   4.130
 6574TIP3   OH219678   6.509   7.398   5.761
 6574TIP3    H119679   6.601   7.374   5.757
 6574TIP3    H219680   6.510   7.492   5.780
 6575TIP3   OH219681   2.107   5.670   1.079
 6575TIP3    H119682   2.115   5.672   0.983
 6575TIP3    H219683   2.082   5.759   1.103
 6576TIP3   OH219684   3.889   4.481   5.238
 6576TIP3    H119685   3.795   4.478   5.255
 6576TIP3    H219686   3.921   4.551   5.296
 6577TIP3   OH219687   6.911   2.613   2.095
 6577TIP3    H119688   6.891   2.706   2.083
 6577TIP3    H219689   6.990   2.613   2.150
 6578TIP3   OH219690   0.226   0.418   2.048
 6578TIP3    H119691   0.177   0.401   2.128
 6578TIP3    H219692   0.292   0.483   2.073
 6579TIP3   OH219693   0.928   7.096   1.138
 6579TIP3    H119694   0.867   7.133   1.074
 6579TIP3    H219695   1.004   7.069   1.086
 6580TIP3   OH219696   4.338   3.064   0.916
 6580TIP3    H119697   4.325   3.124   0.990
 6580TIP3    H219698   4.303   2.980   0.946
 6581TIP3   OH219699   5.951   6.802   2.708
 6581TIP3    H119700   5.880   6.835   2.653
 6581TIP3    H219701   6.013   6.765   2.645
 6582TIP3   OH219702   0.052   3.880   6.182
 6582TIP3    H119703   0.118   3.883   6.113
 6582TIP3    H219704   0.101   3.861   6.262
 6583TIP3   OH219705   4.333   0.197   5.544
 6583TIP3    H119706   4.305   0.284   5.514
 6583TIP3    H219707   4.252   0.157   5.577
 6584TIP3   OH219708   2.946   3.118   1.837
 6584TIP3    H119709   2.854   3.092   1.846
 6584TIP3    H219710   2.972   3.144   1.926
 6585TIP3   OH219711   4.917   6.618   5.349
 6585TIP3    H119712   4.897   6.596   5.258
 6585TIP3    H219713   4.975   6.548   5.379
 6586TIP3   OH219714   0.862   4.833   1.934
 6586TIP3    H119715   0.802   4.833   2.008
 6586TIP3    H219716   0.931   4.894   1.959
 6587TIP3   OH219717   1.692   3.730   0.561
 6587TIP3    H119718   1.759   3.792   0.533
 6587TIP3    H219719   1.620   3.784   0.592
 6588TIP3   OH219720   3.595   5.680   3.283
 6588TIP3    H119721   3.674   5.731   3.304
 6588TIP3    H219722   3.599   5.605   3.342
 6589TIP3   OH219723   4.761   6.548   6.684
 6589TIP3    H119724   4.781   6.455   6.669
 6589TIP3    H219725   4.830   6.578   6.743
 6590TIP3   OH219726   6.754   0.218   5.666
 6590TIP3    H119727   6.754   0.280   5.593
 6590TIP3    H219728   6.842   0.225   5.704
 6591TIP3   OH219729   5.453   7.120   1.532
 6591TIP3    H119730   5.430   7.150   1.444
 6591TIP3    H219731   5.511   7.046   1.517
 6592TIP3   OH219732   7.647   4.564   4.299
 6592TIP3    H119733   7.643   4.654   4.265
 6592TIP3    H219734   7.564   4.524   4.271
 6593TIP3   OH219735   8.141   3.471   0.552
 6593TIP3    H119736   8.111   3.461   0.462
 6593TIP3    H219737   8.224   3.424   0.555
 6594TIP3   OH219738   1.788   7.201   1.972
 6594TIP3    H119739   1.723   7.267   1.996
 6594TIP3    H219740   1.872   7.238   1.999
 6595TIP3   OH219741   0.527   4.408   1.387
 6595TIP3    H119742   0.575   4.361   1.456
 6595TIP3    H219743   0.561   4.498   1.392
 6596TIP3   OH219744   2.492   1.656   1.922
 6596TIP3    H119745   2.492   1.573   1.970
 6596TIP3    H219746   2.455   1.719   1.983
 6597TIP3   OH219747   7.147   4.026   0.347
 6597TIP3    H119748   7.196   3.947   0.323
 6597TIP3    H219749   7.215   4.090   0.368
 6598TIP3   OH219750   0.637   2.772   5.158
 6598TIP3    H119751   0.568   2.831   5.127
 6598TIP3    H219752   0.591   2.708   5.212
 6599TIP3   OH219753   1.093   7.581   5.000
 6599TIP3    H119754   1.127   7.653   4.945
 6599TIP3    H219755   1.007   7.611   5.028
 6600TIP3   OH219756   5.359   2.690   5.462
 6600TIP3    H119757   5.364   2.721   5.371
 6600TIP3    H219758   5.443   2.715   5.500
 6601TIP3   OH219759   0.434   0.306   6.166
 6601TIP3    H119760   0.527   0.297   6.147
 6601TIP3    H219761   0.427   0.291   6.261
 6602TIP3   OH219762   2.832   5.310   3.592
 6602TIP3    H119763   2.838   5.303   3.687
 6602TIP3    H219764   2.772   5.383   3.577
 6603TIP3   OH219765   4.538   3.104   4.422
 6603TIP3    H119766   4.576   3.038   4.479
 6603TIP3    H219767   4.494   3.166   4.481
 6604TIP3   OH219768   6.029   1.612   4.712
 6604TIP3    H119769   6.017   1.567   4.629
 6604TIP3    H219770   6.121   1.598   4.734
 6605TIP3   OH219771   6.034   4.259   4.554
 6605TIP3    H119772   6.030   4.164   4.542
 6605TIP3    H219773   5.942   4.286   4.562
 6606TIP3   OH219774   7.529   6.008   1.164
 6606TIP3    H119775   7.509   5.916   1.148
 6606TIP3    H219776   7.444   6.051   1.164
 6607TIP3   OH219777   4.373   1.320   4.013
 6607TIP3    H119778   4.442   1.256   4.031
 6607TIP3    H219779   4.292   1.271   4.019
 6608TIP3   OH219780   5.847   4.725   2.192
 6608TIP3    H119781   5.888   4.655   2.141
 6608TIP3    H219782   5.799   4.777   2.129
 6609TIP3   OH219783   1.378   3.802   1.137
 6609TIP3    H119784   1.433   3.724   1.139
 6609TIP3    H219785   1.400   3.846   1.055
 6610TIP3   OH219786   0.604   5.518   1.343
 6610TIP3    H119787   0.643   5.563   1.417
 6610TIP3    H219788   0.665   5.447   1.322
 6611TIP3   OH219789   5.026   0.644   3.301
 6611TIP3    H119790   4.945   0.672   3.259
 6611TIP3    H219791   4.998   0.605   3.384
 6612TIP3   OH219792   5.914   2.995   2.011
 6612TIP3    H119793   6.000   3.036   2.013
 6612TIP3    H219794   5.918   2.932   1.939
 6613TIP3   OH219795   2.338   2.570   1.742
 6613TIP3    H119796   2.303   2.538   1.825
 6613TIP3    H219797   2.316   2.502   1.679
 6614TIP3   OH219798   8.226   6.546   0.220
 6614TIP3    H119799   8.241   6.509   0.133
 6614TIP3    H219800   8.290   6.617   0.227
 6615TIP3   OH219801   7.696   3.908   3.351
 6615TIP3    H119802   7.638   3.852   3.299
 6615TIP3    H219803   7.696   3.992   3.305
 6616TIP3   OH219804   3.651   5.593   6.331
 6616TIP3    H119805   3.671   5.500   6.331
 6616TIP3    H219806   3.706   5.630   6.401
 6617TIP3   OH219807   2.200   5.955   5.618
 6617TIP3    H119808   2.269   6.000   5.569
 6617TIP3    H219809   2.142   6.025   5.648
 6618TIP3   OH219810   1.412   7.525   5.512
 6618TIP3    H119811   1.489   7.523   5.568
 6618TIP3    H219812   1.445   7.547   5.425
 6619TIP3   OH219813   1.099   3.661   4.273
 6619TIP3    H119814   1.120   3.577   4.234
 6619TIP3    H219815   1.031   3.698   4.217
 6620TIP3   OH219816   1.195   7.400   5.162
 6620TIP3    H119817   1.155   7.469   5.109
 6620TIP3    H219818   1.158   7.413   5.249
 6621TIP3   OH219819   2.966   3.286   5.884
 6621TIP3    H119820   3.021   3.353   5.925
 6621TIP3    H219821   3.028   3.226   5.843
 6622TIP3   OH219822   3.877   4.469   1.296
 6622TIP3    H119823   3.945   4.408   1.268
 6622TIP3    H219824   3.916   4.515   1.371
 6623TIP3   OH219825   0.107   3.375   5.349
 6623TIP3    H119826   0.195   3.337   5.353
 6623TIP3    H219827   0.103   3.435   5.424
 6624TIP3   OH219828   1.796   5.404   3.027
 6624TIP3    H119829   1.709   5.371   3.050
 6624TIP3    H219830   1.822   5.457   3.102
 6625TIP3   OH219831   2.604   3.107   3.253
 6625TIP3    H119832   2.614   3.119   3.159
 6625TIP3    H219833   2.599   3.196   3.288
 6626TIP3   OH219834   1.879   4.803   0.737
 6626TIP3    H119835   1.797   4.756   0.720
 6626TIP3    H219836   1.856   4.895   0.727
 6627TIP3   OH219837   6.293   3.201   5.062
 6627TIP3    H119838   6.283   3.132   5.129
 6627TIP3    H219839   6.250   3.277   5.100
 6628TIP3   OH219840   4.951   0.113   0.292
 6628TIP3    H119841   4.886   0.183   0.293
 6628TIP3    H219842   4.908   0.042   0.245
 6629TIP3   OH219843   0.097   0.261   6.701
 6629TIP3    H119844   0.168   0.279   6.763
 6629TIP3    H219845   0.120   0.176   6.662
 6630TIP3   OH219846   0.150   3.206   5.565
 6630TIP3    H119847   0.166   3.155   5.644
 6630TIP3    H219848   0.237   3.234   5.537
 6631TIP3   OH219849   0.595   4.165   3.358
 6631TIP3    H119850   0.542   4.102   3.310
 6631TIP3    H219851   0.552   4.249   3.343
 6632TIP3   OH219852   6.930  -0.043   5.807
 6632TIP3    H119853   6.925   0.019   5.734
 6632TIP3    H219854   6.995  -0.004   5.866
 6633TIP3   OH219855   0.785   5.587   2.036
 6633TIP3    H119856   0.703   5.630   2.012
 6633TIP3    H219857   0.763   5.495   2.045
 6634TIP3   OH219858   2.949   5.971   1.217
 6634TIP3    H119859   2.885   5.991   1.149
 6634TIP3    H219860   3.029   5.950   1.170
 6635TIP3   OH219861   4.085   5.077   4.118
 6635TIP3    H119862   4.103   5.056   4.210
 6635TIP3    H219863   4.161   5.044   4.070
 6636TIP3   OH219864   5.382   5.017   4.260
 6636TIP3    H119865   5.351   4.997   4.172
 6636TIP3    H219866   5.342   5.101   4.281
 6637TIP3   OH219867   7.383   0.123   2.462
 6637TIP3    H119868   7.382   0.201   2.406
 6637TIP3    H219869   7.372   0.050   2.401
 6638TIP3   OH219870   1.742   0.570   2.358
 6638TIP3    H119871   1.825   0.585   2.314
 6638TIP3    H219872   1.730   0.648   2.413
 6639TIP3   OH219873   7.000   1.343   4.853
 6639TIP3    H119874   7.056   1.412   4.888
 6639TIP3    H219875   7.048   1.310   4.777
 6640TIP3   OH219876   2.428   7.707   2.103
 6640TIP3    H119877   2.340   7.671   2.115
 6640TIP3    H219878   2.456   7.733   2.191
 6641TIP3   OH219879   1.426   1.089   1.900
 6641TIP3    H119880   1.417   1.061   1.991
 6641TIP3    H219881   1.456   1.010   1.854
 6642TIP3   OH219882   1.409   0.664   4.280
 6642TIP3    H119883   1.385   0.595   4.342
 6642TIP3    H219884   1.497   0.640   4.251
 6643TIP3   OH219885   1.216   1.224   4.076
 6643TIP3    H119886   1.309   1.212   4.094
 6643TIP3    H219887   1.208   1.313   4.043
 6644TIP3   OH219888   4.006   0.982   3.735
 6644TIP3    H119889   4.031   1.062   3.689
 6644TIP3    H219890   3.956   0.932   3.671
 6645TIP3   OH219891   1.435   0.546   6.015
 6645TIP3    H119892   1.435   0.542   5.919
 6645TIP3    H219893   1.371   0.614   6.037
 6646TIP3   OH219894   0.664   7.054   3.800
 6646TIP3    H119895   0.670   6.974   3.853
 6646TIP3    H219896   0.685   7.125   3.861
 6647TIP3   OH219897   3.837   0.047   6.453
 6647TIP3    H119898   3.751   0.008   6.442
 6647TIP3    H219899   3.882  -0.010   6.516
 6648TIP3   OH219900   4.427   1.294   6.568
 6648TIP3    H119901   4.461   1.256   6.487
 6648TIP3    H219902   4.477   1.252   6.637
 6649TIP3   OH219903   3.147   3.070   5.469
 6649TIP3    H119904   3.216   3.016   5.508
 6649TIP3    H219905   3.066   3.020   5.484
 6650TIP3   OH219906   3.131   3.652   2.617
 6650TIP3    H119907   3.168   3.674   2.702
 6650TIP3    H219908   3.115   3.736   2.575
 6651TIP3   OH219909   0.564   3.218   4.445
 6651TIP3    H119910   0.487   3.203   4.500
 6651TIP3    H219911   0.636   3.228   4.508
 6652TIP3   OH219912   5.931   5.052   5.662
 6652TIP3    H119913   5.988   5.128   5.657
 6652TIP3    H219914   5.885   5.051   5.578
 6653TIP3   OH219915   0.629   2.563   2.789
 6653TIP3    H119916   0.586   2.589   2.871
 6653TIP3    H219917   0.701   2.625   2.780
 6654TIP3   OH219918   2.961   2.743   5.184
 6654TIP3    H119919   2.896   2.811   5.168
 6654TIP3    H219920   3.031   2.787   5.233
 6655TIP3   OH219921   6.303   4.134   6.300
 6655TIP3    H119922   6.324   4.222   6.268
 6655TIP3    H219923   6.384   4.102   6.338
 6656TIP3   OH219924   3.290   3.697   2.846
 6656TIP3    H119925   3.361   3.728   2.790
 6656TIP3    H219926   3.314   3.607   2.868
 6657TIP3   OH219927   1.567   3.583   5.430
 6657TIP3    H119928   1.628   3.644   5.389
 6657TIP3    H219929   1.509   3.555   5.359
 6658TIP3   OH219930   0.916   3.591   3.550
 6658TIP3    H119931   0.991   3.632   3.508
 6658TIP3    H219932   0.953   3.518   3.600
 6659TIP3   OH219933   5.556   1.159   1.353
 6659TIP3    H119934   5.469   1.135   1.384
 6659TIP3    H219935   5.594   1.078   1.319
 6660TIP3   OH219936   8.062   5.227   0.239
 6660TIP3    H119937   7.977   5.270   0.229
 6660TIP3    H219938   8.044   5.149   0.290
 6661TIP3   OH219939   7.585   2.916   2.814
 6661TIP3    H119940   7.576   2.904   2.908
 6661TIP3    H219941   7.576   3.010   2.800
 6662TIP3   OH219942   7.613   5.972   3.354
 6662TIP3    H119943   7.654   6.032   3.291
 6662TIP3    H219944   7.659   5.889   3.341
 6663TIP3   OH219945   4.564   7.176   4.772
 6663TIP3    H119946   4.478   7.166   4.731
 6663TIP3    H219947   4.627   7.152   4.704
 6664TIP3   OH219948   6.742   7.211   5.280
 6664TIP3    H119949   6.659   7.173   5.309
 6664TIP3    H219950   6.719   7.257   5.199
 6665TIP3   OH219951   0.851   2.450   6.732
 6665TIP3    H119952   0.837   2.374   6.789
 6665TIP3    H219953   0.800   2.431   6.654
 6666TIP3   OH219954   0.561   6.833   2.498
 6666TIP3    H119955   0.538   6.900   2.433
 6666TIP3    H219956   0.506   6.758   2.475
 6667TIP3   OH219957   7.063   1.869   3.411
 6667TIP3    H119958   7.005   1.796   3.389
 6667TIP3    H219959   7.138   1.858   3.352
 6668TIP3   OH219960   4.649   5.684   4.993
 6668TIP3    H119961   4.598   5.740   5.053
 6668TIP3    H219962   4.739   5.692   5.024
 6669TIP3   OH219963   7.235   2.360   6.296
 6669TIP3    H119964   7.258   2.444   6.335
 6669TIP3    H219965   7.291   2.297   6.341
 6670TIP3   OH219966   3.508   0.240   5.269
 6670TIP3    H119967   3.462   0.197   5.341
 6670TIP3    H219968   3.477   0.196   5.190
 6671TIP3   OH219969   0.599   2.701   4.266
 6671TIP3    H119970   0.645   2.785   4.269
 6671TIP3    H219971   0.529   2.709   4.331
 6672TIP3   OH219972   6.295   5.392   2.012
 6672TIP3    H119973   6.371   5.342   1.982
 6672TIP3    H219974   6.253   5.422   1.931
 6673TIP3   OH219975   3.160   3.076   5.814
 6673TIP3    H119976   3.123   2.991   5.838
 6673TIP3    H219977   3.231   3.055   5.753
 6674TIP3   OH219978   7.064   2.966   3.208
 6674TIP3    H119979   7.119   3.004   3.140
 6674TIP3    H219980   6.979   3.010   3.198
 6675TIP3   OH219981   8.221   4.525   2.987
 6675TIP3    H119982   8.248   4.560   2.902
 6675TIP3    H219983   8.222   4.430   2.975
 6676TIP3   OH219984   0.079   2.134   4.092
 6676TIP3    H119985   0.145   2.194   4.127
 6676TIP3    H219986   0.024   2.188   4.036
 6677TIP3   OH219987   1.442   5.390   6.308
 6677TIP3    H119988   1.485   5.473   6.286
 6677TIP3    H219989   1.372   5.415   6.369
 6678TIP3   OH219990   4.765   5.862   2.309
 6678TIP3    H119991   4.764   5.905   2.395
 6678TIP3    H219992   4.850   5.817   2.306
 6679TIP3   OH219993   5.351   3.910   4.028
 6679TIP3    H119994   5.302   3.883   3.950
 6679TIP3    H219995   5.287   3.955   4.082
 6680TIP3   OH219996   6.363   5.782   4.212
 6680TIP3    H119997   6.335   5.847   4.276
 6680TIP3    H219998   6.397   5.833   4.139
 6681TIP3   OH219999   2.326   3.105   1.093
 6681TIP3    H120000   2.344   3.096   1.000
 6681TIP3    H220001   2.231   3.100   1.100
 6682TIP3   OH220002   1.423   7.527   4.236
 6682TIP3    H120003   1.496   7.559   4.183
 6682TIP3    H220004   1.345   7.557   4.188
 6683TIP3   OH220005   1.912   3.290   5.950
 6683TIP3    H120006   1.867   3.340   5.881
 6683TIP3    H220007   1.858   3.303   6.028
 6684TIP3   OH220008   8.057   1.026   2.635
 6684TIP3    H120009   8.085   1.113   2.664
 6684TIP3    H220010   8.080   0.968   2.708
 6685TIP3   OH220011   7.569   6.518   3.217
 6685TIP3    H120012   7.478   6.543   3.204
 6685TIP3    H220013   7.577   6.432   3.175
 6686TIP3   OH220014   3.125   3.447   2.099
 6686TIP3    H120015   3.135   3.471   2.191
 6686TIP3    H220016   3.039   3.407   2.093
 6687TIP3   OH220017   1.655   4.269   4.647
 6687TIP3    H120018   1.569   4.312   4.642
 6687TIP3    H220019   1.715   4.333   4.608
 6688TIP3   OH220020   8.125   4.049   2.643
 6688TIP3    H120021   8.181   3.996   2.586
 6688TIP3    H220022   8.112   4.131   2.594
 6689TIP3   OH220023   7.283   7.514   3.326
 6689TIP3    H120024   7.192   7.489   3.343
 6689TIP3    H220025   7.279   7.562   3.244
 6690TIP3   OH220026   5.413   7.170   2.383
 6690TIP3    H120027   5.353   7.095   2.385
 6690TIP3    H220028   5.356   7.245   2.363
 6691TIP3   OH220029   6.208   0.534   2.506
 6691TIP3    H120030   6.246   0.621   2.516
 6691TIP3    H220031   6.171   0.534   2.418
 6692TIP3   OH220032   7.512   4.779   2.968
 6692TIP3    H120033   7.598   4.785   2.927
 6692TIP3    H220034   7.531   4.763   3.061
 6693TIP3   OH220035   2.302   1.277   4.443
 6693TIP3    H120036   2.341   1.289   4.529
 6693TIP3    H220037   2.355   1.330   4.384
 6694TIP3   OH220038   1.898   0.971   6.561
 6694TIP3    H120039   1.955   0.895   6.549
 6694TIP3    H220040   1.957   1.045   6.570
 6695TIP3   OH220041   1.330   3.206   2.909
 6695TIP3    H120042   1.313   3.114   2.926
 6695TIP3    H220043   1.378   3.237   2.986
 6696TIP3   OH220044   5.842   5.989   3.386
 6696TIP3    H120045   5.879   5.980   3.474
 6696TIP3    H220046   5.821   6.083   3.378
 6697TIP3   OH220047   5.078   4.381   6.478
 6697TIP3    H120048   5.052   4.400   6.388
 6697TIP3    H220049   5.164   4.422   6.486
 6698TIP3   OH220050   6.960   2.114   4.858
 6698TIP3    H120051   6.877   2.070   4.841
 6698TIP3    H220052   6.959   2.132   4.952
 6699TIP3   OH220053   4.747   0.029   0.896
 6699TIP3    H120054   4.789   0.070   0.821
 6699TIP3    H220055   4.670   0.084   0.914
 6700TIP3   OH220056   5.763   4.723   5.647
 6700TIP3    H120057   5.773   4.754   5.556
 6700TIP3    H220058   5.694   4.779   5.683
 6701TIP3   OH220059   5.349   5.941   5.519
 6701TIP3    H120060   5.405   5.864   5.514
 6701TIP3    H220061   5.263   5.909   5.494
 6702TIP3   OH220062   7.647   3.994   5.221
 6702TIP3    H120063   7.740   3.973   5.214
 6702TIP3    H220064   7.606   3.948   5.147
 6703TIP3   OH220065   8.067   1.196   4.130
 6703TIP3    H120066   8.124   1.161   4.198
 6703TIP3    H220067   8.115   1.182   4.049
 6704TIP3   OH220068   1.317   5.744   4.303
 6704TIP3    H120069   1.235   5.764   4.348
 6704TIP3    H220070   1.292   5.684   4.232
 6705TIP3   OH220071   4.568   5.311   0.625
 6705TIP3    H120072   4.634   5.332   0.559
 6705TIP3    H220073   4.517   5.240   0.587
 6706TIP3   OH220074   3.876   5.797   3.870
 6706TIP3    H120075   3.811   5.806   3.939
 6706TIP3    H220076   3.841   5.729   3.813
 6707TIP3   OH220077   1.909   0.754   0.895
 6707TIP3    H120078   1.949   0.836   0.923
 6707TIP3    H220079   1.974   0.687   0.915
 6708TIP3   OH220080   1.237   2.836   5.705
 6708TIP3    H120081   1.169   2.866   5.645
 6708TIP3    H220082   1.193   2.774   5.763
 6709TIP3   OH220083   7.511   5.725   1.088
 6709TIP3    H120084   7.557   5.739   1.006
 6709TIP3    H220085   7.424   5.695   1.062
 6710TIP3   OH220086   2.384   2.234   4.389
 6710TIP3    H120087   2.347   2.273   4.468
 6710TIP3    H220088   2.431   2.307   4.346
 6711TIP3   OH220089   4.324   3.489   4.978
 6711TIP3    H120090   4.330   3.432   4.902
 6711TIP3    H220091   4.303   3.430   5.051
 6712TIP3   OH220092   2.310   2.169   5.626
 6712TIP3    H120093   2.247   2.191   5.558
 6712TIP3    H220094   2.261   2.177   5.708
 6713TIP3   OH220095   5.240   0.425   4.888
 6713TIP3    H120096   5.304   0.370   4.843
 6713TIP3    H220097   5.280   0.512   4.892
 6714TIP3   OH220098   2.404   4.667   2.675
 6714TIP3    H120099   2.331   4.614   2.710
 6714TIP3    H220100   2.442   4.709   2.753
 6715TIP3   OH220101   1.784   5.120   1.188
 6715TIP3    H120102   1.743   5.205   1.207
 6715TIP3    H220103   1.861   5.142   1.136
 6716TIP3   OH220104   7.693   2.473   2.576
 6716TIP3    H120105   7.630   2.543   2.591
 6716TIP3    H220106   7.660   2.427   2.499
 6717TIP3   OH220107   1.138   7.249   4.930
 6717TIP3    H120108   1.187   7.289   5.002
 6717TIP3    H220109   1.052   7.228   4.968
 6718TIP3   OH220110   2.134   2.118   0.097
 6718TIP3    H120111   2.081   2.180   0.048
 6718TIP3    H220112   2.098   2.119   0.186
 6719TIP3   OH220113   3.559   0.042   2.934
 6719TIP3    H120114   3.618  -0.012   2.986
 6719TIP3    H220115   3.612   0.118   2.909
 6720TIP3   OH220116   5.297   2.071   3.182
 6720TIP3    H120117   5.369   2.118   3.224
 6720TIP3    H220118   5.336   2.031   3.105
 6721TIP3   OH220119   7.632   2.044   0.522
 6721TIP3    H120120   7.667   2.133   0.518
 6721TIP3    H220121   7.549   2.053   0.569
 6722TIP3   OH220122   1.158   0.689   0.801
 6722TIP3    H120123   1.149   0.746   0.877
 6722TIP3    H220124   1.123   0.740   0.728
 6723TIP3   OH220125   3.100   6.261   1.425
 6723TIP3    H120126   3.151   6.331   1.384
 6723TIP3    H220127   3.166   6.205   1.466
 6724TIP3   OH220128   7.178   6.062   4.084
 6724TIP3    H120129   7.267   6.096   4.072
 6724TIP3    H220130   7.121   6.127   4.043
 6725TIP3   OH220131   1.506   4.069   1.762
 6725TIP3    H120132   1.496   4.020   1.680
 6725TIP3    H220133   1.419   4.068   1.802
 6726TIP3   OH220134   1.109   6.225   2.969
 6726TIP3    H120135   1.017   6.254   2.964
 6726TIP3    H220136   1.106   6.143   3.018
 6727TIP3   OH220137   0.574   5.368   2.982
 6727TIP3    H120138   0.616   5.361   3.067
 6727TIP3    H220139   0.557   5.278   2.955
 6728TIP3   OH220140   5.499   3.284   4.553
 6728TIP3    H120141   5.593   3.300   4.546
 6728TIP3    H220142   5.458   3.351   4.499
 6729TIP3   OH220143   6.003   5.760   1.188
 6729TIP3    H120144   6.082   5.733   1.141
 6729TIP3    H220145   6.011   5.855   1.193
 6730TIP3   OH220146   5.096   7.623   3.595
 6730TIP3    H120147   5.087   7.718   3.584
 6730TIP3    H220148   5.056   7.586   3.517
 6731TIP3   OH220149   6.780   5.970   0.693
 6731TIP3    H120150   6.749   6.018   0.770
 6731TIP3    H220151   6.874   5.961   0.706
 6732TIP3   OH220152   3.490   4.041   5.596
 6732TIP3    H120153   3.579   4.018   5.571
 6732TIP3    H220154   3.496   4.131   5.627
 6733TIP3   OH220155   8.157   3.350   0.885
 6733TIP3    H120156   8.178   3.296   0.962
 6733TIP3    H220157   8.233   3.340   0.828
 6734TIP3   OH220158   3.092   4.876   0.131
 6734TIP3    H120159   3.014   4.860   0.185
 6734TIP3    H220160   3.075   4.827   0.050
 6735TIP3   OH220161   1.656   5.414   3.982
 6735TIP3    H120162   1.618   5.449   4.063
 6735TIP3    H220163   1.581   5.407   3.922
 6736TIP3   OH220164   3.325   5.237   0.889
 6736TIP3    H120165   3.301   5.221   0.798
 6736TIP3    H220166   3.316   5.332   0.900
 6737TIP3   OH220167   0.219   6.464   2.025
 6737TIP3    H120168   0.227   6.489   1.933
 6737TIP3    H220169   0.171   6.382   2.024
 6738TIP3   OH220170   1.548   2.142   0.797
 6738TIP3    H120171   1.603   2.134   0.874
 6738TIP3    H220172   1.609   2.162   0.726
 6739TIP3   OH220173   3.607   3.051   5.122
 6739TIP3    H120174   3.573   3.074   5.209
 6739TIP3    H220175   3.597   2.956   5.118
 6740TIP3   OH220176   0.614   2.930   4.010
 6740TIP3    H120177   0.683   2.985   3.973
 6740TIP3    H220178   0.609   2.956   4.102
 6741TIP3   OH220179   4.270   6.774   5.820
 6741TIP3    H120180   4.243   6.785   5.728
 6741TIP3    H220181   4.335   6.704   5.817
 6742TIP3   OH220182   3.576   3.329   1.434
 6742TIP3    H120183   3.627   3.397   1.390
 6742TIP3    H220184   3.563   3.361   1.523
 6743TIP3   OH220185   2.333   4.749   2.426
 6743TIP3    H120186   2.394   4.689   2.381
 6743TIP3    H220187   2.353   4.739   2.519
 6744TIP3   OH220188   6.525   4.770   3.575
 6744TIP3    H120189   6.440   4.799   3.608
 6744TIP3    H220190   6.525   4.675   3.589
 6745TIP3   OH220191   1.892   2.210   3.043
 6745TIP3    H120192   1.906   2.304   3.043
 6745TIP3    H220193   1.921   2.181   2.956
 6746TIP3   OH220194   8.090   3.375   3.413
 6746TIP3    H120195   8.081   3.467   3.385
 6746TIP3    H220196   8.112   3.328   3.333
 6747TIP3   OH220197   4.545   6.732   2.597
 6747TIP3    H120198   4.553   6.782   2.515
 6747TIP3    H220199   4.480   6.665   2.579
 6748TIP3   OH220200   3.662   4.638   1.892
 6748TIP3    H120201   3.612   4.582   1.833
 6748TIP3    H220202   3.725   4.683   1.836
 6749TIP3   OH220203   4.058   7.446   0.072
 6749TIP3    H120204   4.106   7.458  -0.010
 6749TIP3    H220205   4.118   7.399   0.129
 6750TIP3   OH220206   4.969   0.205   6.233
 6750TIP3    H120207   4.879   0.234   6.244
 6750TIP3    H220208   4.962   0.111   6.215
 6751TIP3   OH220209   0.347   5.064   5.829
 6751TIP3    H120210   0.330   5.148   5.787
 6751TIP3    H220211   0.418   5.081   5.891
 6752TIP3   OH220212   4.916   4.355   5.850
 6752TIP3    H120213   4.911   4.441   5.892
 6752TIP3    H220214   4.942   4.374   5.760
 6753TIP3   OH220215   7.949   6.579   2.581
 6753TIP3    H120216   7.881   6.641   2.556
 6753TIP3    H220217   8.024   6.633   2.607
 6754TIP3   OH220218   3.760   6.226   5.684
 6754TIP3    H120219   3.830   6.236   5.748
 6754TIP3    H220220   3.742   6.315   5.653
 6755TIP3   OH220221   4.548   7.252   1.782
 6755TIP3    H120222   4.485   7.306   1.734
 6755TIP3    H220223   4.633   7.275   1.744
 6756TIP3   OH220224   3.944   2.757   3.108
 6756TIP3    H120225   3.853   2.741   3.085
 6756TIP3    H220226   3.991   2.679   3.079
 6757TIP3   OH220227   0.029   5.162   2.191
 6757TIP3    H120228  -0.037   5.140   2.125
 6757TIP3    H220229   0.004   5.110   2.268
 6758TIP3   OH220230   7.228   7.179   6.456
 6758TIP3    H120231   7.192   7.254   6.503
 6758TIP3    H220232   7.282   7.217   6.386
 6759TIP3   OH220233   2.029   7.328   4.952
 6759TIP3    H120234   1.982   7.296   4.875
 6759TIP3    H220235   2.090   7.258   4.975
 6760TIP3   OH220236   4.812   3.926   5.823
 6760TIP3    H120237   4.826   3.954   5.914
 6760TIP3    H220238   4.862   3.989   5.771
 6761TIP3   OH220239   1.042   4.285   3.477
 6761TIP3    H120240   0.958   4.242   3.492
 6761TIP3    H220241   1.052   4.287   3.382
 6762TIP3   OH220242   7.626   4.381   1.709
 6762TIP3    H120243   7.550   4.420   1.752
 6762TIP3    H220244   7.614   4.402   1.616
 6763TIP3   OH220245   0.881   3.456   2.191
 6763TIP3    H120246   0.887   3.537   2.243
 6763TIP3    H220247   0.966   3.414   2.204
 6764TIP3   OH220248   0.503   3.274   3.929
 6764TIP3    H120249   0.465   3.222   3.858
 6764TIP3    H220250   0.591   3.296   3.897
 6765TIP3   OH220251   1.704   5.153   5.483
 6765TIP3    H120252   1.655   5.225   5.443
 6765TIP3    H220253   1.750   5.194   5.557
 6766TIP3   OH220254   2.035   5.631   0.005
 6766TIP3    H120255   2.104   5.660  -0.055
 6766TIP3    H220256   2.058   5.671   0.089
 6767TIP3   OH220257   7.694   7.512   4.668
 6767TIP3    H120258   7.661   7.532   4.756
 6767TIP3    H220259   7.687   7.595   4.621
 6768TIP3   OH220260   1.941   7.072   5.745
 6768TIP3    H120261   1.864   7.038   5.790
 6768TIP3    H220262   2.002   6.999   5.741
 6769TIP3   OH220263   2.054   6.862   2.708
 6769TIP3    H120264   2.137   6.832   2.746
 6769TIP3    H220265   2.000   6.886   2.783
 6770TIP3   OH220266   0.401   3.650   6.080
 6770TIP3    H120267   0.325   3.702   6.056
 6770TIP3    H220268   0.444   3.630   5.996
 6771TIP3   OH220269   6.807   3.663   6.631
 6771TIP3    H120270   6.819   3.748   6.588
 6771TIP3    H220271   6.778   3.685   6.719
 6772TIP3   OH220272   1.958   6.908   2.980
 6772TIP3    H120273   1.876   6.900   2.931
 6772TIP3    H220274   1.940   6.864   3.063
 6773TIP3   OH220275   3.255   4.041   5.135
 6773TIP3    H120276   3.279   3.960   5.181
 6773TIP3    H220277   3.316   4.106   5.169
 6774TIP3   OH220278   2.074   0.019   5.525
 6774TIP3    H120279   2.160   0.007   5.566
 6774TIP3    H220280   2.089   0.000   5.433
 6775TIP3   OH220281   3.891   3.146   2.153
 6775TIP3    H120282   3.869   3.236   2.180
 6775TIP3    H220283   3.957   3.118   2.217
 6776TIP3   OH220284   5.734   0.952   0.624
 6776TIP3    H120285   5.802   0.886   0.635
 6776TIP3    H220286   5.777   1.025   0.581
 6777TIP3   OH220287   2.131   4.652   3.360
 6777TIP3    H120288   2.135   4.652   3.265
 6777TIP3    H220289   2.061   4.589   3.381
 6778TIP3   OH220290   5.191   0.577   3.839
 6778TIP3    H120291   5.118   0.565   3.900
 6778TIP3    H220292   5.148   0.588   3.754
 6779TIP3   OH220293   4.475   2.257   1.689
 6779TIP3    H120294   4.523   2.185   1.649
 6779TIP3    H220295   4.457   2.317   1.616
 6780TIP3   OH220296   1.731   4.344   3.079
 6780TIP3    H120297   1.683   4.290   3.016
 6780TIP3    H220298   1.713   4.434   3.052
 6781TIP3   OH220299   2.486   7.355   4.151
 6781TIP3    H120300   2.412   7.309   4.188
 6781TIP3    H220301   2.477   7.345   4.056
 6782TIP3   OH220302   0.153   2.158   4.808
 6782TIP3    H120303   0.088   2.092   4.785
 6782TIP3    H220304   0.108   2.242   4.793
 6783TIP3   OH220305   7.864   4.747   5.745
 6783TIP3    H120306   7.790   4.698   5.781
 6783TIP3    H220307   7.824   4.827   5.710
 6784TIP3   OH220308   4.445   3.261   1.734
 6784TIP3    H120309   4.410   3.174   1.755
 6784TIP3    H220310   4.521   3.270   1.791
 6785TIP3   OH220311   2.271   3.451   0.492
 6785TIP3    H120312   2.202   3.473   0.555
 6785TIP3    H220313   2.264   3.518   0.424
 6786TIP3   OH220314   4.130   0.822   2.747
 6786TIP3    H120315   4.147   0.851   2.837
 6786TIP3    H220316   4.201   0.761   2.728
 6787TIP3   OH220317   8.040   0.956   0.554
 6787TIP3    H120318   8.036   1.050   0.535
 6787TIP3    H220319   8.027   0.951   0.649
 6788TIP3   OH220320   2.910   6.556   6.070
 6788TIP3    H120321   2.865   6.640   6.075
 6788TIP3    H220322   2.848   6.493   6.107
 6789TIP3   OH220323   8.293   6.696   3.172
 6789TIP3    H120324   8.277   6.629   3.105
 6789TIP3    H220325   8.228   6.764   3.154
 6790TIP3   OH220326   0.396   6.008   6.154
 6790TIP3    H120327   0.343   6.054   6.089
 6790TIP3    H220328   0.475   6.062   6.163
 6791TIP3   OH220329   8.213   4.488   4.611
 6791TIP3    H120330   8.268   4.565   4.594
 6791TIP3    H220331   8.190   4.456   4.524
 6792TIP3   OH220332   5.298   4.493   6.740
 6792TIP3    H120333   5.347   4.470   6.661
 6792TIP3    H220334   5.275   4.409   6.780
 6793TIP3   OH220335   0.437   1.031   4.625
 6793TIP3    H120336   0.499   0.985   4.568
 6793TIP3    H220337   0.372   0.964   4.647
 6794TIP3   OH220338   6.251   4.319   4.862
 6794TIP3    H120339   6.339   4.284   4.874
 6794TIP3    H220340   6.239   4.379   4.935
 6795TIP3   OH220341   0.275   3.979   0.209
 6795TIP3    H120342   0.352   4.035   0.206
 6795TIP3    H220343   0.208   4.027   0.161
 6796TIP3   OH220344   3.058   2.174   3.017
 6796TIP3    H120345   3.005   2.138   3.088
 6796TIP3    H220346   2.995   2.206   2.953
 6797TIP3   OH220347   0.366   7.668   4.914
 6797TIP3    H120348   0.274   7.643   4.921
 6797TIP3    H220349   0.393   7.687   5.003
 6798TIP3   OH220350   7.823   3.445   2.644
 6798TIP3    H120351   7.888   3.493   2.695
 6798TIP3    H220352   7.874   3.398   2.578
 6799TIP3   OH220353   7.535   5.453   0.190
 6799TIP3    H120354   7.531   5.407   0.274
 6799TIP3    H220355   7.444   5.475   0.170
 6800TIP3   OH220356   5.224   7.380   2.632
 6800TIP3    H120357   5.266   7.373   2.546
 6800TIP3    H220358   5.154   7.444   2.619
 6801TIP3   OH220359   7.083   6.404   0.129
 6801TIP3    H120360   7.032   6.476   0.090
 6801TIP3    H220361   7.096   6.431   0.220
 6802TIP3   OH220362   1.683   3.884   5.398
 6802TIP3    H120363   1.589   3.866   5.404
 6802TIP3    H220364   1.688   3.969   5.354
 6803TIP3   OH220365   7.922   4.325   4.845
 6803TIP3    H120366   7.840   4.373   4.839
 6803TIP3    H220367   7.934   4.288   4.757
 6804TIP3   OH220368   3.122   6.757   6.498
 6804TIP3    H120369   3.074   6.768   6.580
 6804TIP3    H220370   3.146   6.664   6.497
 6805TIP3   OH220371   8.179   7.574   3.725
 6805TIP3    H120372   8.273   7.561   3.732
 6805TIP3    H220373   8.141   7.511   3.786
 6806TIP3   OH220374   6.928   3.912   2.980
 6806TIP3    H120375   6.839   3.898   2.948
 6806TIP3    H220376   6.983   3.869   2.914
 6807TIP3   OH220377   0.973   6.597   3.107
 6807TIP3    H120378   0.991   6.524   3.166
 6807TIP3    H220379   0.908   6.563   3.045
 6808TIP3   OH220380   0.156   5.251   0.417
 6808TIP3    H120381   0.232   5.246   0.360
 6808TIP3    H220382   0.177   5.318   0.481
 6809TIP3   OH220383   3.762   0.426   2.614
 6809TIP3    H120384   3.816   0.347   2.618
 6809TIP3    H220385   3.679   0.400   2.654
 6810TIP3   OH220386   8.277   7.102   1.733
 6810TIP3    H120387   8.207   7.142   1.680
 6810TIP3    H220388   8.233   7.030   1.779
 6811TIP3   OH220389   7.146   4.330   4.636
 6811TIP3    H120390   7.165   4.382   4.558
 6811TIP3    H220391   7.207   4.257   4.632
 6812TIP3   OH220392   7.722   6.270   1.672
 6812TIP3    H120393   7.730   6.346   1.730
 6812TIP3    H220394   7.657   6.214   1.714
 6813TIP3   OH220395   0.841   6.703   5.515
 6813TIP3    H120396   0.783   6.639   5.476
 6813TIP3    H220397   0.896   6.733   5.442
 6814TIP3   OH220398   3.468   2.640   6.223
 6814TIP3    H120399   3.495   2.561   6.271
 6814TIP3    H220400   3.414   2.607   6.152
 6815TIP3   OH220401   4.903   6.730   3.006
 6815TIP3    H120402   4.839   6.685   2.951
 6815TIP3    H220403   4.859   6.811   3.031
 6816TIP3   OH220404   4.211   4.020   6.169
 6816TIP3    H120405   4.289   3.966   6.156
 6816TIP3    H220406   4.159   3.972   6.234
 6817TIP3   OH220407   1.379   1.959   0.309
 6817TIP3    H120408   1.286   1.981   0.304
 6817TIP3    H220409   1.385   1.900   0.384
 6818TIP3   OH220410   5.479   5.359   0.644
 6818TIP3    H120411   5.448   5.269   0.638
 6818TIP3    H220412   5.495   5.372   0.737
 6819TIP3   OH220413   0.902   7.115   3.242
 6819TIP3    H120414   0.826   7.163   3.211
 6819TIP3    H220415   0.907   7.038   3.187
 6820TIP3   OH220416   2.974   7.398   0.709
 6820TIP3    H120417   2.978   7.308   0.678
 6820TIP3    H220418   3.061   7.415   0.746
 6821TIP3   OH220419   0.153   3.037   1.463
 6821TIP3    H120420   0.226   3.063   1.406
 6821TIP3    H220421   0.094   2.988   1.406
 6822TIP3   OH220422   8.192   2.139   1.424
 6822TIP3    H120423   8.272   2.088   1.434
 6822TIP3    H220424   8.125   2.088   1.470
 6823TIP3   OH220425   2.927   7.498   6.376
 6823TIP3    H120426   2.979   7.499   6.296
 6823TIP3    H220427   2.884   7.412   6.376
 6824TIP3   OH220428   0.431   2.329   4.551
 6824TIP3    H120429   0.522   2.298   4.548
 6824TIP3    H220430   0.415   2.348   4.643
 6825TIP3   OH220431   6.416   7.237   4.570
 6825TIP3    H120432   6.361   7.158   4.576
 6825TIP3    H220433   6.373   7.300   4.628
 6826TIP3   OH220434   3.958   2.188   4.900
 6826TIP3    H120435   3.948   2.181   4.805
 6826TIP3    H220436   4.049   2.215   4.912
 6827TIP3   OH220437   5.136   4.459   2.025
 6827TIP3    H120438   5.226   4.488   2.014
 6827TIP3    H220439   5.083   4.527   1.983
 6828TIP3   OH220440   0.257   7.302   2.099
 6828TIP3    H120441   0.162   7.311   2.106
 6828TIP3    H220442   0.284   7.374   2.041
 6829TIP3   OH220443   3.409   1.947   3.353
 6829TIP3    H120444   3.354   1.871   3.373
 6829TIP3    H220445   3.388   2.010   3.422
 6830TIP3   OH220446   0.058   7.329   5.568
 6830TIP3    H120447  -0.007   7.269   5.606
 6830TIP3    H220448   0.118   7.348   5.640
 6831TIP3   OH220449   3.942   2.724   2.686
 6831TIP3    H120450   4.026   2.685   2.662
 6831TIP3    H220451   3.964   2.812   2.716
 6832TIP3   OH220452   6.263   6.401   4.390
 6832TIP3    H120453   6.261   6.438   4.302
 6832TIP3    H220454   6.338   6.341   4.390
 6833TIP3   OH220455   2.460   2.221   1.680
 6833TIP3    H120456   2.385   2.161   1.674
 6833TIP3    H220457   2.431   2.299   1.632
 6834TIP3   OH220458   7.540   4.711   5.677
 6834TIP3    H120459   7.559   4.738   5.587
 6834TIP3    H220460   7.572   4.783   5.731
 6835TIP3   OH220461   3.676   6.416   0.290
 6835TIP3    H120462   3.712   6.334   0.255
 6835TIP3    H220463   3.581   6.404   0.285
 6836TIP3   OH220464   2.715   4.054   1.807
 6836TIP3    H120465   2.665   4.042   1.888
 6836TIP3    H220466   2.783   3.987   1.810
 6837TIP3   OH220467   5.302   1.803   1.983
 6837TIP3    H120468   5.373   1.795   1.919
 6837TIP3    H220469   5.227   1.762   1.941
 6838TIP3   OH220470   2.016   4.344   4.775
 6838TIP3    H120471   1.965   4.337   4.694
 6838TIP3    H220472   2.016   4.438   4.795
 6839TIP3   OH220473   6.771   1.614   0.873
 6839TIP3    H120474   6.852   1.567   0.853
 6839TIP3    H220475   6.800   1.696   0.912
 6840TIP3   OH220476   1.489   1.176   1.216
 6840TIP3    H120477   1.457   1.234   1.146
 6840TIP3    H220478   1.508   1.094   1.172
 6841TIP3   OH220479   1.208   6.683   1.900
 6841TIP3    H120480   1.241   6.701   1.812
 6841TIP3    H220481   1.126   6.637   1.885
 6842TIP3   OH220482   0.913   6.705   2.280
 6842TIP3    H120483   0.891   6.732   2.369
 6842TIP3    H220484   0.871   6.770   2.224
 6843TIP3   OH220485   2.943   6.761   5.395
 6843TIP3    H120486   2.901   6.837   5.434
 6843TIP3    H220487   2.949   6.698   5.466
 6844TIP3   OH220488   7.694   6.205   2.637
 6844TIP3    H120489   7.617   6.261   2.625
 6844TIP3    H220490   7.756   6.260   2.685
 6845TIP3   OH220491   4.929   0.829   0.778
 6845TIP3    H120492   4.942   0.902   0.718
 6845TIP3    H220493   4.926   0.752   0.722
 6846TIP3   OH220494   0.166   7.073   1.268
 6846TIP3    H120495   0.230   7.140   1.244
 6846TIP3    H220496   0.180   7.058   1.361
 6847TIP3   OH220497   7.628   3.480   0.284
 6847TIP3    H120498   7.620   3.384   0.286
 6847TIP3    H220499   7.631   3.501   0.190
 6848TIP3   OH220500   4.506   7.345   4.178
 6848TIP3    H120501   4.425   7.372   4.134
 6848TIP3    H220502   4.558   7.304   4.108
 6849TIP3   OH220503   0.816   2.555   4.793
 6849TIP3    H120504   0.785   2.467   4.771
 6849TIP3    H220505   0.738   2.599   4.828
 6850TIP3   OH220506   8.157   3.124   1.944
 6850TIP3    H120507   8.114   3.209   1.951
 6850TIP3    H220508   8.191   3.121   1.855
 6851TIP3   OH220509   5.196   3.226   3.811
 6851TIP3    H120510   5.180   3.180   3.893
 6851TIP3    H220511   5.154   3.311   3.823
 6852TIP3   OH220512   6.285   5.468   1.415
 6852TIP3    H120513   6.339   5.545   1.435
 6852TIP3    H220514   6.289   5.460   1.319
 6853TIP3   OH220515   3.643   3.583   4.304
 6853TIP3    H120516   3.666   3.583   4.211
 6853TIP3    H220517   3.549   3.563   4.305
 6854TIP3   OH220518   7.540   1.737   2.198
 6854TIP3    H120519   7.521   1.688   2.119
 6854TIP3    H220520   7.467   1.799   2.206
 6855TIP3   OH220521   4.064   1.247   3.629
 6855TIP3    H120522   4.127   1.319   3.631
 6855TIP3    H220523   3.998   1.274   3.566
 6856TIP3   OH220524   6.083   2.108   1.040
 6856TIP3    H120525   6.019   2.141   1.102
 6856TIP3    H220526   6.137   2.047   1.090
 6857TIP3   OH220527   5.471   7.046   5.202
 6857TIP3    H120528   5.456   7.063   5.295
 6857TIP3    H220529   5.391   7.078   5.159
 6858TIP3   OH220530   7.715   3.503   1.464
 6858TIP3    H120531   7.709   3.567   1.394
 6858TIP3    H220532   7.624   3.480   1.483
 6859TIP3   OH220533   6.554   5.521   6.154
 6859TIP3    H120534   6.610   5.510   6.078
 6859TIP3    H220535   6.502   5.599   6.136
 6860TIP3   OH220536   4.109   1.117   0.329
 6860TIP3    H120537   4.154   1.059   0.390
 6860TIP3    H220538   4.089   1.062   0.253
 6861TIP3   OH220539   4.976   0.444   4.473
 6861TIP3    H120540   5.063   0.408   4.493
 6861TIP3    H220541   4.917   0.368   4.481
 6862TIP3   OH220542   5.786   2.191   0.860
 6862TIP3    H120543   5.765   2.228   0.945
 6862TIP3    H220544   5.712   2.215   0.804
 6863TIP3   OH220545   7.744   5.427   1.821
 6863TIP3    H120546   7.781   5.480   1.892
 6863TIP3    H220547   7.754   5.482   1.743
 6864TIP3   OH220548   1.585   6.231   0.437
 6864TIP3    H120549   1.550   6.188   0.516
 6864TIP3    H220550   1.617   6.159   0.383
 6865TIP3   OH220551   7.019   0.055   0.575
 6865TIP3    H120552   7.073   0.008   0.639
 6865TIP3    H220553   7.002   0.140   0.616
 6866TIP3   OH220554   0.372   6.931   0.946
 6866TIP3    H120555   0.277   6.943   0.944
 6866TIP3    H220556   0.393   6.927   1.039
 6867TIP3   OH220557   0.150   6.245   6.726
 6867TIP3    H120558   0.189   6.292   6.799
 6867TIP3    H220559   0.200   6.164   6.719
 6868TIP3   OH220560   6.611   4.517   1.138
 6868TIP3    H120561   6.684   4.471   1.097
 6868TIP3    H220562   6.624   4.609   1.114
 6869TIP3   OH220563   4.144   0.307   3.953
 6869TIP3    H120564   4.138   0.297   3.858
 6869TIP3    H220565   4.054   0.302   3.984
 6870TIP3   OH220566   8.012   3.978   0.672
 6870TIP3    H120567   8.053   3.998   0.756
 6870TIP3    H220568   8.032   3.886   0.656
 6871TIP3   OH220569   0.967   6.673   6.292
 6871TIP3    H120570   0.973   6.583   6.326
 6871TIP3    H220571   0.875   6.697   6.305
 6872TIP3   OH220572   4.926   5.030   6.157
 6872TIP3    H120573   4.843   4.995   6.125
 6872TIP3    H220574   4.973   5.059   6.079
 6873TIP3   OH220575   1.579   7.316   4.718
 6873TIP3    H120576   1.512   7.247   4.716
 6873TIP3    H220577   1.559   7.371   4.643
 6874TIP3   OH220578   6.913   4.436   5.283
 6874TIP3    H120579   6.863   4.397   5.212
 6874TIP3    H220580   7.002   4.404   5.271
 6875TIP3   OH220581   3.316   0.918   5.844
 6875TIP3    H120582   3.297   0.937   5.936
 6875TIP3    H220583   3.256   0.974   5.795
 6876TIP3   OH220584   7.316   6.797   1.289
 6876TIP3    H120585   7.248   6.864   1.293
 6876TIP3    H220586   7.300   6.751   1.207
 6877TIP3   OH220587   1.293   5.457   3.554
 6877TIP3    H120588   1.237   5.419   3.621
 6877TIP3    H220589   1.358   5.389   3.534
 6878TIP3   OH220590   7.839   1.441   0.460
 6878TIP3    H120591   7.839   1.519   0.404
 6878TIP3    H220592   7.793   1.468   0.540
 6879TIP3   OH220593   0.494   1.703   1.926
 6879TIP3    H120594   0.413   1.666   1.962
 6879TIP3    H220595   0.543   1.733   2.002
 6880TIP3   OH220596   7.383   3.552   5.995
 6880TIP3    H120597   7.426   3.468   6.013
 6880TIP3    H220598   7.325   3.566   6.070
 6881TIP3   OH220599   1.951   2.096   3.302
 6881TIP3    H120600   2.045   2.092   3.288
 6881TIP3    H220601   1.916   2.131   3.220
 6882TIP3   OH220602   4.191   4.482   2.548
 6882TIP3    H120603   4.173   4.446   2.635
 6882TIP3    H220604   4.270   4.535   2.560
 6883TIP3   OH220605   5.615   6.322   6.146
 6883TIP3    H120606   5.564   6.402   6.133
 6883TIP3    H220607   5.701   6.343   6.109
 6884TIP3   OH220608   4.126   4.681   3.980
 6884TIP3    H120609   4.163   4.734   3.909
 6884TIP3    H220610   4.195   4.617   4.000
 6885TIP3   OH220611   4.711   7.080   2.078
 6885TIP3    H120612   4.667   7.001   2.046
 6885TIP3    H220613   4.792   7.047   2.117
 6886TIP3   OH220614   3.412   2.892   3.876
 6886TIP3    H120615   3.422   2.874   3.970
 6886TIP3    H220616   3.324   2.861   3.855
 6887TIP3   OH220617   3.297   6.991   4.939
 6887TIP3    H120618   3.387   7.021   4.923
 6887TIP3    H220619   3.305   6.895   4.944
 6888TIP3   OH220620   3.809   5.248   5.063
 6888TIP3    H120621   3.766   5.222   4.981
 6888TIP3    H220622   3.791   5.341   5.071
 6889TIP3   OH220623   7.547   3.990   4.326
 6889TIP3    H120624   7.627   4.035   4.302
 6889TIP3    H220625   7.562   3.898   4.303
 6890TIP3   OH220626   6.905   1.420   3.332
 6890TIP3    H120627   6.860   1.365   3.396
 6890TIP3    H220628   6.998   1.409   3.353
 6891TIP3   OH220629   0.417   5.810   2.103
 6891TIP3    H120630   0.367   5.879   2.059
 6891TIP3    H220631   0.499   5.852   2.130
 6892TIP3   OH220632   5.100   7.230   1.275
 6892TIP3    H120633   5.141   7.168   1.214
 6892TIP3    H220634   5.164   7.301   1.283
 6893TIP3   OH220635   1.142   7.565   3.275
 6893TIP3    H120636   1.235   7.586   3.282
 6893TIP3    H220637   1.132   7.482   3.321
 6894TIP3   OH220638   0.171   6.473   3.947
 6894TIP3    H120639   0.183   6.517   4.031
 6894TIP3    H220640   0.077   6.454   3.943
 6895TIP3   OH220641   0.815   4.469   3.437
 6895TIP3    H120642   0.739   4.475   3.379
 6895TIP3    H220643   0.881   4.524   3.394
 6896TIP3   OH220644   0.711   5.800   3.781
 6896TIP3    H120645   0.715   5.782   3.687
 6896TIP3    H220646   0.800   5.786   3.812
 6897TIP3   OH220647   6.751   2.976   5.819
 6897TIP3    H120648   6.796   3.039   5.763
 6897TIP3    H220649   6.677   3.025   5.855
 6898TIP3   OH220650   6.871   7.577   1.157
 6898TIP3    H120651   6.816   7.500   1.140
 6898TIP3    H220652   6.960   7.543   1.163
 6899TIP3   OH220653   1.181   5.043   0.036
 6899TIP3    H120654   1.159   4.950   0.030
 6899TIP3    H220655   1.140   5.072   0.118
 6900TIP3   OH220656   1.277   3.111   6.233
 6900TIP3    H120657   1.268   3.019   6.212
 6900TIP3    H220658   1.248   3.118   6.324
 6901TIP3   OH220659   7.600   5.371   5.838
 6901TIP3    H120660   7.604   5.294   5.894
 6901TIP3    H220661   7.541   5.346   5.767
 6902TIP3   OH220662   4.311   2.901   4.678
 6902TIP3    H120663   4.348   2.989   4.666
 6902TIP3    H220664   4.217   2.915   4.686
 6903TIP3   OH220665   1.604   0.388   3.481
 6903TIP3    H120666   1.600   0.295   3.502
 6903TIP3    H220667   1.543   0.399   3.408
 6904TIP3   OH220668   4.478   5.523   6.416
 6904TIP3    H120669   4.440   5.504   6.329
 6904TIP3    H220670   4.450   5.613   6.435
 6905TIP3   OH220671   7.422   6.834   5.518
 6905TIP3    H120672   7.359   6.762   5.516
 6905TIP3    H220673   7.431   6.859   5.426
 6906TIP3   OH220674   4.251   0.009   5.167
 6906TIP3    H120675   4.291   0.093   5.143
 6906TIP3    H220676   4.201   0.028   5.246
 6907TIP3   OH220677   1.884   1.652   0.756
 6907TIP3    H120678   1.972   1.614   0.759
 6907TIP3    H220679   1.843   1.611   0.680
 6908TIP3   OH220680   6.824   7.565   3.552
 6908TIP3    H120681   6.853   7.605   3.634
 6908TIP3    H220682   6.734   7.594   3.541
 6909TIP3   OH220683   0.408   3.123   0.108
 6909TIP3    H120684   0.334   3.070   0.137
 6909TIP3    H220685   0.368   3.206   0.080
 6910TIP3   OH220686   3.824   7.274   5.361
 6910TIP3    H120687   3.730   7.293   5.361
 6910TIP3    H220688   3.859   7.327   5.433
 6911TIP3   OH220689   0.789   4.195   2.256
 6911TIP3    H120690   0.875   4.216   2.294
 6911TIP3    H220691   0.792   4.100   2.242
 6912TIP3   OH220692   3.420   6.671   0.767
 6912TIP3    H120693   3.347   6.729   0.746
 6912TIP3    H220694   3.381   6.602   0.820
 6913TIP3   OH220695   2.589   4.648   6.493
 6913TIP3    H120696   2.654   4.676   6.429
 6913TIP3    H220697   2.513   4.704   6.476
 6914TIP3   OH220698   1.083   4.311   3.175
 6914TIP3    H120699   0.995   4.321   3.139
 6914TIP3    H220700   1.087   4.220   3.205
 6915TIP3   OH220701   6.934   0.722   0.897
 6915TIP3    H120702   7.000   0.772   0.946
 6915TIP3    H220703   6.873   0.691   0.964
 6916TIP3   OH220704   7.955   4.169   1.717
 6916TIP3    H120705   8.035   4.222   1.710
 6916TIP3    H220706   7.914   4.175   1.631
 6917TIP3   OH220707   6.928   5.577   3.114
 6917TIP3    H120708   6.984   5.506   3.083
 6917TIP3    H220709   6.971   5.609   3.193
 6918TIP3   OH220710   5.108   5.242   5.586
 6918TIP3    H120711   5.129   5.192   5.665
 6918TIP3    H220712   5.092   5.331   5.618
 6919TIP3   OH220713   0.386   2.874   6.082
 6919TIP3    H120714   0.365   2.967   6.087
 6919TIP3    H220715   0.318   2.837   6.027
 6920TIP3   OH220716   7.873   7.102   3.803
 6920TIP3    H120717   7.919   7.052   3.736
 6920TIP3    H220718   7.845   7.037   3.867
 6921TIP3   OH220719   1.689   7.195   6.177
 6921TIP3    H120720   1.634   7.271   6.158
 6921TIP3    H220721   1.633   7.120   6.158
 6922TIP3   OH220722   3.732   6.478   5.550
 6922TIP3    H120723   3.724   6.520   5.464
 6922TIP3    H220724   3.722   6.550   5.612
 6923TIP3   OH220725   7.323   3.148   2.628
 6923TIP3    H120726   7.402   3.103   2.600
 6923TIP3    H220727   7.353   3.236   2.652
 6924TIP3   OH220728   5.568   4.241   6.218
 6924TIP3    H120729   5.654   4.244   6.175
 6924TIP3    H220730   5.585   4.272   6.307
 6925TIP3   OH220731   0.465   7.137   4.911
 6925TIP3    H120732   0.413   7.160   4.834
 6925TIP3    H220733   0.407   7.082   4.964
 6926TIP3   OH220734   3.250   3.411   6.625
 6926TIP3    H120735   3.266   3.396   6.718
 6926TIP3    H220736   3.326   3.462   6.597
 6927TIP3   OH220737   2.887   7.403  -0.005
 6927TIP3    H120738   2.878   7.452   0.077
 6927TIP3    H220739   2.975   7.365   0.000
 6928TIP3   OH220740   3.012   0.093   6.124
 6928TIP3    H120741   3.005   0.182   6.159
 6928TIP3    H220742   2.934   0.049   6.155
 6929TIP3   OH220743   0.194   3.911   1.911
 6929TIP3    H120744   0.160   3.905   1.822
 6929TIP3    H220745   0.250   3.834   1.921
 6930TIP3   OH220746   7.126   6.769   6.692
 6930TIP3    H120747   7.162   6.831   6.628
 6930TIP3    H220748   7.075   6.823   6.752
 6931TIP3   OH220749   7.833   7.680   3.152
 6931TIP3    H120750   7.870   7.595   3.128
 6931TIP3    H220751   7.750   7.685   3.106
 6932TIP3   OH220752   5.664   1.151   5.430
 6932TIP3    H120753   5.678   1.243   5.450
 6932TIP3    H220754   5.673   1.145   5.335
 6933TIP3   OH220755   7.287   0.816   3.082
 6933TIP3    H120756   7.358   0.770   3.125
 6933TIP3    H220757   7.328   0.860   3.007
 6934TIP3   OH220758   2.783   4.032   0.347
 6934TIP3    H120759   2.778   3.988   0.262
 6934TIP3    H220760   2.754   4.122   0.328
 6935TIP3   OH220761   5.354   5.965   3.435
 6935TIP3    H120762   5.298   5.888   3.447
 6935TIP3    H220763   5.363   5.974   3.341
 6936TIP3   OH220764   4.961   6.499   2.540
 6936TIP3    H120765   4.935   6.552   2.616
 6936TIP3    H220766   4.879   6.475   2.498
 6937TIP3   OH220767   4.151   7.428   5.280
 6937TIP3    H120768   4.140   7.508   5.332
 6937TIP3    H220769   4.152   7.457   5.190
 6938TIP3   OH220770   4.833   0.582   0.895
 6938TIP3    H120771   4.909   0.531   0.923
 6938TIP3    H220772   4.865   0.672   0.889
 6939TIP3   OH220773   6.998   3.452   1.575
 6939TIP3    H120774   7.040   3.536   1.557
 6939TIP3    H220775   6.959   3.427   1.492
 6940TIP3   OH220776   2.212   6.264   1.047
 6940TIP3    H120777   2.148   6.277   1.116
 6940TIP3    H220778   2.163   6.277   0.965
 6941TIP3   OH220779   6.872   2.432   3.938
 6941TIP3    H120780   6.916   2.355   3.902
 6941TIP3    H220781   6.857   2.488   3.862
 6942TIP3   OH220782   5.156   2.989   2.455
 6942TIP3    H120783   5.245   2.974   2.425
 6942TIP3    H220784   5.164   3.052   2.526
 6943TIP3   OH220785   1.198   7.289   6.206
 6943TIP3    H120786   1.149   7.370   6.191
 6943TIP3    H220787   1.244   7.304   6.288
 6944TIP3   OH220788   4.534   7.492   1.553
 6944TIP3    H120789   4.517   7.546   1.477
 6944TIP3    H220790   4.628   7.474   1.549
 6945TIP3   OH220791   4.176   1.422   1.569
 6945TIP3    H120792   4.204   1.397   1.657
 6945TIP3    H220793   4.104   1.362   1.548
 6946TIP3   OH220794   0.648   3.703   0.407
 6946TIP3    H120795   0.562   3.664   0.422
 6946TIP3    H220796   0.680   3.725   0.495
 6947TIP3   OH220797   8.217   7.383   2.830
 6947TIP3    H120798   8.312   7.370   2.834
 6947TIP3    H220799   8.205   7.445   2.757
 6948TIP3   OH220800   5.950   7.567   0.479
 6948TIP3    H120801   5.861   7.574   0.446
 6948TIP3    H220802   6.001   7.533   0.406
 6949TIP3   OH220803   2.822   0.371   5.471
 6949TIP3    H120804   2.889   0.411   5.415
 6949TIP3    H220805   2.753   0.345   5.411
 6950TIP3   OH220806   3.569   5.381   0.500
 6950TIP3    H120807   3.663   5.364   0.489
 6950TIP3    H220808   3.538   5.399   0.411
 6951TIP3   OH220809   1.075   6.785   1.129
 6951TIP3    H120810   0.993   6.745   1.159
 6951TIP3    H220811   1.049   6.841   1.055
 6952TIP3   OH220812   5.007   1.683   1.105
 6952TIP3    H120813   4.924   1.682   1.151
 6952TIP3    H220814   5.046   1.598   1.123
 6953TIP3   OH220815   3.802   7.715   1.079
 6953TIP3    H120816   3.876   7.772   1.098
 6953TIP3    H220817   3.731   7.774   1.056
 6954TIP3   OH220818   7.956   2.597   3.157
 6954TIP3    H120819   7.963   2.620   3.249
 6954TIP3    H220820   7.886   2.532   3.152
 6955TIP3   OH220821   6.475   5.003   0.139
 6955TIP3    H120822   6.560   5.012   0.182
 6955TIP3    H220823   6.463   5.085   0.092
 6956TIP3   OH220824   4.887   2.432   5.638
 6956TIP3    H120825   4.953   2.497   5.613
 6956TIP3    H220826   4.906   2.356   5.583
 6957TIP3   OH220827   2.603   1.006   2.907
 6957TIP3    H120828   2.511   1.002   2.881
 6957TIP3    H220829   2.601   1.005   3.002
 6958TIP3   OH220830   4.706   7.822   1.153
 6958TIP3    H120831   4.728   7.757   1.220
 6958TIP3    H220832   4.784   7.878   1.148
 6959TIP3   OH220833   4.604   6.812   3.309
 6959TIP3    H120834   4.551   6.733   3.314
 6959TIP3    H220835   4.577   6.865   3.384
 6960TIP3   OH220836   7.926   1.626   3.015
 6960TIP3    H120837   7.920   1.627   2.920
 6960TIP3    H220838   7.895   1.539   3.041
 6961TIP3   OH220839   6.799   2.402   0.114
 6961TIP3    H120840   6.769   2.468   0.175
 6961TIP3    H220841   6.788   2.442   0.028
 6962TIP3   OH220842   5.475   1.461   3.514
 6962TIP3    H120843   5.484   1.371   3.481
 6962TIP3    H220844   5.415   1.503   3.453
 6963TIP3   OH220845   7.516   3.456   4.850
 6963TIP3    H120846   7.578   3.529   4.853
 6963TIP3    H220847   7.546   3.396   4.919
 6964TIP3   OH220848   6.341   4.570   5.655
 6964TIP3    H120849   6.316   4.598   5.743
 6964TIP3    H220850   6.261   4.532   5.618
 6965TIP3   OH220851   7.480   5.534   0.513
 6965TIP3    H120852   7.535   5.613   0.504
 6965TIP3    H220853   7.401   5.565   0.558
 6966TIP3   OH220854   2.023   0.279   4.870
 6966TIP3    H120855   1.954   0.310   4.812
 6966TIP3    H220856   2.085   0.234   4.812
 6967TIP3   OH220857   7.225   3.463   0.790
 6967TIP3    H120858   7.213   3.444   0.696
 6967TIP3    H220859   7.320   3.470   0.801
 6968TIP3   OH220860   4.502   5.708   2.907
 6968TIP3    H120861   4.537   5.668   2.827
 6968TIP3    H220862   4.532   5.652   2.978
 6969TIP3   OH220863   8.091   4.294   6.149
 6969TIP3    H120864   8.116   4.306   6.058
 6969TIP3    H220865   8.031   4.367   6.168
 6970TIP3   OH220866   2.612   7.600   5.045
 6970TIP3    H120867   2.588   7.643   5.127
 6970TIP3    H220868   2.535   7.549   5.020
 6971TIP3   OH220869   6.265   4.940   1.146
 6971TIP3    H120870   6.209   4.981   1.079
 6971TIP3    H220871   6.354   4.952   1.113
 6972TIP3   OH220872   7.711   4.138   1.159
 6972TIP3    H120873   7.710   4.120   1.253
 6972TIP3    H220874   7.641   4.082   1.124
 6973TIP3   OH220875   2.601   0.900   5.122
 6973TIP3    H120876   2.566   0.841   5.188
 6973TIP3    H220877   2.528   0.958   5.100
 6974TIP3   OH220878   6.985   4.656   3.357
 6974TIP3    H120879   7.020   4.568   3.344
 6974TIP3    H220880   7.040   4.713   3.303
 6975TIP3   OH220881   6.330   6.890   2.659
 6975TIP3    H120882   6.301   6.973   2.621
 6975TIP3    H220883   6.282   6.823   2.610
 6976TIP3   OH220884   3.070   0.555   1.824
 6976TIP3    H120885   3.112   0.593   1.902
 6976TIP3    H220886   2.977   0.554   1.845
 6977TIP3   OH220887   2.332   6.824   2.486
 6977TIP3    H120888   2.407   6.852   2.434
 6977TIP3    H220889   2.323   6.892   2.553
 6978TIP3   OH220890   4.017   0.907   2.028
 6978TIP3    H120891   4.067   0.918   2.109
 6978TIP3    H220892   3.995   0.814   2.026
 6979TIP3   OH220893   2.373   4.269   2.488
 6979TIP3    H120894   2.293   4.281   2.539
 6979TIP3    H220895   2.387   4.352   2.444
 6980TIP3   OH220896   3.501   0.430   2.712
 6980TIP3    H120897   3.525   0.396   2.797
 6980TIP3    H220898   3.453   0.510   2.731
 6981TIP3   OH220899   0.896   0.782   1.705
 6981TIP3    H120900   0.885   0.823   1.619
 6981TIP3    H220901   0.911   0.690   1.686
 6982TIP3   OH220902   3.768   2.628   4.278
 6982TIP3    H120903   3.734   2.712   4.310
 6982TIP3    H220904   3.849   2.615   4.327
 6983TIP3   OH220905   0.220   5.434   1.907
 6983TIP3    H120906   0.157   5.503   1.886
 6983TIP3    H220907   0.209   5.420   2.001
 6984TIP3   OH220908   8.296   6.593   4.404
 6984TIP3    H120909   8.221   6.601   4.344
 6984TIP3    H220910   8.289   6.670   4.460
 6985TIP3   OH220911   0.683   0.090   5.896
 6985TIP3    H120912   0.700   0.182   5.877
 6985TIP3    H220913   0.735   0.072   5.974
 6986TIP3   OH220914   4.012   4.041   0.632
 6986TIP3    H120915   4.063   4.106   0.680
 6986TIP3    H220916   3.927   4.040   0.675
 6987TIP3   OH220917   2.854   0.709   2.151
 6987TIP3    H120918   2.779   0.654   2.175
 6987TIP3    H220919   2.865   0.767   2.227
 6988TIP3   OH220920   1.689   5.017   5.813
 6988TIP3    H120921   1.783   5.014   5.831
 6988TIP3    H220922   1.681   4.981   5.725
 6989TIP3   OH220923   7.660   3.306   4.461
 6989TIP3    H120924   7.609   3.301   4.379
 6989TIP3    H220925   7.693   3.396   4.463
 6990TIP3   OH220926   5.547   5.876   3.200
 6990TIP3    H120927   5.554   5.781   3.212
 6990TIP3    H220928   5.626   5.899   3.151
 6991TIP3   OH220929   5.209   3.781   6.150
 6991TIP3    H120930   5.197   3.875   6.133
 6991TIP3    H220931   5.204   3.773   6.245
 6992TIP3   OH220932   5.681   7.813   5.388
 6992TIP3    H120933   5.588   7.797   5.369
 6992TIP3    H220934   5.726   7.791   5.306
 6993TIP3   OH220935   5.294   5.718   1.770
 6993TIP3    H120936   5.329   5.634   1.741
 6993TIP3    H220937   5.305   5.718   1.865
 6994TIP3   OH220938   3.912   1.938   0.442
 6994TIP3    H120939   3.822   1.926   0.473
 6994TIP3    H220940   3.905   1.930   0.347
 6995TIP3   OH220941   6.438   1.518   0.522
 6995TIP3    H120942   6.377   1.503   0.450
 6995TIP3    H220943   6.523   1.490   0.489
 6996TIP3   OH220944   2.202   0.632   6.243
 6996TIP3    H120945   2.147   0.613   6.319
 6996TIP3    H220946   2.181   0.563   6.180
 6997TIP3   OH220947   0.455   2.846   1.713
 6997TIP3    H120948   0.369   2.825   1.676
 6997TIP3    H220949   0.509   2.867   1.636
 6998TIP3   OH220950   1.398   1.873   5.943
 6998TIP3    H120951   1.489   1.851   5.960
 6998TIP3    H220952   1.365   1.801   5.889
 6999TIP3   OH220953   6.887   4.231   1.554
 6999TIP3    H120954   6.793   4.225   1.540
 6999TIP3    H220955   6.920   4.144   1.531
 7000TIP3   OH220956   5.927   1.094   0.436
 7000TIP3    H120957   5.983   1.078   0.360
 7000TIP3    H220958   5.868   1.164   0.408
 7001TIP3   OH220959   0.303   4.960   5.007
 7001TIP3    H120960   0.305   5.056   5.002
 7001TIP3    H220961   0.245   4.934   4.935
 7002TIP3   OH220962   7.897   6.171   6.195
 7002TIP3    H120963   7.867   6.151   6.284
 7002TIP3    H220964   7.979   6.219   6.207
 7003TIP3   OH220965   0.702   5.986   4.715
 7003TIP3    H120966   0.749   6.011   4.635
 7003TIP3    H220967   0.618   5.953   4.685
 7004TIP3   OH220968   1.382   6.347   3.040
 7004TIP3    H120969   1.420   6.297   3.112
 7004TIP3    H220970   1.289   6.322   3.040
 7005TIP3   OH220971   5.108   0.044   3.097
 7005TIP3    H120972   5.177   0.082   3.152
 7005TIP3    H220973   5.039   0.019   3.159
 7006TIP3   OH220974   4.458   0.613   5.790
 7006TIP3    H120975   4.422   0.641   5.874
 7006TIP3    H220976   4.385   0.571   5.746
 7007TIP3   OH220977   3.255   2.759   3.462
 7007TIP3    H120978   3.349   2.746   3.469
 7007TIP3    H220979   3.217   2.697   3.525
 7008TIP3   OH220980   1.393   2.128   1.397
 7008TIP3    H120981   1.388   2.189   1.471
 7008TIP3    H220982   1.485   2.101   1.395
 7009TIP3   OH220983   5.779   7.248   0.288
 7009TIP3    H120984   5.783   7.153   0.302
 7009TIP3    H220985   5.721   7.279   0.357
 7010TIP3   OH220986   7.194   6.175   3.661
 7010TIP3    H120987   7.224   6.160   3.572
 7010TIP3    H220988   7.206   6.092   3.706
 7011TIP3   OH220989   1.202   0.209   2.637
 7011TIP3    H120990   1.199   0.236   2.728
 7011TIP3    H220991   1.111   0.197   2.612
 7012TIP3   OH220992   8.294   0.593   3.138
 7012TIP3    H120993   8.304   0.588   3.233
 7012TIP3    H220994   8.200   0.603   3.124
 7013TIP3   OH220995   4.808   6.730   1.358
 7013TIP3    H120996   4.779   6.647   1.320
 7013TIP3    H220997   4.729   6.765   1.399
 7014TIP3   OH220998   2.016   0.647   4.184
 7014TIP3    H120999   2.087   0.621   4.243
 7014TIP3    H221000   1.947   0.680   4.242
 7015TIP3   OH221001   3.043   0.130   2.254
 7015TIP3    H121002   3.130   0.109   2.288
 7015TIP3    H221003   3.052   0.121   2.159
 7016TIP3   OH221004   4.594   7.747   2.262
 7016TIP3    H121005   4.501   7.739   2.244
 7016TIP3    H221006   4.629   7.797   2.188
 7017TIP3   OH221007   4.619   5.006   5.616
 7017TIP3    H121008   4.594   5.035   5.528
 7017TIP3    H221009   4.714   5.016   5.619
 7018TIP3   OH221010   6.108   5.124   2.569
 7018TIP3    H121011   6.059   5.126   2.651
 7018TIP3    H221012   6.189   5.171   2.589
 7019TIP3   OH221013   0.576   5.517   4.158
 7019TIP3    H121014   0.507   5.583   4.152
 7019TIP3    H221015   0.631   5.534   4.082
 7020TIP3   OH221016   1.492   1.295   3.000
 7020TIP3    H121017   1.464   1.369   2.945
 7020TIP3    H221018   1.574   1.266   2.961
 7021TIP3   OH221019   5.053   4.477   0.126
 7021TIP3    H121020   5.124   4.506   0.068
 7021TIP3    H221021   5.028   4.555   0.174
 7022TIP3   OH221022   5.251   7.237   0.720
 7022TIP3    H121023   5.200   7.160   0.694
 7022TIP3    H221024   5.334   7.229   0.673
 7023TIP3   OH221025   4.236   3.794   0.346
 7023TIP3    H121026   4.294   3.860   0.385
 7023TIP3    H221027   4.252   3.715   0.398
 7024TIP3   OH221028   5.714   6.064   6.238
 7024TIP3    H121029   5.684   6.030   6.322
 7024TIP3    H221030   5.673   6.150   6.231
 7025TIP3   OH221031   7.391   1.305   2.486
 7025TIP3    H121032   7.342   1.312   2.404
 7025TIP3    H221033   7.441   1.223   2.477
 7026TIP3   OH221034   6.353   2.781   0.348
 7026TIP3    H121035   6.264   2.754   0.326
 7026TIP3    H221036   6.363   2.757   0.440
 7027TIP3   OH221037   2.570   7.002   0.474
 7027TIP3    H121038   2.585   7.071   0.539
 7027TIP3    H221039   2.643   6.942   0.486
 7028TIP3   OH221040   3.264   6.619   3.043
 7028TIP3    H121041   3.190   6.565   3.074
 7028TIP3    H221042   3.336   6.557   3.034
 7029TIP3   OH221043   0.596   4.153   0.235
 7029TIP3    H121044   0.670   4.211   0.253
 7029TIP3    H221045   0.637   4.073   0.199
 7030TIP3   OH221046   2.207   1.548   5.695
 7030TIP3    H121047   2.215   1.457   5.724
 7030TIP3    H221048   2.117   1.572   5.717
 7031TIP3   OH221049   7.736   2.317   6.497
 7031TIP3    H121050   7.828   2.292   6.504
 7031TIP3    H221051   7.710   2.335   6.588
 7032TIP3   OH221052   2.227   5.588   2.610
 7032TIP3    H121053   2.223   5.634   2.693
 7032TIP3    H221054   2.213   5.496   2.632
 7033TIP3   OH221055   5.312   3.473   2.895
 7033TIP3    H121056   5.224   3.437   2.880
 7033TIP3    H221057   5.311   3.502   2.986
 7034TIP3   OH221058   7.086   6.617   3.015
 7034TIP3    H121059   7.025   6.673   2.968
 7034TIP3    H221060   7.057   6.528   2.995
 7035TIP3   OH221061   7.043   5.950   0.711
 7035TIP3    H121062   7.109   6.018   0.697
 7035TIP3    H221063   7.092   5.868   0.706
 7036TIP3   OH221064   1.536   2.513   2.600
 7036TIP3    H121065   1.479   2.584   2.569
 7036TIP3    H221066   1.487   2.473   2.672
 7037TIP3   OH221067   7.489   1.763   5.028
 7037TIP3    H121068   7.518   1.838   4.976
 7037TIP3    H221069   7.519   1.783   5.117
 7038TIP3   OH221070   4.358   7.644   1.680
 7038TIP3    H121071   4.411   7.722   1.699
 7038TIP3    H221072   4.420   7.580   1.648
 7039TIP3   OH221073   0.830   3.228   4.519
 7039TIP3    H121074   0.823   3.240   4.424
 7039TIP3    H221075   0.907   3.279   4.543
 7040TIP3   OH221076   6.966   1.228   3.047
 7040TIP3    H121077   6.931   1.251   2.961
 7040TIP3    H221078   6.891   1.195   3.096
 7041TIP3   OH221079   0.497   6.472   4.295
 7041TIP3    H121080   0.420   6.503   4.343
 7041TIP3    H221081   0.524   6.547   4.242
 7042TIP3   OH221082   8.171   3.102   2.932
 7042TIP3    H121083   8.122   3.146   2.863
 7042TIP3    H221084   8.138   3.012   2.930
 7043TIP3   OH221085   6.302   0.345   0.640
 7043TIP3    H121086   6.384   0.352   0.591
 7043TIP3    H221087   6.309   0.411   0.709
 7044TIP3   OH221088   7.019   0.505   3.374
 7044TIP3    H121089   6.938   0.545   3.406
 7044TIP3    H221090   7.037   0.550   3.292
 7045TIP3   OH221091   6.282   1.009   3.375
 7045TIP3    H121092   6.319   1.045   3.294
 7045TIP3    H221093   6.356   0.963   3.415
 7046TIP3   OH221094   3.481   7.533   3.075
 7046TIP3    H121095   3.421   7.541   3.149
 7046TIP3    H221096   3.528   7.616   3.074
 7047TIP3   OH221097   3.121   5.669   2.662
 7047TIP3    H121098   3.030   5.694   2.673
 7047TIP3    H221099   3.167   5.713   2.734
 7048TIP3   OH221100   2.667   0.792   4.851
 7048TIP3    H121101   2.597   0.745   4.897
 7048TIP3    H221102   2.706   0.848   4.918
 7049TIP3   OH221103   6.935   6.841   5.807
 7049TIP3    H121104   7.010   6.817   5.752
 7049TIP3    H221105   6.876   6.887   5.748
 7050TIP3   OH221106   5.055   1.045   1.088
 7050TIP3    H121107   5.086   0.958   1.063
 7050TIP3    H221108   4.997   1.029   1.163
 7051TIP3   OH221109   5.653   7.330   2.661
 7051TIP3    H121110   5.565   7.308   2.690
 7051TIP3    H221111   5.643   7.413   2.614
 7052TIP3   OH221112   4.319   1.340   5.146
 7052TIP3    H121113   4.230   1.308   5.136
 7052TIP3    H221114   4.367   1.300   5.073
 7053TIP3   OH221115   2.711   0.321   0.070
 7053TIP3    H121116   2.695   0.389   0.136
 7053TIP3    H221117   2.781   0.357   0.015
 7054TIP3   OH221118   5.273   5.695   0.729
 7054TIP3    H121119   5.213   5.637   0.682
 7054TIP3    H221120   5.255   5.677   0.822
 7055TIP3   OH221121   1.592   4.165   1.258
 7055TIP3    H121122   1.630   4.253   1.266
 7055TIP3    H221123   1.667   4.106   1.265
 7056TIP3   OH221124   5.096   1.649   1.906
 7056TIP3    H121125   5.112   1.637   1.812
 7056TIP3    H221126   5.136   1.573   1.947
 7057TIP3   OH221127   4.189   3.006   0.131
 7057TIP3    H121128   4.152   2.967   0.211
 7057TIP3    H221129   4.113   3.035   0.081
 7058TIP3   OH221130   1.433   5.802   0.063
 7058TIP3    H121131   1.424   5.888   0.022
 7058TIP3    H221132   1.348   5.786   0.104
 7059TIP3   OH221133   6.922   2.158   6.706
 7059TIP3    H121134   6.967   2.214   6.642
 7059TIP3    H221135   6.871   2.219   6.760
 7060TIP3   OH221136   3.787   5.842   3.059
 7060TIP3    H121137   3.770   5.892   2.979
 7060TIP3    H221138   3.809   5.754   3.027
 7061TIP3   OH221139   6.689   0.293   4.486
 7061TIP3    H121140   6.750   0.363   4.462
 7061TIP3    H221141   6.695   0.231   4.413
 7062TIP3   OH221142   3.210   7.231   3.867
 7062TIP3    H121143   3.237   7.141   3.853
 7062TIP3    H221144   3.288   7.283   3.849
 7063TIP3   OH221145   1.286   6.308   4.807
 7063TIP3    H121146   1.220   6.334   4.871
 7063TIP3    H221147   1.368   6.345   4.839
 7064TIP3   OH221148   6.711   3.273   2.966
 7064TIP3    H121149   6.683   3.354   2.922
 7064TIP3    H221150   6.629   3.226   2.983
 7065TIP3   OH221151   7.527   2.857   6.713
 7065TIP3    H121152   7.531   2.917   6.788
 7065TIP3    H221153   7.460   2.894   6.656
 7066TIP3   OH221154   1.980   2.817   4.284
 7066TIP3    H121155   2.007   2.855   4.201
 7066TIP3    H221156   1.978   2.723   4.267
 7067TIP3   OH221157   1.971   1.314   4.409
 7067TIP3    H121158   2.027   1.360   4.345
 7067TIP3    H221159   1.926   1.384   4.456
 7068TIP3   OH221160   6.600   1.471   4.826
 7068TIP3    H121161   6.657   1.434   4.759
 7068TIP3    H221162   6.531   1.405   4.838
 7069TIP3   OH221163   4.564   5.371   3.758
 7069TIP3    H121164   4.516   5.418   3.826
 7069TIP3    H221165   4.497   5.332   3.703
 7070TIP3   OH221166   8.069   1.934   0.800
 7070TIP3    H121167   8.034   2.020   0.778
 7070TIP3    H221168   8.163   1.946   0.804
 7071TIP3   OH221169   7.219   3.339   1.096
 7071TIP3    H121170   7.218   3.418   1.043
 7071TIP3    H221171   7.279   3.280   1.050
 7072TIP3   OH221172   0.545   0.012   0.236
 7072TIP3    H121173   0.527   0.035   0.327
 7072TIP3    H221174   0.465   0.033   0.189
 7073TIP3   OH221175   2.162   0.449   5.050
 7073TIP3    H121176   2.139   0.542   5.054
 7073TIP3    H221177   2.122   0.418   4.969
 7074TIP3   OH221178   4.769   7.102   4.588
 7074TIP3    H121179   4.783   7.174   4.526
 7074TIP3    H221180   4.827   7.032   4.557
 7075TIP3   OH221181   6.961   1.509   3.070
 7075TIP3    H121182   6.982   1.454   2.994
 7075TIP3    H221183   6.959   1.447   3.144
 7076TIP3   OH221184   1.595   1.627   5.037
 7076TIP3    H121185   1.583   1.554   4.976
 7076TIP3    H221186   1.688   1.647   5.034
 7077TIP3   OH221187   5.908   6.576   5.513
 7077TIP3    H121188   5.893   6.584   5.419
 7077TIP3    H221189   5.825   6.601   5.553
 7078TIP3   OH221190   2.836   1.019   5.964
 7078TIP3    H121191   2.879   1.091   6.009
 7078TIP3    H221192   2.876   0.940   6.000
 7079TIP3   OH221193   0.689   0.536   4.270
 7079TIP3    H121194   0.746   0.554   4.195
 7079TIP3    H221195   0.720   0.452   4.304
 7080TIP3   OH221196   0.921   3.073   1.373
 7080TIP3    H121197   0.918   3.014   1.449
 7080TIP3    H221198   0.844   3.049   1.321
 7081TIP3   OH221199   7.195   1.251   0.301
 7081TIP3    H121200   7.168   1.194   0.229
 7081TIP3    H221201   7.286   1.272   0.284
 7082TIP3   OH221202   2.285   7.105   0.791
 7082TIP3    H121203   2.212   7.115   0.731
 7082TIP3    H221204   2.332   7.188   0.786
 7083TIP3   OH221205   7.462   2.195   1.772
 7083TIP3    H121206   7.539   2.139   1.770
 7083TIP3    H221207   7.484   2.269   1.716
 7084TIP3   OH221208   0.255   6.314   2.713
 7084TIP3    H121209   0.186   6.286   2.653
 7084TIP3    H221210   0.220   6.297   2.800
 7085TIP3   OH221211   8.024   3.188   2.731
 7085TIP3    H121212   8.058   3.234   2.655
 7085TIP3    H221213   7.968   3.119   2.695
 7086TIP3   OH221214   3.975   7.364   2.036
 7086TIP3    H121215   3.914   7.338   1.966
 7086TIP3    H221216   3.990   7.457   2.021
 7087TIP3   OH221217   2.107   1.884   2.144
 7087TIP3    H121218   2.065   1.811   2.190
 7087TIP3    H221219   2.040   1.952   2.142
 7088TIP3   OH221220   7.274   5.561   6.436
 7088TIP3    H121221   7.193   5.570   6.486
 7088TIP3    H221222   7.328   5.502   6.488
 7089TIP3   OH221223   0.504   5.762   5.948
 7089TIP3    H121224   0.411   5.781   5.951
 7089TIP3    H221225   0.511   5.685   5.891
 7090TIP3   OH221226   3.362   2.259   2.683
 7090TIP3    H121227   3.297   2.302   2.738
 7090TIP3    H221228   3.317   2.245   2.599
 7091TIP3   OH221229   1.862   4.229   6.116
 7091TIP3    H121230   1.864   4.145   6.070
 7091TIP3    H221231   1.779   4.228   6.164
 7092TIP3   OH221232   7.409   4.201   6.747
 7092TIP3    H121233   7.388   4.131   6.809
 7092TIP3    H221234   7.366   4.174   6.665
 7093TIP3   OH221235   2.531   4.810   3.560
 7093TIP3    H121236   2.467   4.817   3.490
 7093TIP3    H221237   2.615   4.809   3.516
 7094TIP3   OH221238   4.153   4.345   4.690
 7094TIP3    H121239   4.091   4.290   4.738
 7094TIP3    H221240   4.232   4.345   4.743
 7095TIP3   OH221241   1.353   0.927   0.768
 7095TIP3    H121242   1.326   0.931   0.860
 7095TIP3    H221243   1.293   0.988   0.723
 7096TIP3   OH221244   5.969   5.507   5.730
 7096TIP3    H121245   5.880   5.511   5.765
 7096TIP3    H221246   6.020   5.562   5.789
 7097TIP3   OH221247   5.509   3.703   6.567
 7097TIP3    H121248   5.584   3.759   6.548
 7097TIP3    H221249   5.472   3.683   6.481
 7098TIP3   OH221250   1.163   1.885   1.448
 7098TIP3    H121251   1.230   1.818   1.451
 7098TIP3    H221252   1.194   1.953   1.508
 7099TIP3   OH221253   2.602   1.561   2.835
 7099TIP3    H121254   2.588   1.488   2.774
 7099TIP3    H221255   2.697   1.564   2.846
 7100TIP3   OH221256   4.181   0.283   2.043
 7100TIP3    H121257   4.205   0.311   1.955
 7100TIP3    H221258   4.118   0.212   2.029
 7101TIP3   OH221259   6.430   6.203   4.395
 7101TIP3    H121260   6.382   6.123   4.416
 7101TIP3    H221261   6.522   6.177   4.395
 7102TIP3   OH221262   1.940   3.289   2.494
 7102TIP3    H121263   1.974   3.369   2.533
 7102TIP3    H221264   1.913   3.315   2.406
 7103TIP3   OH221265   6.194   3.740   2.660
 7103TIP3    H121266   6.137   3.768   2.589
 7103TIP3    H221267   6.261   3.808   2.665
 7104TIP3   OH221268   4.115   1.114   5.746
 7104TIP3    H121269   4.173   1.187   5.767
 7104TIP3    H221270   4.141   1.089   5.657
 7105TIP3   OH221271   1.819   6.813   1.143
 7105TIP3    H121272   1.792   6.807   1.235
 7105TIP3    H221273   1.814   6.724   1.110
 7106TIP3   OH221274   3.467   7.496   2.527
 7106TIP3    H121275   3.463   7.588   2.504
 7106TIP3    H221276   3.557   7.470   2.504
 7107TIP3   OH221277   5.420   4.168   0.699
 7107TIP3    H121278   5.386   4.205   0.780
 7107TIP3    H221279   5.377   4.217   0.629
 7108TIP3   OH221280   4.341   1.935   3.567
 7108TIP3    H121281   4.407   2.004   3.557
 7108TIP3    H221282   4.338   1.917   3.661
 7109TIP3   OH221283   6.290   4.192   5.177
 7109TIP3    H121284   6.238   4.131   5.230
 7109TIP3    H221285   6.378   4.153   5.175
 7110TIP3   OH221286   1.781   0.692   4.325
 7110TIP3    H121287   1.777   0.664   4.416
 7110TIP3    H221288   1.709   0.645   4.282
 7111TIP3   OH221289   5.330   1.560   2.712
 7111TIP3    H121290   5.330   1.542   2.806
 7111TIP3    H221291   5.295   1.480   2.673
 7112TIP3   OH221292   4.460   5.071   0.546
 7112TIP3    H121293   4.396   5.000   0.552
 7112TIP3    H221294   4.519   5.045   0.475
 7113TIP3   OH221295   0.511   7.021   6.487
 7113TIP3    H121296   0.591   6.971   6.508
 7113TIP3    H221297   0.490   6.995   6.397
 7114TIP3   OH221298   8.005   3.071   4.175
 7114TIP3    H121299   8.042   3.022   4.101
 7114TIP3    H221300   7.928   3.021   4.201
 7115TIP3   OH221301   0.002   7.602   0.843
 7115TIP3    H121302   0.068   7.670   0.834
 7115TIP3    H221303  -0.021   7.602   0.936
 7116TIP3   OH221304   6.367   7.070   0.175
 7116TIP3    H121305   6.313   7.055   0.253
 7116TIP3    H221306   6.344   7.159   0.147
 7117TIP3   OH221307   6.292   7.533   3.088
 7117TIP3    H121308   6.295   7.437   3.088
 7117TIP3    H221309   6.224   7.555   3.152
 7118TIP3   OH221310   5.338   6.977   1.902
 7118TIP3    H121311   5.330   7.034   1.979
 7118TIP3    H221312   5.393   6.904   1.931
 7119TIP3   OH221313   3.621   1.178   6.132
 7119TIP3    H121314   3.690   1.143   6.188
 7119TIP3    H221315   3.554   1.209   6.194
 7120TIP3   OH221316   2.527   5.340   2.761
 7120TIP3    H121317   2.465   5.272   2.788
 7120TIP3    H221318   2.599   5.333   2.823
 7121TIP3   OH221319   6.586   7.659   2.490
 7121TIP3    H121320   6.646   7.701   2.552
 7121TIP3    H221321   6.575   7.570   2.525
 7122TIP3   OH221322   3.123  -0.009   2.633
 7122TIP3    H121323   3.125   0.032   2.719
 7122TIP3    H221324   3.124   0.065   2.572
 7123TIP3   OH221325   1.818   6.272   4.059
 7123TIP3    H121326   1.905   6.279   4.021
 7123TIP3    H221327   1.827   6.203   4.125
 7124TIP3   OH221328   1.570   0.764   5.153
 7124TIP3    H121329   1.505   0.744   5.221
 7124TIP3    H221330   1.519   0.780   5.074
 7125TIP3   OH221331   8.026   6.369   4.627
 7125TIP3    H121332   8.037   6.451   4.677
 7125TIP3    H221333   7.933   6.350   4.633
 7126TIP3   OH221334   4.037   3.024   4.956
 7126TIP3    H121335   3.942   3.019   4.947
 7126TIP3    H221336   4.065   3.091   4.894
 7127TIP3   OH221337   1.475   4.357   6.157
 7127TIP3    H121338   1.526   4.289   6.202
 7127TIP3    H221339   1.528   4.436   6.164
 7128TIP3   OH221340   6.285   7.807   0.800
 7128TIP3    H121341   6.238   7.751   0.738
 7128TIP3    H221342   6.364   7.757   0.822
 7129TIP3   OH221343   1.217   7.725   6.716
 7129TIP3    H121344   1.282   7.693   6.779
 7129TIP3    H221345   1.163   7.786   6.766
 7130TIP3   OH221346   2.981   5.190   4.901
 7130TIP3    H121347   3.022   5.182   4.815
 7130TIP3    H221348   3.055   5.200   4.962
 7131TIP3   OH221349   1.135   7.139   4.416
 7131TIP3    H121350   1.161   7.166   4.504
 7131TIP3    H221351   1.198   7.183   4.358
 7132TIP3   OH221352   7.038   2.686   1.120
 7132TIP3    H121353   7.020   2.742   1.196
 7132TIP3    H221354   7.109   2.730   1.073
 7133TIP3   OH221355   4.327   1.733   5.978
 7133TIP3    H121356   4.270   1.768   6.047
 7133TIP3    H221357   4.414   1.769   5.998
 7134TIP3   OH221358   2.018   2.942   5.245
 7134TIP3    H121359   2.092   2.960   5.302
 7134TIP3    H221360   1.945   2.989   5.285
 7135TIP3   OH221361   6.351   7.621   5.511
 7135TIP3    H121362   6.432   7.666   5.534
 7135TIP3    H221363   6.375   7.528   5.510
 7136TIP3   OH221364   7.659   5.632   1.314
 7136TIP3    H121365   7.750   5.628   1.284
 7136TIP3    H221366   7.608   5.645   1.234
 7137TIP3   OH221367   1.025   0.028   6.497
 7137TIP3    H121368   1.098   0.068   6.449
 7137TIP3    H221369   1.067  -0.009   6.575
 7138TIP3   OH221370   4.900   1.964   3.760
 7138TIP3    H121371   4.940   1.898   3.817
 7138TIP3    H221372   4.974   2.015   3.727
 7139TIP3   OH221373   5.273   1.957   0.747
 7139TIP3    H121374   5.259   1.863   0.734
 7139TIP3    H221375   5.189   1.997   0.724
 7140TIP3   OH221376   0.155   7.572   5.045
 7140TIP3    H121377   0.181   7.544   5.132
 7140TIP3    H221378   0.168   7.495   4.989
 7141TIP3   OH221379   5.712   1.661   2.324
 7141TIP3    H121380   5.633   1.619   2.355
 7141TIP3    H221381   5.715   1.641   2.230
 7142TIP3   OH221382   3.977   1.413   4.845
 7142TIP3    H121383   4.037   1.414   4.770
 7142TIP3    H221384   3.968   1.320   4.866
 7143TIP3   OH221385   4.558   6.954   5.237
 7143TIP3    H121386   4.481   6.931   5.289
 7143TIP3    H221387   4.527   7.019   5.174
 7144TIP3   OH221388   2.315   2.650   3.135
 7144TIP3    H121389   2.287   2.690   3.217
 7144TIP3    H221390   2.408   2.633   3.147
 7145TIP3   OH221391   7.011   3.667   4.141
 7145TIP3    H121392   7.084   3.642   4.085
 7145TIP3    H221393   6.943   3.697   4.080
 7146TIP3   OH221394   7.288   3.097   0.114
 7146TIP3    H121395   7.264   3.023   0.171
 7146TIP3    H221396   7.268   3.175   0.166
 7147TIP3   OH221397   7.054   1.841   1.473
 7147TIP3    H121398   7.016   1.783   1.406
 7147TIP3    H221399   7.047   1.791   1.554
 7148TIP3   OH221400   1.366   3.175   6.696
 7148TIP3    H121401   1.293   3.176   6.634
 7148TIP3    H221402   1.390   3.267   6.707
 7149TIP3   OH221403   4.719   0.232   1.200
 7149TIP3    H121404   4.778   0.204   1.270
 7149TIP3    H221405   4.648   0.167   1.201
 7150TIP3   OH221406   0.601   1.237   4.472
 7150TIP3    H121407   0.584   1.165   4.533
 7150TIP3    H221408   0.692   1.261   4.489
 7151TIP3   OH221409   7.378   0.789   6.351
 7151TIP3    H121410   7.322   0.851   6.398
 7151TIP3    H221411   7.345   0.790   6.261
 7152TIP3   OH221412   5.036   6.991   3.160
 7152TIP3    H121413   4.983   6.937   3.219
 7152TIP3    H221414   5.083   6.927   3.106
 7153TIP3   OH221415   0.166   3.290   0.136
 7153TIP3    H121416   0.115   3.330   0.207
 7153TIP3    H221417   0.136   3.199   0.134
 7154TIP3   OH221418   5.273   7.282   4.275
 7154TIP3    H121419   5.281   7.279   4.179
 7154TIP3    H221420   5.288   7.374   4.297
 7155TIP3   OH221421   6.795   2.093   1.686
 7155TIP3    H121422   6.757   2.015   1.643
 7155TIP3    H221423   6.763   2.166   1.634
 7156TIP3   OH221424   0.693   3.900   0.184
 7156TIP3    H121425   0.644   3.832   0.229
 7156TIP3    H221426   0.722   3.859   0.102
 7157TIP3   OH221427   5.493   5.030   1.919
 7157TIP3    H121428   5.485   5.107   1.862
 7157TIP3    H221429   5.405   5.015   1.951
 7158TIP3   OH221430   3.004   6.840   1.491
 7158TIP3    H121431   2.960   6.924   1.505
 7158TIP3    H221432   2.968   6.783   1.558
 7159TIP3   OH221433   1.664   2.125   2.277
 7159TIP3    H121434   1.594   2.061   2.288
 7159TIP3    H221435   1.669   2.171   2.361
 7160TIP3   OH221436   3.458   3.672   1.626
 7160TIP3    H121437   3.387   3.730   1.651
 7160TIP3    H221438   3.538   3.723   1.640
 7161TIP3   OH221439   7.710   1.318   4.842
 7161TIP3    H121440   7.745   1.406   4.854
 7161TIP3    H221441   7.615   1.330   4.842
 7162TIP3   OH221442   5.694   1.191   2.972
 7162TIP3    H121443   5.690   1.100   2.942
 7162TIP3    H221444   5.618   1.201   3.030
 7163TIP3   OH221445   4.301   5.539   2.524
 7163TIP3    H121446   4.340   5.455   2.548
 7163TIP3    H221447   4.206   5.524   2.529
 7164TIP3   OH221448   3.338   4.265   2.771
 7164TIP3    H121449   3.322   4.280   2.864
 7164TIP3    H221450   3.377   4.347   2.740
 7165TIP3   OH221451   0.125   2.229   2.895
 7165TIP3    H121452   0.065   2.173   2.946
 7165TIP3    H221453   0.202   2.175   2.882
 7166TIP3   OH221454   4.016   2.402   6.719
 7166TIP3    H121455   4.039   2.309   6.728
 7166TIP3    H221456   4.065   2.430   6.641
 7167TIP3   OH221457   4.580   5.037   1.684
 7167TIP3    H121458   4.535   5.045   1.600
 7167TIP3    H221459   4.546   5.109   1.736
 7168TIP3   OH221460   5.535   4.872   5.695
 7168TIP3    H121461   5.497   4.787   5.671
 7168TIP3    H221462   5.515   4.929   5.621
 7169TIP3   OH221463   8.040   3.495   1.085
 7169TIP3    H121464   8.073   3.456   1.003
 7169TIP3    H221465   8.031   3.421   1.145
 7170TIP3   OH221466   0.071   7.322   6.026
 7170TIP3    H121467   0.053   7.416   6.017
 7170TIP3    H221468   0.076   7.308   6.120
 7171TIP3   OH221469   3.144   4.218   5.945
 7171TIP3    H121470   3.202   4.293   5.928
 7171TIP3    H221471   3.197   4.141   5.923
 7172TIP3   OH221472   6.670   5.833   1.776
 7172TIP3    H121473   6.592   5.867   1.818
 7172TIP3    H221474   6.664   5.863   1.685
 7173TIP3   OH221475   7.648   7.704   5.276
 7173TIP3    H121476   7.701   7.782   5.267
 7173TIP3    H221477   7.711   7.634   5.296
 7174TIP3   OH221478   4.063   1.125   3.179
 7174TIP3    H121479   3.997   1.076   3.227
 7174TIP3    H221480   4.071   1.208   3.226
 7175TIP3   OH221481   0.324   0.340   0.321
 7175TIP3    H121482   0.334   0.256   0.276
 7175TIP3    H221483   0.267   0.391   0.264
 7176TIP3   OH221484   2.211   1.987   5.136
 7176TIP3    H121485   2.186   2.075   5.164
 7176TIP3    H221486   2.210   1.935   5.217
 7177TIP3   OH221487   4.581   2.211   4.774
 7177TIP3    H121488   4.573   2.240   4.683
 7177TIP3    H221489   4.569   2.290   4.825
 7178TIP3   OH221490   2.577   6.257   5.276
 7178TIP3    H121491   2.573   6.216   5.363
 7178TIP3    H221492   2.504   6.219   5.228
 7179TIP3   OH221493   3.896   1.912   4.987
 7179TIP3    H121494   3.923   1.993   4.944
 7179TIP3    H221495   3.970   1.852   4.974
 7180TIP3   OH221496   6.297   1.329   3.266
 7180TIP3    H121497   6.252   1.296   3.188
 7180TIP3    H221498   6.250   1.409   3.289
 7181TIP3   OH221499   3.181   2.292  -0.023
 7181TIP3    H121500   3.151   2.208   0.012
 7181TIP3    H221501   3.230   2.331   0.050
 7182TIP3   OH221502   0.760   2.946   3.291
 7182TIP3    H121503   0.771   3.028   3.243
 7182TIP3    H221504   0.668   2.924   3.279
 7183TIP3   OH221505   4.232   5.528   5.031
 7183TIP3    H121506   4.249   5.597   5.096
 7183TIP3    H221507   4.300   5.540   4.965
 7184TIP3   OH221508   6.991   4.871   1.392
 7184TIP3    H121509   7.061   4.927   1.358
 7184TIP3    H221510   7.003   4.872   1.487
 7185TIP3   OH221511   2.861   3.563   3.270
 7185TIP3    H121512   2.878   3.563   3.176
 7185TIP3    H221513   2.871   3.471   3.296
 7186TIP3   OH221514   6.690   1.104   1.318
 7186TIP3    H121515   6.605   1.146   1.302
 7186TIP3    H221516   6.724   1.147   1.396
 7187TIP3   OH221517   4.775   2.726   2.390
 7187TIP3    H121518   4.750   2.762   2.305
 7187TIP3    H221519   4.869   2.744   2.397
 7188TIP3   OH221520   4.385   1.317   1.368
 7188TIP3    H121521   4.315   1.365   1.412
 7188TIP3    H221522   4.340   1.247   1.321
 7189TIP3   OH221523   0.854   1.282   0.771
 7189TIP3    H121524   0.792   1.338   0.817
 7189TIP3    H221525   0.907   1.342   0.719
 7190TIP3   OH221526   3.562   1.342   2.506
 7190TIP3    H121527   3.626   1.364   2.438
 7190TIP3    H221528   3.498   1.413   2.503
 7191TIP3   OH221529   0.017   1.845   4.060
 7191TIP3    H121530   0.045   1.850   3.968
 7191TIP3    H221531   0.035   1.932   4.095
 7192TIP3   OH221532   4.605   0.054   0.461
 7192TIP3    H121533   4.652   0.131   0.491
 7192TIP3    H221534   4.663  -0.019   0.483
 7193TIP3   OH221535   5.880   7.001   0.363
 7193TIP3    H121536   5.825   6.924   0.349
 7193TIP3    H221537   5.846   7.040   0.444
 7194TIP3   OH221538   6.466   5.284   5.847
 7194TIP3    H121539   6.555   5.317   5.847
 7194TIP3    H221540   6.413   5.355   5.810
 7195TIP3   OH221541   1.362   5.316   1.121
 7195TIP3    H121542   1.437   5.306   1.063
 7195TIP3    H221543   1.377   5.251   1.190
 7196TIP3   OH221544   4.694   7.465   4.611
 7196TIP3    H121545   4.686   7.419   4.528
 7196TIP3    H221546   4.768   7.525   4.598
 7197TIP3   OH221547   8.169   6.195   4.478
 7197TIP3    H121548   8.110   6.252   4.528
 7197TIP3    H221549   8.248   6.190   4.532
 7198TIP3   OH221550   7.718   3.696   2.422
 7198TIP3    H121551   7.716   3.717   2.515
 7198TIP3    H221552   7.750   3.775   2.379
 7199TIP3   OH221553   2.587   3.575   5.283
 7199TIP3    H121554   2.614   3.665   5.265
 7199TIP3    H221555   2.647   3.545   5.351
 7200TIP3   OH221556   5.110   2.940   1.020
 7200TIP3    H121557   5.137   3.029   1.044
 7200TIP3    H221558   5.092   2.945   0.926
 7201TIP3   OH221559   3.555   3.966   3.811
 7201TIP3    H121560   3.500   4.038   3.842
 7201TIP3    H221561   3.498   3.915   3.754
 7202TIP3   OH221562   4.085   0.336   3.050
 7202TIP3    H121563   4.011   0.280   3.027
 7202TIP3    H221564   4.161   0.294   3.009
 7203TIP3   OH221565   2.769   2.999   0.536
 7203TIP3    H121566   2.743   2.907   0.523
 7203TIP3    H221567   2.697   3.049   0.497
 7204TIP3   OH221568   3.193   3.016   3.448
 7204TIP3    H121569   3.110   3.033   3.493
 7204TIP3    H221570   3.214   2.925   3.471
 7205TIP3   OH221571   6.280   1.795   5.525
 7205TIP3    H121572   6.365   1.783   5.484
 7205TIP3    H221573   6.251   1.882   5.497
 7206TIP3   OH221574   5.456   2.307   1.252
 7206TIP3    H121575   5.453   2.398   1.223
 7206TIP3    H221576   5.365   2.284   1.267
 7207TIP3   OH221577   8.260   6.302   2.254
 7207TIP3    H121578   8.319   6.230   2.276
 7207TIP3    H221579   8.209   6.269   2.180
 7208TIP3   OH221580   1.892   0.680   1.701
 7208TIP3    H121581   1.902   0.766   1.743
 7208TIP3    H221582   1.869   0.701   1.610
 7209TIP3   OH221583   0.541   1.849   5.163
 7209TIP3    H121584   0.513   1.764   5.128
 7209TIP3    H221585   0.570   1.899   5.087
 7210TIP3   OH221586   0.285   5.716   1.150
 7210TIP3    H121587   0.330   5.757   1.224
 7210TIP3    H221588   0.291   5.622   1.168
 7211TIP3   OH221589   4.684   2.487   1.388
 7211TIP3    H121590   4.655   2.539   1.463
 7211TIP3    H221591   4.692   2.398   1.422
 7212TIP3   OH221592   3.292   2.461   1.062
 7212TIP3    H121593   3.367   2.403   1.061
 7212TIP3    H221594   3.284   2.490   1.153
 7213TIP3   OH221595   3.202   2.726   3.827
 7213TIP3    H121596   3.236   2.637   3.814
 7213TIP3    H221597   3.109   2.720   3.805
 7214TIP3   OH221598   4.400   0.522   4.387
 7214TIP3    H121599   4.394   0.479   4.302
 7214TIP3    H221600   4.331   0.589   4.384
 7215TIP3   OH221601   5.823   1.015   4.932
 7215TIP3    H121602   5.897   0.978   4.979
 7215TIP3    H221603   5.821   0.968   4.849
 7216TIP3   OH221604   1.995   2.789   0.957
 7216TIP3    H121605   1.945   2.738   0.892
 7216TIP3    H221606   1.957   2.763   1.041
 7217TIP3   OH221607   3.816   2.218   3.721
 7217TIP3    H121608   3.859   2.248   3.801
 7217TIP3    H221609   3.884   2.222   3.654
 7218TIP3   OH221610   5.368   4.288   1.752
 7218TIP3    H121611   5.337   4.377   1.767
 7218TIP3    H221612   5.288   4.236   1.745
 7219TIP3   OH221613   5.418   2.124   2.645
 7219TIP3    H121614   5.501   2.140   2.690
 7219TIP3    H221615   5.410   2.196   2.582
 7220TIP3   OH221616   6.617   6.045   4.529
 7220TIP3    H121617   6.647   5.962   4.568
 7220TIP3    H221618   6.698   6.093   4.510
 7221TIP3   OH221619   4.028   5.652   1.908
 7221TIP3    H121620   4.088   5.637   1.981
 7221TIP3    H221621   3.987   5.737   1.928
 7222TIP3   OH221622   7.545   6.882   4.406
 7222TIP3    H121623   7.565   6.869   4.314
 7222TIP3    H221624   7.472   6.945   4.406
 7223TIP3   OH221625   1.353   4.094   4.012
 7223TIP3    H121626   1.423   4.095   4.078
 7223TIP3    H221627   1.302   4.016   4.033
 7224TIP3   OH221628   2.159   4.372   4.225
 7224TIP3    H121629   2.220   4.446   4.226
 7224TIP3    H221630   2.133   4.364   4.133
 7225TIP3   OH221631   6.658   7.274   4.454
 7225TIP3    H121632   6.699   7.336   4.513
 7225TIP3    H221633   6.569   7.263   4.488
 7226TIP3   OH221634   7.491   1.696   4.161
 7226TIP3    H121635   7.568   1.641   4.147
 7226TIP3    H221636   7.488   1.708   4.256
 7227TIP3   OH221637   1.717   7.448   4.415
 7227TIP3    H121638   1.675   7.373   4.373
 7227TIP3    H221639   1.644   7.505   4.441
 7228TIP3   OH221640   4.499   1.545   3.240
 7228TIP3    H121641   4.441   1.476   3.210
 7228TIP3    H221642   4.449   1.591   3.307
 7229TIP3   OH221643   5.595   4.170   1.726
 7229TIP3    H121644   5.604   4.100   1.661
 7229TIP3    H221645   5.505   4.202   1.715
 7230TIP3   OH221646   1.789   1.799   2.512
 7230TIP3    H121647   1.758   1.884   2.542
 7230TIP3    H221648   1.840   1.765   2.585
 7231TIP3   OH221649   0.082   5.121   5.095
 7231TIP3    H121650  -0.010   5.106   5.117
 7231TIP3    H221651   0.130   5.068   5.157
 7232TIP3   OH221652   0.123   4.853   1.322
 7232TIP3    H121653   0.081   4.811   1.397
 7232TIP3    H221654   0.184   4.916   1.360
 7233TIP3   OH221655   5.749   4.391   3.190
 7233TIP3    H121656   5.724   4.398   3.098
 7233TIP3    H221657   5.832   4.343   3.190
 7234TIP3   OH221658   6.931   0.773   4.555
 7234TIP3    H121659   6.910   0.680   4.561
 7234TIP3    H221660   6.941   0.790   4.461
 7235TIP3   OH221661   7.555   3.890   5.549
 7235TIP3    H121662   7.576   3.799   5.528
 7235TIP3    H221663   7.584   3.939   5.472
 7236TIP3   OH221664   3.335   3.509   4.667
 7236TIP3    H121665   3.318   3.503   4.761
 7236TIP3    H221666   3.256   3.549   4.631
 7237TIP3   OH221667   0.977   4.370   5.342
 7237TIP3    H121668   0.903   4.339   5.395
 7237TIP3    H221669   1.039   4.405   5.406
 7238TIP3   OH221670   2.280   5.741   4.383
 7238TIP3    H121671   2.211   5.805   4.397
 7238TIP3    H221672   2.352   5.772   4.439
 7239TIP3   OH221673   4.083   2.500   1.310
 7239TIP3    H121674   4.118   2.524   1.224
 7239TIP3    H221675   4.101   2.576   1.365
 7240TIP3   OH221676   1.362   3.251   4.554
 7240TIP3    H121677   1.350   3.171   4.606
 7240TIP3    H221678   1.420   3.306   4.607
 7241TIP3   OH221679   4.684   3.422   1.608
 7241TIP3    H121680   4.721   3.487   1.667
 7241TIP3    H221681   4.613   3.469   1.563
 7242TIP3   OH221682   6.417   3.591   3.013
 7242TIP3    H121683   6.487   3.555   2.958
 7242TIP3    H221684   6.380   3.663   2.961
 7243TIP3   OH221685   4.542   6.472   6.389
 7243TIP3    H121686   4.605   6.401   6.397
 7243TIP3    H221687   4.474   6.439   6.330
 7244TIP3   OH221688   7.058   1.720   1.185
 7244TIP3    H121689   7.148   1.691   1.166
 7244TIP3    H221690   7.026   1.656   1.249
 7245TIP3   OH221691   3.734   0.227   3.324
 7245TIP3    H121692   3.718   0.318   3.299
 7245TIP3    H221693   3.653   0.181   3.300
 7246TIP3   OH221694   1.588   2.740   2.258
 7246TIP3    H121695   1.661   2.731   2.320
 7246TIP3    H221696   1.513   2.702   2.303
 7247TIP3   OH221697   4.452   2.149   0.690
 7247TIP3    H121698   4.411   2.164   0.776
 7247TIP3    H221699   4.438   2.231   0.642
 7248TIP3   OH221700   5.160   5.263   0.742
 7248TIP3    H121701   5.222   5.294   0.677
 7248TIP3    H221702   5.096   5.211   0.692
 7249TIP3   OH221703   3.692   5.025   2.958
 7249TIP3    H121704   3.736   5.012   2.874
 7249TIP3    H221705   3.658   5.114   2.955
 7250TIP3   OH221706   1.872   5.019   5.308
 7250TIP3    H121707   1.813   4.948   5.285
 7250TIP3    H221708   1.818   5.079   5.361
 7251TIP3   OH221709   3.226   6.569   2.528
 7251TIP3    H121710   3.171   6.647   2.521
 7251TIP3    H221711   3.267   6.576   2.614
 7252TIP3   OH221712   5.452   6.887   4.051
 7252TIP3    H121713   5.507   6.830   4.106
 7252TIP3    H221714   5.489   6.974   4.063
 7253TIP3   OH221715   4.640   2.261   4.503
 7253TIP3    H121716   4.729   2.283   4.473
 7253TIP3    H221717   4.585   2.278   4.427
 7254TIP3   OH221718   4.082   2.328   4.259
 7254TIP3    H121719   4.112   2.363   4.176
 7254TIP3    H221720   4.151   2.267   4.286
 7255TIP3   OH221721   3.355   1.183   6.555
 7255TIP3    H121722   3.273   1.212   6.515
 7255TIP3    H221723   3.353   1.218   6.643
 7256TIP3   OH221724   8.119   6.917   2.575
 7256TIP3    H121725   8.164   7.002   2.570
 7256TIP3    H221726   8.168   6.862   2.513
 7257TIP3   OH221727   0.534   6.348   1.218
 7257TIP3    H121728   0.602   6.317   1.277
 7257TIP3    H221729   0.577   6.356   1.133
 7258TIP3   OH221730   8.256   7.617   1.281
 7258TIP3    H121731   8.347   7.633   1.256
 7258TIP3    H221732   8.216   7.578   1.204
 7259TIP3   OH221733   7.022   7.224   4.462
 7259TIP3    H121734   7.067   7.276   4.528
 7259TIP3    H221735   6.935   7.207   4.499
 7260TIP3   OH221736   3.727   1.659   2.439
 7260TIP3    H121737   3.698   1.743   2.475
 7260TIP3    H221738   3.737   1.675   2.346
 7261TIP3   OH221739   4.659   3.230   3.942
 7261TIP3    H121740   4.586   3.212   4.001
 7261TIP3    H221741   4.653   3.324   3.924
 7262TIP3   OH221742   1.323   6.278   5.565
 7262TIP3    H121743   1.253   6.312   5.620
 7262TIP3    H221744   1.356   6.202   5.613
 7263TIP3   OH221745   0.599   2.758   0.626
 7263TIP3    H121746   0.528   2.726   0.682
 7263TIP3    H221747   0.597   2.853   0.636
 7264TIP3   OH221748   1.568   4.641   2.096
 7264TIP3    H121749   1.641   4.613   2.041
 7264TIP3    H221750   1.527   4.713   2.047
 7265TIP3   OH221751   4.826   0.037   4.347
 7265TIP3    H121752   4.809  -0.054   4.373
 7265TIP3    H221753   4.779   0.090   4.412
 7266TIP3   OH221754   5.248   6.197   0.842
 7266TIP3    H121755   5.312   6.180   0.911
 7266TIP3    H221756   5.299   6.237   0.772
 7267TIP3   OH221757   5.899   5.497   1.806
 7267TIP3    H121758   5.891   5.443   1.885
 7267TIP3    H221759   5.939   5.579   1.837
 7268TIP3   OH221760   7.108   3.535   2.864
 7268TIP3    H121761   7.029   3.550   2.917
 7268TIP3    H221762   7.079   3.476   2.794
 7269TIP3   OH221763   5.695   1.404   0.578
 7269TIP3    H121764   5.619   1.410   0.635
 7269TIP3    H221765   5.674   1.460   0.503
 7270TIP3   OH221766   6.265   4.647   5.346
 7270TIP3    H121767   6.219   4.720   5.389
 7270TIP3    H221768   6.244   4.571   5.400
 7271TIP3   OH221769   0.829   5.064   3.990
 7271TIP3    H121770   0.849   4.971   3.995
 7271TIP3    H221771   0.751   5.075   4.045
 7272TIP3   OH221772   2.314   2.968   5.365
 7272TIP3    H121773   2.338   3.061   5.375
 7272TIP3    H221774   2.257   2.950   5.439
 7273TIP3   OH221775   6.865   7.214   2.431
 7273TIP3    H121776   6.782   7.168   2.442
 7273TIP3    H221777   6.885   7.247   2.519
 7274TIP3   OH221778   3.813   6.345   5.052
 7274TIP3    H121779   3.907   6.342   5.070
 7274TIP3    H221780   3.785   6.254   5.061
 7275TIP3   OH221781   1.781   2.422   1.413
 7275TIP3    H121782   1.795   2.438   1.319
 7275TIP3    H221783   1.698   2.467   1.432
 7276TIP3   OH221784   6.161   2.736   6.691
 7276TIP3    H121785   6.215   2.669   6.649
 7276TIP3    H221786   6.190   2.736   6.782
 7277TIP3   OH221787   6.207   6.517   6.349
 7277TIP3    H121788   6.160   6.448   6.396
 7277TIP3    H221789   6.140   6.581   6.326
 7278TIP3   OH221790   8.057   4.505   5.409
 7278TIP3    H121791   7.988   4.441   5.424
 7278TIP3    H221792   8.011   4.585   5.384
 7279TIP3   OH221793   2.444   1.713   3.620
 7279TIP3    H121794   2.403   1.654   3.557
 7279TIP3    H221795   2.532   1.729   3.584
 7280TIP3   OH221796   0.967   0.595   4.225
 7280TIP3    H121797   0.903   0.647   4.177
 7280TIP3    H221798   0.984   0.644   4.305
 7281TIP3   OH221799   5.992   1.463   1.403
 7281TIP3    H121800   5.993   1.443   1.310
 7281TIP3    H221801   5.907   1.503   1.418
 7282TIP3   OH221802   3.728   7.131   3.710
 7282TIP3    H121803   3.776   7.061   3.753
 7282TIP3    H221804   3.783   7.208   3.719
 7283TIP3   OH221805   3.853   4.208   5.234
 7283TIP3    H121806   3.913   4.191   5.306
 7283TIP3    H221807   3.857   4.303   5.222
 7284TIP3   OH221808   7.222   2.105   6.727
 7284TIP3    H121809   7.179   2.183   6.691
 7284TIP3    H221810   7.199   2.035   6.664
 7285TIP3   OH221811   8.249   7.676   3.072
 7285TIP3    H121812   8.270   7.583   3.083
 7285TIP3    H221813   8.284   7.719   3.149
 7286TIP3   OH221814   4.659   3.664   5.640
 7286TIP3    H121815   4.608   3.744   5.628
 7286TIP3    H221816   4.608   3.612   5.702
 7287TIP3   OH221817   2.361   0.890   5.611
 7287TIP3    H121818   2.429   0.951   5.582
 7287TIP3    H221819   2.397   0.804   5.592
 7288TIP3   OH221820   2.900   6.133   4.040
 7288TIP3    H121821   2.872   6.188   4.114
 7288TIP3    H221822   2.826   6.134   3.980
 7289TIP3   OH221823   7.916   5.355   4.751
 7289TIP3    H121824   7.849   5.423   4.755
 7289TIP3    H221825   7.936   5.336   4.842
 7290TIP3   OH221826   6.019   4.446   0.344
 7290TIP3    H121827   6.045   4.533   0.315
 7290TIP3    H221828   6.000   4.398   0.264
 7291TIP3   OH221829   5.174   1.396   2.520
 7291TIP3    H121830   5.237   1.324   2.528
 7291TIP3    H221831   5.107   1.362   2.460
 7292TIP3   OH221832   6.119   7.121   4.543
 7292TIP3    H121833   6.031   7.121   4.505
 7292TIP3    H221834   6.140   7.028   4.553
 7293TIP3   OH221835   4.487   3.568   3.726
 7293TIP3    H121836   4.453   3.589   3.640
 7293TIP3    H221837   4.438   3.491   3.753
 7294TIP3   OH221838   4.474   0.262   4.643
 7294TIP3    H121839   4.488   0.273   4.737
 7294TIP3    H221840   4.556   0.223   4.611
 7295TIP3   OH221841   4.872   1.140   2.152
 7295TIP3    H121842   4.883   1.195   2.230
 7295TIP3    H221843   4.871   1.202   2.079
 7296TIP3   OH221844   3.483   7.492   1.328
 7296TIP3    H121845   3.484   7.470   1.421
 7296TIP3    H221846   3.559   7.550   1.317
 7297TIP3   OH221847   5.857   2.550   5.014
 7297TIP3    H121848   5.943   2.510   5.017
 7297TIP3    H221849   5.858   2.616   5.084
 7298TIP3   OH221850   6.835   7.009   0.936
 7298TIP3    H121851   6.797   7.095   0.920
 7298TIP3    H221852   6.767   6.962   0.984
 7299TIP3   OH221853   2.890   5.133   5.343
 7299TIP3    H121854   2.803   5.153   5.308
 7299TIP3    H221855   2.892   5.037   5.349
 7300TIP3   OH221856   2.499   2.703   4.276
 7300TIP3    H121857   2.529   2.736   4.361
 7300TIP3    H221858   2.578   2.669   4.234
 7301TIP3   OH221859   0.852   2.059   6.535
 7301TIP3    H121860   0.842   1.987   6.597
 7301TIP3    H221861   0.905   2.022   6.464
 7302TIP3   OH221862   6.297   6.496   0.998
 7302TIP3    H121863   6.327   6.409   0.970
 7302TIP3    H221864   6.232   6.478   1.065
 7303TIP3   OH221865   0.939   3.120   3.065
 7303TIP3    H121866   0.882   3.133   2.990
 7303TIP3    H221867   0.962   3.208   3.095
 7304TIP3   OH221868   6.651   3.100   2.363
 7304TIP3    H121869   6.667   3.006   2.358
 7304TIP3    H221870   6.727   3.136   2.407
 7305TIP3   OH221871   4.269   4.840   3.794
 7305TIP3    H121872   4.280   4.805   3.705
 7305TIP3    H221873   4.254   4.934   3.781
 7306TIP3   OH221874   6.727   5.413   5.268
 7306TIP3    H121875   6.693   5.360   5.340
 7306TIP3    H221876   6.820   5.425   5.289
 7307TIP3   OH221877   1.744   2.537   6.259
 7307TIP3    H121878   1.819   2.595   6.273
 7307TIP3    H221879   1.766   2.489   6.179
 7308TIP3   OH221880   2.205   4.146   2.759
 7308TIP3    H121881   2.162   4.158   2.674
 7308TIP3    H221882   2.219   4.235   2.791
 7309TIP3   OH221883   6.359   7.130   2.839
 7309TIP3    H121884   6.296   7.058   2.836
 7309TIP3    H221885   6.397   7.133   2.751
 7310TIP3   OH221886   2.814   7.066   1.514
 7310TIP3    H121887   2.817   7.162   1.513
 7310TIP3    H221888   2.739   7.043   1.460
 7311TIP3   OH221889   6.128   7.616   1.543
 7311TIP3    H121890   6.085   7.670   1.609
 7311TIP3    H221891   6.192   7.673   1.502
 7312TIP3   OH221892   7.751   2.023   5.309
 7312TIP3    H121893   7.678   2.084   5.319
 7312TIP3    H221894   7.782   2.008   5.398
 7313TIP3   OH221895   6.936   3.055   4.948
 7313TIP3    H121896   6.939   3.034   4.854
 7313TIP3    H221897   6.998   3.127   4.958
 7314TIP3   OH221898   0.989   2.833   3.093
 7314TIP3    H121899   0.938   2.789   3.161
 7314TIP3    H221900   0.967   2.925   3.102
 7315TIP3   OH221901   3.802   6.162   0.173
 7315TIP3    H121902   3.849   6.148   0.091
 7315TIP3    H221903   3.719   6.116   0.162
 7316TIP3   OH221904   6.418   6.138   5.255
 7316TIP3    H121905   6.479   6.086   5.204
 7316TIP3    H221906   6.452   6.133   5.345
 7317TIP3   OH221907   2.670   3.274   2.319
 7317TIP3    H121908   2.755   3.304   2.351
 7317TIP3    H221909   2.616   3.353   2.315
 7318TIP3   OH221910   5.036   5.959   2.776
 7318TIP3    H121911   5.030   6.043   2.821
 7318TIP3    H221912   4.945   5.928   2.773
 7319TIP3   OH221913   7.853   7.569   1.970
 7319TIP3    H121914   7.822   7.570   2.060
 7319TIP3    H221915   7.786   7.619   1.922
 7320TIP3   OH221916   6.379   4.861   1.423
 7320TIP3    H121917   6.307   4.904   1.469
 7320TIP3    H221918   6.406   4.925   1.356
 7321TIP3   OH221919   3.279   6.354   3.950
 7321TIP3    H121920   3.245   6.393   4.030
 7321TIP3    H221921   3.235   6.269   3.943
 7322TIP3   OH221922   4.328   7.230   0.621
 7322TIP3    H121923   4.251   7.240   0.678
 7322TIP3    H221924   4.346   7.136   0.622
 7323TIP3   OH221925   4.566   6.667   1.767
 7323TIP3    H121926   4.487   6.711   1.737
 7323TIP3    H221927   4.592   6.611   1.694
 7324TIP3   OH221928   2.418   7.578   1.696
 7324TIP3    H121929   2.427   7.503   1.755
 7324TIP3    H221930   2.507   7.613   1.687
 7325TIP3   OH221931   7.139   3.100   1.194
 7325TIP3    H121932   7.052   3.079   1.160
 7325TIP3    H221933   7.153   3.191   1.167
 7326TIP3   OH221934   5.796   2.442   0.191
 7326TIP3    H121935   5.889   2.438   0.216
 7326TIP3    H221936   5.749   2.418   0.271
 7327TIP3   OH221937   7.483   3.195   4.697
 7327TIP3    H121938   7.490   3.261   4.766
 7327TIP3    H221939   7.552   3.217   4.635
 7328TIP3   OH221940   0.635   2.393   5.659
 7328TIP3    H121941   0.645   2.305   5.621
 7328TIP3    H221942   0.545   2.394   5.692
 7329TIP3   OH221943   7.746   2.657   2.923
 7329TIP3    H121944   7.764   2.663   3.016
 7329TIP3    H221945   7.759   2.746   2.890
 7330TIP3   OH221946   1.245   2.578   6.482
 7330TIP3    H121947   1.262   2.671   6.471
 7330TIP3    H221948   1.192   2.572   6.562
 7331TIP3   OH221949   7.266   1.020   2.073
 7331TIP3    H121950   7.357   1.024   2.043
 7331TIP3    H221951   7.273   1.011   2.168
 7332TIP3   OH221952   5.604   0.079   2.584
 7332TIP3    H121953   5.568   0.064   2.671
 7332TIP3    H221954   5.681   0.023   2.579
 7333TIP3   OH221955   1.417   5.769   5.102
 7333TIP3    H121956   1.372   5.745   5.021
 7333TIP3    H221957   1.450   5.686   5.136
 7334TIP3   OH221958   3.215   3.301   3.668
 7334TIP3    H121959   3.210   3.365   3.596
 7334TIP3    H221960   3.284   3.240   3.642
 7335TIP3   OH221961   8.277   5.264   0.831
 7335TIP3    H121962   8.285   5.353   0.864
 7335TIP3    H221963   8.256   5.211   0.908
 7336TIP3   OH221964   7.812   6.468   2.324
 7336TIP3    H121965   7.770   6.385   2.345
 7336TIP3    H221966   7.761   6.534   2.371
 7337TIP3   OH221967   1.551   6.406   4.860
 7337TIP3    H121968   1.599   6.467   4.917
 7337TIP3    H221969   1.618   6.370   4.802
 7338TIP3   OH221970   6.332   0.911   5.941
 7338TIP3    H121971   6.313   0.922   6.034
 7338TIP3    H221972   6.258   0.952   5.896
 7339TIP3   OH221973   7.076   1.857   4.701
 7339TIP3    H121974   7.018   1.810   4.641
 7339TIP3    H221975   7.038   1.945   4.708
 7340TIP3   OH221976   1.445   5.276   4.758
 7340TIP3    H121977   1.480   5.302   4.844
 7340TIP3    H221978   1.522   5.277   4.701
 7341TIP3   OH221979   1.889   3.507   5.328
 7341TIP3    H121980   1.922   3.427   5.287
 7341TIP3    H221981   1.848   3.478   5.409
 7342TIP3   OH221982   6.800   6.101   2.583
 7342TIP3    H121983   6.716   6.070   2.548
 7342TIP3    H221984   6.783   6.192   2.609
 7343TIP3   OH221985   1.866   0.326   0.941
 7343TIP3    H121986   1.902   0.288   1.021
 7343TIP3    H221987   1.919   0.404   0.926
 7344TIP3   OH221988   6.925   2.291   6.083
 7344TIP3    H121989   6.961   2.366   6.129
 7344TIP3    H221990   6.900   2.325   5.997
 7345TIP3   OH221991   5.122   0.563   2.140
 7345TIP3    H121992   5.049   0.549   2.202
 7345TIP3    H221993   5.112   0.492   2.076
 7346TIP3   OH221994   5.103   7.561   4.852
 7346TIP3    H121995   5.126   7.509   4.775
 7346TIP3    H221996   5.067   7.642   4.815
 7347TIP3   OH221997   0.646   2.478   5.297
 7347TIP3    H121998   0.593   2.401   5.321
 7347TIP3    H221999   0.726   2.441   5.260
 7348TIP3   OH222000   2.121   2.632   4.960
 7348TIP3    H122001   2.181   2.664   5.028
 7348TIP3    H222002   2.141   2.687   4.884
 7349TIP3   OH222003   3.504   0.475   3.628
 7349TIP3    H122004   3.597   0.481   3.646
 7349TIP3    H222005   3.466   0.550   3.673
 7350TIP3   OH222006   1.278   3.051   5.360
 7350TIP3    H122007   1.243   3.136   5.331
 7350TIP3    H222008   1.321   3.015   5.282
 7351TIP3   OH222009   6.805   4.907   4.819
 7351TIP3    H122010   6.809   4.875   4.729
 7351TIP3    H222011   6.807   5.002   4.811
 7352TIP3   OH222012   0.415   6.952   3.200
 7352TIP3    H122013   0.509   6.967   3.211
 7352TIP3    H222014   0.409   6.865   3.160
 7353TIP3   OH222015   4.970   2.715   4.143
 7353TIP3    H122016   4.983   2.789   4.203
 7353TIP3    H222017   4.906   2.746   4.080
 7354TIP3   OH222018   4.997   6.277   6.484
 7354TIP3    H122019   5.003   6.369   6.508
 7354TIP3    H222020   5.075   6.237   6.522
 7355TIP3   OH222021   7.774   3.120   3.963
 7355TIP3    H122022   7.841   3.093   3.900
 7355TIP3    H222023   7.781   3.056   4.033
 7356TIP3   OH222024   5.790   2.492   5.624
 7356TIP3    H122025   5.777   2.414   5.569
 7356TIP3    H222026   5.790   2.565   5.562
 7357TIP3   OH222027   3.766   6.309   2.078
 7357TIP3    H122028   3.832   6.363   2.120
 7357TIP3    H222029   3.712   6.276   2.150
 7358TIP3   OH222030   7.057   6.726   2.510
 7358TIP3    H122031   7.034   6.635   2.528
 7358TIP3    H222032   7.074   6.764   2.596
 7359TIP3   OH222033   4.902   3.817   2.355
 7359TIP3    H122034   4.933   3.905   2.378
 7359TIP3    H222035   4.807   3.821   2.367
 7360TIP3   OH222036   2.914   5.439   4.994
 7360TIP3    H122037   2.931   5.415   5.085
 7360TIP3    H222038   2.899   5.356   4.949
 7361TIP3   OH222039   2.329   4.721   0.200
 7361TIP3    H122040   2.355   4.628   0.195
 7361TIP3    H222041   2.338   4.752   0.110
 7362TIP3   OH222042   2.134   0.874   2.248
 7362TIP3    H122043   2.163   0.905   2.334
 7362TIP3    H222044   2.167   0.939   2.186
 7363TIP3   OH222045   1.428   5.547   0.324
 7363TIP3    H122046   1.388   5.557   0.410
 7363TIP3    H222047   1.393   5.465   0.290
 7364TIP3   OH222048   2.800   4.670   1.133
 7364TIP3    H122049   2.828   4.645   1.045
 7364TIP3    H222050   2.869   4.637   1.190
 7365TIP3   OH222051   4.858   0.788   2.518
 7365TIP3    H122052   4.936   0.818   2.473
 7365TIP3    H222053   4.786   0.815   2.461
 7366TIP3   OH222054   2.322   3.798   6.164
 7366TIP3    H122055   2.399   3.812   6.219
 7366TIP3    H222056   2.271   3.879   6.172
 7367TIP3   OH222057   4.352   2.367   1.463
 7367TIP3    H122058   4.262   2.335   1.472
 7367TIP3    H222059   4.372   2.355   1.370
 7368TIP3   OH222060   3.455   7.216   4.156
 7368TIP3    H122061   3.544   7.189   4.177
 7368TIP3    H222062   3.402   7.139   4.173
 7369TIP3   OH222063   5.176   2.887   2.933
 7369TIP3    H122064   5.119   2.877   3.010
 7369TIP3    H222065   5.208   2.798   2.916
 7370TIP3   OH222066   7.993   1.943   2.770
 7370TIP3    H122067   8.025   1.903   2.851
 7370TIP3    H222068   8.003   2.037   2.784
 7371TIP3   OH222069   6.992   4.796   4.079
 7371TIP3    H122070   7.013   4.724   4.020
 7371TIP3    H222071   6.898   4.812   4.064
 7372TIP3   OH222072   4.527   3.339   6.449
 7372TIP3    H122073   4.436   3.363   6.467
 7372TIP3    H222074   4.536   3.250   6.484
 7373TIP3   OH222075   2.056   2.918   4.021
 7373TIP3    H122076   2.119   2.976   3.977
 7373TIP3    H222077   2.096   2.831   4.015
 7374TIP3   OH222078   4.917   0.886   2.253
 7374TIP3    H122079   4.916   0.979   2.231
 7374TIP3    H222080   4.844   0.848   2.204
 7375TIP3   OH222081   8.098   3.590   5.577
 7375TIP3    H122082   8.026   3.534   5.605
 7375TIP3    H222083   8.176   3.536   5.588
 7376TIP3   OH222084   6.351   7.477   3.797
 7376TIP3    H122085   6.363   7.421   3.873
 7376TIP3    H222086   6.422   7.452   3.737
 7377TIP3   OH222087   8.073   6.606   1.866
 7377TIP3    H122088   8.066   6.676   1.931
 7377TIP3    H222089   7.983   6.580   1.849
 7378TIP3   OH222090   0.724   7.356   4.910
 7378TIP3    H122091   0.668   7.319   4.978
 7378TIP3    H222092   0.813   7.337   4.939
 7379TIP3   OH222093   0.500   6.053   6.460
 7379TIP3    H122094   0.589   6.029   6.486
 7379TIP3    H222095   0.460   5.972   6.431
 7380TIP3   OH222096   7.642   5.983   6.168
 7380TIP3    H122097   7.735   5.986   6.192
 7380TIP3    H222098   7.597   6.015   6.246
 7381TIP3   OH222099   5.348   2.494   2.510
 7381TIP3    H122100   5.425   2.452   2.472
 7381TIP3    H222101   5.274   2.454   2.465
 7382TIP3   OH222102   5.007   7.544   0.995
 7382TIP3    H122103   4.914   7.525   0.994
 7382TIP3    H222104   5.049   7.465   0.962
 7383TIP3   OH222105   2.344   0.251   5.075
 7383TIP3    H122106   2.280   0.322   5.080
 7383TIP3    H222107   2.358   0.238   4.981
 7384TIP3   OH222108   1.143   4.739   5.292
 7384TIP3    H122109   1.140   4.707   5.202
 7384TIP3    H222110   1.058   4.781   5.304
 7385TIP3   OH222111   1.305   6.438   5.323
 7385TIP3    H122112   1.245   6.497   5.277
 7385TIP3    H222113   1.251   6.400   5.394
 7386TIP3   OH222114   0.490   6.586   0.293
 7386TIP3    H122115   0.514   6.533   0.369
 7386TIP3    H222116   0.396   6.575   0.284
 7387TIP3   OH222117   3.036   7.126   1.718
 7387TIP3    H122118   2.967   7.163   1.663
 7387TIP3    H222119   3.087   7.202   1.746
 7388TIP3   OH222120   3.439   3.081   2.065
 7388TIP3    H122121   3.516   3.067   2.009
 7388TIP3    H222122   3.386   3.002   2.053
 7389TIP3   OH222123   4.573   4.253   6.687
 7389TIP3    H122124   4.659   4.256   6.644
 7389TIP3    H222125   4.516   4.209   6.624
 7390TIP3   OH222126   1.435   2.023   0.023
 7390TIP3    H122127   1.378   2.098   0.002
 7390TIP3    H222128   1.395   1.984   0.100
 7391TIP3   OH222129   3.912   5.879   5.155
 7391TIP3    H122130   3.978   5.874   5.086
 7391TIP3    H222131   3.895   5.787   5.178
 7392TIP3   OH222132   4.351   7.441   6.125
 7392TIP3    H122133   4.403   7.509   6.167
 7392TIP3    H222134   4.314   7.484   6.047
 7393TIP3   OH222135   4.599   1.225   2.973
 7393TIP3    H122136   4.596   1.142   2.926
 7393TIP3    H222137   4.551   1.286   2.917
 7394TIP3   OH222138   6.626   3.232   0.142
 7394TIP3    H122139   6.638   3.276   0.058
 7394TIP3    H222140   6.597   3.144   0.120
 7395TIP3   OH222141   7.947   2.193   1.998
 7395TIP3    H122142   7.851   2.202   1.998
 7395TIP3    H222143   7.974   2.243   2.075
 7396TIP3   OH222144   1.031   0.822   1.349
 7396TIP3    H122145   1.086   0.762   1.400
 7396TIP3    H222146   0.976   0.765   1.295
 7397TIP3   OH222147   6.025   0.885   5.051
 7397TIP3    H122148   6.055   0.878   4.960
 7397TIP3    H222149   6.105   0.880   5.103
 7398TIP3   OH222150   0.034   6.194   2.588
 7398TIP3    H122151  -0.046   6.238   2.559
 7398TIP3    H222152   0.033   6.109   2.543
 7399TIP3   OH222153   5.869   3.110   2.625
 7399TIP3    H122154   5.791   3.108   2.681
 7399TIP3    H222155   5.860   3.031   2.571
 7400TIP3   OH222156   3.254   3.340   0.386
 7400TIP3    H122157   3.286   3.320   0.298
 7400TIP3    H222158   3.323   3.393   0.425
 7401TIP3   OH222159   5.747   3.768   3.598
 7401TIP3    H122160   5.659   3.732   3.602
 7401TIP3    H222161   5.781   3.739   3.513
 7402TIP3   OH222162   7.549   0.624   5.815
 7402TIP3    H122163   7.601   0.704   5.822
 7402TIP3    H222164   7.590   0.563   5.876
 7403TIP3   OH222165   4.158   0.591   6.636
 7403TIP3    H122166   4.134   0.508   6.677
 7403TIP3    H222167   4.074   0.629   6.608
 7404TIP3   OH222168   4.451   3.698   2.145
 7404TIP3    H122169   4.403   3.682   2.063
 7404TIP3    H222170   4.386   3.684   2.213
 7405TIP3   OH222171   1.103   2.662   3.375
 7405TIP3    H122172   1.132   2.731   3.315
 7405TIP3    H222173   1.181   2.609   3.390
 7406TIP3   OH222174   7.666   1.281   1.913
 7406TIP3    H122175   7.758   1.309   1.919
 7406TIP3    H222176   7.622   1.355   1.872
 7407TIP3   OH222177   5.093   6.179   3.292
 7407TIP3    H122178   5.127   6.091   3.272
 7407TIP3    H222179   4.999   6.167   3.297
 7408TIP3   OH222180   0.037   7.411   3.136
 7408TIP3    H122181   0.080   7.378   3.057
 7408TIP3    H222182  -0.025   7.342   3.160
 7409TIP3   OH222183   7.747   7.398   2.793
 7409TIP3    H122184   7.759   7.489   2.820
 7409TIP3    H222185   7.694   7.359   2.862
 7410TIP3   OH222186   3.841   0.834   1.115
 7410TIP3    H122187   3.751   0.811   1.138
 7410TIP3    H222188   3.894   0.794   1.184
 7411TIP3   OH222189   4.919   2.767   0.002
 7411TIP3    H122190   4.911   2.836   0.068
 7411TIP3    H222191   4.832   2.763  -0.038
 7412TIP3   OH222192   5.270   6.628   0.753
 7412TIP3    H122193   5.192   6.625   0.697
 7412TIP3    H222194   5.312   6.543   0.741
 7413TIP3   OH222195   2.037   4.356   0.473
 7413TIP3    H122196   2.107   4.304   0.433
 7413TIP3    H222197   2.000   4.299   0.541
 7414TIP3   OH222198   6.823   7.401   3.160
 7414TIP3    H122199   6.786   7.329   3.109
 7414TIP3    H222200   6.749   7.434   3.213
 7415TIP3   OH222201   2.903   6.196   4.802
 7415TIP3    H122202   2.851   6.192   4.882
 7415TIP3    H222203   2.862   6.131   4.744
 7416TIP3   OH222204   3.431   0.745   1.633
 7416TIP3    H122205   3.369   0.691   1.681
 7416TIP3    H222206   3.435   0.827   1.683
 7417TIP3   OH222207   1.101   6.228   6.037
 7417TIP3    H122208   1.100   6.156   6.101
 7417TIP3    H222209   1.042   6.294   6.074
 7418TIP3   OH222210   8.133   1.204   3.018
 7418TIP3    H122211   8.181   1.223   3.098
 7418TIP3    H222212   8.045   1.182   3.048
 7419TIP3   OH222213   4.543   6.025   5.606
 7419TIP3    H122214   4.597   6.060   5.677
 7419TIP3    H222215   4.469   5.984   5.650
 7420TIP3   OH222216   3.284   2.106   1.047
 7420TIP3    H122217   3.251   2.090   1.136
 7420TIP3    H222218   3.365   2.154   1.060
 7421TIP3   OH222219   6.962   7.087   3.720
 7421TIP3    H122220   6.921   7.067   3.636
 7421TIP3    H222221   6.903   7.050   3.786
 7422TIP3   OH222222   7.021   3.754   2.130
 7422TIP3    H122223   7.027   3.770   2.035
 7422TIP3    H222224   7.098   3.701   2.150
 7423TIP3   OH222225   1.033   7.721   4.680
 7423TIP3    H122226   0.967   7.728   4.749
 7423TIP3    H222227   1.102   7.781   4.707
 7424TIP3   OH222228   3.356   1.179   2.014
 7424TIP3    H122229   3.436   1.201   1.967
 7424TIP3    H222230   3.372   1.208   2.104
 7425TIP3   OH222231   0.524  -0.032   1.771
 7425TIP3    H122232   0.505   0.014   1.853
 7425TIP3    H222233   0.599   0.014   1.735
 7426TIP3   OH222234   3.804   0.777   2.871
 7426TIP3    H122235   3.854   0.853   2.841
 7426TIP3    H222236   3.862   0.703   2.854
 7427TIP3   OH222237   6.349   1.440   4.343
 7427TIP3    H122238   6.368   1.355   4.302
 7427TIP3    H222239   6.311   1.492   4.272
 7428TIP3   OH222240   3.193   3.530   3.490
 7428TIP3    H122241   3.208   3.613   3.536
 7428TIP3    H222242   3.221   3.547   3.400
 7429TIP3   OH222243   4.957   2.945   0.781
 7429TIP3    H122244   4.961   2.988   0.695
 7429TIP3    H222245   4.998   2.860   0.766
 7430TIP3   OH222246   0.425   4.221   2.400
 7430TIP3    H122247   0.459   4.208   2.311
 7430TIP3    H222248   0.332   4.239   2.389
 7431TIP3   OH222249   6.403   5.728   1.191
 7431TIP3    H122250   6.343   5.656   1.174
 7431TIP3    H222251   6.481   5.686   1.229
 7432TIP3   OH222252   6.218   2.010   5.773
 7432TIP3    H122253   6.235   2.072   5.702
 7432TIP3    H222254   6.151   2.053   5.827
 7433TIP3   OH222255   0.651   0.592   2.088
 7433TIP3    H122256   0.739   0.630   2.085
 7433TIP3    H222257   0.664   0.502   2.115
 7434TIP3   OH222258   7.069   6.515   0.891
 7434TIP3    H122259   7.022   6.560   0.962
 7434TIP3    H222260   7.035   6.426   0.893
 7435TIP3   OH222261   6.543   3.917   0.672
 7435TIP3    H122262   6.493   3.943   0.749
 7435TIP3    H222263   6.555   3.822   0.681
 7436TIP3   OH222264   6.413   3.429   1.414
 7436TIP3    H122265   6.398   3.513   1.371
 7436TIP3    H222266   6.379   3.441   1.503
 7437TIP3   OH222267   3.916   1.448   5.383
 7437TIP3    H122268   3.930   1.493   5.299
 7437TIP3    H222269   3.930   1.516   5.449
 7438TIP3   OH222270   0.186   4.717   2.068
 7438TIP3    H122271   0.231   4.636   2.045
 7438TIP3    H222272   0.192   4.771   1.989
 7439TIP3   OH222273   4.199   6.075   6.490
 7439TIP3    H122274   4.152   6.128   6.555
 7439TIP3    H222275   4.287   6.066   6.525
 7440TIP3   OH222276   5.944   0.688   2.536
 7440TIP3    H122277   5.924   0.752   2.605
 7440TIP3    H222278   5.993   0.619   2.581
 7441TIP3   OH222279   1.025   6.869   3.120
 7441TIP3    H122280   1.004   6.776   3.122
 7441TIP3    H222281   1.106   6.877   3.171
 7442TIP3   OH222282   0.505   0.881   0.953
 7442TIP3    H122283   0.533   0.973   0.952
 7442TIP3    H222284   0.461   0.869   0.869
 7443TIP3   OH222285   0.657   3.645   6.374
 7443TIP3    H122286   0.576   3.598   6.356
 7443TIP3    H222287   0.634   3.737   6.360
 7444TIP3   OH222288   1.340   6.450   0.801
 7444TIP3    H122289   1.401   6.509   0.756
 7444TIP3    H222290   1.322   6.493   0.884
 7445TIP3   OH222291   0.403   5.307   1.592
 7445TIP3    H122292   0.427   5.254   1.668
 7445TIP3    H222293   0.465   5.380   1.593
 7446TIP3   OH222294   5.090   3.035   1.956
 7446TIP3    H122295   5.049   2.959   1.996
 7446TIP3    H222296   5.160   2.999   1.901
 7447TIP3   OH222297   6.088   1.425   6.088
 7447TIP3    H122298   6.127   1.342   6.061
 7447TIP3    H222299   6.158   1.489   6.075
 7448TIP3   OH222300   5.006   6.334   0.219
 7448TIP3    H122301   5.049   6.256   0.182
 7448TIP3    H222302   5.043   6.342   0.306
 7449TIP3   OH222303   2.533   4.241   4.738
 7449TIP3    H122304   2.446   4.206   4.723
 7449TIP3    H222305   2.530   4.329   4.699
 7450TIP3   OH222306   3.355   0.327   1.771
 7450TIP3    H122307   3.439   0.345   1.728
 7450TIP3    H222308   3.289   0.345   1.704
 7451TIP3   OH222309   7.585   0.384   0.706
 7451TIP3    H122310   7.628   0.464   0.734
 7451TIP3    H222311   7.493   0.408   0.694
 7452TIP3   OH222312   7.905   3.113   2.321
 7452TIP3    H122313   7.811   3.119   2.338
 7452TIP3    H222314   7.911   3.059   2.242
 7453TIP3   OH222315   4.402   7.327   1.112
 7453TIP3    H122316   4.310   7.353   1.122
 7453TIP3    H222317   4.400   7.251   1.054
 7454TIP3   OH222318   3.762   1.378   4.252
 7454TIP3    H122319   3.759   1.371   4.157
 7454TIP3    H222320   3.674   1.408   4.276
 7455TIP3   OH222321   7.055   2.166   6.458
 7455TIP3    H122322   7.051   2.196   6.367
 7455TIP3    H222323   7.003   2.085   6.457
 7456TIP3   OH222324   4.278   3.431   2.103
 7456TIP3    H122325   4.256   3.524   2.108
 7456TIP3    H222326   4.218   3.397   2.036
 7457TIP3   OH222327   2.327   3.840   1.033
 7457TIP3    H122328   2.248   3.785   1.031
 7457TIP3    H222329   2.390   3.788   1.083
 7458TIP3   OH222330   0.053   6.038   0.771
 7458TIP3    H122331   0.142   6.060   0.798
 7458TIP3    H222332  -0.001   6.108   0.808
 7459TIP3   OH222333   2.564   6.709   4.255
 7459TIP3    H122334   2.518   6.705   4.339
 7459TIP3    H222335   2.571   6.802   4.236
 7460TIP3   OH222336   6.284   2.238   4.176
 7460TIP3    H122337   6.331   2.287   4.243
 7460TIP3    H222338   6.260   2.304   4.111
 7461TIP3   OH222339   0.914   7.561   4.309
 7461TIP3    H122340   0.842   7.594   4.256
 7461TIP3    H222341   0.949   7.638   4.353
 7462TIP3   OH222342   3.286   2.667   5.012
 7462TIP3    H122343   3.236   2.588   4.993
 7462TIP3    H222344   3.223   2.738   5.001
 7463TIP3   OH222345   4.285   6.929   2.286
 7463TIP3    H122346   4.224   6.900   2.218
 7463TIP3    H222347   4.368   6.889   2.262
 7464TIP3   OH222348   0.407   7.550   2.312
 7464TIP3    H122349   0.415   7.636   2.355
 7464TIP3    H222350   0.360   7.568   2.231
 7465TIP3   OH222351   7.763   4.363   2.279
 7465TIP3    H122352   7.825   4.399   2.215
 7465TIP3    H222353   7.677   4.388   2.246
 7466TIP3   OH222354   4.637   2.154   0.907
 7466TIP3    H122355   4.610   2.126   0.820
 7466TIP3    H222356   4.697   2.227   0.891
 7467TIP3   OH222357   8.002   6.825   0.370
 7467TIP3    H122358   7.965   6.912   0.354
 7467TIP3    H222359   8.068   6.839   0.439
 7468TIP3   OH222360   1.564   3.708   4.154
 7468TIP3    H122361   1.540   3.670   4.069
 7468TIP3    H222362   1.593   3.634   4.206
 7469TIP3   OH222363   0.020   2.030   3.420
 7469TIP3    H122364   0.102   2.042   3.372
 7469TIP3    H222365   0.024   2.094   3.491
 7470TIP3   OH222366   6.946   0.893   3.521
 7470TIP3    H122367   6.964   0.966   3.461
 7470TIP3    H222368   7.031   0.848   3.529
 7471TIP3   OH222369   2.106   0.060   2.718
 7471TIP3    H122370   2.050   0.137   2.707
 7471TIP3    H222371   2.194   0.091   2.702
 7472TIP3   OH222372   7.559   0.737   1.083
 7472TIP3    H122373   7.647   0.770   1.098
 7472TIP3    H222374   7.509   0.765   1.160
 7473TIP3   OH222375   7.261   1.864   2.075
 7473TIP3    H122376   7.266   1.912   1.992
 7473TIP3    H222377   7.306   1.920   2.138
 7474TIP3   OH222378   7.876   6.355   2.765
 7474TIP3    H122379   7.940   6.403   2.712
 7474TIP3    H222380   7.847   6.419   2.831
 7475TIP3   OH222381   7.776   2.704   1.160
 7475TIP3    H122382   7.768   2.763   1.085
 7475TIP3    H222383   7.687   2.695   1.193
 7476TIP3   OH222384   7.390   2.757   1.463
 7476TIP3    H122385   7.383   2.833   1.522
 7476TIP3    H222386   7.301   2.724   1.456
 7477TIP3   OH222387   8.042   0.471   5.457
 7477TIP3    H122388   8.105   0.534   5.421
 7477TIP3    H222389   8.080   0.386   5.439
 7478TIP3   OH222390   6.521   3.190   4.169
 7478TIP3    H122391   6.601   3.204   4.118
 7478TIP3    H222392   6.538   3.108   4.217
 7479TIP3   OH222393   4.482   0.865   4.693
 7479TIP3    H122394   4.470   0.770   4.705
 7479TIP3    H222395   4.551   0.871   4.627
 7480TIP3   OH222396   0.252   6.671   3.026
 7480TIP3    H122397   0.167   6.687   3.067
 7480TIP3    H222398   0.231   6.646   2.936
 7481TIP3   OH222399   3.678   6.436   2.669
 7481TIP3    H122400   3.744   6.368   2.660
 7481TIP3    H222401   3.651   6.455   2.579
 7482TIP3   OH222402   6.996   5.325   0.739
 7482TIP3    H122403   6.958   5.303   0.824
 7482TIP3    H222404   7.087   5.351   0.759
 7483TIP3   OH222405   2.700   4.229   5.105
 7483TIP3    H122406   2.608   4.206   5.089
 7483TIP3    H222407   2.719   4.191   5.191
 7484TIP3   OH222408   0.724   0.798   3.161
 7484TIP3    H122409   0.785   0.741   3.114
 7484TIP3    H222410   0.723   0.763   3.250
 7485TIP3   OH222411   5.769   7.357   3.951
 7485TIP3    H122412   5.816   7.426   3.998
 7485TIP3    H222413   5.692   7.340   4.005
 7486TIP3   OH222414   2.589   3.150   5.945
 7486TIP3    H122415   2.532   3.131   5.871
 7486TIP3    H222416   2.543   3.113   6.020
 7487TIP3   OH222417   2.822   2.948   3.288
 7487TIP3    H122418   2.861   2.952   3.201
 7487TIP3    H222419   2.742   2.999   3.282
 7488TIP3   OH222420   1.261   2.818   3.998
 7488TIP3    H122421   1.353   2.796   3.984
 7488TIP3    H222422   1.261   2.914   4.006
 7489TIP3   OH222423   2.964   0.374   1.391
 7489TIP3    H122424   2.976   0.296   1.337
 7489TIP3    H222425   2.980   0.448   1.332
 7490TIP3   OH222426   5.654   4.173   5.460
 7490TIP3    H122427   5.632   4.242   5.522
 7490TIP3    H222428   5.744   4.192   5.433
 7491TIP3   OH222429   8.135   4.767   4.729
 7491TIP3    H122430   8.217   4.814   4.746
 7491TIP3    H222431   8.146   4.683   4.774
 7492TIP3   OH222432   3.649   1.425   2.095
 7492TIP3    H122433   3.570   1.461   2.055
 7492TIP3    H222434   3.618   1.350   2.146
 7493TIP3   OH222435   2.507   0.163   3.488
 7493TIP3    H122436   2.550   0.083   3.518
 7493TIP3    H222437   2.431   0.132   3.439
 7494TIP3   OH222438   4.619   5.011   0.324
 7494TIP3    H122439   4.589   4.923   0.299
 7494TIP3    H222440   4.694   5.028   0.268
 7495TIP3   OH222441   2.377   6.630   5.034
 7495TIP3    H122442   2.462   6.631   5.077
 7495TIP3    H222443   2.314   6.622   5.106
 7496TIP3   OH222444   3.812   0.630   1.320
 7496TIP3    H122445   3.779   0.569   1.254
 7496TIP3    H222446   3.753   0.617   1.395
 7497TIP3   OH222447   1.932   0.668   5.901
 7497TIP3    H122448   2.010   0.720   5.888
 7497TIP3    H222449   1.961   0.593   5.954
 7498TIP3   OH222450   1.653   5.450   2.640
 7498TIP3    H122451   1.659   5.524   2.580
 7498TIP3    H222452   1.577   5.401   2.611
 7499TIP3   OH222453   3.753   4.891   5.633
 7499TIP3    H122454   3.662   4.921   5.636
 7499TIP3    H222455   3.760   4.828   5.705
 7500TIP3   OH222456   2.471   0.517   5.163
 7500TIP3    H122457   2.443   0.558   5.081
 7500TIP3    H222458   2.566   0.527   5.164
 7501TIP3   OH222459   3.326   5.571   6.736
 7501TIP3    H122460   3.252   5.510   6.730
 7501TIP3    H222461   3.401   5.521   6.703
 7502TIP3   OH222462   2.416   3.411   0.890
 7502TIP3    H122463   2.409   3.322   0.858
 7502TIP3    H222464   2.491   3.409   0.950
 7503TIP3   OH222465   6.931   6.815   4.798
 7503TIP3    H122466   7.020   6.789   4.772
 7503TIP3    H222467   6.886   6.732   4.813
 7504TIP3   OH222468   0.589   7.069   4.403
 7504TIP3    H122469   0.683   7.058   4.418
 7504TIP3    H222470   0.578   7.164   4.395
 7505TIP3   OH222471   2.804   0.735   1.621
 7505TIP3    H122472   2.828   0.666   1.683
 7505TIP3    H222473   2.760   0.801   1.675
 7506TIP3   OH222474   1.206   4.773   2.009
 7506TIP3    H122475   1.164   4.854   2.039
 7506TIP3    H222476   1.141   4.705   2.026
 7507TIP3   OH222477   7.089   4.398   4.118
 7507TIP3    H122478   7.003   4.439   4.112
 7507TIP3    H222479   7.075   4.308   4.089
 7508TIP3   OH222480   6.728   5.063   4.599
 7508TIP3    H122481   6.644   5.028   4.628
 7508TIP3    H222482   6.709   5.106   4.516
 7509TIP3   OH222483   6.985   7.338   0.550
 7509TIP3    H122484   6.959   7.246   0.557
 7509TIP3    H222485   6.952   7.378   0.630
 7510TIP3   OH222486   1.078   6.172   5.400
 7510TIP3    H122487   1.031   6.246   5.437
 7510TIP3    H222488   1.165   6.176   5.441
 7511TIP3   OH222489   5.428   0.912   5.873
 7511TIP3    H122490   5.487   0.982   5.845
 7511TIP3    H222491   5.472   0.832   5.844
 7512TIP3   OH222492   0.194   4.995   0.076
 7512TIP3    H122493   0.283   5.024   0.097
 7512TIP3    H222494   0.197   4.970  -0.016
 7513TIP3   OH222495   3.163   0.658   5.929
 7513TIP3    H122496   3.147   0.564   5.917
 7513TIP3    H222497   3.139   0.697   5.846
 7514TIP3   OH222498   0.131   6.390   1.727
 7514TIP3    H122499   0.046   6.399   1.768
 7514TIP3    H222500   0.118   6.418   1.636
 7515TIP3   OH222501   3.332   4.843   6.002
 7515TIP3    H122502   3.308   4.894   6.079
 7515TIP3    H222503   3.249   4.826   5.958
 7516TIP3   OH222504   2.529   4.482   1.839
 7516TIP3    H122505   2.602   4.538   1.811
 7516TIP3    H222506   2.515   4.423   1.765
 7517TIP3   OH222507   5.160   0.245   2.126
 7517TIP3    H122508   5.141   0.274   2.215
 7517TIP3    H222509   5.093   0.287   2.072
 7518TIP3   OH222510   3.604   4.460   4.246
 7518TIP3    H122511   3.513   4.442   4.223
 7518TIP3    H222512   3.647   4.477   4.162
 7519TIP3   OH222513   3.079   2.217   6.735
 7519TIP3    H122514   3.049   2.296   6.689
 7519TIP3    H222515   3.172   2.234   6.752
 7520TIP3   OH222516   5.090   2.763   2.040
 7520TIP3    H122517   5.180   2.787   2.061
 7520TIP3    H222518   5.074   2.683   2.089
 7521TIP3   OH222519   2.108   4.026   4.713
 7521TIP3    H122520   2.140   4.037   4.802
 7521TIP3    H222521   2.016   4.055   4.717
 7522TIP3   OH222522   6.613   4.162   0.438
 7522TIP3    H122523   6.572   4.085   0.400
 7522TIP3    H222524   6.706   4.151   0.420
 7523TIP3   OH222525   6.485   4.489   1.824
 7523TIP3    H122526   6.571   4.498   1.782
 7523TIP3    H222527   6.479   4.565   1.883
 7524TIP3   OH222528   0.430   4.029   4.326
 7524TIP3    H122529   0.463   4.091   4.391
 7524TIP3    H222530   0.409   3.950   4.376
 7525TIP3   OH222531   6.178   1.552   5.552
 7525TIP3    H122532   6.197   1.645   5.565
 7525TIP3    H222533   6.231   1.526   5.477
 7526TIP3   OH222534   6.555   7.596   4.451
 7526TIP3    H122535   6.570   7.658   4.380
 7526TIP3    H222536   6.639   7.589   4.495
 7527TIP3   OH222537   3.374   3.658   2.276
 7527TIP3    H122538   3.431   3.726   2.311
 7527TIP3    H222539   3.374   3.673   2.182
 7528TIP3   OH222540   5.058   3.480   6.266
 7528TIP3    H122541   5.109   3.400   6.281
 7528TIP3    H222542   4.968   3.449   6.257
 7529TIP3   OH222543   1.144   4.135   5.154
 7529TIP3    H122544   1.210   4.065   5.143
 7529TIP3    H222545   1.060   4.090   5.145
 7530TIP3   OH222546   3.367   0.865   2.899
 7530TIP3    H122547   3.279   0.849   2.932
 7530TIP3    H222548   3.410   0.914   2.969
 7531TIP3   OH222549   0.482   6.990   5.262
 7531TIP3    H122550   0.443   6.974   5.176
 7531TIP3    H222551   0.430   6.936   5.322
 7532TIP3   OH222552   2.720   2.621   2.028
 7532TIP3    H122553   2.675   2.543   2.060
 7532TIP3    H222554   2.750   2.598   1.941
 7533TIP3   OH222555   3.541   7.242   0.107
 7533TIP3    H122556   3.553   7.231   0.202
 7533TIP3    H222557   3.530   7.336   0.096
 7534TIP3   OH222558   0.194   2.521   1.655
 7534TIP3    H122559   0.124   2.480   1.706
 7534TIP3    H222560   0.188   2.614   1.677
 7535TIP3   OH222561   3.676   1.983   2.503
 7535TIP3    H122562   3.702   1.976   2.595
 7535TIP3    H222563   3.756   1.965   2.454
 7536TIP3   OH222564   3.651   1.364   4.911
 7536TIP3    H122565   3.657   1.426   4.838
 7536TIP3    H222566   3.599   1.292   4.876
 7537TIP3   OH222567   0.401   5.097   6.571
 7537TIP3    H122568   0.322   5.102   6.517
 7537TIP3    H222569   0.372   5.055   6.652
 7538TIP3   OH222570   4.846   3.817   3.828
 7538TIP3    H122571   4.752   3.810   3.817
 7538TIP3    H222572   4.884   3.766   3.756
 7539TIP3   OH222573   0.744   5.578   3.934
 7539TIP3    H122574   0.833   5.610   3.948
 7539TIP3    H222575   0.698   5.652   3.893
 7540TIP3   OH222576   8.057   7.826   4.267
 7540TIP3    H122577   8.101   7.904   4.233
 7540TIP3    H222578   8.127   7.768   4.295
 7541TIP3   OH222579   2.020   6.314   5.108
 7541TIP3    H122580   1.966   6.263   5.168
 7541TIP3    H222581   2.042   6.252   5.038
 7542TIP3   OH222582   2.291   6.775   3.597
 7542TIP3    H122583   2.263   6.759   3.687
 7542TIP3    H222584   2.333   6.861   3.600
 7543TIP3   OH222585   5.386   4.404   2.271
 7543TIP3    H122586   5.466   4.440   2.308
 7543TIP3    H222587   5.373   4.453   2.189
 7544TIP3   OH222588   5.321   3.491   2.436
 7544TIP3    H122589   5.383   3.508   2.364
 7544TIP3    H222590   5.355   3.544   2.509
 7545TIP3   OH222591   0.888   4.519   0.993
 7545TIP3    H122592   0.856   4.477   1.073
 7545TIP3    H222593   0.916   4.606   1.022
 7546TIP3   OH222594   7.135   4.462   3.669
 7546TIP3    H122595   7.153   4.456   3.575
 7546TIP3    H222596   7.204   4.408   3.710
 7547TIP3   OH222597   6.721   0.478   2.937
 7547TIP3    H122598   6.811   0.447   2.923
 7547TIP3    H222599   6.671   0.439   2.865
 7548TIP3   OH222600   3.074   7.242   1.429
 7548TIP3    H122601   3.114   7.173   1.482
 7548TIP3    H222602   3.075   7.208   1.340
 7549TIP3   OH222603   0.112   3.303   4.323
 7549TIP3    H122604   0.181   3.306   4.258
 7549TIP3    H222605   0.116   3.388   4.367
 7550TIP3   OH222606   3.508   1.715   5.623
 7550TIP3    H122607   3.481   1.633   5.665
 7550TIP3    H222608   3.492   1.782   5.688
 7551TIP3   OH222609   6.567   5.169   2.696
 7551TIP3    H122610   6.614   5.199   2.774
 7551TIP3    H222611   6.475   5.165   2.723
 7552TIP3   OH222612   3.374   7.095   3.079
 7552TIP3    H122613   3.408   7.116   3.166
 7552TIP3    H222614   3.330   7.175   3.050
 7553TIP3   OH222615   8.125   6.443   6.318
 7553TIP3    H122616   8.152   6.534   6.323
 7553TIP3    H222617   8.197   6.394   6.359
 7554TIP3   OH222618   2.338   1.305   5.618
 7554TIP3    H122619   2.415   1.249   5.614
 7554TIP3    H222620   2.266   1.249   5.587
 7555TIP3   OH222621   3.265   3.092   6.721
 7555TIP3    H122622   3.238   3.170   6.769
 7555TIP3    H222623   3.212   3.093   6.641
 7556TIP3   OH222624   6.236   4.891   3.572
 7556TIP3    H122625   6.141   4.884   3.578
 7556TIP3    H222626   6.259   4.839   3.495
 7557TIP3   OH222627   2.846   3.560   1.614
 7557TIP3    H122628   2.910   3.603   1.557
 7557TIP3    H222629   2.859   3.467   1.600
 7558TIP3   OH222630   6.008   2.670   4.272
 7558TIP3    H122631   6.094   2.711   4.261
 7558TIP3    H222632   6.010   2.630   4.359
 7559TIP3   OH222633   7.271   3.954   4.232
 7559TIP3    H122634   7.305   3.973   4.144
 7559TIP3    H222635   7.330   3.885   4.266
 7560TIP3   OH222636   2.556   3.883   3.888
 7560TIP3    H122637   2.616   3.952   3.916
 7560TIP3    H222638   2.507   3.922   3.816
 7561TIP3   OH222639   7.446   3.637   5.222
 7561TIP3    H122640   7.518   3.645   5.285
 7561TIP3    H222641   7.483   3.668   5.139
 7562TIP3   OH222642   7.941   5.860   3.704
 7562TIP3    H122643   7.980   5.947   3.715
 7562TIP3    H222644   7.935   5.848   3.609
 7563TIP3   OH222645   4.993   4.505   2.368
 7563TIP3    H122646   5.022   4.418   2.340
 7563TIP3    H222647   4.996   4.502   2.464
 7564TIP3   OH222648   0.586   5.812   6.718
 7564TIP3    H122649   0.521   5.801   6.648
 7564TIP3    H222650   0.543   5.870   6.780
 7565TIP3   OH222651   0.464  -0.027   4.801
 7565TIP3    H122652   0.488   0.049   4.747
 7565TIP3    H222653   0.413   0.010   4.873
 7566TIP3   OH222654   7.758   1.187   5.817
 7566TIP3    H122655   7.740   1.200   5.910
 7566TIP3    H222656   7.681   1.141   5.784
 7567TIP3   OH222657   3.291   4.568   5.152
 7567TIP3    H122658   3.296   4.545   5.059
 7567TIP3    H222659   3.205   4.537   5.180
 7568TIP3   OH222660   0.456   4.782   4.710
 7568TIP3    H122661   0.471   4.713   4.775
 7568TIP3    H222662   0.363   4.803   4.718
 7569TIP3   OH222663   7.769   7.399   4.245
 7569TIP3    H122664   7.776   7.333   4.314
 7569TIP3    H222665   7.701   7.366   4.186
 7570TIP3   OH222666   5.284   1.834   5.537
 7570TIP3    H122667   5.278   1.930   5.534
 7570TIP3    H222668   5.194   1.804   5.522
 7571TIP3   OH222669   2.241   2.187   6.534
 7571TIP3    H122670   2.156   2.232   6.527
 7571TIP3    H222671   2.303   2.249   6.496
 7572TIP3   OH222672   0.110   4.846   4.321
 7572TIP3    H122673   0.080   4.809   4.405
 7572TIP3    H222674   0.074   4.786   4.255
 7573TIP3   OH222675   5.564   6.184   1.970
 7573TIP3    H122676   5.653   6.218   1.984
 7573TIP3    H222677   5.574   6.089   1.978
 7574TIP3   OH222678   0.154   3.925   1.032
 7574TIP3    H122679   0.113   3.847   1.068
 7574TIP3    H222680   0.107   3.998   1.072
 7575TIP3   OH222681   6.844   1.277   6.093
 7575TIP3    H122682   6.865   1.333   6.018
 7575TIP3    H222683   6.754   1.247   6.076
 7576TIP3   OH222684   0.967   5.111   3.339
 7576TIP3    H122685   0.963   5.203   3.366
 7576TIP3    H222686   0.955   5.062   3.420
 7577TIP3   OH222687   6.565   7.241   4.170
 7577TIP3    H122688   6.584   7.147   4.179
 7577TIP3    H222689   6.541   7.268   4.259
 7578TIP3   OH222690   2.568   4.760   1.471
 7578TIP3    H122691   2.562   4.778   1.564
 7578TIP3    H222692   2.650   4.802   1.443
 7579TIP3   OH222693   8.036   0.219   4.340
 7579TIP3    H122694   7.991   0.283   4.396
 7579TIP3    H222695   8.064   0.270   4.264
 7580TIP3   OH222696   7.512   7.642   4.823
 7580TIP3    H122697   7.508   7.637   4.918
 7580TIP3    H222698   7.466   7.723   4.801
 7581TIP3   OH222699   6.590   3.953   3.843
 7581TIP3    H122700   6.685   3.964   3.843
 7581TIP3    H222701   6.561   3.998   3.764
 7582TIP3   OH222702   8.012   4.869   3.205
 7582TIP3    H122703   8.052   4.857   3.119
 7582TIP3    H222704   8.084   4.899   3.261
 7583TIP3   OH222705   2.066   3.729   1.022
 7583TIP3    H122706   2.118   3.651   1.000
 7583TIP3    H222707   1.991   3.725   0.963
 7584TIP3   OH222708   2.505   1.957   4.330
 7584TIP3    H122709   2.499   2.015   4.406
 7584TIP3    H222710   2.531   2.015   4.258
 7585TIP3   OH222711   4.642   5.083   0.783
 7585TIP3    H122712   4.629   5.018   0.852
 7585TIP3    H222713   4.553   5.104   0.754
 7586TIP3   OH222714   3.555   6.014   3.450
 7586TIP3    H122715   3.536   5.991   3.359
 7586TIP3    H222716   3.473   6.048   3.485
 7587TIP3   OH222717   3.229   7.598   5.587
 7587TIP3    H122718   3.198   7.510   5.608
 7587TIP3    H222719   3.176   7.625   5.511
 7588TIP3   OH222720   5.960   1.142   5.521
 7588TIP3    H122721   5.887   1.094   5.560
 7588TIP3    H222722   6.004   1.078   5.465
 7589TIP3   OH222723   5.965   5.691   0.366
 7589TIP3    H122724   6.005   5.762   0.416
 7589TIP3    H222725   6.018   5.614   0.386
 7590TIP3   OH222726   8.210   2.016   4.780
 7590TIP3    H122727   8.176   2.084   4.838
 7590TIP3    H222728   8.180   2.042   4.693
 7591TIP3   OH222729   6.688   4.643   3.018
 7591TIP3    H122730   6.641   4.564   3.044
 7591TIP3    H222731   6.646   4.713   3.069
 7592TIP3   OH222732   4.572   0.776   0.051
 7592TIP3    H122733   4.551   0.684   0.069
 7592TIP3    H222734   4.490   0.823   0.067
 7593TIP3   OH222735   6.613   4.041   6.161
 7593TIP3    H122736   6.525   4.045   6.122
 7593TIP3    H222737   6.607   4.098   6.238
 7594TIP3   OH222738   3.448   0.224   4.829
 7594TIP3    H122739   3.533   0.199   4.867
 7594TIP3    H222740   3.385   0.207   4.899
 7595TIP3   OH222741   7.439   7.443   2.376
 7595TIP3    H122742   7.480   7.484   2.452
 7595TIP3    H222743   7.399   7.516   2.329
 7596TIP3   OH222744   3.752   2.238   2.043
 7596TIP3    H122745   3.782   2.326   2.022
 7596TIP3    H222746   3.660   2.236   2.016
 7597TIP3   OH222747   2.405   2.019   0.065
 7597TIP3    H122748   2.321   2.065   0.073
 7597TIP3    H222749   2.398   1.973  -0.019
 7598TIP3   OH222750   5.700   5.318   6.631
 7598TIP3    H122751   5.620   5.368   6.649
 7598TIP3    H222752   5.752   5.327   6.711
 7599TIP3   OH222753   0.742   4.536   1.781
 7599TIP3    H122754   0.703   4.592   1.847
 7599TIP3    H222755   0.719   4.447   1.807
 7600TIP3   OH222756   7.397   3.951   4.784
 7600TIP3    H122757   7.313   3.991   4.761
 7600TIP3    H222758   7.460   3.988   4.721
 7601TIP3   OH222759   7.363   1.143   2.739
 7601TIP3    H122760   7.446   1.164   2.696
 7601TIP3    H222761   7.299   1.198   2.694
 7602TIP3   OH222762   6.333   5.681   6.117
 7602TIP3    H122763   6.302   5.639   6.198
 7602TIP3    H222764   6.258   5.674   6.058
 7603TIP3   OH222765   0.997   0.324   4.656
 7603TIP3    H122766   1.015   0.296   4.566
 7603TIP3    H222767   0.935   0.397   4.646
 7604TIP3   OH222768   5.534   7.486   5.105
 7604TIP3    H122769   5.450   7.456   5.140
 7604TIP3    H222770   5.599   7.428   5.146
 7605TIP3   OH222771   2.098   3.384   4.176
 7605TIP3    H122772   2.183   3.387   4.219
 7605TIP3    H222773   2.111   3.326   4.101
 7606TIP3   OH222774   2.061   5.538   1.303
 7606TIP3    H122775   2.077   5.602   1.234
 7606TIP3    H222776   2.069   5.589   1.384
 7607TIP3   OH222777   5.658   7.332   0.049
 7607TIP3    H122778   5.704   7.287   0.120
 7607TIP3    H222779   5.652   7.423   0.078
 7608TIP3   OH222780   7.625   4.230   2.569
 7608TIP3    H122781   7.618   4.209   2.476
 7608TIP3    H222782   7.688   4.166   2.603
 7609TIP3   OH222783   6.537   5.217   2.044
 7609TIP3    H122784   6.576   5.139   2.007
 7609TIP3    H222785   6.606   5.283   2.040
 7610TIP3   OH222786   1.134   5.521   3.343
 7610TIP3    H122787   1.154   5.583   3.273
 7610TIP3    H222788   1.210   5.525   3.401
 7611TIP3   OH222789   7.149   4.860   3.207
 7611TIP3    H122790   7.124   4.944   3.244
 7611TIP3    H222791   7.083   4.843   3.139
 7612TIP3   OH222792   0.103   2.770   3.076
 7612TIP3    H122793   0.067   2.760   2.988
 7612TIP3    H222794   0.079   2.689   3.122
 7613TIP3   OH222795   4.625   1.531   6.002
 7613TIP3    H122796   4.556   1.498   6.059
 7613TIP3    H222797   4.616   1.627   6.006
 7614TIP3   OH222798   1.256   0.614   5.795
 7614TIP3    H122799   1.324   0.653   5.740
 7614TIP3    H222800   1.198   0.687   5.817
 7615TIP3   OH222801   2.233   6.026   0.249
 7615TIP3    H122802   2.262   5.942   0.285
 7615TIP3    H222803   2.179   6.002   0.174
 7616TIP3   OH222804   0.018   4.039   0.299
 7616TIP3    H122805  -0.037   3.964   0.319
 7616TIP3    H222806   0.108   4.004   0.304
 7617TIP3   OH222807   4.281   3.469   0.780
 7617TIP3    H122808   4.277   3.437   0.690
 7617TIP3    H222809   4.374   3.463   0.803
 7618TIP3   OH222810   2.333   3.160   4.159
 7618TIP3    H122811   2.336   3.122   4.071
 7618TIP3    H222812   2.393   3.234   4.155
 7619TIP3   OH222813   6.264   6.273   5.729
 7619TIP3    H122814   6.246   6.239   5.642
 7619TIP3    H222815   6.318   6.206   5.771
 7620TIP3   OH222816   4.076   3.073   6.755
 7620TIP3    H122817   3.986   3.105   6.754
 7620TIP3    H222818   4.106   3.081   6.665
 7621TIP3   OH222819   8.267   4.880   5.530
 7621TIP3    H122820   8.194   4.887   5.469
 7621TIP3    H222821   8.238   4.816   5.595
 7622TIP3   OH222822   7.181   1.509   5.921
 7622TIP3    H122823   7.258   1.452   5.932
 7622TIP3    H222824   7.113   1.451   5.888
 7623TIP3   OH222825   8.064   0.065   3.929
 7623TIP3    H122826   8.158   0.077   3.916
 7623TIP3    H222827   8.027   0.153   3.926
 7624TIP3   OH222828   5.463   4.172   2.455
 7624TIP3    H122829   5.544   4.147   2.410
 7624TIP3    H222830   5.417   4.228   2.392
 7625TIP3   OH222831   7.679   5.623   2.667
 7625TIP3    H122832   7.695   5.717   2.675
 7625TIP3    H222833   7.611   5.616   2.600
 7626TIP3   OH222834   2.381   5.913   2.337
 7626TIP3    H122835   2.314   5.926   2.404
 7626TIP3    H222836   2.343   5.952   2.258
 7627TIP3   OH222837   6.044   6.635   0.638
 7627TIP3    H122838   5.990   6.567   0.678
 7627TIP3    H222839   5.999   6.717   0.660
 7628TIP3   OH222840   5.816   0.636   4.773
 7628TIP3    H122841   5.813   0.731   4.770
 7628TIP3    H222842   5.770   0.613   4.854
 7629TIP3   OH222843   2.834   0.248   6.410
 7629TIP3    H122844   2.752   0.294   6.427
 7629TIP3    H222845   2.866   0.285   6.328
 7630TIP3   OH222846   7.408   5.269   2.376
 7630TIP3    H122847   7.413   5.251   2.470
 7630TIP3    H222848   7.493   5.308   2.354
 7631TIP3   OH222849   3.858   2.640   5.918
 7631TIP3    H122850   3.868   2.563   5.974
 7631TIP3    H222851   3.791   2.616   5.855
 7632TIP3   OH222852   3.226   1.414   3.408
 7632TIP3    H122853   3.268   1.377   3.331
 7632TIP3    H222854   3.133   1.397   3.394
 7633TIP3   OH222855   4.465   7.493   4.796
 7633TIP3    H122856   4.523   7.443   4.738
 7633TIP3    H222857   4.505   7.580   4.801
 7634TIP3   OH222858   4.746   5.333   2.136
 7634TIP3    H122859   4.734   5.411   2.082
 7634TIP3    H222860   4.661   5.290   2.136
 7635TIP3   OH222861   2.658   7.111   0.727
 7635TIP3    H122862   2.623   7.190   0.768
 7635TIP3    H222863   2.643   7.042   0.792
 7636TIP3   OH222864   0.865   0.998   2.363
 7636TIP3    H122865   0.951   0.955   2.361
 7636TIP3    H222866   0.886   1.091   2.355
 7637TIP3   OH222867   5.721   6.211   1.125
 7637TIP3    H122868   5.772   6.131   1.113
 7637TIP3    H222869   5.755   6.250   1.206
 7638TIP3   OH222870   6.244   4.621   0.719
 7638TIP3    H122871   6.235   4.545   0.662
 7638TIP3    H222872   6.158   4.630   0.761
 7639TIP3   OH222873   5.432   5.971   0.662
 7639TIP3    H122874   5.395   5.883   0.653
 7639TIP3    H222875   5.404   6.000   0.748
 7640TIP3   OH222876   6.306   3.885   2.340
 7640TIP3    H122877   6.384   3.941   2.347
 7640TIP3    H222878   6.235   3.939   2.373
 7641TIP3   OH222879   1.816   4.047   4.721
 7641TIP3    H122880   1.792   3.973   4.665
 7641TIP3    H222881   1.755   4.117   4.696
 7642TIP3   OH222882   0.781   2.956   4.581
 7642TIP3    H122883   0.694   2.949   4.621
 7642TIP3    H222884   0.797   3.050   4.572
 7643TIP3   OH222885   1.473   7.170   6.615
 7643TIP3    H122886   1.458   7.218   6.696
 7643TIP3    H222887   1.533   7.225   6.565
 7644TIP3   OH222888   4.202   1.907   1.070
 7644TIP3    H122889   4.190   1.845   0.998
 7644TIP3    H222890   4.130   1.888   1.130
 7645TIP3   OH222891   4.704   4.342   0.198
 7645TIP3    H122892   4.718   4.250   0.219
 7645TIP3    H222893   4.613   4.347   0.169
 7646TIP3   OH222894   3.018   5.093   0.718
 7646TIP3    H122895   2.989   5.150   0.789
 7646TIP3    H222896   3.075   5.029   0.761
 7647TIP3   OH222897   3.807   3.671   6.505
 7647TIP3    H122898   3.835   3.597   6.558
 7647TIP3    H222899   3.849   3.658   6.420
 7648TIP3   OH222900   1.633   0.195   6.677
 7648TIP3    H122901   1.626   0.104   6.706
 7648TIP3    H222902   1.561   0.205   6.615
 7649TIP3   OH222903   7.159   7.701   5.062
 7649TIP3    H122904   7.075   7.711   5.105
 7649TIP3    H222905   7.223   7.731   5.126
 7650TIP3   OH222906   5.196   3.656   5.729
 7650TIP3    H122907   5.168   3.602   5.803
 7650TIP3    H222908   5.286   3.629   5.713
 7651TIP3   OH222909   8.117   1.320   6.311
 7651TIP3    H122910   8.111   1.333   6.216
 7651TIP3    H222911   8.198   1.364   6.336
 7652TIP3   OH222912   2.164   4.741   1.036
 7652TIP3    H122913   2.155   4.819   0.981
 7652TIP3    H222914   2.079   4.733   1.080
 7653TIP3   OH222915   1.814   1.281   5.599
 7653TIP3    H122916   1.777   1.220   5.535
 7653TIP3    H222917   1.814   1.366   5.555
 7654TIP3   OH222918   3.843   6.031   4.803
 7654TIP3    H122919   3.911   5.988   4.855
 7654TIP3    H222920   3.830   5.972   4.729
 7655TIP3   OH222921   4.043   7.064   1.275
 7655TIP3    H122922   4.014   7.143   1.319
 7655TIP3    H222923   4.105   7.023   1.336
 7656TIP3   OH222924   1.657   1.017   3.457
 7656TIP3    H122925   1.564   1.019   3.432
 7656TIP3    H222926   1.680   1.109   3.471
 7657TIP3   OH222927   0.446   3.471   0.372
 7657TIP3    H122928   0.485   3.461   0.459
 7657TIP3    H222929   0.373   3.409   0.371
 7658TIP3   OH222930   4.348   1.001   0.491
 7658TIP3    H122931   4.374   0.913   0.464
 7658TIP3    H222932   4.428   1.054   0.482
 7659TIP3   OH222933   0.621   4.276   0.886
 7659TIP3    H122934   0.562   4.248   0.956
 7659TIP3    H222935   0.606   4.213   0.816
 7660TIP3   OH222936   6.325   5.023   2.030
 7660TIP3    H122937   6.374   5.104   2.046
 7660TIP3    H222938   6.313   5.020   1.936
 7661TIP3   OH222939   1.224   5.610   4.635
 7661TIP3    H122940   1.206   5.649   4.550
 7661TIP3    H222941   1.207   5.517   4.624
 7662TIP3   OH222942   4.139   0.780   3.477
 7662TIP3    H122943   4.076   0.842   3.440
 7662TIP3    H222944   4.090   0.699   3.487
 7663TIP3   OH222945   7.071   0.538   6.532
 7663TIP3    H122946   7.143   0.525   6.593
 7663TIP3    H222947   7.113   0.556   6.448
 7664TIP3   OH222948   7.402   0.404   2.379
 7664TIP3    H122949   7.369   0.478   2.329
 7664TIP3    H222950   7.488   0.386   2.342
 7665TIP3   OH222951   4.120   4.831   0.167
 7665TIP3    H122952   4.151   4.764   0.228
 7665TIP3    H222953   4.074   4.894   0.223
 7666TIP3   OH222954   0.763   3.787   3.663
 7666TIP3    H122955   0.813   3.709   3.637
 7666TIP3    H222956   0.796   3.808   3.751
 7667TIP3   OH222957   6.481   2.467   5.200
 7667TIP3    H122958   6.521   2.380   5.198
 7667TIP3    H222959   6.472   2.492   5.108
 7668TIP3   OH222960   2.054   6.419   2.508
 7668TIP3    H122961   2.017   6.506   2.494
 7668TIP3    H222962   2.038   6.401   2.601
 7669TIP3   OH222963   4.758   5.633   6.630
 7669TIP3    H122964   4.684   5.693   6.626
 7669TIP3    H222965   4.744   5.572   6.558
 7670TIP3   OH222966   3.843   0.669   4.661
 7670TIP3    H122967   3.904   0.736   4.693
 7670TIP3    H222968   3.898   0.611   4.609
 7671TIP3   OH222969   1.356   7.278   4.344
 7671TIP3    H122970   1.447   7.250   4.352
 7671TIP3    H222971   1.360   7.370   4.320
 7672TIP3   OH222972   0.863   3.549   4.804
 7672TIP3    H122973   0.951   3.517   4.787
 7672TIP3    H222974   0.870   3.644   4.794
 7673TIP3   OH222975   5.816   2.658   4.080
 7673TIP3    H122976   5.894   2.645   4.135
 7673TIP3    H222977   5.815   2.752   4.061
 7674TIP3   OH222978   4.770   5.975   5.051
 7674TIP3    H122979   4.790   5.970   4.957
 7674TIP3    H222980   4.700   6.040   5.057
 7675TIP3   OH222981   7.342   2.976   1.640
 7675TIP3    H122982   7.370   2.958   1.729
 7675TIP3    H222983   7.266   3.033   1.649
 7676TIP3   OH222984   1.133   3.265   5.551
 7676TIP3    H122985   1.224   3.290   5.532
 7676TIP3    H222986   1.130   3.258   5.647
 7677TIP3   OH222987   1.741   4.833   4.945
 7677TIP3    H122988   1.742   4.908   4.886
 7677TIP3    H222989   1.831   4.827   4.978
 7678TIP3   OH222990   5.157   7.491   2.947
 7678TIP3    H122991   5.252   7.486   2.935
 7678TIP3    H222992   5.137   7.426   3.015
 7679TIP3   OH222993   7.869   6.745   4.757
 7679TIP3    H122994   7.850   6.769   4.667
 7679TIP3    H222995   7.961   6.718   4.755
 7680TIP3   OH222996   3.518   2.479   0.319
 7680TIP3    H122997   3.496   2.569   0.344
 7680TIP3    H222998   3.460   2.424   0.371
 7681TIP3   OH222999   2.219   2.073   1.974
 7681TIP3    H123000   2.202   1.983   1.945
 7681TIP3    H223001   2.187   2.076   2.064
 7682TIP3   OH223002   2.737   0.608   5.197
 7682TIP3    H123003   2.798   0.674   5.162
 7682TIP3    H223004   2.771   0.525   5.165
 7683TIP3   OH223005   8.247   6.296   0.881
 7683TIP3    H123006   8.191   6.318   0.806
 7683TIP3    H223007   8.185   6.276   0.952
 7684TIP3   OH223008   3.587   2.792   6.559
 7684TIP3    H123009   3.498   2.758   6.548
 7684TIP3    H223010   3.578   2.887   6.555
 7685TIP3   OH223011   4.784   2.437   2.339
 7685TIP3    H123012   4.699   2.422   2.299
 7685TIP3    H223013   4.789   2.531   2.352
 7686TIP3   OH223014   5.011   5.840   1.361
 7686TIP3    H123015   5.037   5.768   1.419
 7686TIP3    H223016   4.951   5.801   1.298
 7687TIP3   OH223017   5.121   5.867   0.409
 7687TIP3    H123018   5.214   5.849   0.421
 7687TIP3    H223019   5.077   5.786   0.434
 7688TIP3   OH223020   4.877   6.796   4.567
 7688TIP3    H123021   4.805   6.810   4.628
 7688TIP3    H223022   4.950   6.766   4.622
 7689TIP3   OH223023   4.891   2.530   6.366
 7689TIP3    H123024   4.823   2.598   6.372
 7689TIP3    H223025   4.905   2.518   6.272
 7690TIP3   OH223026   6.196   2.930   1.739
 7690TIP3    H123027   6.173   3.023   1.745
 7690TIP3    H223028   6.273   2.921   1.795
 7691TIP3   OH223029   4.851   6.389   1.146
 7691TIP3    H123030   4.822   6.324   1.210
 7691TIP3    H223031   4.828   6.353   1.061
 7692TIP3   OH223032   7.853   7.377   3.128
 7692TIP3    H123033   7.911   7.339   3.062
 7692TIP3    H223034   7.765   7.355   3.098
 7693TIP3   OH223035   0.488   5.873   1.769
 7693TIP3    H123036   0.493   5.957   1.724
 7693TIP3    H223037   0.397   5.845   1.758
 7694TIP3   OH223038   0.808   3.104   3.943
 7694TIP3    H123039   0.871   3.075   3.876
 7694TIP3    H223040   0.770   3.184   3.907
 7695TIP3   OH223041   1.831   3.078   5.781
 7695TIP3    H123042   1.744   3.113   5.765
 7695TIP3    H223043   1.864   3.129   5.855
 7696TIP3   OH223044   6.105   2.375   1.594
 7696TIP3    H123045   6.051   2.345   1.668
 7696TIP3    H223046   6.045   2.426   1.540
 7697TIP3   OH223047   0.083   2.488   3.855
 7697TIP3    H123048   0.031   2.470   3.934
 7697TIP3    H223049   0.078   2.407   3.804
 7698TIP3   OH223050   3.135   7.008   2.935
 7698TIP3    H123051   3.183   7.017   2.853
 7698TIP3    H223052   3.202   7.014   3.003
 7699TIP3   OH223053   8.033   3.351   5.967
 7699TIP3    H123054   8.042   3.434   5.921
 7699TIP3    H223055   8.013   3.375   6.057
 7700TIP3   OH223056   7.023   5.703   1.216
 7700TIP3    H123057   6.955   5.742   1.161
 7700TIP3    H223058   7.040   5.769   1.283
 7701TIP3   OH223059   6.928   0.815   4.822
 7701TIP3    H123060   6.913   0.820   4.728
 7701TIP3    H223061   6.992   0.885   4.839
 7702TIP3   OH223062   7.023   1.635   4.945
 7702TIP3    H123063   7.052   1.724   4.965
 7702TIP3    H223064   7.019   1.632   4.849
 7703TIP3   OH223065   0.828   1.006   0.751
 7703TIP3    H123066   0.855   1.091   0.787
 7703TIP3    H223067   0.779   1.028   0.672
 7704TIP3   OH223068   1.071   0.412   5.880
 7704TIP3    H123069   1.120   0.488   5.848
 7704TIP3    H223070   0.983   0.423   5.843
 7705TIP3   OH223071   0.438   4.850   0.818
 7705TIP3    H123072   0.363   4.843   0.877
 7705TIP3    H223073   0.514   4.847   0.876
 7706TIP3   OH223074   5.526   4.439   2.714
 7706TIP3    H123075   5.608   4.444   2.665
 7706TIP3    H223076   5.458   4.431   2.648
 7707TIP3   OH223077   4.830   0.567   2.979
 7707TIP3    H123078   4.900   0.504   2.993
 7707TIP3    H223079   4.871   0.639   2.930
 7708TIP3   OH223080   7.648   1.207   5.118
 7708TIP3    H123081   7.606   1.293   5.128
 7708TIP3    H223082   7.689   1.211   5.031
 7709TIP3   OH223083   0.243   5.460   4.883
 7709TIP3    H123084   0.271   5.373   4.912
 7709TIP3    H223085   0.157   5.472   4.924
 7710TIP3   OH223086   5.841   4.038   3.587
 7710TIP3    H123087   5.797   3.953   3.596
 7710TIP3    H223088   5.857   4.047   3.493
 7711TIP3   OH223089   0.936   0.330   3.134
 7711TIP3    H123090   1.024   0.310   3.164
 7711TIP3    H223091   0.925   0.280   3.054
 7712TIP3   OH223092   2.400   3.110   0.834
 7712TIP3    H123093   2.487   3.119   0.796
 7712TIP3    H223094   2.366   3.027   0.798
 7713TIP3   OH223095   7.310   1.665   3.958
 7713TIP3    H123096   7.311   1.570   3.942
 7713TIP3    H223097   7.368   1.676   4.034
 7714TIP3   OH223098   6.512   3.608   5.688
 7714TIP3    H123099   6.560   3.641   5.612
 7714TIP3    H223100   6.563   3.532   5.718
 7715TIP3   OH223101   8.087   7.640   2.379
 7715TIP3    H123102   8.036   7.559   2.385
 7715TIP3    H223103   8.170   7.620   2.422
 7716TIP3   OH223104   1.870   2.532   4.308
 7716TIP3    H123105   1.951   2.504   4.351
 7716TIP3    H223106   1.815   2.453   4.309
 7717TIP3   OH223107   6.433   1.071   3.112
 7717TIP3    H123108   6.523   1.097   3.091
 7717TIP3    H223109   6.378   1.134   3.065
 7718TIP3   OH223110   3.056   0.126   5.863
 7718TIP3    H123111   3.017   0.128   5.950
 7718TIP3    H223112   3.149   0.113   5.878
 7719TIP3   OH223113   3.647   3.417   0.750
 7719TIP3    H123114   3.709   3.490   0.744
 7719TIP3    H223115   3.675   3.368   0.828
 7720TIP3   OH223116   0.424   5.066   6.286
 7720TIP3    H123117   0.345   5.062   6.341
 7720TIP3    H223118   0.453   4.975   6.280
 7721TIP3   OH223119   6.738   7.325   5.039
 7721TIP3    H123120   6.711   7.307   4.949
 7721TIP3    H223121   6.825   7.363   5.031
 7722TIP3   OH223122   3.373   4.230   3.580
 7722TIP3    H123123   3.297   4.183   3.547
 7722TIP3    H223124   3.445   4.202   3.523
 7723TIP3   OH223125   2.389   6.095   6.643
 7723TIP3    H123126   2.447   6.048   6.584
 7723TIP3    H223127   2.411   6.061   6.730
 7724TIP3   OH223128   0.906   4.015   5.857
 7724TIP3    H123129   0.861   4.024   5.941
 7724TIP3    H223130   0.894   4.100   5.814
 7725TIP3   OH223131   0.296   3.980   2.877
 7725TIP3    H123132   0.344   3.950   2.954
 7725TIP3    H223133   0.322   3.919   2.808
 7726TIP3   OH223134   6.831   5.448   4.732
 7726TIP3    H123135   6.890   5.486   4.667
 7726TIP3    H223136   6.745   5.452   4.691
 7727TIP3   OH223137   5.542   6.398   3.520
 7727TIP3    H123138   5.530   6.483   3.478
 7727TIP3    H223139   5.455   6.358   3.519
 7728TIP3   OH223140   0.414   3.553   5.810
 7728TIP3    H123141   0.441   3.508   5.729
 7728TIP3    H223142   0.325   3.521   5.826
 7729TIP3   OH223143   6.746   2.257   2.011
 7729TIP3    H123144   6.790   2.200   2.074
 7729TIP3    H223145   6.686   2.199   1.964
 7730TIP3   OH223146   4.323   6.827   4.749
 7730TIP3    H123147   4.325   6.838   4.844
 7730TIP3    H223148   4.235   6.856   4.724
 7731TIP3   OH223149   2.544   0.321   0.995
 7731TIP3    H123150   2.617   0.378   1.017
 7731TIP3    H223151   2.549   0.313   0.899
 7732TIP3   OH223152   0.613   4.664   2.009
 7732TIP3    H123153   0.646   4.582   2.046
 7732TIP3    H223154   0.629   4.729   2.078
 7733TIP3   OH223155   7.434   1.380   5.930
 7733TIP3    H123156   7.433   1.356   5.838
 7733TIP3    H223157   7.486   1.312   5.973
 7734TIP3   OH223158   5.446   5.271   2.678
 7734TIP3    H123159   5.426   5.364   2.693
 7734TIP3    H223160   5.371   5.238   2.629
 7735TIP3   OH223161   2.282   2.643   1.320
 7735TIP3    H123162   2.204   2.698   1.324
 7735TIP3    H223163   2.355   2.705   1.310
 7736TIP3   OH223164   5.546   5.885   2.039
 7736TIP3    H123165   5.480   5.828   2.078
 7736TIP3    H223166   5.525   5.885   1.946
 7737TIP3   OH223167   2.077   2.472   3.068
 7737TIP3    H123168   2.165   2.463   3.032
 7737TIP3    H223169   2.027   2.517   2.999
 7738TIP3   OH223170   7.005   0.928   2.083
 7738TIP3    H123171   6.970   0.909   1.996
 7738TIP3    H223172   7.100   0.921   2.074
 7739TIP3   OH223173   0.200   5.604   5.415
 7739TIP3    H123174   0.182   5.670   5.482
 7739TIP3    H223175   0.274   5.555   5.449
 7740TIP3   OH223176   3.397   2.576   0.727
 7740TIP3    H123177   3.317   2.607   0.772
 7740TIP3    H223178   3.408   2.486   0.758
 7741TIP3   OH223179   7.112   0.007   3.190
 7741TIP3    H123180   7.122   0.021   3.284
 7741TIP3    H223181   7.061   0.082   3.160
 7742TIP3   OH223182   7.086   4.113   4.973
 7742TIP3    H123183   7.123   4.099   4.886
 7742TIP3    H223184   7.018   4.179   4.960
 7743TIP3   OH223185   1.769   4.672   5.897
 7743TIP3    H123186   1.732   4.595   5.940
 7743TIP3    H223187   1.704   4.741   5.912
 7744TIP3   OH223188   1.508   7.518   0.104
 7744TIP3    H123189   1.534   7.507   0.196
 7744TIP3    H223190   1.512   7.613   0.090
 7745TIP3   OH223191   1.482   4.895   1.953
 7745TIP3    H123192   1.410   4.839   1.926
 7745TIP3    H223193   1.559   4.857   1.911
 7746TIP3   OH223194   4.805   3.535   2.894
 7746TIP3    H123195   4.834   3.613   2.942
 7746TIP3    H223196   4.886   3.487   2.875
 7747TIP3   OH223197   1.217   7.801   2.851
 7747TIP3    H123198   1.142   7.744   2.866
 7747TIP3    H223199   1.290   7.757   2.895
 7748TIP3   OH223200   0.418   1.360   5.895
 7748TIP3    H123201   0.356   1.386   5.963
 7748TIP3    H223202   0.480   1.432   5.891
 7749TIP3   OH223203   1.211   7.420   5.796
 7749TIP3    H123204   1.137   7.368   5.763
 7749TIP3    H223205   1.219   7.492   5.734
 7750TIP3   OH223206   0.417   2.071   4.816
 7750TIP3    H123207   0.416   2.042   4.725
 7750TIP3    H223208   0.331   2.111   4.830
 7751TIP3   OH223209   3.600   5.813   0.554
 7751TIP3    H123210   3.579   5.903   0.527
 7751TIP3    H223211   3.516   5.777   0.584
 7752TIP3   OH223212   7.336   6.420   1.651
 7752TIP3    H123213   7.256   6.444   1.697
 7752TIP3    H223214   7.355   6.496   1.596
 7753TIP3   OH223215   4.728   3.786   0.925
 7753TIP3    H123216   4.822   3.774   0.913
 7753TIP3    H223217   4.689   3.744   0.848
 7754TIP3   OH223218   6.311   1.901   6.333
 7754TIP3    H123219   6.351   1.815   6.348
 7754TIP3    H223220   6.220   1.880   6.312
 7755TIP3   OH223221   0.977   2.701   0.278
 7755TIP3    H123222   1.069   2.706   0.249
 7755TIP3    H223223   0.971   2.762   0.351
 7756TIP3   OH223224   3.029   5.189   6.717
 7756TIP3    H123225   3.056   5.235   6.638
 7756TIP3    H223226   3.108   5.185   6.771
 7757TIP3   OH223227   0.955   5.834   3.275
 7757TIP3    H123228   0.866   5.800   3.278
 7757TIP3    H223229   0.976   5.857   3.365
 7758TIP3   OH223230   2.465   1.913   2.993
 7758TIP3    H123231   2.377   1.887   2.968
 7758TIP3    H223232   2.522   1.849   2.949
 7759TIP3   OH223233   2.271   5.512   4.712
 7759TIP3    H123234   2.294   5.483   4.801
 7759TIP3    H223235   2.329   5.461   4.655
 7760TIP3   OH223236   0.199   0.057   4.274
 7760TIP3    H123237   0.111   0.024   4.291
 7760TIP3    H223238   0.206   0.059   4.179
 7761TIP3   OH223239   4.536   3.513   2.809
 7761TIP3    H123240   4.474   3.480   2.873
 7761TIP3    H223241   4.621   3.481   2.839
 7762TIP3   OH223242   3.911   3.606   5.555
 7762TIP3    H123243   3.823   3.624   5.520
 7762TIP3    H223244   3.906   3.515   5.585
 7763TIP3   OH223245   3.256   1.821   2.339
 7763TIP3    H123246   3.334   1.843   2.390
 7763TIP3    H223247   3.184   1.865   2.385
 7764TIP3   OH223248   0.208   0.831   5.052
 7764TIP3    H123249   0.274   0.804   5.116
 7764TIP3    H223250   0.176   0.915   5.086
 7765TIP3   OH223251   7.046   6.128   0.185
 7765TIP3    H123252   7.079   6.215   0.165
 7765TIP3    H223253   7.076   6.111   0.274
 7766TIP3   OH223254   6.104   3.653   1.777
 7766TIP3    H123255   6.053   3.729   1.805
 7766TIP3    H223256   6.192   3.687   1.763
 7767TIP3   OH223257   6.694   5.819   4.665
 7767TIP3    H123258   6.683   5.737   4.617
 7767TIP3    H223259   6.669   5.797   4.755
 7768TIP3   OH223260   6.955   3.315   1.834
 7768TIP3    H123261   6.925   3.347   1.749
 7768TIP3    H223262   7.045   3.347   1.842
 7769TIP3   OH223263   3.302   5.134   4.534
 7769TIP3    H123264   3.314   5.056   4.587
 7769TIP3    H223265   3.217   5.168   4.560
 7770TIP3   OH223266   7.493   3.712   0.297
 7770TIP3    H123267   7.544   3.631   0.299
 7770TIP3    H223268   7.475   3.731   0.389
 7771TIP3   OH223269   3.208   0.532   3.987
 7771TIP3    H123270   3.224   0.524   4.081
 7771TIP3    H223271   3.268   0.469   3.946
 7772TIP3   OH223272   2.074   0.109   2.416
 7772TIP3    H123273   2.168   0.129   2.415
 7772TIP3    H223274   2.063   0.052   2.492
 7773TIP3   OH223275   0.997   7.770   4.415
 7773TIP3    H123276   0.923   7.831   4.415
 7773TIP3    H223277   1.012   7.749   4.507
 7774TIP3   OH223278   6.719   5.479   5.945
 7774TIP3    H123279   6.808   5.445   5.954
 7774TIP3    H223280   6.715   5.512   5.855
 7775TIP3   OH223281   6.148   5.587   3.204
 7775TIP3    H123282   6.066   5.611   3.247
 7775TIP3    H223283   6.149   5.491   3.206
 7776TIP3   OH223284   4.167   5.448   0.144
 7776TIP3    H123285   4.172   5.355   0.166
 7776TIP3    H223286   4.169   5.450   0.048
 7777TIP3   OH223287   3.329   4.530   3.051
 7777TIP3    H123288   3.263   4.576   3.103
 7777TIP3    H223289   3.381   4.600   3.010
 7778TIP3   OH223290   1.636   5.953   1.223
 7778TIP3    H123291   1.588   5.871   1.214
 7778TIP3    H223292   1.706   5.934   1.285
 7779TIP3   OH223293   2.802   6.907   3.105
 7779TIP3    H123294   2.817   6.820   3.069
 7779TIP3    H223295   2.707   6.917   3.104
 7780TIP3   OH223296   4.395   5.260   5.248
 7780TIP3    H123297   4.446   5.301   5.178
 7780TIP3    H223298   4.353   5.185   5.206
 7781TIP3   OH223299   0.786   1.488   3.342
 7781TIP3    H123300   0.851   1.531   3.398
 7781TIP3    H223301   0.811   1.512   3.253
 7782TIP3   OH223302   4.575   1.835   6.003
 7782TIP3    H123303   4.587   1.838   6.098
 7782TIP3    H223304   4.663   1.842   5.968
 7783TIP3   OH223305   2.082   1.931   6.537
 7783TIP3    H123306   2.040   1.889   6.463
 7783TIP3    H223307   2.173   1.903   6.533
 7784TIP3   OH223308   7.340   6.401   2.021
 7784TIP3    H123309   7.328   6.321   1.971
 7784TIP3    H223310   7.432   6.425   2.008
 7785TIP3   OH223311   7.348   1.046   0.087
 7785TIP3    H123312   7.407   1.105   0.134
 7785TIP3    H223313   7.384   0.959   0.103
 7786TIP3   OH223314   0.330   0.179   4.896
 7786TIP3    H123315   0.315   0.206   4.986
 7786TIP3    H223316   0.251   0.208   4.849
 7787TIP3   OH223317   7.798   7.805   1.575
 7787TIP3    H123318   7.720   7.837   1.530
 7787TIP3    H223319   7.867   7.808   1.508
 7788TIP3   OH223320   6.260   1.697   0.689
 7788TIP3    H123321   6.353   1.713   0.670
 7788TIP3    H223322   6.220   1.686   0.603
 7789TIP3   OH223323   2.301   3.088   3.360
 7789TIP3    H123324   2.240   3.084   3.286
 7789TIP3    H223325   2.319   3.182   3.370
 7790TIP3   OH223326   1.326   6.427   1.617
 7790TIP3    H123327   1.317   6.485   1.693
 7790TIP3    H223328   1.238   6.394   1.601
 7791TIP3   OH223329   7.075   0.642   4.086
 7791TIP3    H123330   7.051   0.648   3.993
 7791TIP3    H223331   7.163   0.605   4.085
 7792TIP3   OH223332   4.493   5.944   2.259
 7792TIP3    H123333   4.485   6.035   2.289
 7792TIP3    H223334   4.581   5.917   2.284
 7793TIP3   OH223335   2.118   3.450   4.579
 7793TIP3    H123336   2.031   3.491   4.577
 7793TIP3    H223337   2.179   3.524   4.578
 7794TIP3   OH223338   5.291   5.566   5.075
 7794TIP3    H123339   5.352   5.507   5.119
 7794TIP3    H223340   5.239   5.509   5.019
 7795TIP3   OH223341   1.496   0.077   1.705
 7795TIP3    H123342   1.470   0.136   1.635
 7795TIP3    H223343   1.448  -0.004   1.688
 7796TIP3   OH223344   6.940   3.868   0.437
 7796TIP3    H123345   7.007   3.936   0.431
 7796TIP3    H223346   6.950   3.817   0.356
 7797TIP3   OH223347   2.956   7.536   1.681
 7797TIP3    H123348   3.016   7.538   1.607
 7797TIP3    H223349   2.979   7.455   1.727
 7798TIP3   OH223350   4.394   0.455   2.164
 7798TIP3    H123351   4.390   0.527   2.101
 7798TIP3    H223352   4.321   0.399   2.141
 7799TIP3   OH223353   0.707   4.265   1.869
 7799TIP3    H123354   0.618   4.232   1.884
 7799TIP3    H223355   0.763   4.188   1.878
 7800TIP3   OH223356   2.733   1.968   1.919
 7800TIP3    H123357   2.644   1.994   1.939
 7800TIP3    H223358   2.779   2.050   1.899
 7801TIP3   OH223359   2.959   5.836   4.002
 7801TIP3    H123360   2.871   5.837   4.042
 7801TIP3    H223361   2.977   5.928   3.982
 7802TIP3   OH223362   5.454   1.394   6.371
 7802TIP3    H123363   5.501   1.382   6.288
 7802TIP3    H223364   5.378   1.448   6.349
 7803TIP3   OH223365   5.761   6.562   1.615
 7803TIP3    H123366   5.768   6.627   1.545
 7803TIP3    H223367   5.752   6.478   1.569
 7804TIP3   OH223368   2.649   5.112   5.196
 7804TIP3    H123369   2.638   5.147   5.107
 7804TIP3    H223370   2.656   5.017   5.183
 7805TIP3   OH223371   1.035   1.238   6.194
 7805TIP3    H123372   0.953   1.189   6.188
 7805TIP3    H223373   1.090   1.186   6.252
 7806TIP3   OH223374   2.187   7.346   6.150
 7806TIP3    H123375   2.199   7.281   6.082
 7806TIP3    H223376   2.096   7.337   6.177
 7807TIP3   OH223377   2.212   4.534   5.023
 7807TIP3    H123378   2.194   4.440   5.020
 7807TIP3    H223379   2.214   4.555   5.116
 7808TIP3   OH223380   3.315   1.047   2.693
 7808TIP3    H123381   3.382   1.112   2.717
 7808TIP3    H223382   3.315   0.985   2.767
 7809TIP3   OH223383   7.469   4.208   5.265
 7809TIP3    H123384   7.524   4.129   5.269
 7809TIP3    H223385   7.390   4.184   5.313
 7810TIP3   OH223386   2.032   3.545   2.592
 7810TIP3    H123387   1.967   3.612   2.571
 7810TIP3    H223388   2.115   3.592   2.591
 7811TIP3   OH223389   5.684   1.570   4.570
 7811TIP3    H123390   5.759   1.529   4.527
 7811TIP3    H223391   5.671   1.519   4.649
 7812TIP3   OH223392   6.342   3.682   4.276
 7812TIP3    H123393   6.342   3.762   4.224
 7812TIP3    H223394   6.346   3.712   4.367
 7813TIP3   OH223395   1.104   6.818   6.103
 7813TIP3    H123396   1.068   6.764   6.173
 7813TIP3    H223397   1.034   6.821   6.037
 7814TIP3   OH223398   2.329   1.555   6.139
 7814TIP3    H123399   2.395   1.497   6.102
 7814TIP3    H223400   2.263   1.497   6.175
 7815TIP3   OH223401   6.322   1.920   2.615
 7815TIP3    H123402   6.404   1.970   2.610
 7815TIP3    H223403   6.342   1.836   2.575
 7816TIP3   OH223404   6.510   6.129   2.770
 7816TIP3    H123405   6.481   6.041   2.746
 7816TIP3    H223406   6.605   6.123   2.774
 7817TIP3   OH223407   0.112   0.788   2.965
 7817TIP3    H123408   0.136   0.840   3.042
 7817TIP3    H223409   0.114   0.697   2.995
 7818TIP3   OH223410   7.537   3.721   4.249
 7818TIP3    H123411   7.619   3.671   4.243
 7818TIP3    H223412   7.468   3.656   4.234
 7819TIP3   OH223413   3.425   4.287   3.148
 7819TIP3    H123414   3.383   4.202   3.135
 7819TIP3    H223415   3.372   4.348   3.096
 7820TIP3   OH223416   2.625   0.108   3.993
 7820TIP3    H123417   2.568   0.056   3.936
 7820TIP3    H223418   2.576   0.188   4.011
 7821TIP3   OH223419   4.420   7.598   6.675
 7821TIP3    H123420   4.476   7.608   6.752
 7821TIP3    H223421   4.481   7.593   6.602
 7822TIP3   OH223422   5.277   6.952   2.817
 7822TIP3    H123423   5.361   6.942   2.772
 7822TIP3    H223424   5.272   6.876   2.875
 7823TIP3   OH223425   6.894   4.484   2.964
 7823TIP3    H123426   6.914   4.466   2.873
 7823TIP3    H223427   6.828   4.553   2.962
 7824TIP3   OH223428   8.057   1.023   4.521
 7824TIP3    H123429   8.043   1.083   4.594
 7824TIP3    H223430   8.149   0.997   4.529
 7825TIP3   OH223431   6.054   0.742   1.278
 7825TIP3    H123432   5.968   0.782   1.264
 7825TIP3    H223433   6.035   0.658   1.319
 7826TIP3   OH223434   0.658   2.818   5.965
 7826TIP3    H123435   0.717   2.864   5.906
 7826TIP3    H223436   0.570   2.843   5.936
 7827TIP3   OH223437   6.161   3.898   1.988
 7827TIP3    H123438   6.086   3.854   2.028
 7827TIP3    H223439   6.237   3.852   2.023
 7828TIP3   OH223440   4.022   3.595   4.136
 7828TIP3    H123441   4.061   3.513   4.167
 7828TIP3    H223442   4.008   3.646   4.216
 7829TIP3   OH223443   2.405   1.667   4.080
 7829TIP3    H123444   2.392   1.573   4.096
 7829TIP3    H223445   2.490   1.686   4.118
 7830TIP3   OH223446   4.076   0.667   1.700
 7830TIP3    H123447   4.123   0.585   1.689
 7830TIP3    H223448   4.022   0.654   1.778
 7831TIP3   OH223449   1.264   0.524   5.045
 7831TIP3    H123450   1.320   0.515   5.122
 7831TIP3    H223451   1.303   0.465   4.981
 7832TIP3   OH223452   3.158   1.925   0.569
 7832TIP3    H123453   3.199   1.962   0.647
 7832TIP3    H223454   3.091   1.989   0.544
 7833TIP3   OH223455   5.185   1.129   3.994
 7833TIP3    H123456   5.222   1.185   4.061
 7833TIP3    H223457   5.183   1.042   4.033
 7834TIP3   OH223458   1.863   3.277   0.500
 7834TIP3    H123459   1.817   3.274   0.583
 7834TIP3    H223460   1.938   3.219   0.512
 7835TIP3   OH223461   2.611   2.199   6.115
 7835TIP3    H123462   2.556   2.148   6.174
 7835TIP3    H223463   2.683   2.230   6.171
 7836TIP3   OH223464   3.362   2.512   1.359
 7836TIP3    H123465   3.441   2.562   1.342
 7836TIP3    H223466   3.291   2.576   1.353
 7837TIP3   OH223467   3.163   3.870   3.299
 7837TIP3    H123468   3.255   3.890   3.317
 7837TIP3    H223469   3.165   3.778   3.270
 7838TIP3   OH223470   2.522   6.936   3.909
 7838TIP3    H123471   2.539   6.901   3.822
 7838TIP3    H223472   2.540   6.863   3.968
 7839TIP3   OH223473   3.371   5.592   3.982
 7839TIP3    H123474   3.283   5.625   3.998
 7839TIP3    H223475   3.415   5.663   3.934
 7840TIP3   OH223476   3.131   3.142   4.809
 7840TIP3    H123477   3.106   3.223   4.852
 7840TIP3    H223478   3.054   3.119   4.756
 7841TIP3   OH223479   0.238   1.123   1.753
 7841TIP3    H123480   0.260   1.045   1.803
 7841TIP3    H223481   0.268   1.196   1.807
 7842TIP3   OH223482   5.466   6.598   4.987
 7842TIP3    H123483   5.533   6.540   5.023
 7842TIP3    H223484   5.507   6.685   4.988
 7843TIP3   OH223485   0.192   4.526   3.425
 7843TIP3    H123486   0.180   4.542   3.518
 7843TIP3    H223487   0.287   4.518   3.414
 7844TIP3   OH223488   4.932   3.974   6.751
 7844TIP3    H123489   4.902   3.898   6.701
 7844TIP3    H223490   4.993   3.938   6.815
 7845TIP3   OH223491   1.638   0.201   5.222
 7845TIP3    H123492   1.694   0.132   5.186
 7845TIP3    H223493   1.697   0.271   5.246
 7846TIP3   OH223494   3.034   3.957   5.915
 7846TIP3    H123495   3.052   4.022   5.984
 7846TIP3    H223496   3.121   3.930   5.885
 7847TIP3   OH223497   2.568   2.880   5.310
 7847TIP3    H123498   2.561   2.830   5.229
 7847TIP3    H223499   2.478   2.909   5.328
 7848TIP3   OH223500   2.280   0.717   3.481
 7848TIP3    H123501   2.230   0.742   3.559
 7848TIP3    H223502   2.219   0.731   3.408
 7849TIP3   OH223503   5.999   6.028   2.382
 7849TIP3    H123504   6.068   6.011   2.447
 7849TIP3    H223505   6.008   5.956   2.319
 7850TIP3   OH223506   1.562   1.351   1.895
 7850TIP3    H123507   1.487   1.405   1.919
 7850TIP3    H223508   1.552   1.271   1.947
 7851TIP3   OH223509   7.933   5.712   4.108
 7851TIP3    H123510   8.019   5.741   4.078
 7851TIP3    H223511   7.877   5.789   4.098
 7852TIP3   OH223512   0.826   6.268   2.212
 7852TIP3    H123513   0.807   6.330   2.142
 7852TIP3    H223514   0.756   6.281   2.276
 7853TIP3   OH223515   1.047   5.059   1.350
 7853TIP3    H123516   1.126   5.065   1.403
 7853TIP3    H223517   1.031   4.964   1.342
 7854TIP3   OH223518   2.084   5.983   6.224
 7854TIP3    H123519   2.069   5.971   6.131
 7854TIP3    H223520   2.134   5.906   6.251
 7855TIP3   OH223521   0.164   3.580   0.045
 7855TIP3    H123522   0.169   3.497  -0.004
 7855TIP3    H223523   0.071   3.604   0.043
 7856TIP3   OH223524   2.822   6.465   1.835
 7856TIP3    H123525   2.754   6.441   1.773
 7856TIP3    H223526   2.776   6.477   1.918
 7857TIP3   OH223527   5.773   7.352   1.200
 7857TIP3    H123528   5.703   7.411   1.173
 7857TIP3    H223529   5.821   7.401   1.267
 7858TIP3   OH223530   1.574   5.073   4.441
 7858TIP3    H123531   1.654   5.124   4.426
 7858TIP3    H223532   1.532   5.069   4.355
 7859TIP3   OH223533   4.920   4.832   5.424
 7859TIP3    H123534   4.888   4.920   5.445
 7859TIP3    H223535   4.954   4.840   5.335
 7860TIP3   OH223536   2.208   6.386   1.471
 7860TIP3    H123537   2.155   6.428   1.403
 7860TIP3    H223538   2.150   6.381   1.547
 7861TIP3   OH223539   5.015   2.399   4.811
 7861TIP3    H123540   4.949   2.443   4.757
 7861TIP3    H223541   5.014   2.308   4.779
 7862TIP3   OH223542   2.007   3.350   3.507
 7862TIP3    H123543   2.082   3.299   3.539
 7862TIP3    H223544   1.968   3.388   3.587
 7863TIP3   OH223545   0.923   6.209   1.836
 7863TIP3    H123546   0.937   6.186   1.927
 7863TIP3    H223547   0.828   6.222   1.829
 7864TIP3   OH223548   6.965   6.253   0.962
 7864TIP3    H123549   6.977   6.186   0.895
 7864TIP3    H223550   6.870   6.256   0.977
 7865TIP3   OH223551   3.824   5.671   0.597
 7865TIP3    H123552   3.867   5.681   0.512
 7865TIP3    H223553   3.742   5.720   0.589
 7866TIP3   OH223554   6.450   1.106   6.590
 7866TIP3    H123555   6.537   1.070   6.606
 7866TIP3    H223556   6.421   1.063   6.509
 7867TIP3   OH223557   3.341   0.636   1.903
 7867TIP3    H123558   3.393   0.558   1.922
 7867TIP3    H223559   3.282   0.644   1.978
 7868TIP3   OH223560   4.658   1.430   5.006
 7868TIP3    H123561   4.746   1.438   4.968
 7868TIP3    H223562   4.598   1.449   4.933
 7869TIP3   OH223563   2.227   4.507   1.538
 7869TIP3    H123564   2.316   4.481   1.562
 7869TIP3    H223565   2.239   4.587   1.487
 7870TIP3   OH223566   1.222   4.243   6.282
 7870TIP3    H123567   1.153   4.212   6.223
 7870TIP3    H223568   1.280   4.294   6.226
 7871TIP3   OH223569   5.187   5.931   5.742
 7871TIP3    H123570   5.188   6.001   5.808
 7871TIP3    H223571   5.215   5.974   5.661
 7872TIP3   OH223572   7.550   3.697   6.214
 7872TIP3    H123573   7.476   3.714   6.155
 7872TIP3    H223574   7.511   3.657   6.291
 7873TIP3   OH223575   5.839   7.207   5.771
 7873TIP3    H123576   5.803   7.153   5.841
 7873TIP3    H223577   5.762   7.240   5.724
 7874TIP3   OH223578   1.312   7.363   6.444
 7874TIP3    H123579   1.397   7.321   6.432
 7874TIP3    H223580   1.333   7.447   6.486
 7875TIP3   OH223581   4.416   1.500   6.743
 7875TIP3    H123582   4.402   1.445   6.820
 7875TIP3    H223583   4.450   1.440   6.677
 7876TIP3   OH223584   1.847   7.449   6.382
 7876TIP3    H123585   1.802   7.532   6.365
 7876TIP3    H223586   1.879   7.421   6.296
 7877TIP3   OH223587   6.602   7.667   3.434
 7877TIP3    H123588   6.589   7.630   3.346
 7877TIP3    H223589   6.562   7.753   3.429
 7878TIP3   OH223590   0.378   7.391   4.552
 7878TIP3    H123591   0.467   7.412   4.525
 7878TIP3    H223592   0.323   7.434   4.487
 7879TIP3   OH223593   5.868   5.542   2.081
 7879TIP3    H123594   5.781   5.520   2.048
 7879TIP3    H223595   5.875   5.495   2.164
 7880TIP3   OH223596   6.194   7.177   5.423
 7880TIP3    H123597   6.260   7.238   5.456
 7880TIP3    H223598   6.111   7.209   5.460
 7881TIP3   OH223599   3.471   1.438   5.653
 7881TIP3    H123600   3.529   1.425   5.729
 7881TIP3    H223601   3.526   1.418   5.577
 7882TIP3   OH223602   5.714   7.098   1.352
 7882TIP3    H123603   5.802   7.066   1.371
 7882TIP3    H223604   5.728   7.187   1.320
 7883TIP3   OH223605   5.829   7.596   2.769
 7883TIP3    H123606   5.918   7.599   2.732
 7883TIP3    H223607   5.807   7.503   2.771
 7884TIP3   OH223608   7.918   2.778   3.657
 7884TIP3    H123609   7.953   2.775   3.746
 7884TIP3    H223610   7.914   2.871   3.636
 7885TIP3   OH223611   2.546   7.531   4.341
 7885TIP3    H123612   2.639   7.523   4.322
 7885TIP3    H223613   2.504   7.470   4.280
 7886TIP3   OH223614   4.478   0.308   3.304
 7886TIP3    H123615   4.412   0.358   3.352
 7886TIP3    H223616   4.549   0.297   3.366
 7887TIP3   OH223617   7.715   5.907   6.548
 7887TIP3    H123618   7.621   5.921   6.556
 7887TIP3    H223619   7.723   5.829   6.493
 7888TIP3   OH223620   7.880   4.559   5.109
 7888TIP3    H123621   7.878   4.550   5.013
 7888TIP3    H223622   7.792   4.535   5.138
 7889TIP3   OH223623   4.098   4.472   2.254
 7889TIP3    H123624   4.112   4.447   2.345
 7889TIP3    H223625   4.105   4.568   2.254
 7890TIP3   OH223626   0.022   1.396   5.935
 7890TIP3    H123627  -0.011   1.482   5.959
 7890TIP3    H223628   0.037   1.400   5.841
 7891TIP3   OH223629   5.817   5.226   0.791
 7891TIP3    H123630   5.726   5.235   0.765
 7891TIP3    H223631   5.841   5.137   0.765
 7892TIP3   OH223632   5.990   2.938   1.521
 7892TIP3    H123633   6.023   2.997   1.453
 7892TIP3    H223634   6.041   2.961   1.599
 7893TIP3   OH223635   5.752   7.109   6.312
 7893TIP3    H123636   5.751   7.016   6.335
 7893TIP3    H223637   5.661   7.129   6.290
 7894TIP3   OH223638   3.173   3.512   2.379
 7894TIP3    H123639   3.159   3.549   2.467
 7894TIP3    H223640   3.244   3.564   2.342
 7895TIP3   OH223641   5.511   3.226   0.070
 7895TIP3    H123642   5.583   3.169   0.097
 7895TIP3    H223643   5.433   3.172   0.077
 7896TIP3   OH223644   7.549   3.147  -0.001
 7896TIP3    H123645   7.458   3.117   0.003
 7896TIP3    H223646   7.585   3.124   0.085
 7897TIP3   OH223647   2.820   5.612   3.779
 7897TIP3    H123648   2.724   5.615   3.783
 7897TIP3    H223649   2.847   5.581   3.865
 7898TIP3   OH223650   2.889   4.328   1.349
 7898TIP3    H123651   2.852   4.280   1.275
 7898TIP3    H223652   2.815   4.345   1.406
 7899TIP3   OH223653   4.566   4.217   4.730
 7899TIP3    H123654   4.493   4.255   4.780
 7899TIP3    H223655   4.617   4.169   4.795
 7900TIP3   OH223656   6.794   7.041   5.967
 7900TIP3    H123657   6.836   7.114   6.013
 7900TIP3    H223658   6.865   6.995   5.924
 7901TIP3   OH223659   7.650   0.164   5.240
 7901TIP3    H123660   7.593   0.130   5.308
 7901TIP3    H223661   7.718   0.097   5.230
 7902TIP3   OH223662   8.016   0.278   6.387
 7902TIP3    H123663   8.064   0.347   6.433
 7902TIP3    H223664   7.983   0.321   6.308
 7903TIP3   OH223665   0.856   4.579   4.152
 7903TIP3    H123666   0.774   4.539   4.181
 7903TIP3    H223667   0.918   4.506   4.149
 7904TIP3   OH223668   1.996   6.877   1.465
 7904TIP3    H123669   1.918   6.907   1.512
 7904TIP3    H223670   2.032   6.956   1.425
 7905TIP3   OH223671   4.759   2.090   2.149
 7905TIP3    H123672   4.820   2.016   2.149
 7905TIP3    H223673   4.809   2.163   2.113
 7906TIP3   OH223674   1.644   0.921   6.484
 7906TIP3    H123675   1.739   0.911   6.492
 7906TIP3    H223676   1.609   0.885   6.565
 7907TIP3   OH223677   3.728   2.321   3.463
 7907TIP3    H123678   3.722   2.328   3.559
 7907TIP3    H223679   3.686   2.401   3.431
 7908TIP3   OH223680   5.280   4.330   4.498
 7908TIP3    H123681   5.199   4.285   4.522
 7908TIP3    H223682   5.327   4.341   4.580
 7909TIP3   OH223683   0.615   1.048   3.966
 7909TIP3    H123684   0.709   1.048   3.952
 7909TIP3    H223685   0.584   1.129   3.926
 7910TIP3   OH223686   6.254   1.587   0.331
 7910TIP3    H123687   6.171   1.541   0.341
 7910TIP3    H223688   6.254   1.617   0.240
 7911TIP3   OH223689   8.067   0.161   2.829
 7911TIP3    H123690   7.985   0.208   2.845
 7911TIP3    H223691   8.131   0.230   2.810
 7912TIP3   OH223692   7.617   1.260   6.098
 7912TIP3    H123693   7.585   1.325   6.161
 7912TIP3    H223694   7.708   1.284   6.082
 7913TIP3   OH223695   5.397   6.471   2.969
 7913TIP3    H123696   5.307   6.459   2.938
 7913TIP3    H223697   5.452   6.436   2.899
 7914TIP3   OH223698   3.980   6.916   5.430
 7914TIP3    H123699   3.985   7.003   5.470
 7914TIP3    H223700   3.956   6.932   5.339
 7915TIP3   OH223701   7.944   1.913   6.273
 7915TIP3    H123702   7.873   1.850   6.287
 7915TIP3    H223703   7.969   1.940   6.362
 7916TIP3   OH223704   6.422   0.015   3.821
 7916TIP3    H123705   6.339   0.063   3.825
 7916TIP3    H223706   6.472   0.058   3.752
 7917TIP3   OH223707   6.478   1.075   5.201
 7917TIP3    H123708   6.444   0.986   5.211
 7917TIP3    H223709   6.490   1.106   5.291
 7918TIP3   OH223710   7.088   3.057   3.619
 7918TIP3    H123711   7.129   3.143   3.610
 7918TIP3    H223712   7.088   3.021   3.530
 7919TIP3   OH223713   5.359   4.065   6.212
 7919TIP3    H123714   5.394   4.003   6.148
 7919TIP3    H223715   5.429   4.130   6.222
 7920TIP3   OH223716   4.837   1.049   4.825
 7920TIP3    H123717   4.881   1.077   4.745
 7920TIP3    H223718   4.772   0.986   4.795
 7921TIP3   OH223719   0.983   0.450   0.971
 7921TIP3    H123720   1.000   0.532   0.925
 7921TIP3    H223721   1.061   0.435   1.023
 7922TIP3   OH223722   6.742   2.484   2.629
 7922TIP3    H123723   6.765   2.551   2.565
 7922TIP3    H223724   6.787   2.511   2.709
 7923TIP3   OH223725   0.515   0.939   5.367
 7923TIP3    H123726   0.456   0.941   5.442
 7923TIP3    H223727   0.479   0.872   5.310
 7924TIP3   OH223728   0.348   0.729   1.660
 7924TIP3    H123729   0.325   0.637   1.656
 7924TIP3    H223730   0.431   0.731   1.707
 7925TIP3   OH223731   2.395   2.682   5.794
 7925TIP3    H123732   2.352   2.606   5.755
 7925TIP3    H223733   2.348   2.698   5.875
 7926TIP3   OH223734   4.466   1.186   1.925
 7926TIP3    H123735   4.388   1.133   1.941
 7926TIP3    H223736   4.492   1.164   1.836
 7927TIP3   OH223737   7.900   4.158   1.449
 7927TIP3    H123738   7.962   4.098   1.409
 7927TIP3    H223739   7.822   4.105   1.466
 7928TIP3   OH223740   8.214   6.806   3.414
 7928TIP3    H123741   8.232   6.738   3.349
 7928TIP3    H223742   8.218   6.888   3.365
 7929TIP3   OH223743   7.147   2.506   0.490
 7929TIP3    H123744   7.097   2.428   0.466
 7929TIP3    H223745   7.226   2.473   0.532
 7930TIP3   OH223746   2.295   0.106   5.313
 7930TIP3    H123747   2.322   0.161   5.239
 7930TIP3    H223748   2.323   0.153   5.391
 7931TIP3   OH223749   3.644   2.783   1.971
 7931TIP3    H123750   3.648   2.873   2.003
 7931TIP3    H223751   3.552   2.758   1.983
 7932TIP3   OH223752   7.006   0.485   4.722
 7932TIP3    H123753   6.951   0.440   4.787
 7932TIP3    H223754   7.006   0.576   4.750
 7933TIP3   OH223755   2.721   6.584   4.882
 7933TIP3    H123756   2.728   6.604   4.975
 7933TIP3    H223757   2.800   6.533   4.862
 7934TIP3   OH223758   4.108   4.595   4.993
 7934TIP3    H123759   4.025   4.553   5.016
 7934TIP3    H223760   4.093   4.631   4.905
 7935TIP3   OH223761   0.582   3.087   3.556
 7935TIP3    H123762   0.498   3.061   3.594
 7935TIP3    H223763   0.636   3.008   3.561
 7936TIP3   OH223764   7.400   4.334   0.776
 7936TIP3    H123765   7.334   4.399   0.750
 7936TIP3    H223766   7.419   4.355   0.867
 7937TIP3   OH223767   0.475   3.960   2.507
 7937TIP3    H123768   0.487   4.049   2.473
 7937TIP3    H223769   0.564   3.933   2.531
 7938TIP3   OH223770   7.733   6.959   3.504
 7938TIP3    H123771   7.683   7.039   3.522
 7938TIP3    H223772   7.667   6.895   3.477
 7939TIP3   OH223773   3.953   0.939   3.335
 7939TIP3    H123774   3.954   0.859   3.283
 7939TIP3    H223775   3.862   0.948   3.364
 7940TIP3   OH223776   1.964   1.042   2.687
 7940TIP3    H123777   2.000   1.131   2.693
 7940TIP3    H223778   1.910   1.043   2.608
 7941TIP3   OH223779   5.575   0.162   5.525
 7941TIP3    H123780   5.570   0.072   5.493
 7941TIP3    H223781   5.528   0.161   5.608
 7942TIP3   OH223782   3.881   2.648   2.172
 7942TIP3    H123783   3.942   2.699   2.120
 7942TIP3    H223784   3.930   2.624   2.251
 7943TIP3   OH223785   7.034   0.774   5.854
 7943TIP3    H123786   7.030   0.838   5.925
 7943TIP3    H223787   7.099   0.810   5.793
 7944TIP3   OH223788   5.116   6.693   1.299
 7944TIP3    H123789   5.087   6.673   1.210
 7944TIP3    H223790   5.040   6.732   1.341
 7945TIP3   OH223791   6.874   3.098   1.065
 7945TIP3    H123792   6.926   3.069   0.990
 7945TIP3    H223793   6.866   3.193   1.053
 7946TIP3   OH223794   6.572   7.412   3.292
 7946TIP3    H123795   6.481   7.438   3.308
 7946TIP3    H223796   6.565   7.331   3.242
 7947TIP3   OH223797   2.870   7.173   2.854
 7947TIP3    H123798   2.795   7.114   2.845
 7947TIP3    H223799   2.943   7.116   2.879
 7948TIP3   OH223800   7.389   1.538   0.398
 7948TIP3    H123801   7.342   1.572   0.474
 7948TIP3    H223802   7.468   1.592   0.392
 7949TIP3   OH223803   0.086   3.837   5.456
 7949TIP3    H123804   0.076   3.905   5.390
 7949TIP3    H223805   0.067   3.880   5.539
 7950TIP3   OH223806   3.335   0.043   5.546
 7950TIP3    H123807   3.335  -0.046   5.581
 7950TIP3    H223808   3.362   0.098   5.621
 7951TIP3   OH223809   3.771   1.289   3.691
 7951TIP3    H123810   3.769   1.201   3.729
 7951TIP3    H223811   3.700   1.289   3.628
 7952TIP3   OH223812   0.210   6.128   2.279
 7952TIP3    H123813   0.172   6.057   2.331
 7952TIP3    H223814   0.233   6.086   2.196
 7953TIP3   OH223815   2.924   4.685   2.843
 7953TIP3    H123816   3.003   4.634   2.829
 7953TIP3    H223817   2.954   4.776   2.848
 7954TIP3   OH223818   7.482   5.663   2.342
 7954TIP3    H123819   7.431   5.614   2.277
 7954TIP3    H223820   7.570   5.668   2.306
 7955TIP3   OH223821   6.520   3.549   4.579
 7955TIP3    H123822   6.585   3.596   4.526
 7955TIP3    H223823   6.563   3.466   4.601
 7956TIP3   OH223824   5.634   5.709   6.020
 7956TIP3    H123825   5.679   5.643   5.967
 7956TIP3    H223826   5.682   5.790   6.003
 7957TIP3   OH223827   0.477   5.622   0.087
 7957TIP3    H123828   0.404   5.561   0.082
 7957TIP3    H223829   0.507   5.617   0.177
 7958TIP3   OH223830  -0.007   6.620   5.019
 7958TIP3    H123831   0.071   6.666   4.987
 7958TIP3    H223832   0.028   6.546   5.070
 7959TIP3   OH223833   8.236   2.742   4.303
 7959TIP3    H123834   8.271   2.796   4.232
 7959TIP3    H223835   8.147   2.776   4.317
 7960TIP3   OH223836   5.105   0.070   2.429
 7960TIP3    H123837   5.191   0.045   2.396
 7960TIP3    H223838   5.101   0.165   2.415
 7961TIP3   OH223839   5.641   5.249   1.748
 7961TIP3    H123840   5.658   5.316   1.682
 7961TIP3    H223841   5.695   5.174   1.720
 7962TIP3   OH223842   2.294   2.727   2.432
 7962TIP3    H123843   2.318   2.767   2.348
 7962TIP3    H223844   2.275   2.801   2.489
 7963TIP3   OH223845   1.550   6.839   5.092
 7963TIP3    H123846   1.634   6.868   5.056
 7963TIP3    H223847   1.484   6.889   5.043
 7964TIP3   OH223848   3.813   5.353   2.600
 7964TIP3    H123849   3.831   5.335   2.692
 7964TIP3    H223850   3.722   5.325   2.587
 7965TIP3   OH223851   1.242   1.836   3.946
 7965TIP3    H123852   1.213   1.767   3.886
 7965TIP3    H223853   1.265   1.909   3.889
 7966TIP3   OH223854   4.114   2.143   5.309
 7966TIP3    H123855   4.174   2.122   5.380
 7966TIP3    H223856   4.102   2.238   5.315
 7967TIP3   OH223857   6.867   7.552   5.685
 7967TIP3    H123858   6.948   7.560   5.735
 7967TIP3    H223859   6.835   7.464   5.704
 7968TIP3   OH223860   7.555   3.860   0.056
 7968TIP3    H123861   7.496   3.832   0.126
 7968TIP3    H223862   7.532   3.803  -0.018
 7969TIP3   OH223863   6.049   6.546   1.583
 7969TIP3    H123864   6.021   6.474   1.640
 7969TIP3    H223865   5.975   6.561   1.525
 7970TIP3   OH223866   7.138   1.557   5.337
 7970TIP3    H123867   7.162   1.466   5.323
 7970TIP3    H223868   7.172   1.603   5.260
 7971TIP3   OH223869   4.691   5.167   3.915
 7971TIP3    H123870   4.670   5.241   3.858
 7971TIP3    H223871   4.642   5.094   3.878
 7972TIP3   OH223872   4.291   6.035   3.844
 7972TIP3    H123873   4.259   6.047   3.933
 7972TIP3    H223874   4.306   5.941   3.837
 7973TIP3   OH223875   2.658   1.034   4.349
 7973TIP3    H123876   2.595   1.009   4.416
 7973TIP3    H223877   2.611   1.097   4.294
 7974TIP3   OH223878   7.493   2.023   6.120
 7974TIP3    H123879   7.406   2.061   6.123
 7974TIP3    H223880   7.549   2.093   6.086
 7975TIP3   OH223881   4.605   7.523   3.639
 7975TIP3    H123882   4.530   7.583   3.644
 7975TIP3    H223883   4.662   7.561   3.571
 7976TIP3   OH223884   4.177   4.446   1.560
 7976TIP3    H123885   4.105   4.405   1.608
 7976TIP3    H223886   4.134   4.497   1.491
 7977TIP3   OH223887   7.530   6.808   3.425
 7977TIP3    H123888   7.557   6.725   3.462
 7977TIP3    H223889   7.442   6.791   3.391
 7978TIP3   OH223890   3.130   5.758   1.802
 7978TIP3    H123891   3.185   5.835   1.817
 7978TIP3    H223892   3.073   5.784   1.730
 7979TIP3   OH223893   3.082   3.511   6.008
 7979TIP3    H123894   3.072   3.466   6.092
 7979TIP3    H223895   3.113   3.599   6.032
 7980TIP3   OH223896   6.871   5.019   1.607
 7980TIP3    H123897   6.777   5.020   1.587
 7980TIP3    H223898   6.883   5.092   1.667
 7981TIP3   OH223899   6.644   0.204   0.297
 7981TIP3    H123900   6.564   0.171   0.339
 7981TIP3    H223901   6.711   0.139   0.319
 7982TIP3   OH223902   1.720   6.533   0.851
 7982TIP3    H123903   1.746   6.447   0.819
 7982TIP3    H223904   1.667   6.570   0.781
 7983TIP3   OH223905   3.530   0.826   2.453
 7983TIP3    H123906   3.591   0.868   2.513
 7983TIP3    H223907   3.501   0.747   2.499
 7984TIP3   OH223908   5.741   1.606   1.740
 7984TIP3    H123909   5.756   1.548   1.665
 7984TIP3    H223910   5.797   1.682   1.722
 7985TIP3   OH223911   0.251   6.579   0.039
 7985TIP3    H123912   0.281   6.666   0.066
 7985TIP3    H223913   0.223   6.537   0.120
 7986TIP3   OH223914   0.035   4.094   0.673
 7986TIP3    H123915  -0.038   4.150   0.645
 7986TIP3    H223916  -0.006   4.028   0.729
 7987TIP3   OH223917   0.652   6.445   3.416
 7987TIP3    H123918   0.566   6.449   3.457
 7987TIP3    H223919   0.638   6.477   3.327
 7988TIP3   OH223920   5.757   6.623   6.679
 7988TIP3    H123921   5.764   6.702   6.627
 7988TIP3    H223922   5.814   6.639   6.755
 7989TIP3   OH223923   0.652   6.985   1.051
 7989TIP3    H123924   0.688   6.982   0.963
 7989TIP3    H223925   0.644   6.894   1.078
 7990TIP3   OH223926   0.154   2.422   2.301
 7990TIP3    H123927   0.088   2.391   2.363
 7990TIP3    H223928   0.149   2.517   2.306
 7991TIP3   OH223929   5.441   0.859   4.481
 7991TIP3    H123930   5.487   0.781   4.512
 7991TIP3    H223931   5.504   0.903   4.424
 7992TIP3   OH223932   1.906   0.143   4.529
 7992TIP3    H123933   1.814   0.169   4.525
 7992TIP3    H223934   1.915   0.103   4.615
 7993TIP3   OH223935   0.273   4.659   1.718
 7993TIP3    H123936   0.282   4.655   1.623
 7993TIP3    H223937   0.221   4.738   1.734
 7994TIP3   OH223938   0.014   1.317   1.571
 7994TIP3    H123939  -0.054   1.262   1.531
 7994TIP3    H223940   0.042   1.375   1.501
 7995TIP3   OH223941   5.224   7.656   4.064
 7995TIP3    H123942   5.192   7.598   3.995
 7995TIP3    H223943   5.261   7.731   4.017
 7996TIP3   OH223944   3.058   5.282   6.442
 7996TIP3    H123945   3.007   5.364   6.442
 7996TIP3    H223946   3.149   5.310   6.439
 7997TIP3   OH223947   1.236   2.021   1.682
 7997TIP3    H123948   1.310   2.006   1.740
 7997TIP3    H223949   1.159   1.997   1.735
 7998TIP3   OH223950   0.547   6.310   4.058
 7998TIP3    H123951   0.514   6.379   4.116
 7998TIP3    H223952   0.573   6.239   4.116
 7999TIP3   OH223953   0.815   0.343   4.411
 7999TIP3    H123954   0.749   0.316   4.475
 7999TIP3    H223955   0.878   0.271   4.409
 8000TIP3   OH223956   8.049   5.826   4.765
 8000TIP3    H123957   7.991   5.898   4.740
 8000TIP3    H223958   8.134   5.868   4.780
 8001TIP3   OH223959   0.175   6.216   3.332
 8001TIP3    H123960   0.131   6.176   3.257
 8001TIP3    H223961   0.266   6.227   3.303
 8002TIP3   OH223962   1.249   0.660   0.178
 8002TIP3    H123963   1.167   0.612   0.186
 8002TIP3    H223964   1.302   0.607   0.119
 8003TIP3   OH223965   1.467   1.210   4.652
 8003TIP3    H123966   1.531   1.242   4.589
 8003TIP3    H223967   1.411   1.151   4.602
 8004TIP3   OH223968   0.841   0.910   4.596
 8004TIP3    H123969   0.746   0.914   4.589
 8004TIP3    H223970   0.862   0.817   4.588
 8005TIP3   OH223971   0.422   1.185   0.968
 8005TIP3    H123972   0.338   1.141   0.959
 8005TIP3    H223973   0.426   1.210   1.061
 8006TIP3   OH223974   7.703   3.022   5.892
 8006TIP3    H123975   7.773   3.080   5.861
 8006TIP3    H223976   7.711   3.024   5.988
 8007TIP3   OH223977   7.871   4.305   4.001
 8007TIP3    H123978   7.788   4.288   3.958
 8007TIP3    H223979   7.871   4.248   4.078
 8008TIP3   OH223980   0.785   3.742   6.139
 8008TIP3    H123981   0.736   3.687   6.200
 8008TIP3    H223982   0.724   3.759   6.067
 8009TIP3   OH223983   7.253   3.700   3.985
 8009TIP3    H123984   7.271   3.792   4.006
 8009TIP3    H223985   7.323   3.651   4.029
 8010TIP3   OH223986   0.183   0.633   0.773
 8010TIP3    H123987   0.151   0.561   0.719
 8010TIP3    H223988   0.169   0.711   0.720
 8011TIP3   OH223989   3.671   2.874   4.092
 8011TIP3    H123990   3.620   2.894   4.170
 8011TIP3    H223991   3.742   2.938   4.092
 8012TIP3   OH223992   0.952   6.604   1.793
 8012TIP3    H123993   0.963   6.677   1.733
 8012TIP3    H223994   0.862   6.575   1.781
 8013TIP3   OH223995   0.186   3.822   5.948
 8013TIP3    H123996   0.095   3.792   5.941
 8013TIP3    H223997   0.219   3.821   5.858
 8014TIP3   OH223998   0.134   1.361   0.960
 8014TIP3    H123999   0.157   1.319   1.043
 8014TIP3    H224000   0.053   1.408   0.979
 8015TIP3   OH224001   5.809   5.949   2.128
 8015TIP3    H124002   5.842   5.861   2.143
 8015TIP3    H224003   5.724   5.936   2.086
 8016TIP3   OH224004   5.525   3.754   3.037
 8016TIP3    H124005   5.435   3.726   3.052
 8016TIP3    H224006   5.576   3.673   3.039
 8017TIP3   OH224007   0.365   7.382   0.982
 8017TIP3    H124008   0.301   7.371   0.912
 8017TIP3    H224009   0.390   7.475   0.978
 8018TIP3   OH224010   2.608   3.911   0.866
 8018TIP3    H124011   2.650   3.903   0.780
 8018TIP3    H224012   2.579   4.003   0.870
 8019TIP3   OH224013   0.437   6.919   2.731
 8019TIP3    H124014   0.359   6.871   2.704
 8019TIP3    H224015   0.498   6.909   2.658
 8020TIP3   OH224016   1.152   4.773   2.564
 8020TIP3    H124017   1.182   4.682   2.560
 8020TIP3    H224018   1.232   4.824   2.573
 8021TIP3   OH224019   4.839   2.783   4.806
 8021TIP3    H124020   4.910   2.840   4.775
 8021TIP3    H224021   4.879   2.732   4.876
 8022TIP3   OH224022   3.597   1.309   3.470
 8022TIP3    H124023   3.512   1.289   3.510
 8022TIP3    H224024   3.576   1.371   3.399
 8023TIP3   OH224025   6.712   0.365   5.448
 8023TIP3    H124026   6.773   0.304   5.406
 8023TIP3    H224027   6.745   0.452   5.422
 8024TIP3   OH224028   4.051   2.049   4.665
 8024TIP3    H124029   3.987   2.071   4.597
 8024TIP3    H224030   4.049   1.953   4.668
 8025TIP3   OH224031   5.510   1.755   2.530
 8025TIP3    H124032   5.557   1.673   2.515
 8025TIP3    H224033   5.572   1.823   2.505
 8026TIP3   OH224034   1.557   5.564   2.868
 8026TIP3    H124035   1.606   5.508   2.808
 8026TIP3    H224036   1.541   5.510   2.945
 8027TIP3   OH224037   0.902   1.246   1.966
 8027TIP3    H124038   0.873   1.334   1.939
 8027TIP3    H224039   0.996   1.245   1.944
 8028TIP3   OH224040   5.368   6.777   5.275
 8028TIP3    H124041   5.405   6.862   5.250
 8028TIP3    H224042   5.294   6.799   5.333
 8029TIP3   OH224043   6.304   1.089   2.159
 8029TIP3    H124044   6.362   1.053   2.091
 8029TIP3    H224045   6.251   1.014   2.187
 8030TIP3   OH224046   6.976   6.459   2.289
 8030TIP3    H124047   6.885   6.474   2.264
 8030TIP3    H224048   6.989   6.365   2.279
 8031TIP3   OH224049   4.187   4.825   0.892
 8031TIP3    H124050   4.110   4.852   0.944
 8031TIP3    H224051   4.227   4.755   0.944
 8032TIP3   OH224052   7.034   2.165   1.806
 8032TIP3    H124053   7.051   2.252   1.770
 8032TIP3    H224054   6.964   2.129   1.751
 8033TIP3   OH224055   2.429   2.760   3.919
 8033TIP3    H124056   2.379   2.797   3.993
 8033TIP3    H224057   2.364   2.751   3.849
 8034TIP3   OH224058   5.934   1.019   3.009
 8034TIP3    H124059   5.877   1.095   3.021
 8034TIP3    H224060   5.964   1.026   2.918
 8035TIP3   OH224061   1.062   4.049   0.714
 8035TIP3    H124062   0.979   4.030   0.670
 8035TIP3    H224063   1.113   4.098   0.649
 8036TIP3   OH224064   7.393   2.259   2.368
 8036TIP3    H124065   7.380   2.245   2.462
 8036TIP3    H224066   7.482   2.294   2.361
 8037TIP3   OH224067   2.054   2.243   5.162
 8037TIP3    H124068   1.981   2.200   5.117
 8037TIP3    H224069   2.087   2.307   5.098
 8038TIP3   OH224070   2.446   1.177   1.942
 8038TIP3    H124071   2.535   1.143   1.945
 8038TIP3    H224072   2.454   1.269   1.969
 8039TIP3   OH224073   0.188   4.199   2.736
 8039TIP3    H124074   0.262   4.260   2.736
 8039TIP3    H224075   0.218   4.126   2.791
 8040TIP3   OH224076   3.989   7.098   3.125
 8040TIP3    H124077   3.901   7.065   3.146
 8040TIP3    H224078   4.047   7.025   3.143
 8041TIP3   OH224079   6.396   4.109   5.979
 8041TIP3    H124080   6.369   4.093   5.888
 8041TIP3    H224081   6.450   4.187   5.974
 8042TIP3   OH224082   7.148   7.757   1.115
 8042TIP3    H124083   7.063   7.752   1.072
 8042TIP3    H224084   7.144   7.690   1.184
 8043TIP3   OH224085   6.295   7.279   1.570
 8043TIP3    H124086   6.279   7.198   1.618
 8043TIP3    H224087   6.222   7.336   1.595
 8044TIP3   OH224088   7.525   6.350   0.734
 8044TIP3    H124089   7.432   6.373   0.742
 8044TIP3    H224090   7.561   6.416   0.675
 8045TIP3   OH224091   4.084   7.189   3.949
 8045TIP3    H124092   4.006   7.183   3.894
 8045TIP3    H224093   4.129   7.268   3.919
 8046TIP3   OH224094   6.447   0.406   6.722
 8046TIP3    H124095   6.421   0.406   6.630
 8046TIP3    H224096   6.381   0.352   6.766
 8047TIP3   OH224097   5.509   2.160   2.227
 8047TIP3    H124098   5.555   2.077   2.219
 8047TIP3    H224099   5.464   2.155   2.311
 8048TIP3   OH224100   6.627   6.604   5.286
 8048TIP3    H124101   6.646   6.626   5.378
 8048TIP3    H224102   6.537   6.573   5.287
 8049TIP3   OH224103   3.308   1.786   1.397
 8049TIP3    H124104   3.339   1.719   1.335
 8049TIP3    H224105   3.364   1.862   1.379
 8050TIP3   OH224106   4.238   5.683   3.032
 8050TIP3    H124107   4.319   5.685   2.981
 8050TIP3    H224108   4.226   5.591   3.055
 8051TIP3   OH224109   1.690   0.306   4.265
 8051TIP3    H124110   1.687   0.267   4.353
 8051TIP3    H224111   1.735   0.240   4.211
 8052TIP3   OH224112   7.873   6.099   2.128
 8052TIP3    H124113   7.859   6.152   2.206
 8052TIP3    H224114   7.789   6.053   2.115
 8053TIP3   OH224115   2.727   0.783   4.576
 8053TIP3    H124116   2.777   0.704   4.561
 8053TIP3    H224117   2.709   0.783   4.670
 8054TIP3   OH224118   6.906   2.906   0.328
 8054TIP3    H124119   6.871   2.913   0.239
 8054TIP3    H224120   6.848   2.962   0.380
 8055TIP3   OH224121   7.822   4.006   4.345
 8055TIP3    H124122   7.899   4.059   4.327
 8055TIP3    H224123   7.814   3.949   4.268
 8056TIP3   OH224124   2.860   7.781   4.379
 8056TIP3    H124125   2.902   7.817   4.301
 8056TIP3    H224126   2.900   7.694   4.389
 8057TIP3   OH224127   7.051   0.196   6.443
 8057TIP3    H124128   6.987   0.258   6.479
 8057TIP3    H224129   7.128   0.205   6.500
 8058TIP3   OH224130   7.952   0.791   3.139
 8058TIP3    H124131   7.892   0.856   3.175
 8058TIP3    H224132   8.039   0.831   3.146
 8059TIP3   OH224133   3.662   5.313   2.966
 8059TIP3    H124134   3.736   5.370   2.947
 8059TIP3    H224135   3.590   5.373   2.985
 8060TIP3   OH224136   2.724   4.573   3.533
 8060TIP3    H124137   2.811   4.551   3.567
 8060TIP3    H224138   2.739   4.647   3.474
 8061TIP3   OH224139   1.270   3.137   0.079
 8061TIP3    H124140   1.280   3.049   0.116
 8061TIP3    H224141   1.357   3.175   0.085
 8062TIP3   OH224142   6.990   5.915   5.772
 8062TIP3    H124143   7.078   5.948   5.752
 8062TIP3    H224144   6.937   5.994   5.784
 8063TIP3   OH224145   2.513   5.670   2.112
 8063TIP3    H124146   2.578   5.713   2.168
 8063TIP3    H224147   2.429   5.706   2.140
 8064TIP3   OH224148   6.114   4.367   5.244
 8064TIP3    H124149   6.120   4.440   5.182
 8064TIP3    H224150   6.179   4.304   5.213
 8065TIP3   OH224151   5.246   2.720   0.989
 8065TIP3    H124152   5.322   2.767   1.024
 8065TIP3    H224153   5.171   2.774   1.015
 8066TIP3   OH224154   1.343   4.267   1.428
 8066TIP3    H124155   1.387   4.274   1.344
 8066TIP3    H224156   1.373   4.344   1.477
 8067TIP3   OH224157   2.701   2.966   1.350
 8067TIP3    H124158   2.639   2.902   1.315
 8067TIP3    H224159   2.765   2.913   1.399
 8068TIP3   OH224160   7.795   2.390   5.790
 8068TIP3    H124161   7.871   2.442   5.816
 8068TIP3    H224162   7.807   2.375   5.697
 8069TIP3   OH224163   3.322   0.214   4.587
 8069TIP3    H124164   3.253   0.147   4.592
 8069TIP3    H224165   3.368   0.208   4.670
 8070TIP3   OH224166   2.870   1.035   4.525
 8070TIP3    H124167   2.868   0.940   4.518
 8070TIP3    H224168   2.784   1.063   4.496
 8071TIP3   OH224169   5.711   3.612   5.302
 8071TIP3    H124170   5.756   3.614   5.218
 8071TIP3    H224171   5.650   3.539   5.295
 8072TIP3   OH224172   7.567   1.229   3.877
 8072TIP3    H124173   7.638   1.273   3.925
 8072TIP3    H224174   7.588   1.136   3.884
 8073TIP3   OH224175   4.157   1.306   6.665
 8073TIP3    H124176   4.233   1.315   6.608
 8073TIP3    H224177   4.193   1.309   6.754
 8074TIP3   OH224178   1.036   7.549   6.618
 8074TIP3    H124179   1.069   7.616   6.677
 8074TIP3    H224180   0.958   7.588   6.578
 8075TIP3   OH224181   1.149   6.211   2.697
 8075TIP3    H124182   1.242   6.191   2.685
 8075TIP3    H224183   1.137   6.211   2.792
 8076TIP3   OH224184   4.717   5.489   1.339
 8076TIP3    H124185   4.623   5.475   1.323
 8076TIP3    H224186   4.722   5.520   1.430
 8077TIP3   OH224187   7.228   5.581   4.381
 8077TIP3    H124188   7.232   5.499   4.333
 8077TIP3    H224189   7.139   5.585   4.416
 8078TIP3   OH224190   3.103   2.492   3.538
 8078TIP3    H124191   3.097   2.477   3.444
 8078TIP3    H224192   3.013   2.504   3.567
 8079TIP3   OH224193   1.621   1.098   5.461
 8079TIP3    H124194   1.608   1.055   5.377
 8079TIP3    H224195   1.697   1.054   5.499
 8080TIP3   OH224196   6.197   6.935   2.346
 8080TIP3    H124197   6.120   6.986   2.369
 8080TIP3    H224198   6.198   6.934   2.251
 8081TIP3   OH224199   6.290   3.216   2.759
 8081TIP3    H124200   6.298   3.293   2.703
 8081TIP3    H224201   6.260   3.250   2.843
 8082TIP3   OH224202   1.118   3.312   0.681
 8082TIP3    H124203   1.086   3.379   0.621
 8082TIP3    H224204   1.167   3.361   0.747
 8083TIP3   OH224205   3.448   0.445   6.267
 8083TIP3    H124206   3.439   0.412   6.356
 8083TIP3    H224207   3.502   0.380   6.222
 8084TIP3   OH224208   5.948   4.587   2.485
 8084TIP3    H124209   5.916   4.585   2.395
 8084TIP3    H224210   5.953   4.680   2.506
 8085TIP3   OH224211   7.759   7.444   5.010
 8085TIP3    H124212   7.723   7.407   5.091
 8085TIP3    H224213   7.818   7.513   5.039
 8086TIP3   OH224214   3.782   1.732   5.138
 8086TIP3    H124215   3.847   1.663   5.126
 8086TIP3    H224216   3.820   1.808   5.094
 8087TIP3   OH224217   1.457   5.665   3.360
 8087TIP3    H124218   1.475   5.699   3.273
 8087TIP3    H224219   1.363   5.676   3.372
 8088TIP3   OH224220   2.621   0.517   2.915
 8088TIP3    H124221   2.584   0.429   2.918
 8088TIP3    H224222   2.709   0.505   2.881
 8089TIP3   OH224223   5.976   0.231   0.092
 8089TIP3    H124224   6.059   0.272   0.117
 8089TIP3    H224225   5.912   0.270   0.151
 8090TIP3   OH224226   3.701   7.091   4.209
 8090TIP3    H124227   3.760   7.120   4.279
 8090TIP3    H224228   3.760   7.057   4.141
 8091TIP3   OH224229   0.501   1.970   5.405
 8091TIP3    H124230   0.530   2.061   5.393
 8091TIP3    H224231   0.516   1.929   5.320
 8092TIP3   OH224232   7.536   0.532   2.569
 8092TIP3    H124233   7.483   0.472   2.517
 8092TIP3    H224234   7.620   0.536   2.522
 8093TIP3   OH224235   1.307   4.946   0.865
 8093TIP3    H124236   1.300   5.030   0.820
 8093TIP3    H224237   1.323   4.883   0.795
 8094TIP3   OH224238   8.177   0.725   5.239
 8094TIP3    H124239   8.224   0.798   5.200
 8094TIP3    H224240   8.238   0.652   5.237
 8095TIP3   OH224241   4.316   3.318   0.361
 8095TIP3    H124242   4.392   3.266   0.387
 8095TIP3    H224243   4.325   3.329   0.267
 8096TIP3   OH224244   8.132   1.557   5.079
 8096TIP3    H124245   8.105   1.621   5.014
 8096TIP3    H224246   8.189   1.497   5.031
 8097TIP3   OH224247   4.555   6.963   3.533
 8097TIP3    H124248   4.619   6.957   3.604
 8097TIP3    H224249   4.470   6.952   3.575
 8098TIP3   OH224250   3.632   4.800   4.541
 8098TIP3    H124251   3.639   4.840   4.628
 8098TIP3    H224252   3.714   4.824   4.497
 8099TIP3   OH224253   3.370   0.960   5.130
 8099TIP3    H124254   3.297   0.926   5.182
 8099TIP3    H224255   3.360   1.055   5.136
 8100TIP3   OH224256   0.456   0.702   0.480
 8100TIP3    H124257   0.547   0.729   0.466
 8100TIP3    H224258   0.462   0.618   0.526
 8101TIP3   OH224259   1.742   2.235   1.855
 8101TIP3    H124260   1.654   2.272   1.860
 8101TIP3    H224261   1.800   2.304   1.887
 8102TIP3   OH224262   2.365   4.811   3.347
 8102TIP3    H124263   2.276   4.774   3.349
 8102TIP3    H224264   2.417   4.746   3.300
 8103TIP3   OH224265   1.629   0.560   6.488
 8103TIP3    H124266   1.608   0.639   6.437
 8103TIP3    H224267   1.613   0.585   6.579
 8104TIP3   OH224268   4.059   3.750   0.702
 8104TIP3    H124269   4.053   3.827   0.646
 8104TIP3    H224270   4.153   3.733   0.709
 8105TIP3   OH224271   5.777   1.976   4.397
 8105TIP3    H124272   5.721   1.899   4.391
 8105TIP3    H224273   5.766   2.022   4.314
 8106TIP3   OH224274   2.080   4.735   6.630
 8106TIP3    H124275   2.068   4.745   6.725
 8106TIP3    H224276   2.117   4.646   6.621
 8107TIP3   OH224277   1.831   0.035   4.802
 8107TIP3    H124278   1.791   0.093   4.866
 8107TIP3    H224279   1.760   0.012   4.742
 8108TIP3   OH224280   1.671   2.171   1.340
 8108TIP3    H124281   1.728   2.241   1.370
 8108TIP3    H224282   1.648   2.196   1.250
 8109TIP3   OH224283   3.546   6.751   2.983
 8109TIP3    H124284   3.494   6.761   3.062
 8109TIP3    H224285   3.524   6.664   2.951
 8110TIP3   OH224286   7.067   1.766   1.746
 8110TIP3    H124287   7.139   1.792   1.804
 8110TIP3    H224288   6.990   1.808   1.784
 8111TIP3   OH224289   7.175   7.705   4.655
 8111TIP3    H124290   7.109   7.647   4.692
 8111TIP3    H224291   7.231   7.648   4.602
 8112TIP3   OH224292   2.822   0.965   3.651
 8112TIP3    H124293   2.829   1.021   3.729
 8112TIP3    H224294   2.810   0.877   3.686
 8113TIP3   OH224295   3.467   1.251   3.869
 8113TIP3    H124296   3.547   1.199   3.858
 8113TIP3    H224297   3.438   1.232   3.958
 8114TIP3   OH224298   3.950   2.748   0.137
 8114TIP3    H124299   3.878   2.686   0.143
 8114TIP3    H224300   4.010   2.708   0.073
 8115TIP3   OH224301   3.697   4.641   5.453
 8115TIP3    H124302   3.692   4.590   5.534
 8115TIP3    H224303   3.629   4.707   5.461
 8116TIP3   OH224304   1.367   4.041   4.676
 8116TIP3    H124305   1.323   4.100   4.738
 8116TIP3    H224306   1.308   4.040   4.600
 8117TIP3   OH224307   0.682   3.204   1.660
 8117TIP3    H124308   0.761   3.152   1.674
 8117TIP3    H224309   0.715   3.290   1.634
 8118TIP3   OH224310   4.251   7.415   4.357
 8118TIP3    H124311   4.214   7.481   4.299
 8118TIP3    H224312   4.333   7.453   4.389
 8119TIP3   OH224313   7.053   5.686   0.864
 8119TIP3    H124314   6.967   5.660   0.896
 8119TIP3    H224315   7.048   5.673   0.769
 8120TIP3   OH224316   1.276   1.608   6.391
 8120TIP3    H124317   1.291   1.683   6.334
 8120TIP3    H224318   1.250   1.538   6.332
 8121TIP3   OH224319   5.758   3.104   5.072
 8121TIP3    H124320   5.850   3.077   5.073
 8121TIP3    H224321   5.725   3.082   5.159
 8122TIP3   OH224322   1.369   3.132   4.089
 8122TIP3    H124323   1.450   3.148   4.136
 8122TIP3    H224324   1.300   3.165   4.147
 8123TIP3   OH224325   1.213   3.006   3.438
 8123TIP3    H124326   1.280   3.015   3.506
 8123TIP3    H224327   1.155   2.937   3.469
 8124TIP3   OH224328   0.136   5.387   1.554
 8124TIP3    H124329   0.225   5.357   1.574
 8124TIP3    H224330   0.145   5.481   1.539
 8125TIP3   OH224331   5.560   0.403   0.240
 8125TIP3    H124332   5.529   0.313   0.240
 8125TIP3    H224333   5.531   0.439   0.156
 8126TIP3   OH224334   7.774   2.691   2.225
 8126TIP3    H124335   7.864   2.675   2.253
 8126TIP3    H224336   7.726   2.613   2.254
 8127TIP3   OH224337   2.586   5.571   1.135
 8127TIP3    H124338   2.608   5.569   1.228
 8127TIP3    H224339   2.564   5.663   1.118
 8128TIP3   OH224340   7.287   1.990   1.832
 8128TIP3    H124341   7.205   2.038   1.821
 8128TIP3    H224342   7.353   2.044   1.789
 8129TIP3   OH224343   5.433   7.588   1.064
 8129TIP3    H124344   5.444   7.680   1.090
 8129TIP3    H224345   5.370   7.591   0.992
 8130TIP3   OH224346   6.355   3.996   5.573
 8130TIP3    H124347   6.339   3.939   5.498
 8130TIP3    H224348   6.304   4.075   5.555
 8131TIP3   OH224349   8.190   2.806   1.526
 8131TIP3    H124350   8.166   2.793   1.618
 8131TIP3    H224351   8.277   2.767   1.519
 8132TIP3   OH224352   0.893   1.103   0.470
 8132TIP3    H124353   0.964   1.167   0.473
 8132TIP3    H224354   0.815   1.152   0.495
 8133TIP3   OH224355   8.165   4.825   2.969
 8133TIP3    H124356   8.100   4.864   2.911
 8133TIP3    H224357   8.147   4.731   2.965
 8134TIP3   OH224358   1.290   1.080   5.034
 8134TIP3    H124359   1.293   1.141   5.108
 8134TIP3    H224360   1.213   1.107   4.984
 8135TIP3   OH224361   7.467   4.201   4.120
 8135TIP3    H124362   7.511   4.135   4.174
 8135TIP3    H224363   7.422   4.257   4.183
 8136TIP3   OH224364   5.994   4.780   3.578
 8136TIP3    H124365   5.908   4.788   3.539
 8136TIP3    H224366   5.978   4.781   3.673
 8137TIP3   OH224367   4.542   1.679   4.364
 8137TIP3    H124368   4.550   1.646   4.274
 8137TIP3    H224369   4.626   1.658   4.405
 8138TIP3   OH224370   8.340   4.990   2.796
 8138TIP3    H124371   8.274   5.058   2.789
 8138TIP3    H224372   8.291   4.909   2.805
 8139TIP3   OH224373   1.673   4.213   1.912
 8139TIP3    H124374   1.730   4.268   1.858
 8139TIP3    H224375   1.640   4.146   1.852
 8140TIP3   OH224376   1.246   2.236   4.761
 8140TIP3    H124377   1.314   2.293   4.796
 8140TIP3    H224378   1.262   2.151   4.800
 8141TIP3   OH224379   1.863   0.583   4.881
 8141TIP3    H124380   1.807   0.661   4.880
 8141TIP3    H224381   1.805   0.512   4.909
 8142TIP3   OH224382   4.308   3.750   4.304
 8142TIP3    H124383   4.303   3.693   4.228
 8142TIP3    H224384   4.219   3.781   4.317
 8143TIP3   OH224385   6.392   5.000   3.757
 8143TIP3    H124386   6.329   4.955   3.701
 8143TIP3    H224387   6.339   5.039   3.827
 8144TIP3   OH224388   2.761   3.304   3.616
 8144TIP3    H124389   2.717   3.387   3.599
 8144TIP3    H224390   2.841   3.328   3.662
 8145TIP3   OH224391   5.168   6.468   5.339
 8145TIP3    H124392   5.183   6.479   5.245
 8145TIP3    H224393   5.239   6.517   5.380
 8146TIP3   OH224394   4.499   6.518   4.516
 8146TIP3    H124395   4.526   6.608   4.499
 8146TIP3    H224396   4.434   6.525   4.586
 8147TIP3   OH224397   6.611   1.939   2.579
 8147TIP3    H124398   6.702   1.925   2.605
 8147TIP3    H224399   6.606   2.033   2.561
 8148TIP3   OH224400   7.507   6.677   0.828
 8148TIP3    H124401   7.512   6.624   0.748
 8148TIP3    H224402   7.597   6.683   0.858
 8149TIP3   OH224403   3.556   0.075   0.733
 8149TIP3    H124404   3.470   0.080   0.775
 8149TIP3    H224405   3.536   0.070   0.639
 8150TIP3   OH224406   7.702   3.460   6.009
 8150TIP3    H124407   7.779   3.465   6.064
 8150TIP3    H224408   7.643   3.527   6.044
 8151TIP3   OH224409   2.410   3.518   2.074
 8151TIP3    H124410   2.440   3.509   2.165
 8151TIP3    H224411   2.481   3.483   2.022
 8152TIP3   OH224412   1.069   6.218   1.358
 8152TIP3    H124413   1.020   6.271   1.420
 8152TIP3    H224414   1.114   6.154   1.412
 8153TIP3   OH224415   4.685   0.202   3.877
 8153TIP3    H124416   4.643   0.244   3.952
 8153TIP3    H224417   4.711   0.275   3.821
 8154TIP3   OH224418   5.207   4.888   3.594
 8154TIP3    H124419   5.225   4.873   3.687
 8154TIP3    H224420   5.151   4.966   3.593
 8155TIP3   OH224421   5.828   5.958   3.105
 8155TIP3    H124422   5.888   6.026   3.075
 8155TIP3    H224423   5.814   5.977   3.198
 8156TIP3   OH224424   1.069   5.536   0.820
 8156TIP3    H124425   1.011   5.479   0.769
 8156TIP3    H224426   1.055   5.623   0.783
 8157TIP3   OH224427   6.478   1.244   1.382
 8157TIP3    H124428   6.389   1.272   1.359
 8157TIP3    H224429   6.495   1.284   1.467
 8158TIP3   OH224430   6.883   6.544   6.719
 8158TIP3    H124431   6.971   6.523   6.688
 8158TIP3    H224432   6.847   6.602   6.653
 8159TIP3   OH224433   2.738   6.074   3.829
 8159TIP3    H124434   2.685   6.015   3.883
 8159TIP3    H224435   2.746   6.029   3.745
 8160TIP3   OH224436   5.979   5.905   0.884
 8160TIP3    H124437   5.912   5.848   0.847
 8160TIP3    H224438   6.049   5.846   0.910
 8161TIP3   OH224439   0.644   3.515   2.955
 8161TIP3    H124440   0.566   3.504   2.900
 8161TIP3    H224441   0.660   3.609   2.955
 8162TIP3   OH224442   2.581   1.327   6.410
 8162TIP3    H124443   2.568   1.271   6.333
 8162TIP3    H224444   2.573   1.416   6.376
 8163TIP3   OH224445   4.373   2.226   5.951
 8163TIP3    H124446   4.443   2.190   6.005
 8163TIP3    H224447   4.336   2.297   6.004
 8164TIP3   OH224448   3.377   1.716   2.911
 8164TIP3    H124449   3.385   1.660   2.834
 8164TIP3    H224450   3.290   1.696   2.946
 8165TIP3   OH224451   3.434   0.394   3.187
 8165TIP3    H124452   3.403   0.307   3.213
 8165TIP3    H224453   3.356   0.449   3.194
 8166TIP3   OH224454   0.050   5.297   6.257
 8166TIP3    H124455  -0.031   5.258   6.225
 8166TIP3    H224456   0.029   5.329   6.345
 8167TIP3   OH224457   4.136   3.531   6.057
 8167TIP3    H124458   4.094   3.615   6.036
 8167TIP3    H224459   4.121   3.477   5.980
 8168TIP3   OH224460   4.906   0.105   2.170
 8168TIP3    H124461   4.890   0.083   2.078
 8168TIP3    H224462   4.999   0.127   2.174
 8169TIP3   OH224463   4.877   5.675   3.527
 8169TIP3    H124464   4.854   5.739   3.594
 8169TIP3    H224465   4.841   5.593   3.560
 8170TIP3   OH224466   3.043   1.126   2.130
 8170TIP3    H124467   3.044   1.038   2.094
 8170TIP3    H224468   3.026   1.183   2.055
 8171TIP3   OH224469   6.394   3.214   1.255
 8171TIP3    H124470   6.481   3.238   1.225
 8171TIP3    H224471   6.378   3.269   1.332
 8172TIP3   OH224472   1.195   4.717   6.319
 8172TIP3    H124473   1.190   4.790   6.257
 8172TIP3    H224474   1.261   4.744   6.382
 8173TIP3   OH224475   7.971   6.132   5.901
 8173TIP3    H124476   7.893   6.185   5.882
 8173TIP3    H224477   7.975   6.130   5.997
 8174TIP3   OH224478   0.440   0.664   2.828
 8174TIP3    H124479   0.369   0.682   2.889
 8174TIP3    H224480   0.516   0.708   2.865
 8175TIP3   OH224481   8.089   6.561   4.813
 8175TIP3    H124482   8.050   6.494   4.869
 8175TIP3    H224483   8.163   6.595   4.864
 8176TIP3   OH224484   7.221   2.248   3.494
 8176TIP3    H124485   7.172   2.329   3.513
 8176TIP3    H224486   7.246   2.256   3.402
 8177TIP3   OH224487   6.985   6.194   2.253
 8177TIP3    H124488   6.968   6.136   2.179
 8177TIP3    H224489   7.077   6.177   2.277
 8178TIP3   OH224490   1.468   1.866   3.093
 8178TIP3    H124491   1.448   1.774   3.112
 8178TIP3    H224492   1.422   1.915   3.160
 8179TIP3   OH224493   4.727   1.401   6.274
 8179TIP3    H124494   4.705   1.386   6.182
 8179TIP3    H224495   4.643   1.420   6.316
 8180TIP3   OH224496   4.889   0.991   1.308
 8180TIP3    H124497   4.929   1.053   1.369
 8180TIP3    H224498   4.836   0.934   1.364
 8181TIP3   OH224499   4.748   0.339   5.879
 8181TIP3    H124500   4.670   0.286   5.863
 8181TIP3    H224501   4.795   0.339   5.796
 8182TIP3   OH224502   8.282   5.279   4.898
 8182TIP3    H124503   8.247   5.198   4.862
 8182TIP3    H224504   8.332   5.253   4.975
 8183TIP3   OH224505   3.618   1.189   1.880
 8183TIP3    H124506   3.688   1.202   1.815
 8183TIP3    H224507   3.660   1.139   1.950
 8184TIP3   OH224508   3.188   7.237   0.584
 8184TIP3    H124509   3.262   7.277   0.539
 8184TIP3    H224510   3.140   7.190   0.516
 8185TIP3   OH224511  -0.009   5.409   5.728
 8185TIP3    H124512  -0.037   5.317   5.727
 8185TIP3    H224513   0.080   5.407   5.763
 8186TIP3   OH224514   4.713   4.573   2.478
 8186TIP3    H124515   4.775   4.532   2.539
 8186TIP3    H224516   4.750   4.555   2.391
 8187TIP3   OH224517   0.199   6.036   1.124
 8187TIP3    H124518   0.239   5.952   1.145
 8187TIP3    H224519   0.255   6.073   1.056
 8188TIP3   OH224520   7.636   5.870   4.223
 8188TIP3    H124521   7.704   5.823   4.271
 8188TIP3    H224522   7.675   5.890   4.138
 8189TIP3   OH224523   7.680   6.646   3.932
 8189TIP3    H124524   7.674   6.727   3.881
 8189TIP3    H224525   7.642   6.579   3.875
 8190TIP3   OH224526   0.937   4.098   3.773
 8190TIP3    H124527   0.869   4.054   3.826
 8190TIP3    H224528   0.889   4.163   3.722
 8191TIP3   OH224529   6.638   1.752   5.716
 8191TIP3    H124530   6.652   1.803   5.796
 8191TIP3    H224531   6.721   1.705   5.703
 8192TIP3   OH224532   1.550   6.442   2.275
 8192TIP3    H124533   1.552   6.512   2.341
 8192TIP3    H224534   1.462   6.404   2.284
 8193TIP3   OH224535   0.243   2.534   6.390
 8193TIP3    H124536   0.332   2.502   6.405
 8193TIP3    H224537   0.188   2.456   6.399
 8194TIP3   OH224538   5.931   7.299   0.614
 8194TIP3    H124539   5.860   7.237   0.629
 8194TIP3    H224540   5.888   7.374   0.572
 8195TIP3   OH224541   6.070   2.493   3.643
 8195TIP3    H124542   6.064   2.398   3.644
 8195TIP3    H224543   6.002   2.522   3.704
 8196TIP3   OH224544   3.302   7.616   3.276
 8196TIP3    H124545   3.356   7.666   3.337
 8196TIP3    H224546   3.245   7.681   3.235
 8197TIP3   OH224547   4.783   6.946   5.063
 8197TIP3    H124548   4.701   6.945   5.113
 8197TIP3    H224549   4.849   6.977   5.125
 8198TIP3   OH224550   0.464   5.956   3.030
 8198TIP3    H124551   0.443   5.922   2.944
 8198TIP3    H224552   0.427   5.892   3.091
 8199TIP3   OH224553   0.583   3.008   4.272
 8199TIP3    H124554   0.497   3.026   4.235
 8199TIP3    H224555   0.571   3.018   4.367
 8200TIP3   OH224556   5.362   6.882   1.414
 8200TIP3    H124557   5.318   6.818   1.358
 8200TIP3    H224558   5.293   6.914   1.472
 8201TIP3   OH224559   7.643   7.693   6.089
 8201TIP3    H124560   7.603   7.607   6.092
 8201TIP3    H224561   7.736   7.676   6.071
 8202TIP3   OH224562   2.811   6.780   3.411
 8202TIP3    H124563   2.776   6.691   3.414
 8202TIP3    H224564   2.902   6.768   3.384
 8203TIP3   OH224565   2.527   4.341   3.863
 8203TIP3    H124566   2.469   4.390   3.805
 8203TIP3    H224567   2.471   4.272   3.900
 8204TIP3   OH224568   5.052   4.221   2.165
 8204TIP3    H124569   5.128   4.167   2.188
 8204TIP3    H224570   5.090   4.301   2.127
 8205TIP3   OH224571   2.247   2.098   5.885
 8205TIP3    H124572   2.287   2.167   5.938
 8205TIP3    H224573   2.160   2.087   5.922
 8206TIP3   OH224574   4.358   7.800   1.976
 8206TIP3    H124575   4.448   7.786   1.946
 8206TIP3    H224576   4.321   7.860   1.911
 8207TIP3   OH224577   5.105   6.869   6.024
 8207TIP3    H124578   5.170   6.817   6.071
 8207TIP3    H224579   5.068   6.927   6.090
 8208TIP3   OH224580   3.133   4.980   3.576
 8208TIP3    H124581   3.042   4.987   3.606
 8208TIP3    H224582   3.185   4.981   3.657
 8209TIP3   OH224583   1.784   4.773   2.714
 8209TIP3    H124584   1.737   4.853   2.693
 8209TIP3    H224585   1.720   4.703   2.703
 8210TIP3   OH224586   2.680   3.015   5.563
 8210TIP3    H124587   2.633   3.099   5.557
 8210TIP3    H224588   2.636   2.959   5.499
 8211TIP3   OH224589   6.038   3.856   2.480
 8211TIP3    H124590   5.951   3.847   2.440
 8211TIP3    H224591   6.066   3.945   2.456
 8212TIP3   OH224592   7.137   6.867   4.144
 8212TIP3    H124593   7.125   6.886   4.237
 8212TIP3    H224594   7.057   6.822   4.117
 8213TIP3   OH224595   3.182   2.044   4.421
 8213TIP3    H124596   3.171   1.986   4.496
 8213TIP3    H224597   3.249   2.001   4.368
 8214TIP3   OH224598   0.592   3.360   4.711
 8214TIP3    H124599   0.539   3.436   4.686
 8214TIP3    H224600   0.679   3.379   4.678
 8215TIP3   OH224601   8.031   6.308   1.491
 8215TIP3    H124602   7.956   6.312   1.551
 8215TIP3    H224603   7.993   6.323   1.405
 8216TIP3   OH224604   5.264   3.726   1.044
 8216TIP3    H124605   5.297   3.733   0.954
 8216TIP3    H224606   5.317   3.788   1.094
 8217TIP3   OH224607   1.257   3.116   1.192
 8217TIP3    H124608   1.165   3.094   1.180
 8217TIP3    H224609   1.285   3.062   1.265
 8218TIP3   OH224610   5.840   6.261   4.083
 8218TIP3    H124611   5.787   6.248   4.004
 8218TIP3    H224612   5.808   6.343   4.119
 8219TIP3   OH224613   3.542   2.720   2.352
 8219TIP3    H124614   3.611   2.763   2.301
 8219TIP3    H224615   3.589   2.670   2.418
 8220TIP3   OH224616   2.426   4.675   1.009
 8220TIP3    H124617   2.331   4.682   1.013
 8220TIP3    H224618   2.451   4.634   1.091
 8221TIP3   OH224619   1.310   4.475   3.229
 8221TIP3    H124620   1.273   4.551   3.184
 8221TIP3    H224621   1.236   4.417   3.244
 8222TIP3   OH224622   2.679   0.294   6.154
 8222TIP3    H124623   2.619   0.300   6.079
 8222TIP3    H224624   2.760   0.335   6.122
 8223TIP3   OH224625   1.810   0.921   2.327
 8223TIP3    H124626   1.840   0.848   2.274
 8223TIP3    H224627   1.720   0.900   2.349
 8224TIP3   OH224628   6.310   7.468   0.969
 8224TIP3    H124629   6.325   7.377   0.945
 8224TIP3    H224630   6.219   7.485   0.944
 8225TIP3   OH224631   1.266   5.648   2.198
 8225TIP3    H124632   1.292   5.687   2.282
 8225TIP3    H224633   1.171   5.657   2.196
 8226TIP3   OH224634   1.070   2.245   5.615
 8226TIP3    H124635   1.001   2.203   5.563
 8226TIP3    H224636   1.079   2.332   5.577
 8227TIP3   OH224637   5.441   7.690   3.635
 8227TIP3    H124638   5.518   7.642   3.665
 8227TIP3    H224639   5.423   7.753   3.704
 8228TIP3   OH224640   1.238   7.285   2.589
 8228TIP3    H124641   1.258   7.370   2.628
 8228TIP3    H224642   1.144   7.274   2.601
 8229TIP3   OH224643   3.460   1.828   2.533
 8229TIP3    H124644   3.416   1.865   2.609
 8229TIP3    H224645   3.523   1.895   2.507
 8230TIP3   OH224646   5.124   4.914   0.595
 8230TIP3    H124647   5.082   4.852   0.653
 8230TIP3    H224648   5.065   4.921   0.520
 8231TIP3   OH224649   4.674   5.648   0.676
 8231TIP3    H124650   4.691   5.712   0.745
 8231TIP3    H224651   4.585   5.666   0.646
 8232TIP3   OH224652   5.830   5.996   1.403
 8232TIP3    H124653   5.807   6.087   1.425
 8232TIP3    H224654   5.878   6.003   1.321
 8233TIP3   OH224655   6.327   2.405   1.293
 8233TIP3    H124656   6.236   2.381   1.275
 8233TIP3    H224657   6.331   2.499   1.279
 8234TIP3   OH224658   6.563   7.731   0.181
 8234TIP3    H124659   6.638   7.758   0.234
 8234TIP3    H224660   6.487   7.764   0.228
 8235TIP3   OH224661   3.468   3.454   0.547
 8235TIP3    H124662   3.533   3.463   0.478
 8235TIP3    H224663   3.519   3.440   0.627
 8236TIP3   OH224664   1.900   5.024   0.070
 8236TIP3    H124665   1.962   5.097   0.061
 8236TIP3    H224666   1.881   4.997  -0.019
 8237TIP3   OH224667   3.562   7.151   5.002
 8237TIP3    H124668   3.550   7.242   5.030
 8237TIP3    H224669   3.586   7.104   5.082
 8238TIP3   OH224670   6.473   5.192   4.151
 8238TIP3    H124671   6.566   5.206   4.170
 8238TIP3    H224672   6.427   5.219   4.230
 8239TIP3   OH224673   5.583   0.046   6.171
 8239TIP3    H124674   5.577  -0.010   6.248
 8239TIP3    H224675   5.677   0.059   6.157
 8240TIP3   OH224676   4.990   4.290   4.588
 8240TIP3    H124677   4.952   4.332   4.666
 8240TIP3    H224678   4.918   4.289   4.525
 8241TIP3   OH224679   1.873   2.049   6.663
 8241TIP3    H124680   1.912   2.113   6.722
 8241TIP3    H224681   1.947   2.000   6.628
 8242TIP3   OH224682   6.579   7.691   1.658
 8242TIP3    H124683   6.551   7.613   1.611
 8242TIP3    H224684   6.588   7.662   1.749
 8243TIP3   OH224685   4.425   5.316   3.372
 8243TIP3    H124686   4.385   5.272   3.447
 8243TIP3    H224687   4.424   5.251   3.303
 8244TIP3   OH224688   1.725   0.970   4.325
 8244TIP3    H124689   1.756   0.882   4.345
 8244TIP3    H224690   1.714   0.970   4.230
 8245TIP3   OH224691   0.824   0.899   5.985
 8245TIP3    H124692   0.806   0.936   5.899
 8245TIP3    H224693   0.786   0.811   5.982
 8246TIP3   OH224694   1.000   4.401   0.778
 8246TIP3    H124695   0.949   4.325   0.751
 8246TIP3    H224696   0.957   4.431   0.859
 8247TIP3   OH224697   4.036   0.511   3.397
 8247TIP3    H124698   3.999   0.574   3.335
 8247TIP3    H224699   3.998   0.427   3.371
 8248TIP3   OH224700   1.890   1.051   4.551
 8248TIP3    H124701   1.810   1.021   4.509
 8248TIP3    H224702   1.960   1.026   4.491
 8249TIP3   OH224703   2.409   4.972   2.003
 8249TIP3    H124704   2.464   4.894   1.989
 8249TIP3    H224705   2.380   4.965   2.094
 8250TIP3   OH224706   4.892   6.648   4.332
 8250TIP3    H124707   4.876   6.555   4.347
 8250TIP3    H224708   4.905   6.684   4.419
 8251TIP3   OH224709   2.317   6.152   4.441
 8251TIP3    H124710   2.281   6.067   4.463
 8251TIP3    H224711   2.320   6.153   4.345
 8252TIP3   OH224712   4.568   6.724   6.038
 8252TIP3    H124713   4.603   6.689   6.120
 8252TIP3    H224714   4.531   6.809   6.063
 8253TIP3   OH224715   1.948   4.383   0.167
 8253TIP3    H124716   1.923   4.476   0.167
 8253TIP3    H224717   1.978   4.366   0.256
 8254TIP3   OH224718   1.006   4.527   6.327
 8254TIP3    H124719   1.046   4.476   6.257
 8254TIP3    H224720   1.063   4.603   6.336
 8255TIP3   OH224721   4.757   6.211   2.947
 8255TIP3    H124722   4.827   6.181   3.005
 8255TIP3    H224723   4.714   6.130   2.918
 8256TIP3   OH224724   6.706   4.020   2.582
 8256TIP3    H124725   6.790   4.054   2.551
 8256TIP3    H224726   6.644   4.042   2.513
 8257TIP3   OH224727   3.178   3.932   4.268
 8257TIP3    H124728   3.192   3.874   4.194
 8257TIP3    H224729   3.264   3.970   4.287
 8258TIP3   OH224730   1.680   0.040   2.066
 8258TIP3    H124731   1.754   0.083   2.109
 8258TIP3    H224732   1.602   0.081   2.104
 8259TIP3   OH224733   1.384   1.783   5.196
 8259TIP3    H124734   1.461   1.727   5.190
 8259TIP3    H224735   1.419   1.872   5.197
 8260TIP3   OH224736   7.877   5.170   1.823
 8260TIP3    H124737   7.829   5.250   1.844
 8260TIP3    H224738   7.887   5.173   1.727
 8261TIP3   OH224739   0.882   4.114   3.333
 8261TIP3    H124740   0.851   4.041   3.385
 8261TIP3    H224741   0.817   4.183   3.347
 8262TIP3   OH224742   7.515   4.786   0.452
 8262TIP3    H124743   7.425   4.786   0.483
 8262TIP3    H224744   7.521   4.707   0.398
 8263TIP3   OH224745   0.509   0.845   4.925
 8263TIP3    H124746   0.462   0.924   4.899
 8263TIP3    H224747   0.473   0.824   5.011
 8264TIP3   OH224748   5.397   0.220   6.043
 8264TIP3    H124749   5.390   0.296   6.101
 8264TIP3    H224750   5.466   0.166   6.082
 8265TIP3   OH224751   1.736   0.874   4.881
 8265TIP3    H124752   1.668   0.930   4.919
 8265TIP3    H224753   1.704   0.852   4.794
 8266TIP3   OH224754   3.264   7.799   1.213
 8266TIP3    H124755   3.328   7.836   1.274
 8266TIP3    H224756   3.179   7.822   1.252
 8267TIP3   OH224757   4.639   2.640   1.948
 8267TIP3    H124758   4.729   2.606   1.952
 8267TIP3    H224759   4.626   2.683   2.033
 8268TIP3   OH224760   1.396   0.235   6.542
 8268TIP3    H124761   1.371   0.297   6.473
 8268TIP3    H224762   1.342   0.158   6.525
 8269TIP3   OH224763   7.835   4.893   4.797
 8269TIP3    H124764   7.920   4.859   4.826
 8269TIP3    H224765   7.846   4.908   4.703
 8270TIP3   OH224766   2.219   0.197   3.098
 8270TIP3    H124767   2.240   0.290   3.108
 8270TIP3    H224768   2.301   0.157   3.070
 8271TIP3   OH224769   0.918   5.777   4.101
 8271TIP3    H124770   0.979   5.826   4.155
 8271TIP3    H224771   0.959   5.771   4.016
 8272TIP3   OH224772   1.194   3.301   3.865
 8272TIP3    H124773   1.235   3.231   3.916
 8272TIP3    H224774   1.226   3.289   3.776
 8273TIP3   OH224775   6.508   7.792   4.241
 8273TIP3    H124776   6.432   7.848   4.225
 8273TIP3    H224777   6.516   7.739   4.162
 8274TIP3   OH224778   3.264   1.582   4.880
 8274TIP3    H124779   3.175   1.605   4.853
 8274TIP3    H224780   3.253   1.547   4.969
 8275TIP3   OH224781   3.241   4.408   0.773
 8275TIP3    H124782   3.243   4.498   0.741
 8275TIP3    H224783   3.271   4.356   0.698
 8276TIP3   OH224784   3.076   5.387   3.445
 8276TIP3    H124785   3.002   5.353   3.495
 8276TIP3    H224786   3.037   5.450   3.384
 8277TIP3   OH224787   4.587   2.051   5.235
 8277TIP3    H124788   4.577   2.136   5.192
 8277TIP3    H224789   4.505   2.006   5.218
 8278TIP3   OH224790   3.902   7.360   3.781
 8278TIP3    H124791   3.914   7.436   3.837
 8278TIP3    H224792   3.983   7.353   3.731
 8279TIP3   OH224793   2.100  -0.004   4.204
 8279TIP3    H124794   2.152   0.076   4.200
 8279TIP3    H224795   2.083  -0.026   4.112
 8280TIP3   OH224796   5.206   3.526   3.463
 8280TIP3    H124797   5.292   3.561   3.443
 8280TIP3    H224798   5.210   3.505   3.557
 8281TIP3   OH224799   0.639   6.570   4.788
 8281TIP3    H124800   0.572   6.540   4.849
 8281TIP3    H224801   0.721   6.563   4.837
 8282TIP3   OH224802   4.209   4.433   2.817
 8282TIP3    H124803   4.272   4.375   2.859
 8282TIP3    H224804   4.127   4.420   2.865
 8283TIP3   OH224805   0.852   1.373   3.936
 8283TIP3    H124806   0.895   1.319   3.870
 8283TIP3    H224807   0.811   1.444   3.886
 8284TIP3   OH224808   5.730   3.043   3.217
 8284TIP3    H124809   5.777   2.964   3.190
 8284TIP3    H224810   5.748   3.051   3.310
 8285TIP3   OH224811   2.564   6.360   4.904
 8285TIP3    H124812   2.574   6.450   4.874
 8285TIP3    H224813   2.481   6.360   4.951
 8286TIP3   OH224814   6.148   7.433   1.241
 8286TIP3    H124815   6.065   7.419   1.195
 8286TIP3    H224816   6.166   7.526   1.232
 8287TIP3   OH224817   2.022   3.499   2.979
 8287TIP3    H124818   1.946   3.442   2.975
 8287TIP3    H224819   2.086   3.451   3.031
 8288TIP3   OH224820   0.515   5.857   3.985
 8288TIP3    H124821   0.473   5.779   3.948
 8288TIP3    H224822   0.582   5.881   3.921
 8289TIP3   OH224823   1.956   1.671   2.192
 8289TIP3    H124824   1.925   1.599   2.138
 8289TIP3    H224825   1.898   1.672   2.267
 8290TIP3   OH224826   4.625   4.191   2.800
 8290TIP3    H124827   4.643   4.109   2.847
 8290TIP3    H224828   4.680   4.185   2.722
 8291TIP3   OH224829   4.642   5.259   4.306
 8291TIP3    H124830   4.731   5.252   4.271
 8291TIP3    H224831   4.598   5.179   4.277
 8292TIP3   OH224832   1.407   1.262   5.896
 8292TIP3    H124833   1.498   1.281   5.872
 8292TIP3    H224834   1.406   1.267   5.992
 8293TIP3   OH224835   5.710   6.909   3.520
 8293TIP3    H124836   5.675   6.976   3.461
 8293TIP3    H224837   5.634   6.854   3.541
 8294TIP3   OH224838   6.020   6.675   3.636
 8294TIP3    H124839   5.960   6.703   3.705
 8294TIP3    H224840   5.963   6.646   3.564
 8295TIP3   OH224841   4.747   3.317   5.045
 8295TIP3    H124842   4.726   3.391   4.989
 8295TIP3    H224843   4.668   3.264   5.046
 8296TIP3   OH224844   3.658   5.795   4.087
 8296TIP3    H124845   3.669   5.881   4.127
 8296TIP3    H224846   3.564   5.788   4.072
 8297TIP3   OH224847   6.755   6.028   5.460
 8297TIP3    H124848   6.697   5.959   5.429
 8297TIP3    H224849   6.761   6.089   5.386
 8298TIP3   OH224850   6.634   6.081   6.535
 8298TIP3    H124851   6.633   6.015   6.604
 8298TIP3    H224852   6.638   6.164   6.582
 8299TIP3   OH224853   1.682   7.449   5.563
 8299TIP3    H124854   1.731   7.370   5.541
 8299TIP3    H224855   1.749   7.514   5.584
 8300TIP3   OH224856   6.826   0.559   6.300
 8300TIP3    H124857   6.881   0.531   6.372
 8300TIP3    H224858   6.835   0.490   6.234
 8301TIP3   OH224859   2.498   7.319   1.082
 8301TIP3    H124860   2.581   7.344   1.122
 8301TIP3    H224861   2.484   7.228   1.110
 8302TIP3   OH224862   1.341   4.633   2.259
 8302TIP3    H124863   1.301   4.719   2.243
 8302TIP3    H224864   1.427   4.638   2.217
 8303TIP3   OH224865   4.102   7.538   3.122
 8303TIP3    H124866   4.157   7.568   3.050
 8303TIP3    H224867   4.149   7.564   3.201
 8304TIP3   OH224868   7.779   0.406   5.543
 8304TIP3    H124869   7.867   0.433   5.520
 8304TIP3    H224870   7.722   0.450   5.480
 8305TIP3   OH224871   0.836   6.391   1.081
 8305TIP3    H124872   0.798   6.387   0.993
 8305TIP3    H224873   0.874   6.304   1.095
 8306TIP3   OH224874   6.302   6.643   0.763
 8306TIP3    H124875   6.300   6.569   0.824
 8306TIP3    H224876   6.242   6.618   0.693
 8307TIP3   OH224877   2.671   5.117   4.574
 8307TIP3    H124878   2.644   5.179   4.642
 8307TIP3    H224879   2.693   5.172   4.499
 8308TIP3   OH224880   4.106   2.201   2.508
 8308TIP3    H124881   4.159   2.260   2.563
 8308TIP3    H224882   4.079   2.256   2.434
 8309TIP3   OH224883   5.794   6.354   5.657
 8309TIP3    H124884   5.829   6.439   5.632
 8309TIP3    H224885   5.699   6.368   5.660
 8310TIP3   OH224886   4.731   3.279   0.356
 8310TIP3    H124887   4.768   3.230   0.282
 8310TIP3    H224888   4.669   3.218   0.396
 8311TIP3   OH224889   6.638   5.314   6.359
 8311TIP3    H124890   6.598   5.388   6.314
 8311TIP3    H224891   6.727   5.309   6.323
 8312TIP3   OH224892   5.925   4.946   2.303
 8312TIP3    H124893   5.979   5.003   2.249
 8312TIP3    H224894   5.898   4.875   2.245
 8313TIP3   OH224895   3.345   5.932   2.455
 8313TIP3    H124896   3.260   5.889   2.442
 8313TIP3    H224897   3.366   5.969   2.369
 8314TIP3   OH224898   0.572   6.253   4.890
 8314TIP3    H124899   0.527   6.238   4.807
 8314TIP3    H224900   0.505   6.286   4.949
 8315TIP3   OH224901   6.393   7.824   4.828
 8315TIP3    H124902   6.371   7.732   4.843
 8315TIP3    H224903   6.376   7.838   4.736
 8316TIP3   OH224904   0.845   2.804   2.781
 8316TIP3    H124905   0.871   2.878   2.725
 8316TIP3    H224906   0.783   2.842   2.843
 8317TIP3   OH224907   7.442   3.532   6.401
 8317TIP3    H124908   7.440   3.585   6.481
 8317TIP3    H224909   7.352   3.534   6.369
 8318TIP3   OH224910   3.730   0.799   3.643
 8318TIP3    H124911   3.644   0.818   3.679
 8318TIP3    H224912   3.738   0.857   3.567
 8319TIP3   OH224913   2.025   7.273   2.205
 8319TIP3    H124914   2.102   7.273   2.149
 8319TIP3    H224915   2.057   7.244   2.290
 8320TIP3   OH224916   7.710   2.592   4.997
 8320TIP3    H124917   7.759   2.657   4.947
 8320TIP3    H224918   7.645   2.643   5.047
 8321TIP3   OH224919   1.541   6.244   6.302
 8321TIP3    H124920   1.481   6.272   6.232
 8321TIP3    H224921   1.586   6.324   6.327
 8322TIP3   OH224922   7.863   0.915   4.932
 8322TIP3    H124923   7.919   0.886   4.860
 8322TIP3    H224924   7.777   0.927   4.891
 8323TIP3   OH224925   3.211   2.618   2.638
 8323TIP3    H124926   3.213   2.554   2.710
 8323TIP3    H224927   3.231   2.567   2.560
 8324TIP3   OH224928   1.227   6.777   0.776
 8324TIP3    H124929   1.156   6.730   0.733
 8324TIP3    H224930   1.256   6.842   0.711
 8325TIP3   OH224931   3.036   2.182   0.578
 8325TIP3    H124932   2.977   2.257   0.570
 8325TIP3    H224933   3.068   2.186   0.668
 8326TIP3   OH224934   1.805   4.130   6.686
 8326TIP3    H124935   1.759   4.094   6.609
 8326TIP3    H224936   1.894   4.144   6.656
 8327TIP3   OH224937   5.754   3.359   4.999
 8327TIP3    H124938   5.732   3.276   5.040
 8327TIP3    H224939   5.833   3.342   4.949
 8328TIP3   OH224940   0.082   3.000   6.310
 8328TIP3    H124941   0.086   2.923   6.368
 8328TIP3    H224942  -0.007   3.034   6.323
 8329TIP3   OH224943   3.891   6.238   3.634
 8329TIP3    H124944   3.934   6.239   3.720
 8329TIP3    H224945   3.824   6.170   3.642
 8330TIP3   OH224946   7.321   0.701   6.788
 8330TIP3    H124947   7.266   0.768   6.748
 8330TIP3    H224948   7.377   0.671   6.717
 8331TIP3   OH224949   6.007   3.341   0.101
 8331TIP3    H124950   6.006   3.294   0.184
 8331TIP3    H224951   5.966   3.281   0.039
 8332TIP3   OH224952   5.086   4.117   0.693
 8332TIP3    H124953   5.048   4.147   0.775
 8332TIP3    H224954   5.114   4.198   0.649
 8333TIP3   OH224955   4.738   1.462   0.165
 8333TIP3    H124956   4.689   1.527   0.115
 8333TIP3    H224957   4.736   1.383   0.111
 8334TIP3   OH224958   7.704   0.207   1.633
 8334TIP3    H124959   7.681   0.192   1.541
 8334TIP3    H224960   7.693   0.121   1.675
 8335TIP3   OH224961   2.378   6.742   1.237
 8335TIP3    H124962   2.389   6.669   1.176
 8335TIP3    H224963   2.317   6.710   1.303
 8336TIP3   OH224964   5.764   3.250   6.252
 8336TIP3    H124965   5.695   3.184   6.262
 8336TIP3    H224966   5.718   3.330   6.230
 8337TIP3   OH224967   4.834   7.350   3.446
 8337TIP3    H124968   4.746   7.337   3.408
 8337TIP3    H224969   4.891   7.293   3.394
 8338TIP3   OH224970   7.738   0.675   2.960
 8338TIP3    H124971   7.724   0.623   2.880
 8338TIP3    H224972   7.806   0.737   2.936
 8339TIP3   OH224973   1.103   3.295   6.120
 8339TIP3    H124974   1.170   3.324   6.057
 8339TIP3    H224975   1.137   3.212   6.154
 8340TIP3   OH224976   4.881   0.709   0.030
 8340TIP3    H124977   4.836   0.700  -0.053
 8340TIP3    H224978   4.851   0.635   0.082
 8341TIP3   OH224979   0.944   1.248   2.275
 8341TIP3    H124980   0.926   1.242   2.182
 8341TIP3    H224981   0.861   1.274   2.315
 8342TIP3   OH224982   1.647   5.602   0.131
 8342TIP3    H124983   1.588   5.561   0.194
 8342TIP3    H224984   1.601   5.681   0.102
 8343TIP3   OH224985   3.094   1.240   6.496
 8343TIP3    H124986   3.018   1.238   6.437
 8343TIP3    H224987   3.085   1.322   6.544
 8344TIP3   OH224988   1.002   5.546   0.336
 8344TIP3    H124989   0.957   5.503   0.263
 8344TIP3    H224990   0.970   5.501   0.414
 8345TIP3   OH224991   0.808   7.051   6.446
 8345TIP3    H124992   0.859   7.047   6.366
 8345TIP3    H224993   0.815   7.142   6.475
 8346TIP3   OH224994   0.516   1.914   2.426
 8346TIP3    H124995   0.563   1.996   2.443
 8346TIP3    H224996   0.567   1.847   2.471
 8347TIP3   OH224997   1.727   7.019   3.163
 8347TIP3    H124998   1.703   7.094   3.109
 8347TIP3    H224999   1.818   7.036   3.188
 8348TIP3   OH225000   3.355   7.503   6.148
 8348TIP3    H125001   3.308   7.523   6.067
 8348TIP3    H225002   3.429   7.564   6.148
 8349TIP3   OH225003   0.436   4.259   1.813
 8349TIP3    H125004   0.456   4.352   1.826
 8349TIP3    H225005   0.360   4.243   1.868
 8350TIP3   OH225006   4.149   0.887   6.489
 8350TIP3    H125007   4.191   0.884   6.575
 8350TIP3    H225008   4.159   0.798   6.454
 8351TIP3   OH225009   2.798   1.287   4.161
 8351TIP3    H125010   2.711   1.247   4.165
 8351TIP3    H225011   2.858   1.213   4.175
 8352TIP3   OH225012   0.885   5.476   1.002
 8352TIP3    H125013   0.923   5.563   0.988
 8352TIP3    H225014   0.953   5.428   1.049
 8353TIP3   OH225015   3.385   4.727   3.849
 8353TIP3    H125016   3.444   4.721   3.924
 8353TIP3    H225017   3.389   4.818   3.822
 8354TIP3   OH225018   0.624   0.728   1.165
 8354TIP3    H125019   0.594   0.801   1.110
 8354TIP3    H225020   0.545   0.698   1.209
 8355TIP3   OH225021   0.449   1.170   3.503
 8355TIP3    H125022   0.467   1.118   3.425
 8355TIP3    H225023   0.393   1.241   3.472
 8356TIP3   OH225024   1.390   6.115   1.185
 8356TIP3    H125025   1.343   6.035   1.160
 8356TIP3    H225026   1.481   6.087   1.195
 8357TIP3   OH225027   0.327   6.576   1.771
 8357TIP3    H125028   0.271   6.506   1.739
 8357TIP3    H225029   0.405   6.532   1.804
 8358TIP3   OH225030   5.394   0.355   5.358
 8358TIP3    H125031   5.464   0.296   5.385
 8358TIP3    H225032   5.417   0.439   5.398
 8359TIP3   OH225033   7.715   6.170   2.337
 8359TIP3    H125034   7.640   6.137   2.288
 8359TIP3    H225035   7.690   6.162   2.429
 8360TIP3   OH225036   3.077   3.953   1.255
 8360TIP3    H125037   3.023   3.875   1.241
 8360TIP3    H225038   3.042   3.992   1.335
 8361TIP3   OH225039   7.206   0.973   6.466
 8361TIP3    H125040   7.125   1.021   6.447
 8361TIP3    H225041   7.193   0.937   6.553
 8362TIP3   OH225042   2.528   4.649   5.146
 8362TIP3    H125043   2.435   4.638   5.168
 8362TIP3    H225044   2.528   4.696   5.063
 8363TIP3   OH225045   0.320   1.820   0.215
 8363TIP3    H125046   0.312   1.747   0.276
 8363TIP3    H225047   0.412   1.845   0.218
 8364TIP3   OH225048   7.869   3.073   0.698
 8364TIP3    H125049   7.920   3.001   0.735
 8364TIP3    H225050   7.897   3.150   0.748
 8365TIP3   OH225051   2.929   7.115   5.698
 8365TIP3    H125052   2.896   7.034   5.659
 8365TIP3    H225053   2.996   7.145   5.636
 8366TIP3   OH225054   6.077   5.945   6.371
 8366TIP3    H125055   6.063   5.862   6.324
 8366TIP3    H225056   5.997   5.957   6.422
 8367TIP3   OH225057   5.698   4.319   6.724
 8367TIP3    H125058   5.688   4.414   6.717
 8367TIP3    H225059   5.737   4.305   6.811
 8368TIP3   OH225060   0.733   6.040   3.583
 8368TIP3    H125061   0.664   6.047   3.649
 8368TIP3    H225062   0.815   6.037   3.633
 8369TIP3   OH225063   8.058   2.821   3.025
 8369TIP3    H125064   8.044   2.752   3.090
 8369TIP3    H225065   8.120   2.783   2.963
 8370TIP3   OH225066   6.300   4.377   3.476
 8370TIP3    H125067   6.393   4.398   3.491
 8370TIP3    H225068   6.253   4.443   3.528
 8371TIP3   OH225069   3.197   4.073   1.782
 8371TIP3    H125070   3.268   4.028   1.737
 8371TIP3    H225071   3.205   4.044   1.873
 8372TIP3   OH225072   4.355   6.956   0.610
 8372TIP3    H125073   4.405   6.892   0.661
 8372TIP3    H225074   4.279   6.907   0.579
 8373TIP3   OH225075   5.069   6.498   1.910
 8373TIP3    H125076   5.046   6.414   1.871
 8373TIP3    H225077   4.990   6.551   1.905
 8374TIP3   OH225078   7.733   7.130   4.804
 8374TIP3    H125079   7.821   7.154   4.774
 8374TIP3    H225080   7.709   7.054   4.751
 8375TIP3   OH225081   0.296   5.262   3.520
 8375TIP3    H125082   0.366   5.198   3.508
 8375TIP3    H225083   0.274   5.291   3.432
 8376TIP3   OH225084   6.473   4.510   6.384
 8376TIP3    H125085   6.412   4.480   6.451
 8376TIP3    H225086   6.513   4.589   6.421
 8377TIP3   OH225087   8.040   0.852   5.848
 8377TIP3    H125088   8.122   0.895   5.872
 8377TIP3    H225089   8.016   0.892   5.764
 8378TIP3   OH225090   2.991   1.324   5.834
 8378TIP3    H125091   2.903   1.304   5.802
 8378TIP3    H225092   2.990   1.299   5.926
 8379TIP3   OH225093   2.042   5.403   3.415
 8379TIP3    H125094   1.961   5.353   3.407
 8379TIP3    H225095   2.048   5.423   3.509
 8380TIP3   OH225096   3.081   4.052   6.177
 8380TIP3    H125097   3.061   4.031   6.268
 8380TIP3    H225098   3.070   4.147   6.171
 8381TIP3   OH225099   2.797   3.347   6.510
 8381TIP3    H125100   2.737   3.315   6.578
 8381TIP3    H225101   2.794   3.442   6.518
 8382TIP3   OH225102   7.206   5.283   1.128
 8382TIP3    H125103   7.297   5.300   1.150
 8382TIP3    H225104   7.157   5.351   1.173
 8383TIP3   OH225105   2.209   6.393   3.428
 8383TIP3    H125106   2.206   6.409   3.523
 8383TIP3    H225107   2.279   6.450   3.397
 8384TIP3   OH225108   3.791   7.728   4.381
 8384TIP3    H125109   3.820   7.637   4.368
 8384TIP3    H225110   3.761   7.731   4.472
 8385TIP3   OH225111   1.856   2.745   5.023
 8385TIP3    H125112   1.914   2.695   4.966
 8385TIP3    H225113   1.904   2.752   5.105
 8386TIP3   OH225114   0.517   7.639   0.519
 8386TIP3    H125115   0.508   7.614   0.611
 8386TIP3    H225116   0.517   7.734   0.520
 8387TIP3   OH225117   2.016   0.130   5.084
 8387TIP3    H125118   2.018   0.175   5.000
 8387TIP3    H225119   2.104   0.140   5.119
 8388TIP3   OH225120   2.991   5.026   3.028
 8388TIP3    H125121   2.935   5.017   2.951
 8388TIP3    H225122   3.004   5.120   3.037
 8389TIP3   OH225123   6.099   4.659   2.952
 8389TIP3    H125124   6.027   4.722   2.948
 8389TIP3    H225125   6.170   4.707   2.995
 8390TIP3   OH225126   5.699   7.200   3.677
 8390TIP3    H125127   5.716   7.232   3.765
 8390TIP3    H225128   5.631   7.133   3.688
 8391TIP3   OH225129   0.280   4.640   5.195
 8391TIP3    H125130   0.186   4.649   5.211
 8391TIP3    H225131   0.309   4.728   5.171
 8392TIP3   OH225132   2.378   2.847   2.213
 8392TIP3    H125133   2.307   2.910   2.206
 8392TIP3    H225134   2.455   2.900   2.237
 8393TIP3   OH225135   6.937   4.921   0.670
 8393TIP3    H125136   6.913   4.906   0.578
 8393TIP3    H225137   6.902   4.845   0.716
 8394TIP3   OH225138   6.784   2.587   4.540
 8394TIP3    H125139   6.695   2.552   4.544
 8394TIP3    H225140   6.839   2.511   4.523
 8395TIP3   OH225141   7.020   3.570   4.619
 8395TIP3    H125142   6.959   3.505   4.585
 8395TIP3    H225143   7.077   3.590   4.544
 8396TIP3   OH225144   7.261   6.089   0.626
 8396TIP3    H125145   7.280   6.183   0.619
 8396TIP3    H225146   7.305   6.050   0.551
 8397TIP3   OH225147   3.160   0.275   3.305
 8397TIP3    H125148   3.122   0.327   3.376
 8397TIP3    H225149   3.240   0.238   3.343
 8398TIP3   OH225150   4.756   6.323   2.417
 8398TIP3    H125151   4.740   6.413   2.389
 8398TIP3    H225152   4.735   6.323   2.510
 8399TIP3   OH225153   0.680   3.976   1.093
 8399TIP3    H125154   0.729   3.982   1.012
 8399TIP3    H225155   0.696   3.888   1.126
 8400TIP3   OH225156   4.339   6.066   4.296
 8400TIP3    H125157   4.287   5.991   4.266
 8400TIP3    H225158   4.276   6.138   4.298
 8401TIP3   OH225159   3.711   2.618   3.088
 8401TIP3    H125160   3.766   2.558   3.138
 8401TIP3    H225161   3.657   2.561   3.034
 8402TIP3   OH225162   0.520   6.622   0.760
 8402TIP3    H125163   0.529   6.526   0.760
 8402TIP3    H225164   0.427   6.636   0.777
 8403TIP3   OH225165   3.566   1.982   0.914
 8403TIP3    H125166   3.601   1.908   0.864
 8403TIP3    H225167   3.602   1.972   1.002
 8404TIP3   OH225168   1.220   1.884   5.442
 8404TIP3    H125169   1.217   1.896   5.347
 8404TIP3    H225170   1.140   1.927   5.473
 8405TIP3   OH225171   5.055   2.105   2.523
 8405TIP3    H125172   5.035   2.131   2.613
 8405TIP3    H225173   5.044   2.010   2.523
 8406TIP3   OH225174   7.755   0.893   2.179
 8406TIP3    H125175   7.800   0.972   2.209
 8406TIP3    H225176   7.788   0.879   2.090
 8407TIP3   OH225177   1.375   5.886   6.558
 8407TIP3    H125178   1.297   5.874   6.612
 8407TIP3    H225179   1.395   5.797   6.526
 8408TIP3   OH225180   4.601   5.363   1.091
 8408TIP3    H125181   4.689   5.343   1.061
 8408TIP3    H225182   4.586   5.301   1.163
 8409TIP3   OH225183   6.254   1.164   4.712
 8409TIP3    H125184   6.305   1.244   4.729
 8409TIP3    H225185   6.166   1.196   4.692
 8410TIP3   OH225186   6.731   0.436   0.707
 8410TIP3    H125187   6.694   0.523   0.720
 8410TIP3    H225188   6.723   0.420   0.613
 8411TIP3   OH225189   7.732   1.678   3.401
 8411TIP3    H125190   7.689   1.593   3.408
 8411TIP3    H225191   7.719   1.704   3.310
 8412TIP3   OH225192   0.024   4.422   2.666
 8412TIP3    H125193  -0.046   4.368   2.629
 8412TIP3    H225194   0.098   4.362   2.675
 8413TIP3   OH225195   2.766   6.886   0.860
 8413TIP3    H125196   2.741   6.816   0.799
 8413TIP3    H225197   2.760   6.846   0.946
 8414TIP3   OH225198   0.314   0.820   4.364
 8414TIP3    H125199   0.332   0.745   4.421
 8414TIP3    H225200   0.342   0.896   4.416
 8415TIP3   OH225201   1.644   2.208   3.255
 8415TIP3    H125202   1.559   2.232   3.290
 8415TIP3    H225203   1.634   2.212   3.160
 8416TIP3   OH225204   0.171   6.906   5.343
 8416TIP3    H125205   0.244   6.851   5.370
 8416TIP3    H225206   0.099   6.845   5.327
 8417TIP3   OH225207   7.852   1.070   4.351
 8417TIP3    H125208   7.922   1.041   4.410
 8417TIP3    H225209   7.889   1.058   4.264
 8418TIP3   OH225210   1.330   1.510   1.978
 8418TIP3    H125211   1.285   1.449   2.036
 8418TIP3    H225212   1.272   1.585   1.973
 8419TIP3   OH225213   3.484   4.983   5.613
 8419TIP3    H125214   3.408   5.038   5.634
 8419TIP3    H225215   3.488   4.919   5.684
 8420TIP3   OH225216   0.200   3.315   2.141
 8420TIP3    H125217   0.193   3.220   2.130
 8420TIP3    H225218   0.232   3.347   2.057
 8421TIP3   OH225219   2.413   1.694   4.385
 8421TIP3    H125220   2.320   1.710   4.368
 8421TIP3    H225221   2.454   1.780   4.379
 8422TIP3   OH225222   7.525   4.575   3.823
 8422TIP3    H125223   7.487   4.632   3.889
 8422TIP3    H225224   7.543   4.493   3.869
 8423TIP3   OH225225   1.223   0.505   3.700
 8423TIP3    H125226   1.220   0.432   3.762
 8423TIP3    H225227   1.212   0.583   3.754
 8424TIP3   OH225228   3.164   0.871   4.909
 8424TIP3    H125229   3.177   0.801   4.846
 8424TIP3    H225230   3.251   0.886   4.947
 8425TIP3   OH225231   8.110   6.578   4.196
 8425TIP3    H125232   8.017   6.596   4.178
 8425TIP3    H225233   8.156   6.652   4.157
 8426TIP3   OH225234   0.652   5.977   2.190
 8426TIP3    H125235   0.607   6.017   2.265
 8426TIP3    H225236   0.733   5.942   2.227
 8427TIP3   OH225237   5.621   3.904   3.261
 8427TIP3    H125238   5.553   3.940   3.318
 8427TIP3    H225239   5.572   3.864   3.188
 8428TIP3   OH225240   6.702   1.858   1.242
 8428TIP3    H125241   6.619   1.895   1.273
 8428TIP3    H225242   6.695   1.764   1.260
 8429TIP3   OH225243   2.039   2.785   6.721
 8429TIP3    H125244   2.018   2.855   6.658
 8429TIP3    H225245   2.052   2.708   6.666
 8430TIP3   OH225246   0.639   5.343   1.983
 8430TIP3    H125247   0.586   5.413   1.946
 8430TIP3    H225248   0.590   5.263   1.964
 8431TIP3   OH225249   6.277   6.060   6.228
 8431TIP3    H125250   6.205   6.029   6.283
 8431TIP3    H225251   6.312   6.136   6.275
 8432TIP3   OH225252   4.763   2.625   0.907
 8432TIP3    H125253   4.750   2.612   1.001
 8432TIP3    H225254   4.701   2.693   0.882
 8433TIP3   OH225255   5.809   5.083   1.092
 8433TIP3    H125256   5.732   5.110   1.042
 8433TIP3    H225257   5.852   5.165   1.115
 8434TIP3   OH225258   1.157   0.763   3.533
 8434TIP3    H125259   1.155   0.857   3.511
 8434TIP3    H225260   1.174   0.761   3.627
 8435TIP3   OH225261   8.278   5.878   2.021
 8435TIP3    H125262   8.262   5.907   1.932
 8435TIP3    H225263   8.196   5.898   2.068
 8436TIP3   OH225264   5.701   1.615   2.814
 8436TIP3    H125265   5.708   1.541   2.874
 8436TIP3    H225266   5.671   1.577   2.732
 8437TIP3   OH225267   7.892   6.246   3.475
 8437TIP3    H125268   7.902   6.331   3.432
 8437TIP3    H225269   7.980   6.207   3.472
 8438TIP3   OH225270   6.762   1.050   5.066
 8438TIP3    H125271   6.668   1.047   5.085
 8438TIP3    H225272   6.770   1.110   4.992
 8439TIP3   OH225273   3.168   2.909   4.962
 8439TIP3    H125274   3.215   2.950   5.034
 8439TIP3    H225275   3.139   2.983   4.908
 8440TIP3   OH225276   7.479   6.673   2.526
 8440TIP3    H125277   7.449   6.731   2.456
 8440TIP3    H225278   7.399   6.639   2.566
 8441TIP3   OH225279   1.368   3.975   5.086
 8441TIP3    H125280   1.427   4.043   5.054
 8441TIP3    H225281   1.426   3.901   5.107
 8442TIP3   OH225282   7.568   5.742   0.817
 8442TIP3    H125283   7.621   5.705   0.746
 8442TIP3    H225284   7.595   5.834   0.821
 8443TIP3   OH225285   6.140   4.476   6.382
 8443TIP3    H125286   6.118   4.562   6.418
 8443TIP3    H225287   6.171   4.495   6.293
 8444TIP3   OH225288   5.743   6.623   2.563
 8444TIP3    H125289   5.770   6.704   2.520
 8444TIP3    H225290   5.648   6.628   2.568
 8445TIP3   OH225291   3.152   5.943   4.571
 8445TIP3    H125292   3.111   6.029   4.574
 8445TIP3    H225293   3.238   5.958   4.532
 8446TIP3   OH225294   5.760   3.814   5.034
 8446TIP3    H125295   5.779   3.841   4.944
 8446TIP3    H225296   5.762   3.896   5.084
 8447TIP3   OH225297   1.653   7.717   4.968
 8447TIP3    H125298   1.700   7.782   5.021
 8447TIP3    H225299   1.563   7.721   5.000
 8448TIP3   OH225300   2.225   2.503   5.677
 8448TIP3    H125301   2.185   2.469   5.757
 8448TIP3    H225302   2.288   2.435   5.651
 8449TIP3   OH225303   2.604   5.435   6.380
 8449TIP3    H125304   2.577   5.527   6.375
 8449TIP3    H225305   2.617   5.409   6.289
 8450TIP3   OH225306   0.106   3.659   0.801
 8450TIP3    H125307   0.031   3.696   0.849
 8450TIP3    H225308   0.102   3.700   0.715
 8451TIP3   OH225309   1.658   3.438   6.100
 8451TIP3    H125310   1.659   3.533   6.108
 8451TIP3    H225311   1.650   3.406   6.190
 8452TIP3   OH225312   0.262   2.121   3.353
 8452TIP3    H125313   0.293   2.211   3.341
 8452TIP3    H225314   0.341   2.067   3.344
 8453TIP3   OH225315   1.342   3.363   5.043
 8453TIP3    H125316   1.432   3.387   5.065
 8453TIP3    H225317   1.343   3.347   4.949
 8454TIP3   OH225318   5.072   5.005   3.320
 8454TIP3    H125319   5.042   5.004   3.229
 8454TIP3    H225320   5.072   4.913   3.346
 8455TIP3   OH225321   1.591   1.730   1.305
 8455TIP3    H125322   1.568   1.778   1.224
 8455TIP3    H225323   1.682   1.756   1.322
 8456TIP3   OH225324   6.658   3.336   1.551
 8456TIP3    H125325   6.697   3.404   1.604
 8456TIP3    H225326   6.567   3.363   1.540
 8457TIP3   OH225327   6.070   4.798   1.287
 8457TIP3    H125328   6.104   4.710   1.271
 8457TIP3    H225329   6.141   4.856   1.259
 8458TIP3   OH225330   3.546   7.520   1.032
 8458TIP3    H125331   3.455   7.516   1.061
 8458TIP3    H225332   3.540   7.550   0.941
 8459TIP3   OH225333   2.061   0.992   0.903
 8459TIP3    H125334   2.134   0.938   0.935
 8459TIP3    H225335   2.088   1.019   0.815
 8460TIP3   OH225336   7.186   0.412   0.072
 8460TIP3    H125337   7.231   0.339   0.031
 8460TIP3    H225338   7.105   0.374   0.107
 8461TIP3   OH225339   3.054   0.747   5.716
 8461TIP3    H125340   3.120   0.752   5.647
 8461TIP3    H225341   3.005   0.829   5.709
 8462TIP3   OH225342   5.285   6.548   4.789
 8462TIP3    H125343   5.206   6.602   4.787
 8462TIP3    H225344   5.336   6.583   4.862
 8463TIP3   OH225345   4.119   7.374   0.782
 8463TIP3    H125346   4.073   7.429   0.846
 8463TIP3    H225347   4.051   7.319   0.744
 8464TIP3   OH225348   1.653   2.083   5.957
 8464TIP3    H125349   1.671   1.989   5.956
 8464TIP3    H225350   1.598   2.096   6.034
 8465TIP3   OH225351   3.587   5.079   6.233
 8465TIP3    H125352   3.571   5.001   6.287
 8465TIP3    H225353   3.499   5.110   6.210
 8466TIP3   OH225354   7.889   2.475   6.065
 8466TIP3    H125355   7.826   2.525   6.014
 8466TIP3    H225356   7.950   2.540   6.098
 8467TIP3   OH225357   2.938   7.146   0.236
 8467TIP3    H125358   3.012   7.162   0.176
 8467TIP3    H225359   2.907   7.059   0.212
 8468TIP3   OH225360   6.519   6.703   2.800
 8468TIP3    H125361   6.463   6.763   2.751
 8468TIP3    H225362   6.470   6.620   2.800
 8469TIP3   OH225363   4.565   5.694   6.162
 8469TIP3    H125364   4.506   5.730   6.227
 8469TIP3    H225365   4.508   5.670   6.089
 8470TIP3   OH225366   1.280   6.548   4.592
 8470TIP3    H125367   1.196   6.526   4.552
 8470TIP3    H225368   1.342   6.485   4.555
 8471TIP3   OH225369   1.592   1.281   0.335
 8471TIP3    H125370   1.645   1.314   0.263
 8471TIP3    H225371   1.501   1.292   0.305
 8472TIP3   OH225372   1.519   5.474   4.218
 8472TIP3    H125373   1.443   5.510   4.264
 8472TIP3    H225374   1.569   5.429   4.287
 8473TIP3   OH225375   3.578   7.168   1.642
 8473TIP3    H125376   3.514   7.145   1.709
 8473TIP3    H225377   3.600   7.259   1.661
 8474TIP3   OH225378   3.853   4.712   5.898
 8474TIP3    H125379   3.920   4.756   5.949
 8474TIP3    H225380   3.784   4.690   5.960
 8475TIP3   OH225381   2.948   0.786   0.618
 8475TIP3    H125382   2.976   0.706   0.574
 8475TIP3    H225383   2.858   0.800   0.588
 8476TIP3   OH225384   5.093   1.729   6.051
 8476TIP3    H125385   5.176   1.737   6.005
 8476TIP3    H225386   5.117   1.726   6.144
 8477TIP3   OH225387   8.141   7.181   0.520
 8477TIP3    H125388   8.058   7.221   0.546
 8477TIP3    H225389   8.148   7.200   0.426
 8478TIP3   OH225390   4.125   1.827   5.287
 8478TIP3    H125391   4.120   1.900   5.225
 8478TIP3    H225392   4.215   1.795   5.278
 8479TIP3   OH225393   4.207   1.977   0.654
 8479TIP3    H125394   4.158   2.030   0.591
 8479TIP3    H225395   4.281   2.032   0.680
 8480TIP3   OH225396   2.006   3.024   1.291
 8480TIP3    H125397   1.961   3.034   1.207
 8480TIP3    H225398   1.940   3.046   1.357
 8481TIP3   OH225399   7.727   7.504   6.329
 8481TIP3    H125400   7.802   7.539   6.377
 8481TIP3    H225401   7.660   7.572   6.336
 8482TIP3   OH225402   4.569   0.058   2.181
 8482TIP3    H125403   4.608  -0.028   2.197
 8482TIP3    H225404   4.641   0.119   2.195
 8483TIP3   OH225405   6.301   3.324   0.326
 8483TIP3    H125406   6.241   3.311   0.400
 8483TIP3    H225407   6.366   3.254   0.337
 8484TIP3   OH225408   1.493   1.396   4.864
 8484TIP3    H125409   1.473   1.333   4.795
 8484TIP3    H225410   1.416   1.393   4.921
 8485TIP3   OH225411   4.326   1.448   2.584
 8485TIP3    H125412   4.387   1.516   2.557
 8485TIP3    H225413   4.288   1.416   2.503
 8486TIP3   OH225414   4.250   3.111   3.776
 8486TIP3    H125415   4.194   3.054   3.723
 8486TIP3    H225416   4.226   3.091   3.866
 8487TIP3   OH225417   2.530   6.995   4.209
 8487TIP3    H125418   2.436   6.996   4.227
 8487TIP3    H225419   2.538   7.021   4.117
 8488TIP3   OH225420   0.170   6.060   0.511
 8488TIP3    H125421   0.144   6.054   0.603
 8488TIP3    H225422   0.125   6.137   0.478
 8489TIP3   OH225423   0.834   1.995   2.843
 8489TIP3    H125424   0.847   1.934   2.770
 8489TIP3    H225425   0.749   2.035   2.826
 8490TIP3   OH225426   1.906   5.805   2.735
 8490TIP3    H125427   1.896   5.710   2.729
 8490TIP3    H225428   1.920   5.833   2.645
 8491TIP3   OH225429   6.879   1.244   0.730
 8491TIP3    H125430   6.817   1.270   0.662
 8491TIP3    H225431   6.956   1.214   0.683
 8492TIP3   OH225432   2.930   1.661   6.019
 8492TIP3    H125433   3.006   1.652   5.961
 8492TIP3    H225434   2.856   1.677   5.960
 8493TIP3   OH225435   1.621   5.893   6.011
 8493TIP3    H125436   1.621   5.801   5.986
 8493TIP3    H225437   1.659   5.895   6.098
 8494TIP3   OH225438   2.136   6.970   5.393
 8494TIP3    H125439   2.197   6.898   5.406
 8494TIP3    H225440   2.191   7.048   5.391
 8495TIP3   OH225441   3.826   6.300   4.436
 8495TIP3    H125442   3.770   6.364   4.392
 8495TIP3    H225443   3.796   6.300   4.527
 8496TIP3   OH225444   8.069   6.078   3.761
 8496TIP3    H125445   8.031   6.133   3.830
 8496TIP3    H225446   8.159   6.063   3.789
 8497TIP3   OH225447   1.641   6.743   3.137
 8497TIP3    H125448   1.684   6.822   3.167
 8497TIP3    H225449   1.655   6.742   3.042
 8498TIP3   OH225450   5.285   4.657   6.082
 8498TIP3    H125451   5.351   4.686   6.145
 8498TIP3    H225452   5.203   4.662   6.131
 8499TIP3   OH225453   7.876   5.590   2.442
 8499TIP3    H125454   7.906   5.499   2.437
 8499TIP3    H225455   7.819   5.593   2.519
 8500TIP3   OH225456   7.260   6.967   3.635
 8500TIP3    H125457   7.259   6.986   3.541
 8500TIP3    H225458   7.198   7.030   3.672
 8501TIP3   OH225459   0.550   1.969   2.729
 8501TIP3    H125460   0.611   1.896   2.717
 8501TIP3    H225461   0.576   2.033   2.663
 8502TIP3   OH225462   4.428   4.792   2.756
 8502TIP3    H125463   4.375   4.863   2.719
 8502TIP3    H225464   4.454   4.824   2.842
 8503TIP3   OH225465   4.541   2.574   2.252
 8503TIP3    H125466   4.464   2.520   2.231
 8503TIP3    H225467   4.510   2.664   2.244
 8504TIP3   OH225468   2.585   7.455   4.701
 8504TIP3    H125469   2.503   7.499   4.722
 8504TIP3    H225470   2.568   7.409   4.619
 8505TIP3   OH225471   8.266   5.381   6.545
 8505TIP3    H125472   8.198   5.344   6.489
 8505TIP3    H225473   8.233   5.468   6.569
 8506TIP3   OH225474   6.368   0.576   1.588
 8506TIP3    H125475   6.325   0.494   1.613
 8506TIP3    H225476   6.362   0.577   1.493
 8507TIP3   OH225477   7.887   1.180   2.495
 8507TIP3    H125478   7.928   1.102   2.532
 8507TIP3    H225479   7.955   1.218   2.438
 8508TIP3   OH225480   2.022   3.736   1.302
 8508TIP3    H125481   2.023   3.734   1.207
 8508TIP3    H225482   2.085   3.669   1.328
 8509TIP3   OH225483   7.540   7.016   1.402
 8509TIP3    H125484   7.451   7.043   1.379
 8509TIP3    H225485   7.530   6.973   1.487
 8510TIP3   OH225486   1.712   0.345   4.973
 8510TIP3    H125487   1.632   0.303   5.002
 8510TIP3    H225488   1.773   0.336   5.047
 8511TIP3   OH225489   5.075   0.351   3.277
 8511TIP3    H125490   5.153   0.295   3.270
 8511TIP3    H225491   5.089   0.420   3.212
 8512TIP3   OH225492   2.537   5.888   0.306
 8512TIP3    H125493   2.587   5.949   0.361
 8512TIP3    H225494   2.457   5.871   0.356
 8513TIP3   OH225495   1.952   0.371   4.095
 8513TIP3    H125496   1.872   0.388   4.045
 8513TIP3    H225497   1.962   0.447   4.152
 8514TIP3   OH225498   6.314   1.444   2.701
 8514TIP3    H125499   6.301   1.399   2.618
 8514TIP3    H225500   6.397   1.489   2.691
 8515TIP3   OH225501   7.523   0.979   5.231
 8515TIP3    H125502   7.560   1.062   5.201
 8515TIP3    H225503   7.545   0.917   5.162
 8516TIP3   OH225504   7.432   7.424   1.981
 8516TIP3    H125505   7.482   7.452   1.904
 8516TIP3    H225506   7.358   7.485   1.985
 8517TIP3   OH225507   2.856   6.202   1.619
 8517TIP3    H125508   2.772   6.191   1.574
 8517TIP3    H225509   2.907   6.260   1.562
 8518TIP3   OH225510   4.069   3.529   6.606
 8518TIP3    H125511   4.141   3.512   6.666
 8518TIP3    H225512   4.024   3.445   6.597
 8519TIP3   OH225513   6.429   0.033   5.865
 8519TIP3    H125514   6.393  -0.025   5.798
 8519TIP3    H225515   6.460   0.110   5.817
 8520TIP3   OH225516   4.873   7.594   0.167
 8520TIP3    H125517   4.921   7.653   0.226
 8520TIP3    H225518   4.856   7.648   0.089
 8521TIP3   OH225519   7.603   4.752   5.146
 8521TIP3    H125520   7.566   4.694   5.079
 8521TIP3    H225521   7.596   4.840   5.108
 8522TIP3   OH225522   2.365   6.447   2.861
 8522TIP3    H125523   2.379   6.506   2.787
 8522TIP3    H225524   2.438   6.386   2.858
 8523TIP3   OH225525   2.095   2.650   0.308
 8523TIP3    H125526   2.062   2.565   0.339
 8523TIP3    H225527   2.019   2.693   0.269
 8524TIP3   OH225528   4.763   3.451   0.703
 8524TIP3    H125529   4.830   3.401   0.656
 8524TIP3    H225530   4.787   3.444   0.795
 8525TIP3   OH225531   3.923   4.488   4.526
 8525TIP3    H125532   3.913   4.502   4.620
 8525TIP3    H225533   3.838   4.458   4.496
 8526TIP3   OH225534   5.121   3.524   1.463
 8526TIP3    H125535   5.126   3.589   1.533
 8526TIP3    H225536   5.037   3.541   1.421
 8527TIP3   OH225537   2.442   0.335   1.530
 8527TIP3    H125538   2.536   0.343   1.512
 8527TIP3    H225539   2.438   0.273   1.603
 8528TIP3   OH225540   8.128   2.491   5.438
 8528TIP3    H125541   8.045   2.536   5.423
 8528TIP3    H225542   8.102   2.402   5.463
 8529TIP3   OH225543   3.340   4.033   5.871
 8529TIP3    H125544   3.359   4.019   5.778
 8529TIP3    H225545   3.405   3.979   5.916
 8530TIP3   OH225546   5.316   0.183   1.221
 8530TIP3    H125547   5.223   0.200   1.237
 8530TIP3    H225548   5.350   0.265   1.185
 8531TIP3   OH225549   4.756   5.190   1.320
 8531TIP3    H125550   4.768   5.284   1.329
 8531TIP3    H225551   4.798   5.153   1.398
 8532TIP3   OH225552   6.758   5.782   3.011
 8532TIP3    H125553   6.764   5.856   3.071
 8532TIP3    H225554   6.814   5.714   3.049
 8533TIP3   OH225555   7.373   5.428   1.685
 8533TIP3    H125556   7.455   5.467   1.655
 8533TIP3    H225557   7.394   5.336   1.697
 8534TIP3   OH225558   7.842   4.573   3.898
 8534TIP3    H125559   7.786   4.588   3.974
 8534TIP3    H225560   7.864   4.480   3.903
 8535TIP3   OH225561   1.808   4.357   5.011
 8535TIP3    H125562   1.743   4.427   5.004
 8535TIP3    H225563   1.855   4.358   4.928
 8536TIP3   OH225564   8.208   1.489   1.069
 8536TIP3    H125565   8.156   1.469   1.147
 8536TIP3    H225566   8.176   1.574   1.040
 8537TIP3   OH225567   6.432   5.749   5.772
 8537TIP3    H125568   6.454   5.821   5.714
 8537TIP3    H225569   6.455   5.781   5.860
 8538TIP3   OH225570   2.221   3.959   2.968
 8538TIP3    H125571   2.229   4.028   2.903
 8538TIP3    H225572   2.212   3.878   2.917
 8539TIP3   OH225573   0.894   2.709   5.135
 8539TIP3    H125574   0.896   2.616   5.161
 8539TIP3    H225575   0.808   2.721   5.095
 8540TIP3   OH225576   1.529   3.119   3.579
 8540TIP3    H125577   1.453   3.171   3.603
 8540TIP3    H225578   1.512   3.032   3.615
 8541TIP3   OH225579   6.675   2.497   2.151
 8541TIP3    H125580   6.753   2.552   2.142
 8541TIP3    H225581   6.685   2.430   2.084
 8542TIP3   OH225582   2.313   5.373   3.398
 8542TIP3    H125583   2.289   5.280   3.407
 8542TIP3    H225584   2.230   5.417   3.381
 8543TIP3   OH225585   2.519   1.411   0.505
 8543TIP3    H125586   2.433   1.452   0.492
 8543TIP3    H225587   2.501   1.317   0.499
 8544TIP3   OH225588   2.223   3.370   6.206
 8544TIP3    H125589   2.179   3.360   6.122
 8544TIP3    H225590   2.308   3.328   6.193
 8545TIP3   OH225591   3.126   2.483   0.226
 8545TIP3    H125592   3.198   2.516   0.171
 8545TIP3    H225593   3.054   2.543   0.208
 8546TIP3   OH225594   8.110   6.777   6.022
 8546TIP3    H125595   8.046   6.752   5.956
 8546TIP3    H225596   8.158   6.696   6.040
 8547TIP3   OH225597   0.975   3.640   3.028
 8547TIP3    H125598   0.880   3.641   3.029
 8547TIP3    H225599   1.001   3.715   3.082
 8548TIP3   OH225600   1.764   3.120   0.162
 8548TIP3    H125601   1.727   3.187   0.220
 8548TIP3    H225602   1.855   3.112   0.188
 8549TIP3   OH225603   3.101   1.257   3.862
 8549TIP3    H125604   3.193   1.234   3.867
 8549TIP3    H225605   3.099   1.336   3.807
 8550TIP3   OH225606   4.992   4.506   5.174
 8550TIP3    H125607   4.899   4.504   5.196
 8550TIP3    H225608   5.005   4.430   5.118
 8551TIP3   OH225609   4.014   3.991   5.120
 8551TIP3    H125610   4.018   4.087   5.119
 8551TIP3    H225611   4.009   3.968   5.213
 8552TIP3   OH225612   5.783   3.156   2.336
 8552TIP3    H125613   5.705   3.190   2.379
 8552TIP3    H225614   5.856   3.199   2.380
 8553TIP3   OH225615   4.721   0.699   4.289
 8553TIP3    H125616   4.640   0.725   4.245
 8553TIP3    H225617   4.762   0.636   4.230
 8554TIP3   OH225618   6.804   7.592   6.124
 8554TIP3    H125619   6.805   7.686   6.138
 8554TIP3    H225620   6.717   7.564   6.155
 8555TIP3   OH225621   7.401   4.922   4.442
 8555TIP3    H125622   7.487   4.922   4.402
 8555TIP3    H225623   7.390   4.833   4.476
 8556TIP3   OH225624   8.128   2.097   0.508
 8556TIP3    H125625   8.214   2.120   0.473
 8556TIP3    H225626   8.125   2.002   0.507
 8557TIP3   OH225627   0.643   6.555   5.386
 8557TIP3    H125628   0.631   6.519   5.298
 8557TIP3    H225629   0.581   6.506   5.440
 8558TIP3   OH225630   5.526   7.224   6.231
 8558TIP3    H125631   5.455   7.202   6.291
 8558TIP3    H225632   5.484   7.275   6.162
 8559TIP3   OH225633   4.348   7.310   3.938
 8559TIP3    H125634   4.327   7.229   3.983
 8559TIP3    H225635   4.361   7.285   3.846
 8560TIP3   OH225636   6.338   3.033   3.452
 8560TIP3    H125637   6.372   2.944   3.459
 8560TIP3    H225638   6.334   3.065   3.542
 8561TIP3   OH225639   3.941   7.189   2.254
 8561TIP3    H125640   3.948   7.234   2.171
 8561TIP3    H225641   4.029   7.188   2.290
 8562TIP3   OH225642   1.069   5.241   4.006
 8562TIP3    H125643   1.144   5.221   4.063
 8562TIP3    H225644   0.995   5.198   4.049
 8563TIP3   OH225645   8.328   4.067   5.313
 8563TIP3    H125646   8.238   4.041   5.297
 8563TIP3    H225647   8.322   4.157   5.345
 8564TIP3   OH225648   2.333   0.913   1.507
 8564TIP3    H125649   2.382   0.941   1.584
 8564TIP3    H225650   2.352   0.820   1.499
 8565TIP3   OH225651   8.120   5.229   3.163
 8565TIP3    H125652   8.192   5.285   3.194
 8565TIP3    H225653   8.075   5.203   3.244
 8566TIP3   OH225654   2.333   6.006   5.263
 8566TIP3    H125655   2.383   5.924   5.264
 8566TIP3    H225656   2.324   6.028   5.171
 8567TIP3   OH225657   1.746   2.466   3.249
 8567TIP3    H125658   1.713   2.377   3.243
 8567TIP3    H225659   1.833   2.457   3.288
 8568TIP3   OH225660   3.637   4.880   1.274
 8568TIP3    H125661   3.577   4.929   1.218
 8568TIP3    H225662   3.708   4.854   1.216
 8569TIP3   OH225663   7.675   1.639   1.506
 8569TIP3    H125664   7.671   1.715   1.448
 8569TIP3    H225665   7.635   1.669   1.587
 8570TIP3   OH225666   0.592   5.145   2.376
 8570TIP3    H125667   0.515   5.198   2.354
 8570TIP3    H225668   0.653   5.161   2.304
 8571TIP3   OH225669   1.720   3.143   6.630
 8571TIP3    H125670   1.687   3.163   6.718
 8571TIP3    H225671   1.801   3.095   6.645
 8572TIP3   OH225672   4.664   1.339   4.369
 8572TIP3    H125673   4.700   1.290   4.295
 8572TIP3    H225674   4.727   1.325   4.440
 8573TIP3   OH225675   3.600   5.143   6.595
 8573TIP3    H125676   3.694   5.132   6.583
 8573TIP3    H225677   3.583   5.110   6.684
 8574TIP3   OH225678   7.148   2.996   5.340
 8574TIP3    H125679   7.236   3.032   5.351
 8574TIP3    H225680   7.090   3.065   5.370
 8575TIP3   OH225681   6.021   2.032   4.931
 8575TIP3    H125682   6.018   2.127   4.940
 8575TIP3    H225683   5.934   2.002   4.957
 8576TIP3   OH225684   2.601   0.274   2.140
 8576TIP3    H125685   2.679   0.226   2.113
 8576TIP3    H225686   2.528   0.231   2.095
 8577TIP3   OH225687   2.298   7.527   2.384
 8577TIP3    H125688   2.336   7.615   2.377
 8577TIP3    H225689   2.371   7.468   2.364
 8578TIP3   OH225690   3.623   0.325   2.947
 8578TIP3    H125691   3.709   0.289   2.971
 8578TIP3    H225692   3.596   0.375   3.024
 8579TIP3   OH225693   5.611   0.966   3.776
 8579TIP3    H125694   5.520   0.941   3.789
 8579TIP3    H225695   5.617   0.989   3.684
 8580TIP3   OH225696   2.589   7.482   5.610
 8580TIP3    H125697   2.586   7.410   5.546
 8580TIP3    H225698   2.590   7.438   5.695
 8581TIP3   OH225699   5.918   1.312   2.582
 8581TIP3    H125700   5.862   1.245   2.620
 8581TIP3    H225701   5.937   1.372   2.654
 8582TIP3   OH225702   0.389   3.543   6.418
 8582TIP3    H125703   0.326   3.611   6.439
 8582TIP3    H225704   0.405   3.499   6.501
 8583TIP3   OH225705   2.592   2.525   5.406
 8583TIP3    H125706   2.537   2.472   5.464
 8583TIP3    H225707   2.530   2.569   5.348
 8584TIP3   OH225708   0.958   3.769   5.724
 8584TIP3    H125709   0.911   3.849   5.750
 8584TIP3    H225710   1.050   3.796   5.722
 8585TIP3   OH225711   1.826   7.593   0.242
 8585TIP3    H125712   1.921   7.602   0.234
 8585TIP3    H225713   1.802   7.526   0.179
 8586TIP3   OH225714   6.944   5.347   5.935
 8586TIP3    H125715   6.955   5.260   5.897
 8586TIP3    H225716   7.010   5.401   5.893
 8587TIP3   OH225717   4.992   4.586   5.474
 8587TIP3    H125718   5.019   4.583   5.382
 8587TIP3    H225719   4.957   4.674   5.486
 8588TIP3   OH225720   2.717   2.534   2.325
 8588TIP3    H125721   2.720   2.612   2.381
 8588TIP3    H225722   2.738   2.567   2.237
 8589TIP3   OH225723   2.621   1.630   5.534
 8589TIP3    H125724   2.567   1.598   5.606
 8589TIP3    H225725   2.694   1.675   5.577
 8590TIP3   OH225726   1.551   0.824   2.331
 8590TIP3    H125727   1.501   0.762   2.385
 8590TIP3    H225728   1.498   0.835   2.252
 8591TIP3   OH225729   0.287   1.872   5.559
 8591TIP3    H125730   0.358   1.914   5.511
 8591TIP3    H225731   0.221   1.852   5.492
 8592TIP3   OH225732   2.287   0.091   0.400
 8592TIP3    H125733   2.253   0.090   0.490
 8592TIP3    H225734   2.278   0.182   0.372
 8593TIP3   OH225735   1.146   4.599   1.564
 8593TIP3    H125736   1.082   4.534   1.534
 8593TIP3    H225737   1.159   4.580   1.656
 8594TIP3   OH225738   5.534   1.832   3.578
 8594TIP3    H125739   5.454   1.832   3.630
 8594TIP3    H225740   5.586   1.904   3.615
 8595TIP3   OH225741   5.594   5.965   5.800
 8595TIP3    H125742   5.661   5.933   5.861
 8595TIP3    H225743   5.537   6.020   5.853
 8596TIP3   OH225744   8.092   1.894   3.300
 8596TIP3    H125745   8.081   1.837   3.376
 8596TIP3    H225746   8.171   1.944   3.317
 8597TIP3   OH225747   4.701   5.887   2.572
 8597TIP3    H125748   4.706   5.894   2.667
 8597TIP3    H225749   4.634   5.821   2.556
 8598TIP3   OH225750   7.120   7.604   3.703
 8598TIP3    H125751   7.202   7.646   3.675
 8598TIP3    H225752   7.140   7.510   3.702
 8599TIP3   OH225753   2.741   2.762   0.049
 8599TIP3    H125754   2.795   2.707  -0.008
 8599TIP3    H225755   2.795   2.840   0.064
 8600TIP3   OH225756   2.291   6.190   4.752
 8600TIP3    H125757   2.345   6.137   4.811
 8600TIP3    H225758   2.342   6.195   4.671
 8601TIP3   OH225759   6.022   5.180   1.488
 8601TIP3    H125760   6.048   5.236   1.415
 8601TIP3    H225761   5.950   5.226   1.530
 8602TIP3   OH225762   2.830   0.401   0.601
 8602TIP3    H125763   2.830   0.306   0.586
 8602TIP3    H225764   2.895   0.435   0.541
 8603TIP3   OH225765   3.703   0.847   6.338
 8603TIP3    H125766   3.755   0.901   6.279
 8603TIP3    H225767   3.712   0.758   6.303
 8604TIP3   OH225768   4.366   5.082   3.905
 8604TIP3    H125769   4.419   5.012   3.943
 8604TIP3    H225770   4.401   5.162   3.943
 8605TIP3   OH225771   6.752   3.942   5.664
 8605TIP3    H125772   6.745   3.916   5.572
 8605TIP3    H225773   6.695   3.881   5.710
 8606TIP3   OH225774   3.768   5.177   1.754
 8606TIP3    H125775   3.821   5.256   1.769
 8606TIP3    H225776   3.738   5.185   1.663
 8607TIP3   OH225777   1.132   0.884   2.412
 8607TIP3    H125778   1.156   0.859   2.501
 8607TIP3    H225779   1.214   0.915   2.373
 8608TIP3   OH225780   7.557   1.810   5.289
 8608TIP3    H125781   7.624   1.878   5.280
 8608TIP3    H225782   7.504   1.838   5.364
 8609TIP3   OH225783   8.224   0.464   3.893
 8609TIP3    H125784   8.315   0.439   3.877
 8609TIP3    H225785   8.203   0.524   3.821
 8610TIP3   OH225786   1.673   0.966   0.156
 8610TIP3    H125787   1.591   0.918   0.150
 8610TIP3    H225788   1.651   1.044   0.209
 8611TIP3   OH225789   3.821   1.633   4.809
 8611TIP3    H125790   3.850   1.545   4.833
 8611TIP3    H225791   3.739   1.645   4.858
 8612TIP3   OH225792   8.138   2.790   1.826
 8612TIP3    H125793   8.104   2.709   1.865
 8612TIP3    H225794   8.160   2.845   1.900
 8613TIP3   OH225795   6.659   3.096   4.949
 8613TIP3    H125796   6.727   3.053   5.000
 8613TIP3    H225797   6.702   3.173   4.912
 8614TIP3   OH225798   4.504   4.204   0.754
 8614TIP3    H125799   4.579   4.230   0.808
 8614TIP3    H225800   4.541   4.194   0.666
 8615TIP3   OH225801   4.289   0.523   3.119
 8615TIP3    H125802   4.212   0.466   3.111
 8615TIP3    H225803   4.358   0.467   3.154
 8616TIP3   OH225804   0.363   7.511   2.753
 8616TIP3    H125805   0.421   7.471   2.687
 8616TIP3    H225806   0.347   7.599   2.719
 8617TIP3   OH225807   6.068   0.102   0.414
 8617TIP3    H125808   6.098   0.193   0.411
 8617TIP3    H225809   5.972   0.108   0.422
 8618TIP3   OH225810   4.147   6.310   3.011
 8618TIP3    H125811   4.199   6.291   3.089
 8618TIP3    H225812   4.152   6.230   2.959
 8619TIP3   OH225813   5.543   7.162   2.117
 8619TIP3    H125814   5.449   7.168   2.135
 8619TIP3    H225815   5.570   7.080   2.158
 8620TIP3   OH225816   7.081   2.109   5.506
 8620TIP3    H125817   6.998   2.081   5.468
 8620TIP3    H225818   7.062   2.194   5.546
 8621TIP3   OH225819   3.506   5.116   1.853
 8621TIP3    H125820   3.587   5.166   1.850
 8621TIP3    H225821   3.512   5.063   1.932
 8622TIP3   OH225822   6.612   5.880   1.504
 8622TIP3    H125823   6.646   5.898   1.417
 8622TIP3    H225824   6.525   5.920   1.506
 8623TIP3   OH225825   0.136   7.488   3.364
 8623TIP3    H125826   0.083   7.460   3.290
 8623TIP3    H225827   0.219   7.442   3.354
 8624TIP3   OH225828   1.698   0.489   1.834
 8624TIP3    H125829   1.753   0.534   1.770
 8624TIP3    H225830   1.702   0.397   1.809
 8625TIP3   OH225831   1.097   2.431   6.295
 8625TIP3    H125832   1.077   2.506   6.239
 8625TIP3    H225833   1.132   2.469   6.375
 8626TIP3   OH225834   6.396   0.252   5.696
 8626TIP3    H125835   6.307   0.218   5.703
 8626TIP3    H225836   6.385   0.341   5.662
 8627TIP3   OH225837   3.992   6.998   2.681
 8627TIP3    H125838   3.956   7.085   2.692
 8627TIP3    H225839   3.923   6.939   2.710
 8628TIP3   OH225840   3.739   6.102   5.141
 8628TIP3    H125841   3.807   6.036   5.138
 8628TIP3    H225842   3.738   6.132   5.232
 8629TIP3   OH225843   3.608   5.952   6.365
 8629TIP3    H125844   3.659   5.995   6.296
 8629TIP3    H225845   3.517   5.975   6.345
 8630TIP3   OH225846   4.010   6.260   3.888
 8630TIP3    H125847   4.076   6.330   3.885
 8630TIP3    H225848   4.055   6.186   3.929
 8631TIP3   OH225849   7.162   4.083   5.289
 8631TIP3    H125850   7.172   4.016   5.356
 8631TIP3    H225851   7.141   4.034   5.209
 8632TIP3   OH225852   6.323   0.492   5.615
 8632TIP3    H125853   6.353   0.547   5.687
 8632TIP3    H225854   6.331   0.548   5.538
 8633TIP3   OH225855   6.959   3.096   1.476
 8633TIP3    H125856   6.912   3.025   1.520
 8633TIP3    H225857   6.894   3.134   1.416
 8634TIP3   OH225858   5.953   2.112   0.443
 8634TIP3    H125859   5.949   2.116   0.348
 8634TIP3    H225860   5.866   2.140   0.473
 8635TIP3   OH225861   4.956   6.082   1.174
 8635TIP3    H125862   4.979   6.007   1.228
 8635TIP3    H225863   5.019   6.080   1.102
 8636TIP3   OH225864   7.449   2.000   3.475
 8636TIP3    H125865   7.452   1.939   3.549
 8636TIP3    H225866   7.377   2.059   3.497
 8637TIP3   OH225867   2.996   3.385   4.896
 8637TIP3    H125868   2.955   3.433   4.969
 8637TIP3    H225869   2.984   3.443   4.821
 8638TIP3   OH225870   7.981   2.088   0.130
 8638TIP3    H125871   7.946   2.154   0.189
 8638TIP3    H225872   8.024   2.024   0.187
 8639TIP3   OH225873   1.264   6.404   4.170
 8639TIP3    H125874   1.186   6.407   4.116
 8639TIP3    H225875   1.248   6.335   4.233
 8640TIP3   OH225876   3.178   6.158   4.900
 8640TIP3    H125877   3.137   6.130   4.982
 8640TIP3    H225878   3.104   6.174   4.841
 8641TIP3   OH225879   1.233   3.652   2.675
 8641TIP3    H125880   1.219   3.746   2.684
 8641TIP3    H225881   1.271   3.625   2.759
 8642TIP3   OH225882   4.158   7.742   1.007
 8642TIP3    H125883   4.139   7.817   1.063
 8642TIP3    H225884   4.085   7.737   0.946
 8643TIP3   OH225885   6.544   6.700   3.865
 8643TIP3    H125886   6.482   6.628   3.859
 8643TIP3    H225887   6.595   6.682   3.944
 8644TIP3   OH225888   7.499   0.231   3.848
 8644TIP3    H125889   7.455   0.162   3.897
 8644TIP3    H225890   7.592   0.207   3.850
 8645TIP3   OH225891   0.073   5.027   5.890
 8645TIP3    H125892   0.163   5.038   5.858
 8645TIP3    H225893   0.081   4.965   5.962
 8646TIP3   OH225894   0.305   4.627   1.407
 8646TIP3    H125895   0.255   4.707   1.398
 8646TIP3    H225896   0.368   4.630   1.335
 8647TIP3   OH225897   6.740   0.043   3.027
 8647TIP3    H125898   6.754   0.108   3.096
 8647TIP3    H225899   6.731   0.094   2.947
 8648TIP3   OH225900   7.080   5.658   5.943
 8648TIP3    H125901   7.077   5.753   5.952
 8648TIP3    H225902   7.145   5.630   6.009
 8649TIP3   OH225903   2.721   2.436   1.196
 8649TIP3    H125904   2.785   2.440   1.267
 8649TIP3    H225905   2.658   2.370   1.225
 8650TIP3   OH225906   7.937   5.195   2.624
 8650TIP3    H125907   7.990   5.212   2.545
 8650TIP3    H225908   7.944   5.276   2.675
 8651TIP3   OH225909   1.212   5.944   2.432
 8651TIP3    H125910   1.262   5.868   2.463
 8651TIP3    H225911   1.134   5.945   2.487
 8652TIP3   OH225912   0.985   7.429   3.724
 8652TIP3    H125913   0.962   7.517   3.754
 8652TIP3    H225914   1.070   7.411   3.763
 8653TIP3   OH225915   4.766   6.867   5.891
 8653TIP3    H125916   4.822   6.804   5.845
 8653TIP3    H225917   4.698   6.814   5.931
 8654TIP3   OH225918   6.795   7.486   1.442
 8654TIP3    H125919   6.775   7.489   1.349
 8654TIP3    H225920   6.726   7.430   1.480
 8655TIP3   OH225921   2.955   6.774   0.657
 8655TIP3    H125922   2.873   6.784   0.609
 8655TIP3    H225923   3.010   6.845   0.625
 8656TIP3   OH225924   6.387   7.275   3.982
 8656TIP3    H125925   6.461   7.261   4.041
 8656TIP3    H225926   6.404   7.216   3.908
 8657TIP3   OH225927   0.349   4.214   4.144
 8657TIP3    H125928   0.392   4.146   4.195
 8657TIP3    H225929   0.300   4.265   4.208
 8658TIP3   OH225930   1.475   2.537   3.729
 8658TIP3    H125931   1.494   2.567   3.818
 8658TIP3    H225932   1.538   2.467   3.713
 8659TIP3   OH225933   2.393   3.441   4.107
 8659TIP3    H125934   2.429   3.505   4.169
 8659TIP3    H225935   2.428   3.469   4.022
 8660TIP3   OH225936   3.994   6.077   2.125
 8660TIP3    H125937   4.077   6.092   2.170
 8660TIP3    H225938   3.940   6.152   2.149
 8661TIP3   OH225939   5.833   0.549   3.555
 8661TIP3    H125940   5.878   0.628   3.527
 8661TIP3    H225941   5.764   0.581   3.614
 8662TIP3   OH225942   7.265   3.460   1.326
 8662TIP3    H125943   7.249   3.550   1.297
 8662TIP3    H225944   7.249   3.407   1.249
 8663TIP3   OH225945   7.576   0.536   4.984
 8663TIP3    H125946   7.570   0.622   5.025
 8663TIP3    H225947   7.617   0.480   5.051
 8664TIP3   OH225948   2.181   1.526   5.418
 8664TIP3    H125949   2.088   1.501   5.418
 8664TIP3    H225950   2.201   1.542   5.510
 8665TIP3   OH225951   0.907   6.625   4.929
 8665TIP3    H125952   0.936   6.686   4.997
 8665TIP3    H225953   0.950   6.657   4.849
 8666TIP3   OH225954   6.743   6.550   2.933
 8666TIP3    H125955   6.667   6.594   2.970
 8666TIP3    H225956   6.797   6.621   2.897
 8667TIP3   OH225957   7.944   4.627   4.535
 8667TIP3    H125958   7.929   4.658   4.445
 8667TIP3    H225959   8.028   4.666   4.559
 8668TIP3   OH225960   7.867   5.203   4.989
 8668TIP3    H125961   7.796   5.241   4.938
 8668TIP3    H225962   7.900   5.275   5.043
 8669TIP3   OH225963   3.651   6.905   1.375
 8669TIP3    H125964   3.614   6.866   1.455
 8669TIP3    H225965   3.575   6.918   1.318
 8670TIP3   OH225966   7.692   7.300   5.265
 8670TIP3    H125967   7.652   7.239   5.328
 8670TIP3    H225968   7.745   7.358   5.319
 8671TIP3   OH225969   5.629   0.985   6.248
 8671TIP3    H125970   5.549   0.966   6.200
 8671TIP3    H225971   5.613   0.950   6.336
 8672TIP3   OH225972   4.327   6.599   2.463
 8672TIP3    H125973   4.267   6.671   2.484
 8672TIP3    H225974   4.321   6.589   2.368
 8673TIP3   OH225975   5.750   3.406   6.561
 8673TIP3    H125976   5.745   3.320   6.519
 8673TIP3    H225977   5.675   3.408   6.620
 8674TIP3   OH225978   8.239   2.585   4.511
 8674TIP3    H125979   8.219   2.619   4.598
 8674TIP3    H225980   8.239   2.662   4.454
 8675TIP3   OH225981   5.815   0.735   4.165
 8675TIP3    H125982   5.835   0.771   4.079
 8675TIP3    H225983   5.792   0.643   4.147
 8676TIP3   OH225984   4.121   2.547   6.476
 8676TIP3    H125985   4.074   2.490   6.416
 8676TIP3    H225986   4.212   2.520   6.467
 8677TIP3   OH225987   1.217   3.569   3.925
 8677TIP3    H125988   1.214   3.474   3.918
 8677TIP3    H225989   1.303   3.593   3.889
 8678TIP3   OH225990   4.909   3.995   1.552
 8678TIP3    H125991   4.926   3.984   1.646
 8678TIP3    H225992   4.939   3.913   1.513
 8679TIP3   OH225993   2.253   3.283   3.637
 8679TIP3    H125994   2.268   3.323   3.552
 8679TIP3    H225995   2.341   3.268   3.672
 8680TIP3   OH225996   3.719   7.127   0.937
 8680TIP3    H125997   3.632   7.131   0.898
 8680TIP3    H225998   3.719   7.193   1.006
 8681TIP3   OH225999   1.871   5.054   3.797
 8681TIP3    H126000   1.805   5.111   3.758
 8681TIP3    H226001   1.841   4.965   3.776
 8682TIP3   OH226002   1.241   7.361   1.508
 8682TIP3    H126003   1.166   7.306   1.483
 8682TIP3    H226004   1.306   7.344   1.440
 8683TIP3   OH226005   7.666   3.147   0.268
 8683TIP3    H126006   7.641   3.099   0.347
 8683TIP3    H226007   7.752   3.184   0.288
 8684TIP3   OH226008   2.325   0.882   0.413
 8684TIP3    H126009   2.379   0.946   0.367
 8684TIP3    H226010   2.271   0.844   0.344
 8685TIP3   OH226011   6.669   3.086   0.817
 8685TIP3    H126012   6.621   3.162   0.785
 8685TIP3    H226013   6.703   3.113   0.902
 8686TIP3   OH226014   0.353   7.083   6.691
 8686TIP3    H126015   0.401   7.055   6.614
 8686TIP3    H226016   0.301   7.007   6.717
 8687TIP3   OH226017   3.166   2.786   5.353
 8687TIP3    H126018   3.236   2.747   5.405
 8687TIP3    H226019   3.097   2.804   5.416
 8688TIP3   OH226020   6.411   5.531   0.965
 8688TIP3    H126021   6.404   5.467   0.894
 8688TIP3    H226022   6.395   5.480   1.044
 8689TIP3   OH226023   1.919   0.941   1.753
 8689TIP3    H126024   1.878   1.014   1.799
 8689TIP3    H226025   1.934   0.973   1.664
 8690TIP3   OH226026   6.480   1.213   4.155
 8690TIP3    H126027   6.396   1.252   4.133
 8690TIP3    H226028   6.518   1.187   4.071
 8691TIP3   OH226029   7.718   2.435   4.675
 8691TIP3    H126030   7.771   2.356   4.689
 8691TIP3    H226031   7.645   2.406   4.621
 8692TIP3   OH226032   2.381   7.436   1.459
 8692TIP3    H126033   2.397   7.484   1.377
 8692TIP3    H226034   2.370   7.505   1.525
 8693TIP3   OH226035   7.300   7.495   4.512
 8693TIP3    H126036   7.337   7.412   4.543
 8693TIP3    H226037   7.369   7.534   4.459
 8694TIP3   OH226038   4.309   6.677   0.017
 8694TIP3    H126039   4.319   6.611  -0.051
 8694TIP3    H226040   4.396   6.686   0.056
 8695TIP3   OH226041   6.937   0.649   1.437
 8695TIP3    H126042   6.966   0.740   1.431
 8695TIP3    H226043   6.947   0.626   1.529
 8696TIP3   OH226044   0.649   4.835   1.094
 8696TIP3    H126045   0.730   4.785   1.101
 8696TIP3    H226046   0.676   4.927   1.103
 8697TIP3   OH226047   0.719   0.525   5.366
 8697TIP3    H126048   0.740   0.439   5.403
 8697TIP3    H226049   0.795   0.545   5.310
 8698TIP3   OH226050   7.517   3.081   3.521
 8698TIP3    H126051   7.543   3.092   3.430
 8698TIP3    H226052   7.530   2.988   3.539
 8699TIP3   OH226053   4.772   5.923   4.289
 8699TIP3    H126054   4.819   5.982   4.348
 8699TIP3    H226055   4.687   5.910   4.330
 8700TIP3   OH226056   3.698   6.988   5.660
 8700TIP3    H126057   3.687   7.019   5.750
 8700TIP3    H226058   3.791   6.999   5.642
 8701TIP3   OH226059   4.260   4.258   4.091
 8701TIP3    H126060   4.193   4.198   4.060
 8701TIP3    H226061   4.265   4.242   4.185
 8702TIP3   OH226062   5.649   4.940   2.364
 8702TIP3    H126063   5.632   4.858   2.410
 8702TIP3    H226064   5.745   4.946   2.360
 8703TIP3   OH226065   3.981   5.902   0.077
 8703TIP3    H126066   3.952   5.811   0.072
 8703TIP3    H226067   3.905   5.950   0.110
 8704TIP3   OH226068   5.614   6.781   1.350
 8704TIP3    H126069   5.585   6.693   1.328
 8704TIP3    H226070   5.532   6.829   1.366
 8705TIP3   OH226071   8.291   6.702   6.346
 8705TIP3    H126072   8.329   6.690   6.258
 8705TIP3    H226073   8.233   6.778   6.337
 8706TIP3   OH226074   6.442   2.441   4.310
 8706TIP3    H126075   6.460   2.425   4.403
 8706TIP3    H226076   6.517   2.493   4.280
 8707TIP3   OH226077   4.396   7.382   2.245
 8707TIP3    H126078   4.302   7.401   2.244
 8707TIP3    H226079   4.402   7.292   2.213
 8708TIP3   OH226080   2.965   5.657   5.632
 8708TIP3    H126081   2.871   5.673   5.625
 8708TIP3    H226082   3.005   5.741   5.609
 8709TIP3   OH226083   4.411   6.185   4.795
 8709TIP3    H126084   4.341   6.246   4.771
 8709TIP3    H226085   4.380   6.099   4.766
 8710TIP3   OH226086   3.049   7.387   2.981
 8710TIP3    H126087   2.979   7.322   2.982
 8710TIP3    H226088   3.030   7.444   3.055
 8711TIP3   OH226089   7.506   0.976   4.261
 8711TIP3    H126090   7.444   0.989   4.190
 8711TIP3    H226091   7.538   1.064   4.282
 8712TIP3   OH226092   0.039   0.636   5.543
 8712TIP3    H126093   0.055   0.621   5.450
 8712TIP3    H226094   0.034   0.732   5.551
 8713TIP3   OH226095   5.711   6.246   3.378
 8713TIP3    H126096   5.662   6.299   3.441
 8713TIP3    H226097   5.677   6.271   3.293
 8714TIP3   OH226098   1.931   5.920   4.801
 8714TIP3    H126099   1.886   5.859   4.743
 8714TIP3    H226100   1.883   5.914   4.884
 8715TIP3   OH226101   4.639   6.363   0.576
 8715TIP3    H126102   4.595   6.400   0.499
 8715TIP3    H226103   4.571   6.313   0.620
 8716TIP3   OH226104   3.997   3.034   5.611
 8716TIP3    H126105   3.938   3.091   5.661
 8716TIP3    H226106   4.084   3.050   5.648
 8717TIP3   OH226107   2.364   4.940   2.728
 8717TIP3    H126108   2.336   5.008   2.667
 8717TIP3    H226109   2.325   4.859   2.693
 8718TIP3   OH226110   4.833   3.062   1.010
 8718TIP3    H126111   4.751   3.078   0.962
 8718TIP3    H226112   4.885   3.007   0.951
 8719TIP3   OH226113   1.213   3.533   2.942
 8719TIP3    H126114   1.225   3.469   3.012
 8719TIP3    H226115   1.129   3.575   2.963
 8720TIP3   OH226116   2.591   1.422   3.105
 8720TIP3    H126117   2.500   1.411   3.077
 8720TIP3    H226118   2.639   1.444   3.025
 8721TIP3   OH226119   1.158   3.193   5.182
 8721TIP3    H126120   1.101   3.210   5.106
 8721TIP3    H226121   1.244   3.226   5.155
 8722TIP3   OH226122   0.473   0.862   3.044
 8722TIP3    H126123   0.435   0.822   3.123
 8722TIP3    H226124   0.567   0.856   3.058
 8723TIP3   OH226125   6.221   6.397   5.996
 8723TIP3    H126126   6.255   6.379   5.908
 8723TIP3    H226127   6.298   6.395   6.053
 8724TIP3   OH226128   6.659   6.577   4.583
 8724TIP3    H126129   6.605   6.564   4.661
 8724TIP3    H226130   6.749   6.559   4.613
 8725TIP3   OH226131   8.047   4.094   5.319
 8725TIP3    H126132   8.004   4.126   5.239
 8725TIP3    H226133   8.069   4.174   5.368
 8726TIP3   OH226134   2.900   2.165   0.016
 8726TIP3    H126135   2.958   2.090   0.028
 8726TIP3    H226136   2.844   2.165   0.094
 8727TIP3   OH226137   3.282   2.586   2.353
 8727TIP3    H126138   3.319   2.667   2.316
 8727TIP3    H226139   3.279   2.525   2.280
 8728TIP3   OH226140   0.284   1.096   4.042
 8728TIP3    H126141   0.327   1.065   4.121
 8728TIP3    H226142   0.232   1.022   4.011
 8729TIP3   OH226143   2.543   5.181   0.626
 8729TIP3    H126144   2.598   5.192   0.704
 8729TIP3    H226145   2.453   5.184   0.659
 8730TIP3   OH226146   4.892   2.968   5.517
 8730TIP3    H126147   4.842   2.975   5.598
 8730TIP3    H226148   4.890   3.057   5.480
 8731TIP3   OH226149   2.501   2.385   5.641
 8731TIP3    H126150   2.447   2.306   5.639
 8731TIP3    H226151   2.582   2.357   5.685
 8732TIP3   OH226152   3.828   6.951   5.156
 8732TIP3    H126153   3.827   7.017   5.087
 8732TIP3    H226154   3.736   6.943   5.181
 8733TIP3   OH226155   8.256   2.710   2.840
 8733TIP3    H126156   8.273   2.628   2.793
 8733TIP3    H226157   8.267   2.778   2.774
 8734TIP3   OH226158   0.575   1.562   4.400
 8734TIP3    H126159   0.668   1.579   4.396
 8734TIP3    H226160   0.563   1.478   4.354
 8735TIP3   OH226161   7.275   6.046   0.058
 8735TIP3    H126162   7.208   6.032   0.124
 8735TIP3    H226163   7.353   6.003   0.093
 8736TIP3   OH226164   1.129   4.452   5.565
 8736TIP3    H126165   1.223   4.461   5.577
 8736TIP3    H226166   1.090   4.493   5.642
 8737TIP3   OH226167   0.270   5.879   6.354
 8737TIP3    H126168   0.327   5.808   6.385
 8737TIP3    H226169   0.312   5.911   6.274
 8738TIP3   OH226170   8.124   5.282   4.597
 8738TIP3    H126171   8.159   5.194   4.609
 8738TIP3    H226172   8.045   5.284   4.651
 8739TIP3   OH226173   1.842   5.438   0.763
 8739TIP3    H126174   1.798   5.424   0.679
 8739TIP3    H226175   1.856   5.532   0.767
 8740TIP3   OH226176   7.228   2.081   4.009
 8740TIP3    H126177   7.172   2.156   4.029
 8740TIP3    H226178   7.175   2.005   4.031
 8741TIP3   OH226179   1.360   3.006   1.984
 8741TIP3    H126180   1.330   3.093   2.012
 8741TIP3    H226181   1.280   2.955   1.975
 8742TIP3   OH226182   5.540   5.139   5.550
 8742TIP3    H126183   5.608   5.083   5.512
 8742TIP3    H226184   5.575   5.228   5.542
 8743TIP3   OH226185   5.829   3.525   0.247
 8743TIP3    H126186   5.786   3.448   0.283
 8743TIP3    H226187   5.912   3.492   0.213
 8744TIP3   OH226188   6.899   1.933   6.351
 8744TIP3    H126189   6.951   1.958   6.274
 8744TIP3    H226190   6.821   1.988   6.347
 8745TIP3   OH226191   7.018   1.855   2.247
 8745TIP3    H126192   7.084   1.854   2.178
 8745TIP3    H226193   6.964   1.778   2.231
 8746TIP3   OH226194   0.824   2.736   5.681
 8746TIP3    H126195   0.747   2.697   5.639
 8746TIP3    H226196   0.839   2.817   5.633
 8747TIP3   OH226197   4.074   5.870   2.276
 8747TIP3    H126198   4.009   5.931   2.239
 8747TIP3    H226199   4.021   5.802   2.317
 8748TIP3   OH226200   0.022   7.573   5.939
 8748TIP3    H126201  -0.065   7.611   5.952
 8748TIP3    H226202   0.063   7.628   5.873
 8749TIP3   OH226203   8.139   1.346   4.522
 8749TIP3    H126204   8.077   1.367   4.592
 8749TIP3    H226205   8.183   1.429   4.503
 8750TIP3   OH226206   7.258   0.370   0.515
 8750TIP3    H126207   7.332   0.313   0.498
 8750TIP3    H226208   7.195   0.315   0.562
 8751TIP3   OH226209   6.443   4.052   4.039
 8751TIP3    H126210   6.375   3.985   4.039
 8751TIP3    H226211   6.509   4.020   3.978
 8752TIP3   OH226212   5.806   2.086   3.281
 8752TIP3    H126213   5.730   2.091   3.224
 8752TIP3    H226214   5.864   2.022   3.240
 8753TIP3   OH226215   3.037   5.231   4.633
 8753TIP3    H126216   2.945   5.236   4.659
 8753TIP3    H226217   3.042   5.285   4.554
 8754TIP3   OH226218   2.692   6.534   3.381
 8754TIP3    H126219   2.697   6.465   3.315
 8754TIP3    H226220   2.710   6.489   3.464
 8755TIP3   OH226221   5.288   7.381   5.720
 8755TIP3    H126222   5.282   7.408   5.628
 8755TIP3    H226223   5.301   7.464   5.768
 8756TIP3   OH226224   2.220   6.437   6.604
 8756TIP3    H126225   2.201   6.531   6.596
 8756TIP3    H226226   2.286   6.421   6.536
 8757TIP3   OH226227   5.278   6.024   1.215
 8757TIP3    H126228   5.311   6.032   1.305
 8757TIP3    H226229   5.243   5.935   1.211
 8758TIP3   OH226230   1.044   3.098   1.870
 8758TIP3    H126231   1.048   3.083   1.965
 8758TIP3    H226232   0.992   3.177   1.860
 8759TIP3   OH226233   3.809   0.298   2.229
 8759TIP3    H126234   3.886   0.329   2.275
 8759TIP3    H226235   3.768   0.377   2.193
 8760TIP3   OH226236   2.567   2.975   1.833
 8760TIP3    H126237   2.601   3.012   1.751
 8760TIP3    H226238   2.644   2.969   1.890
 8761TIP3   OH226239   3.618   1.053   6.526
 8761TIP3    H126240   3.601   1.050   6.432
 8761TIP3    H226241   3.538   1.087   6.564
 8762TIP3   OH226242   0.598   5.483   6.563
 8762TIP3    H126243   0.681   5.437   6.547
 8762TIP3    H226244   0.536   5.413   6.585
 8763TIP3   OH226245   5.381   2.327   4.913
 8763TIP3    H126246   5.467   2.366   4.897
 8763TIP3    H226247   5.332   2.344   4.832
 8764TIP3   OH226248   4.024   0.521   0.687
 8764TIP3    H126249   3.944   0.559   0.723
 8764TIP3    H226250   4.076   0.596   0.660
 8765TIP3   OH226251   2.702   1.264   0.382
 8765TIP3    H126252   2.744   1.284   0.466
 8765TIP3    H226253   2.622   1.317   0.383
 8766TIP3   OH226254   7.374   1.281   1.936
 8766TIP3    H126255   7.437   1.213   1.914
 8766TIP3    H226256   7.386   1.347   1.868
 8767TIP3   OH226257   7.619   6.030   0.865
 8767TIP3    H126258   7.525   6.041   0.879
 8767TIP3    H226259   7.660   6.100   0.916
 8768TIP3   OH226260   3.439   3.556   3.849
 8768TIP3    H126261   3.365   3.495   3.847
 8768TIP3    H226262   3.489   3.536   3.770
 8769TIP3   OH226263   8.166   3.691   5.323
 8769TIP3    H126264   8.211   3.688   5.407
 8769TIP3    H226265   8.081   3.731   5.343
 8770TIP3   OH226266   3.591   7.224   6.672
 8770TIP3    H126267   3.682   7.199   6.652
 8770TIP3    H226268   3.540   7.145   6.656
 8771TIP3   OH226269   5.973   0.657   5.280
 8771TIP3    H126270   5.891   0.645   5.328
 8771TIP3    H226271   5.955   0.728   5.218
 8772TIP3   OH226272   6.857   5.868   1.080
 8772TIP3    H126273   6.787   5.825   1.030
 8772TIP3    H226274   6.811   5.911   1.153
 8773TIP3   OH226275   1.017   3.657   1.265
 8773TIP3    H126276   1.041   3.607   1.187
 8773TIP3    H226277   1.020   3.748   1.237
 8774TIP3   OH226278   1.007   3.943   2.484
 8774TIP3    H126279   1.053   3.942   2.400
 8774TIP3    H226280   1.074   3.920   2.548
 8775TIP3   OH226281   0.948   5.428   2.353
 8775TIP3    H126282   0.967   5.388   2.268
 8775TIP3    H226283   0.917   5.517   2.331
 8776TIP3   OH226284   4.299   1.519   0.851
 8776TIP3    H126285   4.376   1.556   0.895
 8776TIP3    H226286   4.270   1.449   0.910
 8777TIP3   OH226287   7.759   0.993   6.133
 8777TIP3    H126288   7.822   0.939   6.181
 8777TIP3    H226289   7.798   1.080   6.134
 8778TIP3   OH226290   6.747   3.633   6.179
 8778TIP3    H126291   6.729   3.581   6.258
 8778TIP3    H226292   6.835   3.604   6.152
 8779TIP3   OH226293   3.028   1.594   4.762
 8779TIP3    H126294   2.991   1.515   4.801
 8779TIP3    H226295   2.957   1.630   4.709
 8780TIP3   OH226296   1.306   6.632   0.239
 8780TIP3    H126297   1.337   6.542   0.230
 8780TIP3    H226298   1.370   6.685   0.192
 8781TIP3   OH226299   7.458   5.587   5.579
 8781TIP3    H126300   7.500   5.501   5.573
 8781TIP3    H226301   7.509   5.643   5.521
 8782TIP3   OH226302   1.359   0.748   1.678
 8782TIP3    H126303   1.313   0.747   1.762
 8782TIP3    H226304   1.406   0.831   1.677
 8783TIP3   OH226305   0.245   0.845   4.705
 8783TIP3    H126306   0.209   0.882   4.786
 8783TIP3    H226307   0.298   0.771   4.734
 8784TIP3   OH226308   8.169   6.181   3.214
 8784TIP3    H126309   8.145   6.170   3.306
 8784TIP3    H226310   8.181   6.092   3.181
 8785TIP3   OH226311   5.193   3.670   4.764
 8785TIP3    H126312   5.173   3.757   4.731
 8785TIP3    H226313   5.244   3.684   4.843
 8786TIP3   OH226314   7.184   5.840   0.261
 8786TIP3    H126315   7.223   5.907   0.318
 8786TIP3    H226316   7.196   5.758   0.309
 8787TIP3   OH226317   1.244   1.424   6.192
 8787TIP3    H126318   1.318   1.364   6.205
 8787TIP3    H226319   1.173   1.367   6.163
 8788TIP3   OH226320   7.915   3.241   5.475
 8788TIP3    H126321   7.992   3.283   5.514
 8788TIP3    H226322   7.950   3.166   5.428
 8789TIP3   OH226323   5.907   3.585   5.000
 8789TIP3    H126324   5.864   3.671   4.999
 8789TIP3    H226325   5.881   3.544   4.918
 8790TIP3   OH226326   6.751   1.801   2.825
 8790TIP3    H126327   6.829   1.810   2.879
 8790TIP3    H226328   6.680   1.834   2.880
 8791TIP3   OH226329   0.376   3.278   5.403
 8791TIP3    H126330   0.404   3.264   5.313
 8791TIP3    H226331   0.426   3.215   5.454
 8792TIP3   OH226332   2.165   4.663   4.092
 8792TIP3    H126333   2.183   4.707   4.175
 8792TIP3    H226334   2.252   4.643   4.057
 8793TIP3   OH226335   5.277   4.775   3.147
 8793TIP3    H126336   5.354   4.760   3.092
 8793TIP3    H226337   5.310   4.824   3.222
 8794TIP3   OH226338   0.750   6.258   4.305
 8794TIP3    H126339   0.788   6.183   4.351
 8794TIP3    H226340   0.678   6.286   4.360
 8795TIP3   OH226341   3.421   6.965   1.237
 8795TIP3    H126342   3.418   6.947   1.143
 8795TIP3    H226343   3.368   6.896   1.276
 8796TIP3   OH226344   0.018   1.588   3.342
 8796TIP3    H126345  -0.072   1.559   3.356
 8796TIP3    H226346   0.020   1.620   3.252
 8797TIP3   OH226347   7.371   5.887   3.245
 8797TIP3    H126348   7.389   5.856   3.156
 8797TIP3    H226349   7.456   5.919   3.276
 8798TIP3   OH226350   8.098   3.287   5.052
 8798TIP3    H126351   8.048   3.213   5.088
 8798TIP3    H226352   8.090   3.356   5.118
 8799TIP3   OH226353   0.996   0.663   2.326
 8799TIP3    H126354   0.952   0.630   2.405
 8799TIP3    H226355   1.038   0.745   2.355
 8800TIP3   OH226356   4.297   2.070   2.904
 8800TIP3    H126357   4.220   2.015   2.885
 8800TIP3    H226358   4.261   2.151   2.940
 8801TIP3   OH226359   5.732   0.673   2.993
 8801TIP3    H126360   5.777   0.628   3.065
 8801TIP3    H226361   5.640   0.655   3.007
 8802TIP3   OH226362   4.366   0.703   6.094
 8802TIP3    H126363   4.310   0.692   6.171
 8802TIP3    H226364   4.438   0.641   6.108
 8803TIP3   OH226365   7.620   6.541   1.554
 8803TIP3    H126366   7.606   6.579   1.641
 8803TIP3    H226367   7.547   6.574   1.502
 8804TIP3   OH226368   5.904   0.701   0.488
 8804TIP3    H126369   5.903   0.624   0.545
 8804TIP3    H226370   5.857   0.673   0.409
 8805TIP3   OH226371   7.010   0.300   0.718
 8805TIP3    H126372   6.955   0.366   0.678
 8805TIP3    H226373   7.013   0.323   0.811
 8806TIP3   OH226374   8.056   7.623   2.884
 8806TIP3    H126375   8.061   7.533   2.917
 8806TIP3    H226376   8.122   7.670   2.935
 8807TIP3   OH226377   4.598   2.530   6.089
 8807TIP3    H126378   4.658   2.475   6.040
 8807TIP3    H226379   4.524   2.545   6.030
 8808TIP3   OH226380   0.944   3.285   5.341
 8808TIP3    H126381   1.012   3.254   5.281
 8808TIP3    H226382   0.986   3.285   5.427
 8809TIP3   OH226383   2.150   6.463   3.037
 8809TIP3    H126384   2.163   6.398   3.107
 8809TIP3    H226385   2.131   6.410   2.959
 8810TIP3   OH226386   5.132   0.209   5.986
 8810TIP3    H126387   5.218   0.170   6.001
 8810TIP3    H226388   5.095   0.221   6.074
 8811TIP3   OH226389   7.787   0.403   4.117
 8811TIP3    H126390   7.808   0.491   4.087
 8811TIP3    H226391   7.813   0.346   4.045
 8812TIP3   OH226392   6.132   5.643   5.928
 8812TIP3    H126393   6.115   5.725   5.883
 8812TIP3    H226394   6.048   5.618   5.967
 8813TIP3   OH226395   7.505   3.287   1.774
 8813TIP3    H126396   7.527   3.329   1.857
 8813TIP3    H226397   7.574   3.222   1.761
 8814TIP3   OH226398   7.247   5.652   3.299
 8814TIP3    H126399   7.281   5.630   3.386
 8814TIP3    H226400   7.283   5.739   3.281
 8815TIP3   OH226401   1.552   5.231   0.394
 8815TIP3    H126402   1.537   5.179   0.315
 8815TIP3    H226403   1.508   5.182   0.463
 8816TIP3   OH226404   3.468   4.738   2.924
 8816TIP3    H126405   3.540   4.744   2.861
 8816TIP3    H226406   3.416   4.817   2.909
 8817TIP3   OH226407   5.055   4.043   6.226
 8817TIP3    H126408   5.024   4.062   6.137
 8817TIP3    H226409   5.137   4.092   6.234
 8818TIP3   OH226410   0.218   2.462   2.034
 8818TIP3    H126411   0.263   2.531   2.083
 8818TIP3    H226412   0.180   2.406   2.101
 8819TIP3   OH226413   4.768   6.895   6.310
 8819TIP3    H126414   4.790   6.804   6.289
 8819TIP3    H226415   4.815   6.947   6.244
 8820TIP3   OH226416   6.654   4.028   4.991
 8820TIP3    H126417   6.689   3.945   4.959
 8820TIP3    H226418   6.612   4.005   5.074
 8821TIP3   OH226419   4.521   7.210   6.435
 8821TIP3    H126420   4.542   7.162   6.354
 8821TIP3    H226421   4.426   7.203   6.443
 8822TIP3   OH226422   2.353   4.200   5.610
 8822TIP3    H126423   2.409   4.273   5.583
 8822TIP3    H226424   2.268   4.220   5.571
 8823TIP3   OH226425   7.483   4.770   1.597
 8823TIP3    H126426   7.454   4.721   1.674
 8823TIP3    H226427   7.543   4.836   1.632
 8824TIP3   OH226428   3.553   3.412   2.260
 8824TIP3    H126429   3.485   3.395   2.195
 8824TIP3    H226430   3.553   3.507   2.272
 8825TIP3   OH226431   5.919   0.076   2.537
 8825TIP3    H126432   5.895   0.016   2.608
 8825TIP3    H226433   6.010   0.055   2.518
 8826TIP3   OH226434   0.021   6.229   3.783
 8826TIP3    H126435   0.065   6.197   3.862
 8826TIP3    H226436  -0.029   6.305   3.813
 8827TIP3   OH226437   2.128   6.189   3.107
 8827TIP3    H126438   2.074   6.150   3.038
 8827TIP3    H226439   2.119   6.128   3.181
 8828TIP3   OH226440   1.085   5.049   3.781
 8828TIP3    H126441   1.016   5.109   3.754
 8828TIP3    H226442   1.092   5.061   3.876
 8829TIP3   OH226443   5.353   0.076   0.696
 8829TIP3    H126444   5.274   0.070   0.643
 8829TIP3    H226445   5.353  -0.003   0.749
 8830TIP3   OH226446   3.990   2.594   5.387
 8830TIP3    H126447   3.914   2.542   5.362
 8830TIP3    H226448   4.059   2.530   5.405
 8831TIP3   OH226449   7.141   4.517   4.386
 8831TIP3    H126450   7.104   4.490   4.302
 8831TIP3    H226451   7.071   4.568   4.428
 8832TIP3   OH226452   0.155   6.655   1.357
 8832TIP3    H126453   0.102   6.732   1.339
 8832TIP3    H226454   0.093   6.583   1.361
 8833TIP3   OH226455   0.138   2.348   3.577
 8833TIP3    H126456   0.121   2.443   3.575
 8833TIP3    H226457   0.195   2.333   3.501
 8834TIP3   OH226458   0.855   1.600   4.412
 8834TIP3    H126459   0.950   1.612   4.417
 8834TIP3    H226460   0.825   1.668   4.352
 8835TIP3   OH226461   4.979   7.242   3.037
 8835TIP3    H126462   4.887   7.260   3.058
 8835TIP3    H226463   5.011   7.194   3.113
 8836TIP3   OH226464   5.006   3.766   0.914
 8836TIP3    H126465   5.062   3.734   0.844
 8836TIP3    H226466   5.066   3.810   0.975
 8837TIP3   OH226467   5.440   5.329   1.324
 8837TIP3    H126468   5.460   5.422   1.337
 8837TIP3    H226469   5.516   5.283   1.358
 8838TIP3   OH226470   6.574   5.562   2.909
 8838TIP3    H126471   6.598   5.591   2.997
 8838TIP3    H226472   6.604   5.633   2.852
 8839TIP3   OH226473   5.827   2.312   3.428
 8839TIP3    H126474   5.821   2.225   3.389
 8839TIP3    H226475   5.902   2.308   3.487
 8840TIP3   OH226476   6.001   6.146   5.971
 8840TIP3    H126477   5.972   6.138   5.880
 8840TIP3    H226478   6.084   6.192   5.966
 8841TIP3   OH226479   3.650   3.744   2.227
 8841TIP3    H126480   3.700   3.803   2.284
 8841TIP3    H226481   3.659   3.782   2.140
 8842TIP3   OH226482   3.604   7.471   3.348
 8842TIP3    H126483   3.636   7.461   3.437
 8842TIP3    H226484   3.631   7.559   3.322
 8843TIP3   OH226485   7.194   2.736   5.768
 8843TIP3    H126486   7.249   2.764   5.841
 8843TIP3    H226487   7.111   2.710   5.809
 8844TIP3   OH226488   6.505   6.332   6.625
 8844TIP3    H126489   6.446   6.272   6.579
 8844TIP3    H226490   6.527   6.399   6.560
 8845TIP3   OH226491   2.730   4.415   0.242
 8845TIP3    H126492   2.692   4.358   0.309
 8845TIP3    H226493   2.655   4.455   0.198
 8846TIP3   OH226494   4.317   5.986   2.064
 8846TIP3    H126495   4.278   6.069   2.089
 8846TIP3    H226496   4.375   5.963   2.137
 8847TIP3   OH226497   3.304   3.488   4.960
 8847TIP3    H126498   3.297   3.393   4.968
 8847TIP3    H226499   3.398   3.506   4.969
 8848TIP3   OH226500   5.966   6.513   4.827
 8848TIP3    H126501   5.931   6.602   4.837
 8848TIP3    H226502   6.034   6.521   4.760
 8849TIP3   OH226503   0.867   0.608   1.227
 8849TIP3    H126504   0.787   0.658   1.211
 8849TIP3    H226505   0.897   0.580   1.141
 8850TIP3   OH226506   0.046   4.840   3.773
 8850TIP3    H126507  -0.037   4.830   3.819
 8850TIP3    H226508   0.054   4.934   3.758
 8851TIP3   OH226509   5.555   5.092   0.106
 8851TIP3    H126510   5.547   5.053   0.019
 8851TIP3    H226511   5.580   5.183   0.089
 8852TIP3   OH226512   5.360   2.854   2.131
 8852TIP3    H126513   5.380   2.861   2.224
 8852TIP3    H226514   5.416   2.783   2.100
 8853TIP3   OH226515   7.747   0.898   5.569
 8853TIP3    H126516   7.760   0.910   5.663
 8853TIP3    H226517   7.653   0.913   5.555
 8854TIP3   OH226518   0.854   4.467   5.123
 8854TIP3    H126519   0.794   4.401   5.087
 8854TIP3    H226520   0.894   4.423   5.198
 8855TIP3   OH226521   4.345   4.104   1.782
 8855TIP3    H126522   4.352   4.173   1.716
 8855TIP3    H226523   4.259   4.119   1.821
 8856TIP3   OH226524   3.522   3.699   6.237
 8856TIP3    H126525   3.472   3.705   6.155
 8856TIP3    H226526   3.561   3.612   6.235
 8857TIP3   OH226527   4.770   7.291   6.026
 8857TIP3    H126528   4.816   7.354   5.971
 8857TIP3    H226529   4.776   7.326   6.114
 8858TIP3   OH226530   4.868   5.206   3.406
 8858TIP3    H126531   4.882   5.295   3.437
 8858TIP3    H226532   4.945   5.186   3.354
 8859TIP3   OH226533   6.472   6.511   3.083
 8859TIP3    H126534   6.384   6.502   3.120
 8859TIP3    H226535   6.529   6.521   3.159
 8860TIP3   OH226536   4.158   2.289   5.747
 8860TIP3    H126537   4.168   2.355   5.816
 8860TIP3    H226538   4.239   2.238   5.751
 8861TIP3   OH226539   1.488   0.330   2.630
 8861TIP3    H126540   1.433   0.340   2.552
 8861TIP3    H226541   1.460   0.246   2.668
 8862TIP3   OH226542   7.118   7.116   5.777
 8862TIP3    H126543   7.043   7.080   5.731
 8862TIP3    H226544   7.175   7.150   5.708
 8863TIP3   OH226545   8.212   7.143   0.839
 8863TIP3    H126546   8.146   7.101   0.894
 8863TIP3    H226547   8.211   7.093   0.757
 8864TIP3   OH226548   4.704   3.711   2.699
 8864TIP3    H126549   4.684   3.638   2.758
 8864TIP3    H226550   4.798   3.701   2.680
 8865TIP3   OH226551   3.898   5.733   3.336
 8865TIP3    H126552   3.956   5.796   3.379
 8865TIP3    H226553   3.879   5.771   3.251
 8866TIP3   OH226554   5.400   5.584   0.331
 8866TIP3    H126555   5.494   5.570   0.334
 8866TIP3    H226556   5.389   5.676   0.307
 8867TIP3   OH226557   3.448   1.221   4.778
 8867TIP3    H126558   3.414   1.137   4.748
 8867TIP3    H226559   3.418   1.283   4.711
 8868TIP3   OH226560   0.023   1.005   4.614
 8868TIP3    H126561   0.088   0.940   4.586
 8868TIP3    H226562   0.068   1.089   4.604
 8869TIP3   OH226563   5.445   3.582   3.326
 8869TIP3    H126564   5.538   3.567   3.344
 8869TIP3    H226565   5.413   3.496   3.297
 8870TIP3   OH226566   5.308   4.721   4.573
 8870TIP3    H126567   5.286   4.814   4.565
 8870TIP3    H226568   5.403   4.719   4.582
 8871TIP3   OH226569   5.179   0.814   2.972
 8871TIP3    H126570   5.237   0.881   3.008
 8871TIP3    H226571   5.091   0.841   3.000
 8872TIP3   OH226572   2.348   2.689   0.318
 8872TIP3    H126573   2.258   2.687   0.286
 8872TIP3    H226574   2.384   2.770   0.281
 8873TIP3   OH226575   6.342   7.458   4.415
 8873TIP3    H126576   6.376   7.368   4.406
 8873TIP3    H226577   6.419   7.511   4.433
 8874TIP3   OH226578   5.340   1.294   3.685
 8874TIP3    H126579   5.404   1.353   3.645
 8874TIP3    H226580   5.307   1.342   3.761
 8875TIP3   OH226581   6.086   4.065   0.397
 8875TIP3    H126582   6.055   4.023   0.317
 8875TIP3    H226583   6.122   3.993   0.449
 8876TIP3   OH226584   8.045   6.051   5.571
 8876TIP3    H126585   8.026   6.076   5.662
 8876TIP3    H226586   7.975   6.094   5.520
 8877TIP3   OH226587   0.999   6.461  -0.007
 8877TIP3    H126588   1.079   6.413  -0.030
 8877TIP3    H226589   1.026   6.552  -0.001
 8878TIP3   OH226590   1.514   5.452   3.131
 8878TIP3    H126591   1.499   5.537   3.172
 8878TIP3    H226592   1.435   5.402   3.151
 8879TIP3   OH226593   0.889   5.948   0.552
 8879TIP3    H126594   0.853   5.937   0.464
 8879TIP3    H226595   0.820   5.991   0.602
 8880TIP3   OH226596   0.942   4.934   3.563
 8880TIP3    H126597   1.001   4.950   3.637
 8880TIP3    H226598   0.892   4.857   3.588
 8881TIP3   OH226599   2.754   2.775   1.539
 8881TIP3    H126600   2.693   2.754   1.610
 8881TIP3    H226601   2.752   2.699   1.481
 8882TIP3   OH226602   6.595   7.171   0.421
 8882TIP3    H126603   6.629   7.157   0.332
 8882TIP3    H226604   6.557   7.086   0.445
 8883TIP3   OH226605   6.170   6.944   0.361
 8883TIP3    H126606   6.077   6.946   0.340
 8883TIP3    H226607   6.176   6.985   0.448
 8884TIP3   OH226608   7.152   2.858   2.349
 8884TIP3    H126609   7.107   2.829   2.429
 8884TIP3    H226610   7.162   2.778   2.297
 8885TIP3   OH226611   1.113   7.458   4.475
 8885TIP3    H126612   1.110   7.365   4.500
 8885TIP3    H226613   1.054   7.465   4.400
 8886TIP3   OH226614   3.317   2.307   1.512
 8886TIP3    H126615   3.336   2.384   1.457
 8886TIP3    H226616   3.246   2.336   1.569
 8887TIP3   OH226617   0.052   7.002   4.718
 8887TIP3    H126618  -0.003   7.060   4.771
 8887TIP3    H226619   0.090   7.059   4.651
 8888TIP3   OH226620   3.632   5.693   4.859
 8888TIP3    H126621   3.675   5.614   4.894
 8888TIP3    H226622   3.671   5.704   4.772
 8889TIP3   OH226623   1.712   2.940   5.358
 8889TIP3    H126624   1.618   2.922   5.357
 8889TIP3    H226625   1.719   3.033   5.337
 8890TIP3   OH226626   2.959   4.249   4.985
 8890TIP3    H126627   2.997   4.163   4.968
 8890TIP3    H226628   2.883   4.231   5.041
 8891TIP3   OH226629   4.416   5.027   3.417
 8891TIP3    H126630   4.435   4.980   3.498
 8891TIP3    H226631   4.326   5.058   3.428
 8892TIP3   OH226632   1.189   0.263   2.912
 8892TIP3    H126633   1.157   0.351   2.890
 8892TIP3    H226634   1.280   0.277   2.939
 8893TIP3   OH226635   2.082   2.131   2.697
 8893TIP3    H126636   2.050   2.092   2.615
 8893TIP3    H226637   2.170   2.161   2.676
 8894TIP3   OH226638   7.557   5.046   4.197
 8894TIP3    H126639   7.635   5.100   4.207
 8894TIP3    H226640   7.487   5.108   4.176
 8895TIP3   OH226641   3.338   1.794   6.708
 8895TIP3    H126642   3.253   1.807   6.750
 8895TIP3    H226643   3.401   1.792   6.780
 8896TIP3   OH226644   2.233   2.836   5.628
 8896TIP3    H126645   2.138   2.837   5.636
 8896TIP3    H226646   2.261   2.756   5.673
 8897TIP3   OH226647   3.805   3.492   3.124
 8897TIP3    H126648   3.876   3.556   3.110
 8897TIP3    H226649   3.811   3.470   3.217
 8898TIP3   OH226650   7.051   0.596   5.389
 8898TIP3    H126651   6.969   0.626   5.427
 8898TIP3    H226652   7.032   0.585   5.296
 8899TIP3   OH226653   0.383   3.921   5.033
 8899TIP3    H126654   0.355   3.921   5.125
 8899TIP3    H226655   0.309   3.960   4.986
 8900TIP3   OH226656   7.032   4.682   2.402
 8900TIP3    H126657   7.032   4.776   2.386
 8900TIP3    H226658   7.037   4.673   2.497
 8901TIP3   OH226659   1.045   2.264   1.906
 8901TIP3    H126660   1.068   2.241   1.996
 8901TIP3    H226661   0.956   2.229   1.895
 8902TIP3   OH226662   7.370   7.437   1.230
 8902TIP3    H126663   7.409   7.482   1.304
 8902TIP3    H226664   7.441   7.381   1.196
 8903TIP3   OH226665   4.762   5.481   5.202
 8903TIP3    H126666   4.707   5.467   5.280
 8903TIP3    H226667   4.716   5.436   5.132
 8904TIP3   OH226668   5.254   6.288   2.640
 8904TIP3    H126669   5.295   6.216   2.592
 8904TIP3    H226670   5.234   6.354   2.574
 8905TIP3   OH226671   0.372   5.910   3.695
 8905TIP3    H126672   0.327   5.980   3.647
 8905TIP3    H226673   0.375   5.837   3.633
 8906TIP3   OH226674   4.320   5.414   1.876
 8906TIP3    H126675   4.377   5.423   1.952
 8906TIP3    H226676   4.380   5.391   1.804
 8907TIP3   OH226677   1.297   6.881   4.435
 8907TIP3    H126678   1.266   6.851   4.521
 8907TIP3    H226679   1.250   6.963   4.420
 8908TIP3   OH226680   1.223   4.071   0.044
 8908TIP3    H126681   1.216   4.060  -0.051
 8908TIP3    H226682   1.174   3.997   0.080
 8909TIP3   OH226683   2.698   6.968   1.763
 8909TIP3    H126684   2.611   6.934   1.741
 8909TIP3    H226685   2.722   7.021   1.688
 8910TIP3   OH226686   1.842   5.062   0.817
 8910TIP3    H126687   1.867   5.145   0.855
 8910TIP3    H226688   1.822   5.082   0.725
 8911TIP3   OH226689   4.233   0.103   3.215
 8911TIP3    H126690   4.250   0.108   3.120
 8911TIP3    H226691   4.320   0.107   3.255
 8912TIP3   OH226692   2.419   7.125   4.843
 8912TIP3    H126693   2.514   7.129   4.842
 8912TIP3    H226694   2.392   7.157   4.757
 8913TIP3   OH226695   0.151   4.218   3.878
 8913TIP3    H126696   0.138   4.307   3.914
 8913TIP3    H226697   0.228   4.185   3.925
 8914TIP3   OH226698   0.986   5.360   2.097
 8914TIP3    H126699   1.057   5.387   2.039
 8914TIP3    H226700   1.007   5.270   2.121
 8915TIP3   OH226701   0.548   7.527   0.259
 8915TIP3    H126702   0.516   7.553   0.345
 8915TIP3    H226703   0.608   7.596   0.233
 8916TIP3   OH226704   3.163   5.030   1.905
 8916TIP3    H126705   3.225   5.102   1.898
 8916TIP3    H226706   3.080   5.066   1.873
 8917TIP3   OH226707   1.271   5.018   5.133
 8917TIP3    H126708   1.294   5.110   5.118
 8917TIP3    H226709   1.178   5.014   5.111
 8918TIP3   OH226710   8.021   3.548   2.805
 8918TIP3    H126711   8.018   3.643   2.804
 8918TIP3    H226712   8.084   3.526   2.874
 8919TIP3   OH226713   5.226   4.016   3.286
 8919TIP3    H126714   5.289   3.985   3.352
 8919TIP3    H226715   5.252   4.107   3.270
 8920TIP3   OH226716   5.422   7.207   2.701
 8920TIP3    H126717   5.357   7.259   2.655
 8920TIP3    H226718   5.378   7.180   2.782
 8921TIP3   OH226719   2.045   5.054   4.711
 8921TIP3    H126720   1.965   5.050   4.764
 8921TIP3    H226721   2.058   5.148   4.694
 8922TIP3   OH226722   6.295   6.203   6.479
 8922TIP3    H126723   6.271   6.145   6.551
 8922TIP3    H226724   6.213   6.245   6.453
 8923TIP3   OH226725   0.427   3.057   0.636
 8923TIP3    H126726   0.377   3.026   0.561
 8923TIP3    H226727   0.517   3.028   0.618
 8924TIP3   OH226728   6.533   5.654   6.473
 8924TIP3    H126729   6.491   5.736   6.495
 8924TIP3    H226730   6.512   5.640   6.380
 8925TIP3   OH226731   8.214   6.678   1.597
 8925TIP3    H126732   8.204   6.653   1.688
 8925TIP3    H226733   8.308   6.674   1.581
 8926TIP3   OH226734   2.886   7.084   0.578
 8926TIP3    H126735   2.862   7.002   0.535
 8926TIP3    H226736   2.820   7.097   0.646
 8927TIP3   OH226737   1.395   2.819   4.814
 8927TIP3    H126738   1.350   2.875   4.751
 8927TIP3    H226739   1.479   2.864   4.830
 8928TIP3   OH226740   0.005   5.523   0.932
 8928TIP3    H126741  -0.011   5.618   0.929
 8928TIP3    H226742   0.014   5.504   1.025
 8929TIP3   OH226743   3.287   2.677   5.613
 8929TIP3    H126744   3.203   2.631   5.613
 8929TIP3    H226745   3.351   2.611   5.587
 8930TIP3   OH226746   7.539   3.454   2.004
 8930TIP3    H126747   7.633   3.438   2.002
 8930TIP3    H226748   7.524   3.499   2.087
 8931TIP3   OH226749   6.477   0.150   1.008
 8931TIP3    H126750   6.502   0.240   1.026
 8931TIP3    H226751   6.412   0.157   0.937
 8932TIP3   OH226752   5.583   1.509   0.133
 8932TIP3    H126753   5.678   1.514   0.116
 8932TIP3    H226754   5.545   1.576   0.077
 8933TIP3   OH226755   8.169   3.291   5.639
 8933TIP3    H126756   8.165   3.224   5.708
 8933TIP3    H226757   8.253   3.277   5.596
 8934TIP3   OH226758   7.769   7.484   3.603
 8934TIP3    H126759   7.768   7.424   3.677
 8934TIP3    H226760   7.677   7.492   3.577
 8935TIP3   OH226761   6.671   5.320   4.387
 8935TIP3    H126762   6.715   5.285   4.309
 8935TIP3    H226763   6.578   5.317   4.366
 8936TIP3   OH226764   1.593   0.391   0.242
 8936TIP3    H126765   1.672   0.443   0.255
 8936TIP3    H226766   1.532   0.421   0.309
 8937TIP3   OH226767   6.392   2.350   2.030
 8937TIP3    H126768   6.372   2.443   2.020
 8937TIP3    H226769   6.434   2.343   2.115
 8938TIP3   OH226770   4.658   3.491   3.932
 8938TIP3    H126771   4.646   3.533   4.017
 8938TIP3    H226772   4.583   3.518   3.880
 8939TIP3   OH226773   7.419   4.409   2.608
 8939TIP3    H126774   7.465   4.325   2.604
 8939TIP3    H226775   7.455   4.453   2.685
 8940TIP3   OH226776   8.090   1.341   5.573
 8940TIP3    H126777   8.165   1.353   5.631
 8940TIP3    H226778   8.022   1.396   5.609
 8941TIP3   OH226779   7.217   3.319   5.474
 8941TIP3    H126780   7.271   3.340   5.550
 8941TIP3    H226781   7.215   3.400   5.423
 8942TIP3   OH226782   1.271   2.669   2.612
 8942TIP3    H126783   1.212   2.730   2.656
 8942TIP3    H226784   1.283   2.598   2.674
 8943TIP3   OH226785   7.937   4.214   4.602
 8943TIP3    H126786   7.849   4.247   4.585
 8943TIP3    H226787   7.968   4.183   4.516
 8944TIP3   OH226788   0.519   6.165   2.384
 8944TIP3    H126789   0.504   6.225   2.458
 8944TIP3    H226790   0.432   6.131   2.364
 8945TIP3   OH226791   7.388   4.762   6.220
 8945TIP3    H126792   7.332   4.699   6.265
 8945TIP3    H226793   7.335   4.842   6.215
 8946TIP3   OH226794   7.141   5.432   3.231
 8946TIP3    H126795   7.171   5.510   3.278
 8946TIP3    H226796   7.179   5.440   3.144
 8947TIP3   OH226797   3.880   7.178   0.191
 8947TIP3    H126798   3.868   7.198   0.098
 8947TIP3    H226799   3.972   7.198   0.207
 8948TIP3   OH226800   7.456   2.227   4.090
 8948TIP3    H126801   7.460   2.181   4.173
 8948TIP3    H226802   7.395   2.176   4.037
 8949TIP3   OH226803   3.257   1.485   4.613
 8949TIP3    H126804   3.261   1.504   4.707
 8949TIP3    H226805   3.322   1.543   4.574
 8950TIP3   OH226806   7.333   7.223   3.792
 8950TIP3    H126807   7.276   7.270   3.732
 8950TIP3    H226808   7.301   7.246   3.879
 8951TIP3   OH226809   1.113   2.293   3.415
 8951TIP3    H126810   1.060   2.239   3.474
 8951TIP3    H226811   1.141   2.367   3.468
 8952TIP3   OH226812   5.668   7.711   4.928
 8952TIP3    H126813   5.584   7.709   4.974
 8952TIP3    H226814   5.645   7.715   4.836
 8953TIP3   OH226815   6.588   6.485   1.932
 8953TIP3    H126816   6.650   6.423   1.969
 8953TIP3    H226817   6.513   6.483   1.992
 8954TIP3   OH226818   7.282   2.182   0.424
 8954TIP3    H126819   7.348   2.154   0.488
 8954TIP3    H226820   7.207   2.207   0.476
 8955TIP3   OH226821   8.003   5.749   5.317
 8955TIP3    H126822   8.008   5.693   5.395
 8955TIP3    H226823   8.074   5.812   5.328
 8956TIP3   OH226824   2.438   3.985   3.648
 8956TIP3    H126825   2.382   3.912   3.620
 8956TIP3    H226826   2.452   4.036   3.568
 8957TIP3   OH226827   2.864   6.512   1.389
 8957TIP3    H126828   2.841   6.603   1.371
 8957TIP3    H226829   2.799   6.484   1.454
 8958TIP3   OH226830   7.758   5.267   0.516
 8958TIP3    H126831   7.788   5.357   0.506
 8958TIP3    H226832   7.833   5.213   0.493
 8959TIP3   OH226833   8.192   1.200   3.841
 8959TIP3    H126834   8.260   1.152   3.794
 8959TIP3    H226835   8.115   1.195   3.783
 8960TIP3   OH226836   0.309   1.166   1.474
 8960TIP3    H126837   0.300   1.081   1.430
 8960TIP3    H226838   0.266   1.154   1.559
 8961TIP3   OH226839   5.936   7.547   4.070
 8961TIP3    H126840   6.007   7.482   4.072
 8961TIP3    H226841   5.925   7.572   4.162
 8962TIP3   OH226842   5.388   1.626   3.254
 8962TIP3    H126843   5.410   1.719   3.254
 8962TIP3    H226844   5.331   1.615   3.178
 8963TIP3   OH226845   5.231   2.475   5.548
 8963TIP3    H126846   5.191   2.408   5.492
 8963TIP3    H226847   5.247   2.549   5.489
 8964TIP3   OH226848   6.153   0.737   0.326
 8964TIP3    H126849   6.058   0.744   0.341
 8964TIP3    H226850   6.161   0.706   0.236
 8965TIP3   OH226851   1.949   5.783   2.456
 8965TIP3    H126852   1.938   5.804   2.363
 8965TIP3    H226853   2.042   5.769   2.467
 8966TIP3   OH226854   7.818   6.591   0.741
 8966TIP3    H126855   7.910   6.571   0.722
 8966TIP3    H226856   7.818   6.613   0.835
 8967TIP3   OH226857   3.582   4.724   4.054
 8967TIP3    H126858   3.654   4.781   4.081
 8967TIP3    H226859   3.624   4.641   4.031
 8968TIP3   OH226860   7.274   7.218   5.586
 8968TIP3    H126861   7.363   7.197   5.560
 8968TIP3    H226862   7.279   7.309   5.616
 8969TIP3   OH226863   8.097   2.429   4.060
 8969TIP3    H126864   8.049   2.349   4.079
 8969TIP3    H226865   8.094   2.479   4.142
 8970TIP3   OH226866   6.698   1.434   5.646
 8970TIP3    H126867   6.784   1.457   5.610
 8970TIP3    H226868   6.686   1.492   5.721
 8971TIP3   OH226869   1.306   6.019   3.332
 8971TIP3    H126870   1.325   5.977   3.248
 8971TIP3    H226871   1.364   6.095   3.335
 8972TIP3   OH226872   5.822   3.732   5.520
 8972TIP3    H126873   5.791   3.669   5.585
 8972TIP3    H226874   5.791   3.697   5.436
 8973TIP3   OH226875   7.662   5.988   5.626
 8973TIP3    H126876   7.729   5.920   5.638
 8973TIP3    H226877   7.653   6.028   5.712
 8974TIP3   OH226878   7.204   7.243   0.793
 8974TIP3    H126879   7.276   7.306   0.790
 8974TIP3    H226880   7.243   7.166   0.836
 8975TIP3   OH226881   3.030   1.164   2.731
 8975TIP3    H126882   3.082   1.083   2.725
 8975TIP3    H226883   3.073   1.225   2.671
 8976TIP3   OH226884   1.478   1.878   3.694
 8976TIP3    H126885   1.423   1.808   3.728
 8976TIP3    H226886   1.550   1.885   3.756
 8977TIP3   OH226887   4.616   3.640   6.460
 8977TIP3    H126888   4.543   3.691   6.496
 8977TIP3    H226889   4.607   3.553   6.500
 8978TIP3   OH226890   2.322   2.510   4.395
 8978TIP3    H126891   2.383   2.541   4.329
 8978TIP3    H226892   2.278   2.590   4.426
 8979TIP3   OH226893   4.707   0.756   2.178
 8979TIP3    H126894   4.666   0.766   2.264
 8979TIP3    H226895   4.633   0.753   2.117
 8980TIP3   OH226896   1.364   5.054   3.183
 8980TIP3    H126897   1.431   5.076   3.118
 8980TIP3    H226898   1.401   4.981   3.232
 8981TIP3   OH226899   3.836   5.305   0.405
 8981TIP3    H126900   3.916   5.341   0.368
 8981TIP3    H226901   3.861   5.220   0.440
 8982TIP3   OH226902   3.934   6.614   3.859
 8982TIP3    H126903   4.016   6.578   3.893
 8982TIP3    H226904   3.933   6.590   3.767
 8983TIP3   OH226905   4.064   1.646   0.956
 8983TIP3    H126906   4.138   1.589   0.934
 8983TIP3    H226907   3.988   1.588   0.959
 8984TIP3   OH226908   6.158  -0.007   3.582
 8984TIP3    H126909   6.158  -0.096   3.616
 8984TIP3    H226910   6.168   0.048   3.659
 8985TIP3   OH226911   5.810   0.903   1.335
 8985TIP3    H126912   5.792   0.867   1.422
 8985TIP3    H226913   5.727   0.896   1.289
 8986TIP3   OH226914   8.048   7.416   0.800
 8986TIP3    H126915   8.106   7.340   0.800
 8986TIP3    H226916   8.044   7.443   0.708
 8987TIP3   OH226917   0.690   5.753   3.247
 8987TIP3    H126918   0.620   5.699   3.284
 8987TIP3    H226919   0.683   5.739   3.152
 8988TIP3   OH226920   3.722   0.457   4.775
 8988TIP3    H126921   3.800   0.403   4.768
 8988TIP3    H226922   3.748   0.542   4.741
 8989TIP3   OH226923   2.123   5.931   3.572
 8989TIP3    H126924   2.077   5.848   3.566
 8989TIP3    H226925   2.125   5.950   3.666
 8990TIP3   OH226926   7.150   6.064   4.379
 8990TIP3    H126927   7.224   6.007   4.399
 8990TIP3    H226928   7.127   6.042   4.288
 8991TIP3   OH226929   7.416   5.195   6.736
 8991TIP3    H126930   7.453   5.157   6.656
 8991TIP3    H226931   7.336   5.239   6.707
 8992TIP3   OH226932   4.428   2.150   2.482
 8992TIP3    H126933   4.476   2.201   2.548
 8992TIP3    H226934   4.461   2.183   2.398
 8993TIP3   OH226935   6.150   1.835   0.899
 8993TIP3    H126936   6.106   1.912   0.863
 8993TIP3    H226937   6.190   1.792   0.823
 8994TIP3   OH226938   7.851   0.199   4.884
 8994TIP3    H126939   7.894   0.186   4.799
 8994TIP3    H226940   7.849   0.294   4.896
 8995TIP3   OH226941   0.980   6.414   6.387
 8995TIP3    H126942   0.947   6.410   6.476
 8995TIP3    H226943   1.068   6.377   6.392
 8996TIP3   OH226944   0.882   6.574   1.455
 8996TIP3    H126945   0.906   6.606   1.368
 8996TIP3    H226946   0.788   6.555   1.448
 8997TIP3   OH226947   5.848   1.616   0.079
 8997TIP3    H126948   5.854   1.683   0.148
 8997TIP3    H226949   5.847   1.666  -0.003
 8998TIP3   OH226950   3.325   7.247   2.234
 8998TIP3    H126951   3.292   7.178   2.177
 8998TIP3    H226952   3.407   7.212   2.270
 8999TIP3   OH226953   6.950   0.680   5.108
 8999TIP3    H126954   6.879   0.724   5.155
 8999TIP3    H226955   6.938   0.707   5.017
 9000TIP3   OH226956   1.081   2.643   5.844
 9000TIP3    H126957   1.116   2.554   5.845
 9000TIP3    H226958   0.998   2.636   5.798
 9001TIP3   OH226959   3.229   3.313   1.472
 9001TIP3    H126960   3.207   3.226   1.506
 9001TIP3    H226961   3.315   3.332   1.509
 9002TIP3   OH226962   8.146   0.839   3.828
 9002TIP3    H126963   8.103   0.910   3.781
 9002TIP3    H226964   8.098   0.832   3.911
 9003TIP3   OH226965   5.646   2.717   5.496
 9003TIP3    H126966   5.657   2.757   5.583
 9003TIP3    H226967   5.711   2.759   5.441
 9004TIP3   OH226968   5.369   0.086   4.620
 9004TIP3    H126969   5.378  -0.009   4.620
 9004TIP3    H226970   5.415   0.114   4.699
 9005TIP3   OH226971   2.365   3.783   4.877
 9005TIP3    H126972   2.333   3.795   4.966
 9005TIP3    H226973   2.408   3.698   4.878
 9006TIP3   OH226974   3.845   6.943   2.395
 9006TIP3    H126975   3.890   7.020   2.360
 9006TIP3    H226976   3.780   6.921   2.330
 9007TIP3   OH226977   6.667   0.745   4.878
 9007TIP3    H126978   6.615   0.771   4.802
 9007TIP3    H226979   6.750   0.792   4.867
 9008TIP3   OH226980   4.903   5.203   1.915
 9008TIP3    H126981   4.808   5.194   1.920
 9008TIP3    H226982   4.938   5.122   1.953
 9009TIP3   OH226983   1.061   0.462   0.203
 9009TIP3    H126984   1.074   0.367   0.202
 9009TIP3    H226985   1.061   0.486   0.296
 9010TIP3   OH226986   0.766   7.698   3.633
 9010TIP3    H126987   0.735   7.646   3.559
 9010TIP3    H226988   0.831   7.757   3.595
 9011TIP3   OH226989   0.094   2.757   5.945
 9011TIP3    H126990   0.179   2.752   5.902
 9011TIP3    H226991   0.097   2.691   6.013
 9012TIP3   OH226992   6.831   0.832   1.860
 9012TIP3    H126993   6.828   0.899   1.792
 9012TIP3    H226994   6.742   0.799   1.866
 9013TIP3   OH226995   2.504   3.630   0.562
 9013TIP3    H126996   2.417   3.625   0.602
 9013TIP3    H226997   2.487   3.660   0.472
 9014TIP3   OH226998   7.791   7.810   3.637
 9014TIP3    H126999   7.756   7.721   3.633
 9014TIP3    H227000   7.817   7.829   3.547
 9015TIP3   OH227001   3.238   4.965   3.346
 9015TIP3    H127002   3.215   4.978   3.438
 9015TIP3    H227003   3.270   5.051   3.317
 9016TIP3   OH227004   1.995   4.100   1.672
 9016TIP3    H127005   2.026   4.117   1.583
 9016TIP3    H227006   1.947   4.178   1.697
 9017TIP3   OH227007   0.044   0.659   6.655
 9017TIP3    H127008   0.036   0.686   6.564
 9017TIP3    H227009   0.041   0.740   6.705
 9018TIP3   OH227010   6.032   7.086   1.324
 9018TIP3    H127011   6.125   7.110   1.324
 9018TIP3    H227012   6.029   7.005   1.376
 9019TIP3   OH227013   7.033   1.623   0.381
 9019TIP3    H127014   7.019   1.712   0.349
 9019TIP3    H227015   7.058   1.635   0.473
 9020TIP3   OH227016   3.241   7.442   6.708
 9020TIP3    H127017   3.313   7.403   6.757
 9020TIP3    H227018   3.261   7.425   6.616
 9021TIP3   OH227019   7.511   2.625   6.561
 9021TIP3    H127020   7.467   2.573   6.629
 9021TIP3    H227021   7.541   2.703   6.607
 9022TIP3   OH227022   3.136   1.913   3.681
 9022TIP3    H127023   3.226   1.941   3.664
 9022TIP3    H227024   3.091   1.993   3.709
 9023TIP3   OH227025   4.262   4.065   0.799
 9023TIP3    H127026   4.281   3.981   0.757
 9023TIP3    H227027   4.330   4.124   0.769
 9024TIP3   OH227028   0.505   2.210   2.204
 9024TIP3    H127029   0.448   2.231   2.278
 9024TIP3    H227030   0.523   2.294   2.163
 9025TIP3   OH227031   6.767   6.936   3.888
 9025TIP3    H127032   6.707   6.981   3.949
 9025TIP3    H227033   6.710   6.907   3.817
 9026TIP3   OH227034   3.845   2.211   4.314
 9026TIP3    H127035   3.923   2.254   4.280
 9026TIP3    H227036   3.773   2.268   4.285
 9027TIP3   OH227037   7.570   2.173   0.831
 9027TIP3    H127038   7.580   2.243   0.767
 9027TIP3    H227039   7.485   2.135   0.812
 9028TIP3   OH227040   1.018   7.510   1.867
 9028TIP3    H127041   0.942   7.569   1.873
 9028TIP3    H227042   1.079   7.556   1.809
 9029TIP3   OH227043   3.466   5.458   3.108
 9029TIP3    H127044   3.491   5.504   3.188
 9029TIP3    H227045   3.462   5.366   3.134
 9030TIP3   OH227046   1.239   7.611   1.729
 9030TIP3    H127047   1.258   7.562   1.649
 9030TIP3    H227048   1.293   7.570   1.796
 9031TIP3   OH227049   5.120   6.378   4.032
 9031TIP3    H127050   5.110   6.297   3.981
 9031TIP3    H227051   5.054   6.372   4.100
 9032TIP3   OH227052   7.559   7.207   6.212
 9032TIP3    H127053   7.527   7.155   6.139
 9032TIP3    H227054   7.500   7.282   6.216
 9033TIP3   OH227055   4.132   7.559   6.596
 9033TIP3    H127056   4.221   7.557   6.630
 9033TIP3    H227057   4.143   7.550   6.501
 9034TIP3   OH227058   0.661   4.447   0.168
 9034TIP3    H127059   0.713   4.527   0.155
 9034TIP3    H227060   0.604   4.468   0.242
 9035TIP3   OH227061   4.869   7.603   0.549
 9035TIP3    H127062   4.828   7.569   0.469
 9035TIP3    H227063   4.951   7.555   0.556
 9036TIP3   OH227064   7.650   2.201   1.985
 9036TIP3    H127065   7.568   2.229   1.945
 9036TIP3    H227066   7.641   2.224   2.077
 9037TIP3   OH227067   2.128   0.158   6.385
 9037TIP3    H127068   2.219   0.183   6.369
 9037TIP3    H227069   2.077   0.225   6.341
 9038TIP3   OH227070   1.517   0.450   1.350
 9038TIP3    H127071   1.609   0.471   1.362
 9038TIP3    H227072   1.497   0.387   1.419
 9039TIP3   OH227073   6.035   4.139   6.734
 9039TIP3    H127074   6.053   4.232   6.720
 9039TIP3    H227075   5.971   4.117   6.666
 9040TIP3   OH227076   4.396   1.375   6.133
 9040TIP3    H127077   4.390   1.280   6.130
 9040TIP3    H227078   4.319   1.406   6.087
 9041TIP3   OH227079   1.055   1.916   3.608
 9041TIP3    H127080   1.109   1.985   3.647
 9041TIP3    H227081   1.082   1.914   3.516
 9042TIP3   OH227082   0.849   3.714   2.319
 9042TIP3    H127083   0.795   3.749   2.248
 9042TIP3    H227084   0.856   3.786   2.381
 9043TIP3   OH227085   5.586   6.306   0.118
 9043TIP3    H127086   5.542   6.348   0.192
 9043TIP3    H227087   5.679   6.317   0.137
 9044TIP3   OH227088   3.550   3.661   5.715
 9044TIP3    H127089   3.474   3.603   5.709
 9044TIP3    H227090   3.568   3.686   5.624
 9045TIP3   OH227091   7.524   1.330   6.510
 9045TIP3    H127092   7.436   1.322   6.546
 9045TIP3    H227093   7.512   1.378   6.428
 9046TIP3   OH227094   8.318   6.417   1.476
 9046TIP3    H127095   8.364   6.347   1.430
 9046TIP3    H227096   8.226   6.400   1.460
 9047TIP3   OH227097   7.753   2.923   4.147
 9047TIP3    H127098   7.772   2.846   4.093
 9047TIP3    H227099   7.747   2.888   4.237
 9048TIP3   OH227100   2.020   0.398   3.761
 9048TIP3    H127101   2.061   0.345   3.828
 9048TIP3    H227102   2.093   0.434   3.710
 9049TIP3   OH227103   1.837   3.093   6.289
 9049TIP3    H127104   1.876   3.152   6.354
 9049TIP3    H227105   1.743   3.105   6.300
 9050TIP3   OH227106   5.847   7.135   3.286
 9050TIP3    H127107   5.882   7.183   3.212
 9050TIP3    H227108   5.908   7.063   3.300
 9051TIP3   OH227109   0.954   6.543   2.642
 9051TIP3    H127110   0.969   6.465   2.588
 9051TIP3    H227111   1.031   6.547   2.699
 9052TIP3   OH227112   5.678   2.405   4.047
 9052TIP3    H127113   5.637   2.429   3.964
 9052TIP3    H227114   5.719   2.486   4.078
 9053TIP3   OH227115   2.937   0.066   5.315
 9053TIP3    H127116   2.968   0.070   5.224
 9053TIP3    H227117   2.984   0.135   5.360
 9054TIP3   OH227118   3.545   4.501   0.448
 9054TIP3    H127119   3.503   4.585   0.461
 9054TIP3    H227120   3.630   4.509   0.491
 9055TIP3   OH227121   1.397   1.008   3.730
 9055TIP3    H127122   1.471   0.947   3.721
 9055TIP3    H227123   1.383   1.042   3.642
 9056TIP3   OH227124   1.245   3.827   3.139
 9056TIP3    H127125   1.263   3.903   3.194
 9056TIP3    H227126   1.314   3.829   3.072
 9057TIP3   OH227127   6.875   3.710   1.343
 9057TIP3    H127128   6.790   3.743   1.313
 9057TIP3    H227129   6.882   3.623   1.305
 9058TIP3   OH227130   7.018   2.785   6.247
 9058TIP3    H127131   6.931   2.803   6.283
 9058TIP3    H227132   7.030   2.850   6.178
 9059TIP3   OH227133   7.372   4.456   1.865
 9059TIP3    H127134   7.416   4.490   1.943
 9059TIP3    H227135   7.283   4.436   1.894
 9060TIP3   OH227136   0.898   3.265   5.801
 9060TIP3    H127137   0.988   3.241   5.822
 9060TIP3    H227138   0.885   3.352   5.839
 9061TIP3   OH227139   1.318   7.526   2.701
 9061TIP3    H127140   1.353   7.613   2.681
 9061TIP3    H227141   1.273   7.537   2.784
 9062TIP3   OH227142   4.925   4.943   0.407
 9062TIP3    H127143   4.899   5.025   0.364
 9062TIP3    H227144   4.850   4.919   0.460
 9063TIP3   OH227145   2.691   4.758   5.717
 9063TIP3    H127146   2.675   4.816   5.642
 9063TIP3    H227147   2.711   4.673   5.677
 9064TIP3   OH227148   2.763   4.615   3.195
 9064TIP3    H127149   2.857   4.600   3.187
 9064TIP3    H227150   2.752   4.709   3.183
 9065TIP3   OH227151   0.564   3.145   4.874
 9065TIP3    H127152   0.581   3.209   4.805
 9065TIP3    H227153   0.469   3.137   4.876
 9066TIP3   OH227154   6.598   4.390   2.135
 9066TIP3    H127155   6.645   4.349   2.207
 9066TIP3    H227156   6.635   4.477   2.128
 9067TIP3   OH227157   4.390   4.115   3.766
 9067TIP3    H127158   4.410   4.154   3.851
 9067TIP3    H227159   4.348   4.186   3.717
 9068TIP3   OH227160   7.351   5.110   4.817
 9068TIP3    H127161   7.329   5.019   4.800
 9068TIP3    H227162   7.446   5.110   4.832
 9069TIP3   OH227163   6.033   7.357   2.281
 9069TIP3    H127164   5.940   7.343   2.265
 9069TIP3    H227165   6.063   7.277   2.324
 9070TIP3   OH227166   4.590   4.978   4.256
 9070TIP3    H127167   4.656   4.916   4.224
 9070TIP3    H227168   4.509   4.953   4.210
 9071TIP3   OH227169   1.426   7.492   0.518
 9071TIP3    H127170   1.433   7.413   0.463
 9071TIP3    H227171   1.501   7.487   0.577
 9072TIP3   OH227172   0.734   7.417   6.555
 9072TIP3    H127173   0.702   7.478   6.488
 9072TIP3    H227174   0.821   7.393   6.525
 9073TIP3   OH227175   2.732   0.323   3.580
 9073TIP3    H127176   2.777   0.240   3.592
 9073TIP3    H227177   2.644   0.300   3.551
 9074TIP3   OH227178   7.314   7.063   1.151
 9074TIP3    H127179   7.335   7.041   1.060
 9074TIP3    H227180   7.350   7.150   1.165
 9075TIP3   OH227181   0.567   5.596   5.069
 9075TIP3    H127182   0.526   5.655   5.132
 9075TIP3    H227183   0.539   5.630   4.984
 9076TIP3   OH227184   2.411   5.778   3.170
 9076TIP3    H127185   2.339   5.720   3.194
 9076TIP3    H227186   2.399   5.794   3.077
 9077TIP3   OH227187   2.234   1.423   1.339
 9077TIP3    H127188   2.272   1.465   1.262
 9077TIP3    H227189   2.306   1.373   1.377
 9078TIP3   OH227190   6.799   1.593   3.967
 9078TIP3    H127191   6.845   1.589   4.050
 9078TIP3    H227192   6.867   1.613   3.902
 9079TIP3   OH227193   7.852   6.906   5.763
 9079TIP3    H127194   7.834   6.933   5.674
 9079TIP3    H227195   7.858   6.987   5.813
 9080TIP3   OH227196   6.117   0.501   0.866
 9080TIP3    H127197   6.105   0.547   0.949
 9080TIP3    H227198   6.188   0.547   0.822
 9081TIP3   OH227199   2.503   0.018   3.768
 9081TIP3    H127200   2.498  -0.078   3.766
 9081TIP3    H227201   2.428   0.046   3.714
 9082TIP3   OH227202   0.932   4.480   1.432
 9082TIP3    H127203   0.957   4.446   1.346
 9082TIP3    H227204   0.865   4.419   1.464
 9083TIP3   OH227205   4.196   0.146   1.288
 9083TIP3    H127206   4.109   0.180   1.265
 9083TIP3    H227207   4.245   0.223   1.316
 9084TIP3   OH227208   0.348   5.861   1.409
 9084TIP3    H127209   0.438   5.833   1.393
 9084TIP3    H227210   0.357   5.953   1.436
 9085TIP3   OH227211   3.100   0.726   4.457
 9085TIP3    H127212   3.170   0.726   4.391
 9085TIP3    H227213   3.023   0.760   4.410
 9086TIP3   OH227214   4.989   1.076   0.195
 9086TIP3    H127215   5.004   1.011   0.126
 9086TIP3    H227216   4.908   1.048   0.237
 9087TIP3   OH227217   5.833   0.325   0.324
 9087TIP3    H127218   5.900   0.390   0.344
 9087TIP3    H227219   5.750   0.370   0.341
 9088TIP3   OH227220   5.911   4.412   2.894
 9088TIP3    H127221   5.993   4.462   2.895
 9088TIP3    H227222   5.925   4.343   2.829
 9089TIP3   OH227223   2.053   2.542   5.456
 9089TIP3    H127224   1.976   2.592   5.428
 9089TIP3    H227225   2.040   2.530   5.550
 9090TIP3   OH227226   8.256   5.709   4.305
 9090TIP3    H127227   8.198   5.720   4.230
 9090TIP3    H227228   8.225   5.630   4.348
 9091TIP3   OH227229   1.123   5.755   6.080
 9091TIP3    H127230   1.075   5.830   6.045
 9091TIP3    H227231   1.055   5.694   6.109
 9092TIP3   OH227232   2.265   3.058   4.634
 9092TIP3    H127233   2.174   3.049   4.604
 9092TIP3    H227234   2.286   2.973   4.671
 9093TIP3   OH227235   2.418   6.474   0.486
 9093TIP3    H127236   2.376   6.550   0.446
 9093TIP3    H227237   2.381   6.399   0.440
 9094TIP3   OH227238   6.776   0.025   2.326
 9094TIP3    H127239   6.768  -0.068   2.344
 9094TIP3    H227240   6.802   0.064   2.409
 9095TIP3   OH227241   3.486   7.245   2.718
 9095TIP3    H127242   3.518   7.207   2.636
 9095TIP3    H227243   3.444   7.327   2.692
 9096TIP3   OH227244   6.959   5.692   5.334
 9096TIP3    H127245   7.013   5.638   5.393
 9096TIP3    H227246   6.879   5.708   5.384
 9097TIP3   OH227247   0.715   4.722   3.135
 9097TIP3    H127248   0.712   4.799   3.078
 9097TIP3    H227249   0.662   4.747   3.211
 9098TIP3   OH227250   7.785   0.647   4.668
 9098TIP3    H127251   7.742   0.731   4.653
 9098TIP3    H227252   7.878   0.669   4.674
 9099TIP3   OH227253   1.943   6.157   1.360
 9099TIP3    H127254   1.913   6.221   1.295
 9099TIP3    H227255   1.899   6.183   1.441
 9100TIP3   OH227256   6.696   0.282   4.201
 9100TIP3    H127257   6.753   0.356   4.185
 9100TIP3    H227258   6.613   0.320   4.229
 9101TIP3   OH227259   1.799   7.729   2.561
 9101TIP3    H127260   1.761   7.773   2.637
 9101TIP3    H227261   1.893   7.730   2.577
 9102TIP3   OH227262   3.061   1.469   0.320
 9102TIP3    H127263   2.982   1.458   0.373
 9102TIP3    H227264   3.042   1.420   0.240
 9103TIP3   OH227265   1.338   3.280   2.026
 9103TIP3    H127266   1.297   3.297   1.942
 9103TIP3    H227267   1.432   3.289   2.009
 9104TIP3   OH227268   4.665   3.522   2.097
 9104TIP3    H127269   4.578   3.556   2.115
 9104TIP3    H227270   4.715   3.542   2.176
 9105TIP3   OH227271   6.907   1.795   0.068
 9105TIP3    H127272   6.888   1.800  -0.026
 9105TIP3    H227273   7.003   1.799   0.073
 9106TIP3   OH227274   5.475   5.930   4.936
 9106TIP3    H127275   5.394   5.929   4.987
 9106TIP3    H227276   5.446   5.949   4.847
 9107TIP3   OH227277   3.537   2.665   3.571
 9107TIP3    H127278   3.540   2.613   3.491
 9107TIP3    H227279   3.563   2.605   3.640
 9108TIP3   OH227280   1.038   2.029   4.271
 9108TIP3    H127281   1.013   2.118   4.292
 9108TIP3    H227282   1.114   2.012   4.326
 9109TIP3   OH227283   4.475   2.181   6.567
 9109TIP3    H127284   4.496   2.155   6.656
 9109TIP3    H227285   4.514   2.113   6.512
 9110TIP3   OH227286   7.019   6.244   3.956
 9110TIP3    H127287   7.052   6.331   3.981
 9110TIP3    H227288   6.938   6.261   3.909
 9111TIP3   OH227289   3.826   5.423   4.423
 9111TIP3    H127290   3.793   5.466   4.344
 9111TIP3    H227291   3.835   5.331   4.398
 9112TIP3   OH227292   2.925   2.700   1.091
 9112TIP3    H127293   2.907   2.643   1.166
 9112TIP3    H227294   2.838   2.730   1.062
 9113TIP3   OH227295   5.246   7.360   3.225
 9113TIP3    H127296   5.296   7.344   3.145
 9113TIP3    H227297   5.259   7.281   3.278
 9114TIP3   OH227298   3.652   1.366   5.480
 9114TIP3    H127299   3.733   1.408   5.450
 9114TIP3    H227300   3.616   1.325   5.402
 9115TIP3   OH227301   0.779   1.757   5.475
 9115TIP3    H127302   0.709   1.736   5.536
 9115TIP3    H227303   0.769   1.693   5.404
 9116TIP3   OH227304   1.550   1.033   0.430
 9116TIP3    H127305   1.576   1.022   0.522
 9116TIP3    H227306   1.571   1.124   0.410
 9117TIP3   OH227307   7.188   1.382   3.475
 9117TIP3    H127308   7.241   1.443   3.422
 9117TIP3    H227309   7.206   1.407   3.565
 9118TIP3   OH227310   4.016   7.567   2.379
 9118TIP3    H127311   4.072   7.515   2.437
 9118TIP3    H227312   4.065   7.573   2.297
 9119TIP3   OH227313   2.838   0.032   4.162
 9119TIP3    H127314   2.762   0.020   4.106
 9119TIP3    H227315   2.870   0.120   4.141
 9120TIP3   OH227316   0.753   5.084   6.284
 9120TIP3    H127317   0.725   5.030   6.357
 9120TIP3    H227318   0.835   5.044   6.254
 9121TIP3   OH227319   4.673   1.432   0.806
 9121TIP3    H127320   4.764   1.460   0.800
 9121TIP3    H227321   4.637   1.450   0.719
 9122TIP3   OH227322   3.653   7.290   1.168
 9122TIP3    H127323   3.595   7.255   1.235
 9122TIP3    H227324   3.603   7.360   1.127
 9123TIP3   OH227325   5.577   4.747   4.609
 9123TIP3    H127326   5.598   4.835   4.640
 9123TIP3    H227327   5.602   4.748   4.517
 9124TIP3   OH227328   3.094   5.594   1.139
 9124TIP3    H127329   3.001   5.571   1.147
 9124TIP3    H227330   3.093   5.684   1.106
 9125TIP3   OH227331   1.239   5.383   1.951
 9125TIP3    H127332   1.240   5.388   1.856
 9125TIP3    H227333   1.300   5.312   1.972
 9126TIP3   OH227334   2.847   0.588   2.778
 9126TIP3    H127335   2.823   0.680   2.773
 9126TIP3    H227336   2.931   0.587   2.822
 9127TIP3   OH227337   6.231   1.934   4.242
 9127TIP3    H127338   6.246   2.028   4.253
 9127TIP3    H227339   6.176   1.911   4.317
 9128TIP3   OH227340   6.687   7.492   2.815
 9128TIP3    H127341   6.715   7.568   2.763
 9128TIP3    H227342   6.633   7.530   2.885
 9129TIP3   OH227343   2.544   2.133   5.231
 9129TIP3    H127344   2.525   2.064   5.167
 9129TIP3    H227345   2.536   2.090   5.316
 9130TIP3   OH227346   3.140   4.547   3.839
 9130TIP3    H127347   3.071   4.598   3.881
 9130TIP3    H227348   3.216   4.606   3.838
 9131TIP3   OH227349   6.430   2.595   4.847
 9131TIP3    H127350   6.441   2.690   4.855
 9131TIP3    H227351   6.515   2.560   4.874
 9132TIP3   OH227352   3.245   6.971   3.762
 9132TIP3    H127353   3.297   6.968   3.682
 9132TIP3    H227354   3.156   6.946   3.735
 9133TIP3   OH227355   0.747   2.056   1.931
 9133TIP3    H127356   0.705   2.136   1.901
 9133TIP3    H227357   0.772   2.075   2.022
 9134TIP3   OH227358   5.250   7.089   5.869
 9134TIP3    H127359   5.238   7.164   5.811
 9134TIP3    H227360   5.345   7.079   5.876
 9135TIP3   OH227361   4.980   7.299   5.180
 9135TIP3    H127362   4.905   7.248   5.146
 9135TIP3    H227363   5.002   7.257   5.263
 9136TIP3   OH227364   6.897   6.765   4.083
 9136TIP3    H127365   6.831   6.710   4.126
 9136TIP3    H227366   6.850   6.807   4.011
 9137TIP3   OH227367   8.273   1.146   4.325
 9137TIP3    H127368   8.348   1.204   4.312
 9137TIP3    H227369   8.227   1.183   4.401
 9138TIP3   OH227370   6.370   2.347   2.907
 9138TIP3    H127371   6.300   2.286   2.929
 9138TIP3    H227372   6.431   2.296   2.854
 9139TIP3   OH227373   0.125   1.246   4.618
 9139TIP3    H127374   0.078   1.330   4.620
 9139TIP3    H227375   0.215   1.269   4.595
 9140TIP3   OH227376   2.572   6.146   4.733
 9140TIP3    H127377   2.582   6.220   4.794
 9140TIP3    H227378   2.574   6.186   4.646
 9141TIP3   OH227379   4.842   0.566   1.295
 9141TIP3    H127380   4.791   0.488   1.275
 9141TIP3    H227381   4.797   0.637   1.249
 9142TIP3   OH227382   6.068   3.247   0.636
 9142TIP3    H127383   6.162   3.240   0.654
 9142TIP3    H227384   6.026   3.222   0.719
 9143TIP3   OH227385   1.403   0.701   0.642
 9143TIP3    H127386   1.315   0.665   0.658
 9143TIP3    H227387   1.397   0.792   0.669
 9144TIP3   OH227388   8.037   0.388   3.616
 9144TIP3    H127389   8.071   0.477   3.613
 9144TIP3    H227390   7.942   0.398   3.605
 9145TIP3   OH227391   1.905   6.578   5.018
 9145TIP3    H127392   1.952   6.643   5.070
 9145TIP3    H227393   1.826   6.623   4.989
 9146TIP3   OH227394   4.342   3.635   1.895
 9146TIP3    H127395   4.288   3.556   1.903
 9146TIP3    H227396   4.292   3.693   1.838
 9147TIP3   OH227397   4.119   4.779   6.004
 9147TIP3    H127398   4.065   4.743   6.075
 9147TIP3    H227399   4.194   4.719   5.999
 9148TIP3   OH227400   3.458   2.620   1.620
 9148TIP3    H127401   3.524   2.586   1.681
 9148TIP3    H227402   3.508   2.649   1.544
 9149TIP3   OH227403   5.330   6.764   4.255
 9149TIP3    H127404   5.326   6.811   4.172
 9149TIP3    H227405   5.263   6.696   4.247
 9150TIP3   OH227406   7.638   3.728   0.588
 9150TIP3    H127407   7.563   3.723   0.647
 9150TIP3    H227408   7.699   3.787   0.632
 9151TIP3   OH227409   4.355   5.275   0.411
 9151TIP3    H127410   4.380   5.191   0.451
 9151TIP3    H227411   4.338   5.254   0.319
 9152TIP3   OH227412   4.311   7.471   1.893
 9152TIP3    H127413   4.311   7.400   1.829
 9152TIP3    H227414   4.299   7.551   1.840
 9153TIP3   OH227415   5.681   1.385   0.962
 9153TIP3    H127416   5.706   1.292   0.955
 9153TIP3    H227417   5.741   1.430   0.903
 9154TIP3   OH227418   0.642   4.073   3.907
 9154TIP3    H127419   0.596   4.009   3.853
 9154TIP3    H227420   0.575   4.138   3.931
 9155TIP3   OH227421   3.706   6.215   4.673
 9155TIP3    H127422   3.663   6.156   4.612
 9155TIP3    H227423   3.764   6.158   4.724
 9156TIP3   OH227424   1.718   2.008   0.100
 9156TIP3    H127425   1.766   1.951   0.161
 9156TIP3    H227426   1.626   1.981   0.111
 9157TIP3   OH227427   5.758   2.525   2.070
 9157TIP3    H127428   5.759   2.440   2.115
 9157TIP3    H227429   5.696   2.578   2.120
 9158TIP3   OH227430   1.152   1.345   5.481
 9158TIP3    H127431   1.149   1.440   5.466
 9158TIP3    H227432   1.214   1.334   5.553
 9159TIP3   OH227433   1.025   6.893   6.818
 9159TIP3    H127434   1.042   6.801   6.842
 9159TIP3    H227435   1.012   6.891   6.724
 9160TIP3   OH227436   2.183   3.646   0.262
 9160TIP3    H127437   2.182   3.736   0.230
 9160TIP3    H227438   2.091   3.623   0.273
 9161TIP3   OH227439   5.106   3.179   0.346
 9161TIP3    H127440   5.171   3.243   0.374
 9161TIP3    H227441   5.096   3.195   0.252
 9162TIP3   OH227442   5.404   5.023   1.349
 9162TIP3    H127443   5.440   4.958   1.409
 9162TIP3    H227444   5.470   5.093   1.347
 9163TIP3   OH227445   4.129   1.019   5.407
 9163TIP3    H127446   4.137   1.087   5.340
 9163TIP3    H227447   4.205   1.033   5.464
 9164TIP3   OH227448   7.599   3.340   6.770
 9164TIP3    H127449   7.593   3.433   6.747
 9164TIP3    H227450   7.567   3.295   6.692
 9165TIP3   OH227451   1.333   2.825   6.382
 9165TIP3    H127452   1.391   2.753   6.356
 9165TIP3    H227453   1.391   2.888   6.425
 9166TIP3   OH227454   6.375   3.306   5.498
 9166TIP3    H127455   6.286   3.305   5.463
 9166TIP3    H227456   6.404   3.396   5.488
 9167TIP3   OH227457   1.431   2.391   5.356
 9167TIP3    H127458   1.360   2.456   5.360
 9167TIP3    H227459   1.388   2.308   5.377
 9168TIP3   OH227460   2.089   4.253   6.323
 9168TIP3    H127461   2.040   4.259   6.241
 9168TIP3    H227462   2.177   4.283   6.301
 9169TIP3   OH227463   1.081   2.380   4.135
 9169TIP3    H127464   1.077   2.471   4.164
 9169TIP3    H227465   1.028   2.332   4.199
 9170TIP3   OH227466   2.453   6.975   1.888
 9170TIP3    H127467   2.379   6.947   1.941
 9170TIP3    H227468   2.439   6.934   1.803
 9171TIP3   OH227469   5.984   2.308   4.207
 9171TIP3    H127470   5.947   2.394   4.188
 9171TIP3    H227471   6.076   2.316   4.180
 9172TIP3   OH227472   6.863   7.361   4.239
 9172TIP3    H127473   6.789   7.349   4.297
 9172TIP3    H227474   6.931   7.303   4.273
 9173TIP3   OH227475   5.037   1.883   3.318
 9173TIP3    H127476   5.048   1.789   3.328
 9173TIP3    H227477   4.987   1.894   3.237
 9174TIP3   OH227478   0.296   2.637   1.415
 9174TIP3    H127479   0.224   2.575   1.416
 9174TIP3    H227480   0.371   2.588   1.449
 9175TIP3   OH227481   1.571   7.203   2.235
 9175TIP3    H127482   1.549   7.163   2.318
 9175TIP3    H227483   1.645   7.261   2.255
 9176TIP3   OH227484   0.616   2.843   3.713
 9176TIP3    H127485   0.607   2.834   3.808
 9176TIP3    H227486   0.665   2.765   3.686
 9177TIP3   OH227487   7.514   7.113   3.156
 9177TIP3    H127488   7.485   7.025   3.180
 9177TIP3    H227489   7.460   7.172   3.209
 9178TIP3   OH227490   0.332   7.413   1.475
 9178TIP3    H127491   0.418   7.443   1.503
 9178TIP3    H227492   0.293   7.375   1.554
 9179TIP3   OH227493   7.995   5.490   0.905
 9179TIP3    H127494   7.940   5.530   0.838
 9179TIP3    H227495   8.084   5.514   0.880
 9180TIP3   OH227496   1.751   3.209   2.726
 9180TIP3    H127497   1.790   3.194   2.640
 9180TIP3    H227498   1.662   3.175   2.718
 9181TIP3   OH227499   0.473   6.907   6.247
 9181TIP3    H127500   0.388   6.864   6.239
 9181TIP3    H227501   0.491   6.941   6.160
 9182TIP3   OH227502   0.009   0.724   4.528
 9182TIP3    H127503   0.045   0.635   4.521
 9182TIP3    H227504   0.033   0.752   4.616
 9183TIP3   OH227505   8.255   7.020   0.092
 9183TIP3    H127506   8.167   7.049   0.114
 9183TIP3    H227507   8.312   7.091   0.122
 9184TIP3   OH227508   0.812   4.689   0.203
 9184TIP3    H127509   0.814   4.668   0.296
 9184TIP3    H227510   0.867   4.768   0.196
 9185TIP3   OH227511   3.046   4.883   4.781
 9185TIP3    H127512   3.019   4.791   4.787
 9185TIP3    H227513   3.004   4.926   4.855
 9186TIP3   OH227514   4.204   7.744   2.917
 9186TIP3    H127515   4.126   7.761   2.971
 9186TIP3    H227516   4.222   7.828   2.874
 9187TIP3   OH227517   6.588   3.326   0.404
 9187TIP3    H127518   6.659   3.390   0.409
 9187TIP3    H227519   6.572   3.316   0.310
 9188TIP3   OH227520   4.887   1.122   1.707
 9188TIP3    H127521   4.924   1.129   1.619
 9188TIP3    H227522   4.931   1.047   1.746
 9189TIP3   OH227523   0.811   6.007   4.429
 9189TIP3    H127524   0.889   5.951   4.418
 9189TIP3    H227525   0.746   5.968   4.370
 9190TIP3   OH227526   1.307   2.993   3.151
 9190TIP3    H127527   1.317   3.085   3.125
 9190TIP3    H227528   1.284   2.997   3.244
 9191TIP3   OH227529   6.991   3.802   5.101
 9191TIP3    H127530   7.030   3.852   5.029
 9191TIP3    H227531   7.029   3.715   5.094
 9192TIP3   OH227532   0.327   6.877   1.966
 9192TIP3    H127533   0.391   6.949   1.964
 9192TIP3    H227534   0.247   6.917   1.999
 9193TIP3   OH227535   2.622   3.420   1.109
 9193TIP3    H127536   2.696   3.421   1.170
 9193TIP3    H227537   2.579   3.336   1.125
 9194TIP3   OH227538   7.305   4.184   4.386
 9194TIP3    H127539   7.315   4.103   4.337
 9194TIP3    H227540   7.245   4.162   4.458
 9195TIP3   OH227541   6.885   1.317   6.674
 9195TIP3    H127542   6.813   1.257   6.695
 9195TIP3    H227543   6.961   1.259   6.663
 9196TIP3   OH227544   3.181   0.064   1.993
 9196TIP3    H127545   3.166  -0.031   1.996
 9196TIP3    H227546   3.276   0.074   1.997
 9197TIP3   OH227547   6.738   7.182   0.167
 9197TIP3    H127548   6.828   7.155   0.150
 9197TIP3    H227549   6.738   7.276   0.154
 9198TIP3   OH227550   2.238   1.789   6.301
 9198TIP3    H127551   2.265   1.707   6.260
 9198TIP3    H227552   2.145   1.776   6.321
 9199TIP3   OH227553   8.035   6.245   1.035
 9199TIP3    H127554   8.010   6.247   1.127
 9199TIP3    H227555   7.996   6.325   0.998
 9200TIP3   OH227556   0.814   0.407   5.789
 9200TIP3    H127557   0.719   0.395   5.786
 9200TIP3    H227558   0.826   0.501   5.780
 9201TIP3   OH227559   3.787   0.191   5.245
 9201TIP3    H127560   3.825   0.272   5.279
 9201TIP3    H227561   3.692   0.203   5.254
 9202TIP3   OH227562   3.593   4.825   0.047
 9202TIP3    H127563   3.518   4.777   0.082
 9202TIP3    H227564   3.646   4.759   0.003
 9203TIP3   OH227565   4.871   4.827   3.045
 9203TIP3    H127566   4.919   4.810   3.126
 9203TIP3    H227567   4.794   4.771   3.050
 9204TIP3   OH227568   5.184   4.273   5.426
 9204TIP3    H127569   5.215   4.185   5.445
 9204TIP3    H227570   5.162   4.272   5.333
 9205TIP3   OH227571   2.436   2.609   0.583
 9205TIP3    H127572   2.387   2.598   0.502
 9205TIP3    H227573   2.402   2.541   0.641
 9206TIP3   OH227574   7.401   3.989   0.760
 9206TIP3    H127575   7.314   4.029   0.760
 9206TIP3    H227576   7.455   4.049   0.707
 9207TIP3   OH227577   3.247   4.469   1.337
 9207TIP3    H127578   3.230   4.502   1.426
 9207TIP3    H227579   3.241   4.374   1.345
 9208TIP3   OH227580   6.050   5.072   2.103
 9208TIP3    H127581   5.980   5.092   2.041
 9208TIP3    H227582   6.124   5.046   2.048
 9209TIP3   OH227583   3.362   3.789   5.484
 9209TIP3    H127584   3.323   3.770   5.399
 9209TIP3    H227585   3.377   3.884   5.483
 9210TIP3   OH227586   3.006   6.484   0.105
 9210TIP3    H127587   3.044   6.443   0.027
 9210TIP3    H227588   3.081   6.519   0.153
 9211TIP3   OH227589   5.417   1.371   2.911
 9211TIP3    H127590   5.460   1.366   2.996
 9211TIP3    H227591   5.328   1.339   2.927
 9212TIP3   OH227592   6.871   2.080   5.747
 9212TIP3    H127593   6.817   2.009   5.783
 9212TIP3    H227594   6.841   2.158   5.793
 9213TIP3   OH227595   3.855   4.240   1.999
 9213TIP3    H127596   3.772   4.198   2.022
 9213TIP3    H227597   3.853   4.324   2.045
 9214TIP3   OH227598   0.326   0.654   2.148
 9214TIP3    H127599   0.417   0.683   2.151
 9214TIP3    H227600   0.277   0.731   2.120
 9215TIP3   OH227601   5.428   7.444   1.943
 9215TIP3    H127602   5.459   7.528   1.976
 9215TIP3    H227603   5.505   7.388   1.941
 9216TIP3   OH227604   4.841   4.029   1.847
 9216TIP3    H127605   4.802   4.092   1.787
 9216TIP3    H227606   4.767   3.986   1.889
 9217TIP3   OH227607   4.098   7.111   1.013
 9217TIP3    H127608   4.039   7.186   1.022
 9217TIP3    H227609   4.106   7.077   1.102
 9218TIP3   OH227610   3.816   0.329   5.828
 9218TIP3    H127611   3.866   0.268   5.883
 9218TIP3    H227612   3.729   0.330   5.865
 9219TIP3   OH227613   8.217   2.528   0.397
 9219TIP3    H127614   8.278   2.454   0.396
 9219TIP3    H227615   8.178   2.527   0.310
 9220TIP3   OH227616   3.331   3.289   6.120
 9220TIP3    H127617   3.237   3.290   6.141
 9220TIP3    H227618   3.372   3.333   6.195
 9221TIP3   OH227619   6.036   6.482   1.099
 9221TIP3    H127620   5.952   6.527   1.103
 9221TIP3    H227621   6.031   6.429   1.019
 9222TIP3   OH227622   4.058   2.114   6.070
 9222TIP3    H127623   4.067   2.168   6.148
 9222TIP3    H227624   4.147   2.086   6.051
 9223TIP3   OH227625   6.515   7.748   5.927
 9223TIP3    H127626   6.537   7.839   5.947
 9223TIP3    H227627   6.450   7.724   5.993
 9224TIP3   OH227628   7.350   6.611   2.895
 9224TIP3    H127629   7.267   6.595   2.940
 9224TIP3    H227630   7.333   6.587   2.804
 9225TIP3   OH227631   3.170   4.683   3.442
 9225TIP3    H127632   3.252   4.673   3.491
 9225TIP3    H227633   3.156   4.777   3.438
 9226TIP3   OH227634   6.216   7.613   0.622
 9226TIP3    H127635   6.149   7.578   0.563
 9226TIP3    H227636   6.218   7.551   0.696
 9227TIP3   OH227637   5.629   7.214   6.658
 9227TIP3    H127638   5.633   7.280   6.589
 9227TIP3    H227639   5.616   7.131   6.612
 9228TIP3   OH227640   8.273   4.681   5.232
 9228TIP3    H127641   8.267   4.776   5.227
 9228TIP3    H227642   8.186   4.650   5.208
 9229TIP3   OH227643   3.923   3.211   3.940
 9229TIP3    H127644   4.010   3.237   3.969
 9229TIP3    H227645   3.903   3.132   3.989
 9230TIP3   OH227646   5.821   2.025   6.192
 9230TIP3    H127647   5.760   2.055   6.258
 9230TIP3    H227648   5.798   2.075   6.113
 9231TIP3   OH227649   0.798   5.069   1.221
 9231TIP3    H127650   0.826   5.152   1.258
 9231TIP3    H227651   0.813   5.005   1.291
 9232TIP3   OH227652   6.204   6.361   0.316
 9232TIP3    H127653   6.249   6.356   0.232
 9232TIP3    H227654   6.186   6.454   0.329
 9233TIP3   OH227655   2.789   5.779   0.227
 9233TIP3    H127656   2.696   5.789   0.243
 9233TIP3    H227657   2.821   5.731   0.304
 9234TIP3   OH227658   1.480   2.366   0.113
 9234TIP3    H127659   1.435   2.309   0.176
 9234TIP3    H227660   1.421   2.369   0.038
 9235TIP3   OH227661   2.132   1.014   4.398
 9235TIP3    H127662   2.142   0.980   4.309
 9235TIP3    H227663   2.152   1.107   4.390
 9236TIP3   OH227664   7.409   6.321   4.841
 9236TIP3    H127665   7.482   6.337   4.900
 9236TIP3    H227666   7.360   6.404   4.841
 9237TIP3   OH227667   4.891   6.929   2.751
 9237TIP3    H127668   4.935   6.852   2.788
 9237TIP3    H227669   4.957   6.999   2.756
 9238TIP3   OH227670   7.308   5.329   3.429
 9238TIP3    H127671   7.304   5.413   3.474
 9238TIP3    H227672   7.265   5.345   3.345
 9239TIP3   OH227673   2.024   4.991   4.431
 9239TIP3    H127674   2.000   5.078   4.398
 9239TIP3    H227675   2.042   5.005   4.524
 9240TIP3   OH227676   5.893   1.411   1.646
 9240TIP3    H127677   5.904   1.316   1.650
 9240TIP3    H227678   5.954   1.438   1.577
 9241TIP3   OH227679   3.175   3.751   3.675
 9241TIP3    H127680   3.147   3.702   3.753
 9241TIP3    H227681   3.131   3.836   3.684
 9242TIP3   OH227682   5.767   6.300   5.281
 9242TIP3    H127683   5.818   6.314   5.201
 9242TIP3    H227684   5.679   6.331   5.259
 9243TIP3   OH227685   5.546   5.022   1.083
 9243TIP3    H127686   5.474   4.965   1.113
 9243TIP3    H227687   5.618   5.003   1.142
 9244TIP3   OH227688   1.483   0.692   5.605
 9244TIP3    H127689   1.479   0.786   5.617
 9244TIP3    H227690   1.572   0.668   5.632
 9245TIP3   OH227691   4.396   5.536   6.708
 9245TIP3    H127692   4.437   5.465   6.757
 9245TIP3    H227693   4.332   5.493   6.651
 9246TIP3   OH227694   4.153   3.914   3.078
 9246TIP3    H127695   4.231   3.898   3.024
 9246TIP3    H227696   4.117   3.995   3.043
 9247TIP3   OH227697   5.414   0.522   4.644
 9247TIP3    H127698   5.424   0.455   4.712
 9247TIP3    H227699   5.503   0.540   4.614
 9248TIP3   OH227700   2.684   4.848   4.574
 9248TIP3    H127701   2.610   4.850   4.513
 9248TIP3    H227702   2.687   4.937   4.610
 9249TIP3   OH227703   2.225   5.372   0.456
 9249TIP3    H127704   2.272   5.439   0.405
 9249TIP3    H227705   2.134   5.399   0.452
 9250TIP3   OH227706   0.429   7.395   3.389
 9250TIP3    H127707   0.446   7.301   3.378
 9250TIP3    H227708   0.447   7.411   3.482
 9251TIP3   OH227709   4.585   0.368   4.174
 9251TIP3    H127710   4.515   0.379   4.109
 9251TIP3    H227711   4.564   0.287   4.219
 9252TIP3   OH227712   5.507   1.998   0.600
 9252TIP3    H127713   5.442   2.020   0.667
 9252TIP3    H227714   5.470   2.033   0.519
 9253TIP3   OH227715   7.759   0.965   1.417
 9253TIP3    H127716   7.697   1.013   1.363
 9253TIP3    H227717   7.747   1.001   1.505
 9254TIP3   OH227718   5.512   2.513   5.754
 9254TIP3    H127719   5.597   2.554   5.737
 9254TIP3    H227720   5.526   2.420   5.734
 9255TIP3   OH227721   4.520   2.846   1.636
 9255TIP3    H127722   4.477   2.776   1.587
 9255TIP3    H227723   4.605   2.808   1.661
 9256TIP3   OH227724   7.796   0.626   6.344
 9256TIP3    H127725   7.855   0.655   6.274
 9256TIP3    H227726   7.750   0.705   6.371
 9257TIP3   OH227727   3.433   3.589   6.511
 9257TIP3    H127728   3.454   3.592   6.418
 9257TIP3    H227729   3.484   3.661   6.549
 9258TIP3   OH227730   2.908   6.336   4.239
 9258TIP3    H127731   3.001   6.320   4.256
 9258TIP3    H227732   2.891   6.424   4.275
 9259TIP3   OH227733   1.860   2.081   5.032
 9259TIP3    H127734   1.797   2.061   4.963
 9259TIP3    H227735   1.913   2.001   5.041
 9260TIP3   OH227736   7.039   7.026   0.163
 9260TIP3    H127737   7.003   6.991   0.244
 9260TIP3    H227738   6.977   6.998   0.095
 9261TIP3   OH227739   7.732   6.356   5.646
 9261TIP3    H127740   7.743   6.445   5.677
 9261TIP3    H227741   7.735   6.302   5.725
 9262TIP3   OH227742   5.606   0.991   0.160
 9262TIP3    H127743   5.598   1.035   0.245
 9262TIP3    H227744   5.517   0.984   0.128
 9263TIP3   OH227745   5.682   6.399   4.546
 9263TIP3    H127746   5.633   6.414   4.466
 9263TIP3    H227747   5.773   6.420   4.523
 9264TIP3   OH227748   7.382   0.320   1.968
 9264TIP3    H127749   7.290   0.344   1.957
 9264TIP3    H227750   7.429   0.378   1.908
 9265TIP3   OH227751   7.738   3.162   1.818
 9265TIP3    H127752   7.717   3.132   1.907
 9265TIP3    H227753   7.789   3.090   1.781
 9266TIP3   OH227754   6.331   3.917   0.469
 9266TIP3    H127755   6.416   3.886   0.503
 9266TIP3    H227756   6.335   3.899   0.376
 9267TIP3   OH227757   5.151   6.955   1.586
 9267TIP3    H127758   5.163   7.003   1.668
 9267TIP3    H227759   5.156   6.863   1.612
 9268TIP3   OH227760   4.735   4.095   3.898
 9268TIP3    H127761   4.821   4.112   3.935
 9268TIP3    H227762   4.720   4.002   3.915
 9269TIP3   OH227763   0.709   4.319   1.571
 9269TIP3    H127764   0.712   4.352   1.661
 9269TIP3    H227765   0.715   4.224   1.580
 9270TIP3   OH227766   3.667   6.035   1.922
 9270TIP3    H127767   3.690   6.120   1.959
 9270TIP3    H227768   3.575   6.023   1.944
 9271TIP3   OH227769   5.705   5.160   3.266
 9271TIP3    H127770   5.652   5.165   3.345
 9271TIP3    H227771   5.704   5.248   3.230
 9272TIP3   OH227772   3.152   4.341   2.105
 9272TIP3    H127773   3.098   4.324   2.028
 9272TIP3    H227774   3.139   4.434   2.123
 9273TIP3   OH227775   7.662   7.764   4.535
 9273TIP3    H127776   7.723   7.732   4.468
 9273TIP3    H227777   7.604   7.824   4.488
 9274TIP3   OH227778   1.190   2.112   3.752
 9274TIP3    H127779   1.266   2.149   3.796
 9274TIP3    H227780   1.115   2.152   3.796
 9275TIP3   OH227781   3.093   2.448   6.335
 9275TIP3    H127782   3.115   2.394   6.259
 9275TIP3    H227783   3.018   2.500   6.306
 9276TIP3   OH227784   1.663   1.739   4.658
 9276TIP3    H127785   1.716   1.740   4.579
 9276TIP3    H227786   1.594   1.675   4.640
 9277TIP3   OH227787   4.158   6.081   6.233
 9277TIP3    H127788   4.062   6.080   6.227
 9277TIP3    H227789   4.177   6.091   6.326
 9278TIP3   OH227790   4.301   0.298   6.649
 9278TIP3    H127791   4.230   0.242   6.618
 9278TIP3    H227792   4.369   0.290   6.582
 9279TIP3   OH227793   4.293   7.148   6.583
 9279TIP3    H127794   4.331   7.062   6.596
 9279TIP3    H227795   4.291   7.187   6.671
 9280TIP3   OH227796   0.562   6.449   5.861
 9280TIP3    H127797   0.599   6.384   5.801
 9280TIP3    H227798   0.638   6.499   5.893
 9281TIP3   OH227799   5.275   2.000   1.354
 9281TIP3    H127800   5.362   1.963   1.370
 9281TIP3    H227801   5.258   1.982   1.261
 9282TIP3   OH227802   3.260   6.434   0.711
 9282TIP3    H127803   3.196   6.479   0.765
 9282TIP3    H227804   3.228   6.444   0.621
 9283TIP3   OH227805   6.831   7.305   2.184
 9283TIP3    H127806   6.755   7.264   2.143
 9283TIP3    H227807   6.829   7.274   2.275
 9284TIP3   OH227808   6.955   5.328   4.232
 9284TIP3    H127809   7.008   5.340   4.311
 9284TIP3    H227810   6.924   5.416   4.211
 9285TIP3   OH227811   6.259   0.617   5.380
 9285TIP3    H127812   6.166   0.637   5.378
 9285TIP3    H227813   6.271   0.551   5.312
 9286TIP3   OH227814   5.465   3.122   6.228
 9286TIP3    H127815   5.455   3.125   6.133
 9286TIP3    H227816   5.474   3.028   6.248
 9287TIP3   OH227817   5.174   0.467   0.760
 9287TIP3    H127818   5.239   0.534   0.784
 9287TIP3    H227819   5.191   0.450   0.668
 9288TIP3   OH227820   6.849   0.857   2.896
 9288TIP3    H127821   6.786   0.922   2.865
 9288TIP3    H227822   6.805   0.814   2.970
 9289TIP3   OH227823   5.913   3.414   5.905
 9289TIP3    H127824   5.979   3.386   5.842
 9289TIP3    H227825   5.849   3.343   5.906
 9290TIP3   OH227826   6.416   2.517   3.214
 9290TIP3    H127827   6.382   2.442   3.164
 9290TIP3    H227828   6.392   2.498   3.305
 9291TIP3   OH227829   1.363   2.914   0.227
 9291TIP3    H127830   1.275   2.907   0.264
 9291TIP3    H227831   1.360   2.864   0.146
 9292TIP3   OH227832   1.540   7.319   0.343
 9292TIP3    H127833   1.495   7.278   0.269
 9292TIP3    H227834   1.630   7.286   0.338
 9293TIP3   OH227835   3.902   5.908   3.600
 9293TIP3    H127836   3.907   5.922   3.695
 9293TIP3    H227837   3.993   5.896   3.573
 9294TIP3   OH227838   2.001   0.581   0.068
 9294TIP3    H127839   1.926   0.527   0.043
 9294TIP3    H227840   1.967   0.670   0.075
 9295TIP3   OH227841   4.328   3.824   5.809
 9295TIP3    H127842   4.268   3.806   5.736
 9295TIP3    H227843   4.412   3.841   5.767
 9296TIP3   OH227844   0.103   1.505   2.574
 9296TIP3    H127845   0.186   1.531   2.613
 9296TIP3    H227846   0.116   1.414   2.549
 9297TIP3   OH227847   0.288   3.215   3.719
 9297TIP3    H127848   0.285   3.298   3.766
 9297TIP3    H227849   0.241   3.231   3.637
 9298TIP3   OH227850   7.221   6.157   6.376
 9298TIP3    H127851   7.230   6.159   6.471
 9298TIP3    H227852   7.310   6.167   6.343
 9299TIP3   OH227853   0.450   1.667   3.306
 9299TIP3    H127854   0.424   1.688   3.216
 9299TIP3    H227855   0.439   1.573   3.314
 9300TIP3   OH227856   7.273   1.525   1.825
 9300TIP3    H127857   7.187   1.490   1.848
 9300TIP3    H227858   7.260   1.568   1.741
 9301TIP3   OH227859   3.628   4.644   3.121
 9301TIP3    H127860   3.581   4.703   3.063
 9301TIP3    H227861   3.600   4.556   3.095
 9302TIP3   OH227862   7.657   6.707   5.490
 9302TIP3    H127863   7.594   6.753   5.545
 9302TIP3    H227864   7.614   6.700   5.405
 9303TIP3   OH227865   3.522   3.216   3.196
 9303TIP3    H127866   3.427   3.213   3.201
 9303TIP3    H227867   3.548   3.128   3.169
 9304TIP3   OH227868   5.728   2.922   2.185
 9304TIP3    H127869   5.719   2.989   2.254
 9304TIP3    H227870   5.803   2.951   2.134
 9305TIP3   OH227871   6.037   2.720   1.330
 9305TIP3    H127872   6.039   2.651   1.396
 9305TIP3    H227873   5.990   2.792   1.371
 9306TIP3   OH227874   0.799   1.552   0.179
 9306TIP3    H127875   0.723   1.527   0.126
 9306TIP3    H227876   0.863   1.482   0.163
 9307TIP3   OH227877   0.849   6.779   2.561
 9307TIP3    H127878   0.756   6.758   2.564
 9307TIP3    H227879   0.892   6.703   2.600
 9308TIP3   OH227880   4.215   2.511   4.932
 9308TIP3    H127881   4.180   2.557   5.008
 9308TIP3    H227882   4.287   2.566   4.902
 9309TIP3   OH227883   6.982   6.096   6.575
 9309TIP3    H127884   6.891   6.126   6.574
 9309TIP3    H227885   7.007   6.098   6.667
 9310TIP3   OH227886   7.298   7.245   4.185
 9310TIP3    H127887   7.238   7.218   4.116
 9310TIP3    H227888   7.312   7.338   4.169
 9311TIP3   OH227889   2.285   0.204   0.931
 9311TIP3    H127890   2.274   0.109   0.939
 9311TIP3    H227891   2.380   0.217   0.938
 9312TIP3   OH227892   2.166   3.278   0.122
 9312TIP3    H127893   2.253   3.313   0.106
 9312TIP3    H227894   2.137   3.246   0.036
 9313TIP3   OH227895   0.158   3.731   0.545
 9313TIP3    H127896   0.167   3.653   0.490
 9313TIP3    H227897   0.247   3.766   0.552
 9314TIP3   OH227898   5.115   6.437   6.257
 9314TIP3    H127899   5.092   6.365   6.316
 9314TIP3    H227900   5.086   6.516   6.303
 9315TIP3   OH227901   7.423   2.001   5.749
 9315TIP3    H127902   7.473   2.082   5.750
 9315TIP3    H227903   7.479   1.938   5.794
 9316TIP3   OH227904   3.848   6.865   0.923
 9316TIP3    H127905   3.870   6.834   1.010
 9316TIP3    H227906   3.795   6.943   0.938
 9317TIP3   OH227907   1.889   1.667   1.076
 9317TIP3    H127908   1.949   1.594   1.066
 9317TIP3    H227909   1.805   1.635   1.041
 9318TIP3   OH227910   1.932   1.557   5.831
 9318TIP3    H127911   1.846   1.528   5.800
 9318TIP3    H227912   1.966   1.484   5.882
 9319TIP3   OH227913   1.857   3.794   0.859
 9319TIP3    H127914   1.834   3.740   0.784
 9319TIP3    H227915   1.778   3.796   0.913
 9320TIP3   OH227916   4.590   6.297   0.082
 9320TIP3    H127917   4.496   6.287   0.093
 9320TIP3    H227918   4.627   6.223   0.131
 9321TIP3   OH227919   3.157   1.451   0.050
 9321TIP3    H127920   3.204   1.412   0.123
 9321TIP3    H227921   3.164   1.546   0.064
 9322TIP3   OH227922   2.754   6.340   6.151
 9322TIP3    H127923   2.662   6.334   6.126
 9322TIP3    H227924   2.754   6.333   6.246
 9323TIP3   OH227925   6.698   6.821   0.347
 9323TIP3    H127926   6.695   6.807   0.253
 9323TIP3    H227927   6.606   6.823   0.375
 9324TIP3   OH227928   3.275   0.818   3.583
 9324TIP3    H127929   3.219   0.864   3.646
 9324TIP3    H227930   3.311   0.744   3.633
 9325TIP3   OH227931   7.169   1.613   3.236
 9325TIP3    H127932   7.186   1.701   3.202
 9325TIP3    H227933   7.098   1.579   3.181
 9326TIP3   OH227934   1.907   4.774   4.598
 9326TIP3    H127935   1.849   4.839   4.636
 9326TIP3    H227936   1.924   4.806   4.509
 9327TIP3   OH227937   2.292   2.330   4.629
 9327TIP3    H127938   2.257   2.318   4.718
 9327TIP3    H227939   2.358   2.398   4.638
 9328TIP3   OH227940   0.092   5.665   1.402
 9328TIP3    H127941   0.042   5.743   1.427
 9328TIP3    H227942   0.166   5.700   1.353
 9329TIP3   OH227943   8.006   4.635   2.776
 9329TIP3    H127944   7.955   4.554   2.788
 9329TIP3    H227945   8.062   4.616   2.701
 9330TIP3   OH227946   3.974   2.949   0.613
 9330TIP3    H127947   4.053   2.994   0.642
 9330TIP3    H227948   3.960   2.880   0.678
 9331TIP3   OH227949   3.791   0.079   0.235
 9331TIP3    H127950   3.723   0.070   0.302
 9331TIP3    H227951   3.842  -0.001   0.241
 9332TIP3   OH227952   0.413   7.486   5.566
 9332TIP3    H127953   0.337   7.532   5.529
 9332TIP3    H227954   0.470   7.556   5.598
 9333TIP3   OH227955   5.088   5.134   5.951
 9333TIP3    H127956   5.130   5.191   6.016
 9333TIP3    H227957   5.153   5.066   5.934
 9334TIP3   OH227958   5.460   3.041   1.242
 9334TIP3    H127959   5.368   3.054   1.222
 9334TIP3    H227960   5.476   3.098   1.318
 9335TIP3   OH227961   1.596   7.307   6.409
 9335TIP3    H127962   1.596   7.240   6.341
 9335TIP3    H227963   1.673   7.361   6.390
 9336TIP3   OH227964   2.477   0.921   2.411
 9336TIP3    H127965   2.406   0.933   2.474
 9336TIP3    H227966   2.456   0.981   2.339
 9337TIP3   OH227967   6.976   6.701   1.074
 9337TIP3    H127968   6.884   6.716   1.096
 9337TIP3    H227969   7.012   6.789   1.063
 9338TIP3   OH227970   0.141   1.173   0.612
 9338TIP3    H127971   0.108   1.124   0.687
 9338TIP3    H227972   0.077   1.243   0.598
 9339TIP3   OH227973   5.247   0.123   0.110
 9339TIP3    H127974   5.177   0.189   0.109
 9339TIP3    H227975   5.220   0.058   0.045
 9340TIP3   OH227976   0.165   0.934   3.184
 9340TIP3    H127977   0.169   1.028   3.202
 9340TIP3    H227978   0.228   0.895   3.244
 9341TIP3   OH227979   6.977   2.411   2.486
 9341TIP3    H127980   7.027   2.358   2.424
 9341TIP3    H227981   6.972   2.357   2.565
 9342TIP3   OH227982   0.199   6.074   3.114
 9342TIP3    H127983   0.284   6.056   3.074
 9342TIP3    H227984   0.141   6.007   3.077
 9343TIP3   OH227985   3.450   5.387   2.572
 9343TIP3    H127986   3.458   5.366   2.479
 9343TIP3    H227987   3.356   5.385   2.589
 9344TIP3   OH227988   0.071   4.150   0.020
 9344TIP3    H127989   0.096   4.191  -0.063
 9344TIP3    H227990   0.054   4.224   0.079
 9345TIP3   OH227991   4.567   5.316   6.122
 9345TIP3    H127992   4.542   5.260   6.049
 9345TIP3    H227993   4.663   5.311   6.124
 9346TIP3   OH227994   6.681   4.313   2.373
 9346TIP3    H127995   6.767   4.354   2.379
 9346TIP3    H227996   6.643   4.326   2.460
 9347TIP3   OH227997   1.285   6.969   6.543
 9347TIP3    H127998   1.267   6.976   6.449
 9347TIP3    H227999   1.346   7.040   6.561
 9348TIP3   OH228000   7.468   2.859   0.836
 9348TIP3    H128001   7.391   2.822   0.794
 9348TIP3    H228002   7.474   2.948   0.801
 9349TIP3   OH228003   3.046   6.788   4.368
 9349TIP3    H128004   3.038   6.875   4.330
 9349TIP3    H228005   3.048   6.804   4.463
 9350TIP3   OH228006   5.056   7.730   3.086
 9350TIP3    H128007   5.111   7.670   3.035
 9350TIP3    H228008   5.100   7.815   3.081
 9351TIP3   OH228009   7.016   5.228   4.868
 9351TIP3    H128010   7.050   5.191   4.787
 9351TIP3    H228011   7.077   5.198   4.936
 9352TIP3   OH228012   5.632   0.617   2.744
 9352TIP3    H128013   5.636   0.527   2.714
 9352TIP3    H228014   5.674   0.616   2.830
 9353TIP3   OH228015   7.838   6.690   0.025
 9353TIP3    H128016   7.868   6.612   0.072
 9353TIP3    H228017   7.758   6.662  -0.020
 9354TIP3   OH228018   0.811   3.151   4.215
 9354TIP3    H128019   0.734   3.097   4.235
 9354TIP3    H228020   0.822   3.142   4.120
 9355TIP3   OH228021   3.840   3.182   5.908
 9355TIP3    H128022   3.862   3.095   5.941
 9355TIP3    H228023   3.747   3.192   5.928
 9356TIP3   OH228024   6.290   4.792   3.318
 9356TIP3    H128025   6.247   4.714   3.282
 9356TIP3    H228026   6.382   4.781   3.295
 9357TIP3   OH228027   0.630   0.419   1.130
 9357TIP3    H128028   0.678   0.404   1.212
 9357TIP3    H228029   0.672   0.496   1.092
 9358TIP3   OH228030   1.537   5.618   0.953
 9358TIP3    H128031   1.585   5.582   1.027
 9358TIP3    H228032   1.446   5.622   0.982
 9359TIP3   OH228033   5.667   7.380   3.161
 9359TIP3    H128034   5.610   7.422   3.225
 9359TIP3    H228035   5.754   7.416   3.179
 9360TIP3   OH228036   1.404   3.345   5.512
 9360TIP3    H128037   1.473   3.311   5.568
 9360TIP3    H228038   1.430   3.435   5.493
 9361TIP3   OH228039   2.927   5.195   1.944
 9361TIP3    H128040   2.994   5.231   2.002
 9361TIP3    H228041   2.871   5.270   1.922
 9362TIP3   OH228042   1.333   5.819   1.127
 9362TIP3    H128043   1.408   5.782   1.175
 9362TIP3    H228044   1.284   5.742   1.097
 9363TIP3   OH228045   5.691   0.260   1.939
 9363TIP3    H128046   5.782   0.230   1.942
 9363TIP3    H228047   5.649   0.204   1.873
 9364TIP3   OH228048   6.765   3.801   4.868
 9364TIP3    H128049   6.860   3.794   4.880
 9364TIP3    H228050   6.732   3.713   4.888
 9365TIP3   OH228051   5.953   7.510   5.738
 9365TIP3    H128052   5.902   7.541   5.664
 9365TIP3    H228053   5.911   7.550   5.815
 9366TIP3   OH228054   1.606   7.090   0.114
 9366TIP3    H128055   1.565   7.101   0.028
 9366TIP3    H228056   1.615   6.995   0.123
 9367TIP3   OH228057   3.985   4.317   0.730
 9367TIP3    H128058   3.983   4.409   0.757
 9367TIP3    H228059   3.894   4.296   0.711
 9368TIP3   OH228060   5.034   3.419   2.461
 9368TIP3    H128061   5.022   3.326   2.478
 9368TIP3    H228062   5.123   3.426   2.425
 9369TIP3   OH228063   1.393   2.132   6.661
 9369TIP3    H128064   1.466   2.071   6.672
 9369TIP3    H228065   1.330   2.108   6.729
 9370TIP3   OH228066   6.835   4.450   4.873
 9370TIP3    H128067   6.811   4.388   4.941
 9370TIP3    H228068   6.831   4.535   4.915
 9371TIP3   OH228069   3.541   5.433   1.035
 9371TIP3    H128070   3.609   5.411   0.972
 9371TIP3    H228071   3.491   5.502   0.993
 9372TIP3   OH228072   4.048   2.990   4.400
 9372TIP3    H128073   4.121   2.952   4.352
 9372TIP3    H228074   4.029   2.928   4.470
 9373TIP3   OH228075   0.539   2.148   0.482
 9373TIP3    H128076   0.606   2.213   0.461
 9373TIP3    H228077   0.456   2.193   0.469
 9374TIP3   OH228078   5.943   6.912   3.364
 9374TIP3    H128079   6.004   6.839   3.369
 9374TIP3    H228080   5.876   6.892   3.429
 9375TIP3   OH228081   1.376   2.910   0.544
 9375TIP3    H128082   1.438   2.930   0.474
 9375TIP3    H228083   1.312   2.981   0.541
 9376TIP3   OH228084   1.579   5.470   1.669
 9376TIP3    H128085   1.641   5.540   1.651
 9376TIP3    H228086   1.501   5.494   1.619
 9377TIP3   OH228087   6.352   3.245   5.795
 9377TIP3    H128088   6.286   3.218   5.731
 9377TIP3    H228089   6.396   3.320   5.754
 9378TIP3   OH228090   8.184   7.593   5.142
 9378TIP3    H128091   8.218   7.524   5.199
 9378TIP3    H228092   8.255   7.611   5.081
 9379TIP3   OH228093   1.801   7.228   5.181
 9379TIP3    H128094   1.864   7.278   5.233
 9379TIP3    H228095   1.768   7.290   5.116
 9380TIP3   OH228096   2.598   0.143   4.928
 9380TIP3    H128097   2.573   0.055   4.899
 9380TIP3    H228098   2.620   0.133   5.020
 9381TIP3   OH228099   6.384   7.079   3.764
 9381TIP3    H128100   6.475   7.108   3.767
 9381TIP3    H228101   6.388   6.995   3.719
 9382TIP3   OH228102   1.805   2.375   6.573
 9382TIP3    H128103   1.823   2.364   6.666
 9382TIP3    H228104   1.754   2.297   6.549
 9383TIP3   OH228105   0.557   2.221   5.042
 9383TIP3    H128106   0.639   2.222   5.092
 9383TIP3    H228107   0.559   2.139   4.994
 9384TIP3   OH228108   6.888   6.239   1.408
 9384TIP3    H128109   6.903   6.325   1.368
 9384TIP3    H228110   6.972   6.216   1.448
 9385TIP3   OH228111   6.550   2.199   1.031
 9385TIP3    H128112   6.644   2.187   1.016
 9385TIP3    H228113   6.511   2.114   1.009
 9386TIP3   OH228114   6.644   0.594   3.159
 9386TIP3    H128115   6.676   0.539   3.087
 9386TIP3    H228116   6.554   0.563   3.174
 9387TIP3   OH228117   5.545   4.115   2.706
 9387TIP3    H128118   5.514   4.127   2.616
 9387TIP3    H228119   5.544   4.203   2.744
 9388TIP3   OH228120   6.044   0.194   3.409
 9388TIP3    H128121   6.060   0.168   3.318
 9388TIP3    H228122   6.081   0.122   3.460
 9389TIP3   OH228123   3.742   3.757   2.567
 9389TIP3    H128124   3.651   3.785   2.581
 9389TIP3    H228125   3.735   3.663   2.549
 9390TIP3   OH228126   4.964   2.821   5.298
 9390TIP3    H128127   4.894   2.759   5.316
 9390TIP3    H228128   4.969   2.875   5.378
 9391TIP3   OH228129   0.319   0.892   1.917
 9391TIP3    H128130   0.389   0.956   1.931
 9391TIP3    H228131   0.362   0.816   1.879
 9392TIP3   OH228132   0.791   7.050   2.639
 9392TIP3    H128133   0.817   7.026   2.728
 9392TIP3    H228134   0.803   6.969   2.588
 9393TIP3   OH228135   3.380   2.301   0.499
 9393TIP3    H128136   3.321   2.227   0.483
 9393TIP3    H228137   3.379   2.313   0.593
 9394TIP3   OH228138   4.514   2.200   2.214
 9394TIP3    H128139   4.509   2.246   2.130
 9394TIP3    H228140   4.604   2.168   2.219
 9395TIP3   OH228141   6.746   6.498   0.430
 9395TIP3    H128142   6.720   6.486   0.339
 9395TIP3    H228143   6.735   6.412   0.470
 9396TIP3   OH228144   8.291   5.880   3.438
 9396TIP3    H128145   8.363   5.907   3.495
 9396TIP3    H228146   8.213   5.919   3.477
 9397TIP3   OH228147   7.054   4.984   2.297
 9397TIP3    H128148   7.005   5.010   2.375
 9397TIP3    H228149   7.121   5.051   2.288
 9398TIP3   OH228150   6.925   3.895   5.377
 9398TIP3    H128151   6.952   3.919   5.289
 9398TIP3    H228152   6.975   3.815   5.397
 9399TIP3   OH228153   4.428   7.101   0.137
 9399TIP3    H128154   4.372   7.041   0.187
 9399TIP3    H228155   4.495   7.128   0.199
 9400TIP3   OH228156   3.219   3.966   2.038
 9400TIP3    H128157   3.196   3.874   2.027
 9400TIP3    H228158   3.145   4.004   2.086
 9401TIP3   OH228159   0.452   0.129   2.138
 9401TIP3    H128160   0.402   0.051   2.114
 9401TIP3    H228161   0.487   0.161   2.055
 9402TIP3   OH228162   2.770   1.324   1.427
 9402TIP3    H128163   2.840   1.261   1.411
 9402TIP3    H228164   2.729   1.337   1.341
 9403TIP3   OH228165   7.512   2.010   3.216
 9403TIP3    H128166   7.537   1.938   3.273
 9403TIP3    H228167   7.533   2.089   3.266
 9404TIP3   OH228168   0.251   7.167   5.450
 9404TIP3    H128169   0.216   7.101   5.389
 9404TIP3    H228170   0.174   7.205   5.492
 9405TIP3   OH228171   8.158   1.850   1.295
 9405TIP3    H128172   8.151   1.924   1.234
 9405TIP3    H228173   8.094   1.870   1.363
 9406TIP3   OH228174   3.043   7.050   3.244
 9406TIP3    H128175   3.087   6.967   3.264
 9406TIP3    H228176   2.977   7.026   3.178
 9407TIP3   OH228177   4.514   7.202   6.149
 9407TIP3    H128178   4.453   7.275   6.162
 9407TIP3    H228179   4.580   7.236   6.090
 9408TIP3   OH228180   3.116   7.780   5.758
 9408TIP3    H128181   3.027   7.744   5.760
 9408TIP3    H228182   3.164   7.721   5.700
 9409TIP3   OH228183   7.560   2.681   0.561
 9409TIP3    H128184   7.476   2.692   0.605
 9409TIP3    H228185   7.538   2.651   0.473
 9410TIP3   OH228186   3.384   0.158   2.607
 9410TIP3    H128187   3.350   0.133   2.693
 9410TIP3    H228188   3.386   0.254   2.610
 9411TIP3   OH228189   4.656   3.093   2.271
 9411TIP3    H128190   4.667   3.166   2.210
 9411TIP3    H228191   4.740   3.048   2.270
 9412TIP3   OH228192   0.795   6.121   2.469
 9412TIP3    H128193   0.776   6.088   2.557
 9412TIP3    H228194   0.709   6.148   2.436
 9413TIP3   OH228195   6.781   4.848   0.462
 9413TIP3    H128196   6.751   4.806   0.382
 9413TIP3    H228197   6.711   4.910   0.484
 9414TIP3   OH228198   1.847   1.501   4.590
 9414TIP3    H128199   1.846   1.595   4.606
 9414TIP3    H228200   1.765   1.484   4.543
 9415TIP3   OH228201   2.851   6.610   4.318
 9415TIP3    H128202   2.924   6.669   4.333
 9415TIP3    H228203   2.802   6.611   4.400
 9416TIP3   OH228204   2.884   5.830   6.000
 9416TIP3    H128205   2.849   5.741   5.993
 9416TIP3    H228206   2.979   5.820   5.988
 9417TIP3   OH228207   4.904   7.035   4.139
 9417TIP3    H128208   4.861   7.119   4.120
 9417TIP3    H228209   4.927   7.041   4.232
 9418TIP3   OH228210   4.390   4.633   2.287
 9418TIP3    H128211   4.402   4.682   2.369
 9418TIP3    H228212   4.383   4.701   2.220
 9419TIP3   OH228213   5.250   1.444   6.190
 9419TIP3    H128214   5.276   1.369   6.137
 9419TIP3    H228215   5.288   1.520   6.144
 9420TIP3   OH228216   4.876   0.116   0.633
 9420TIP3    H128217   4.966   0.128   0.665
 9420TIP3    H228218   4.886   0.058   0.557
 9421TIP3   OH228219   5.539   1.824   6.220
 9421TIP3    H128220   5.593   1.775   6.282
 9421TIP3    H228221   5.551   1.777   6.137
 9422TIP3   OH228222   1.588   3.042   4.604
 9422TIP3    H128223   1.629   3.040   4.517
 9422TIP3    H228224   1.636   2.977   4.655
 9423TIP3   OH228225   0.379   2.699   0.780
 9423TIP3    H128226   0.367   2.621   0.834
 9423TIP3    H228227   0.305   2.755   0.801
 9424TIP3   OH228228   2.502   0.352   4.075
 9424TIP3    H128229   2.439   0.322   4.140
 9424TIP3    H228230   2.553   0.419   4.121
 9425TIP3   OH228231   5.156   5.411   4.048
 9425TIP3    H128232   5.178   5.345   4.114
 9425TIP3    H228233   5.080   5.374   4.003
 9426TIP3   OH228234   0.105   0.738   0.516
 9426TIP3    H128235   0.011   0.736   0.504
 9426TIP3    H228236   0.134   0.648   0.499
 9427TIP3   OH228237   2.813   7.296   0.419
 9427TIP3    H128238   2.856   7.236   0.357
 9427TIP3    H228239   2.827   7.256   0.505
 9428TIP3   OH228240   6.170   7.622   5.860
 9428TIP3    H128241   6.113   7.599   5.787
 9428TIP3    H228242   6.159   7.717   5.871
 9429TIP3   OH228243   7.277   3.846   0.163
 9429TIP3    H128244   7.328   3.787   0.217
 9429TIP3    H228245   7.198   3.796   0.142
 9430TIP3   OH228246   4.562   2.190   3.880
 9430TIP3    H128247   4.583   2.282   3.896
 9430TIP3    H228248   4.636   2.142   3.916
 9431TIP3   OH228249   8.001   5.585   3.785
 9431TIP3    H128250   7.929   5.577   3.848
 9431TIP3    H228251   8.021   5.679   3.784
 9432TIP3   OH228252   7.705   0.486   1.622
 9432TIP3    H128253   7.755   0.405   1.607
 9432TIP3    H228254   7.635   0.460   1.682
 9433TIP3   OH228255   7.213   6.292   6.651
 9433TIP3    H128256   7.204   6.358   6.719
 9433TIP3    H228257   7.160   6.325   6.578
 9434TIP3   OH228258   1.679   5.278   3.701
 9434TIP3    H128259   1.659   5.281   3.607
 9434TIP3    H228260   1.595   5.285   3.744
 9435TIP3   OH228261   2.197   1.787   0.510
 9435TIP3    H128262   2.241   1.872   0.507
 9435TIP3    H228263   2.200   1.762   0.602
 9436TIP3   OH228264   7.023   1.899   0.349
 9436TIP3    H128265   6.939   1.944   0.336
 9436TIP3    H228266   7.030   1.889   0.444
 9437TIP3   OH228267   4.169   5.380   1.074
 9437TIP3    H128268   4.260   5.402   1.055
 9437TIP3    H228269   4.170   5.285   1.089
 9438TIP3   OH228270   1.534   2.092   5.419
 9438TIP3    H128271   1.461   2.094   5.481
 9438TIP3    H228272   1.612   2.107   5.473
 9439TIP3   OH228273   0.725   6.912   3.137
 9439TIP3    H128274   0.713   6.853   3.063
 9439TIP3    H228275   0.755   6.855   3.208
 9440TIP3   OH228276   2.241   2.499   3.803
 9440TIP3    H128277   2.148   2.513   3.784
 9440TIP3    H228278   2.245   2.497   3.899
 9441TIP3   OH228279   6.882   7.627   2.267
 9441TIP3    H128280   6.787   7.629   2.266
 9441TIP3    H228281   6.905   7.545   2.224
 9442TIP3   OH228282   3.707   5.670   3.659
 9442TIP3    H128283   3.630   5.646   3.607
 9442TIP3    H228284   3.759   5.727   3.602
 9443TIP3   OH228285   1.881   4.289   3.818
 9443TIP3    H128286   1.856   4.197   3.805
 9443TIP3    H228287   1.803   4.338   3.793
 9444TIP3   OH228288   4.363   1.775   2.450
 9444TIP3    H128289   4.273   1.766   2.482
 9444TIP3    H228290   4.410   1.813   2.525
 9445TIP3   OH228291   8.047   5.621   5.572
 9445TIP3    H128292   8.119   5.596   5.631
 9445TIP3    H228293   7.983   5.551   5.582
 9446TIP3   OH228294   6.966   1.561   6.538
 9446TIP3    H128295   6.953   1.516   6.455
 9446TIP3    H228296   6.944   1.495   6.604
 9447TIP3   OH228297   7.099   4.085   1.341
 9447TIP3    H128298   7.012   4.122   1.344
 9447TIP3    H228299   7.090   3.997   1.379
 9448TIP3   OH228300   1.897   5.329   2.645
 9448TIP3    H128301   1.878   5.239   2.672
 9448TIP3    H228302   1.811   5.370   2.637
 9449TIP3   OH228303   2.905   4.571   4.316
 9449TIP3    H128304   2.820   4.569   4.271
 9449TIP3    H228305   2.898   4.504   4.383
 9450TIP3   OH228306   8.072   3.010   4.761
 9450TIP3    H128307   8.051   2.965   4.844
 9450TIP3    H228308   8.072   3.103   4.784
 9451TIP3   OH228309   7.570   6.658   1.256
 9451TIP3    H128310   7.531   6.586   1.305
 9451TIP3    H228311   7.512   6.732   1.272
 9452TIP3   OH228312   4.118   4.180   3.200
 9452TIP3    H128313   4.195   4.235   3.216
 9452TIP3    H228314   4.126   4.108   3.262
 9453TIP3   OH228315   6.718   7.058   2.884
 9453TIP3    H128316   6.698   6.973   2.923
 9453TIP3    H228317   6.667   7.060   2.803
 9454TIP3   OH228318   3.550   1.433   5.938
 9454TIP3    H128319   3.504   1.490   6.000
 9454TIP3    H228320   3.629   1.406   5.984
 9455TIP3   OH228321   1.497   5.036   1.263
 9455TIP3    H128322   1.450   4.964   1.222
 9455TIP3    H228323   1.577   5.047   1.210
 9456TIP3   OH228324   6.518   2.505   6.306
 9456TIP3    H128325   6.458   2.479   6.236
 9456TIP3    H228326   6.560   2.585   6.273
 9457TIP3   OH228327   0.445   0.148   1.179
 9457TIP3    H128328   0.523   0.196   1.150
 9457TIP3    H228329   0.400   0.126   1.098
 9458TIP3   OH228330   7.324   0.016   6.031
 9458TIP3    H128331   7.387  -0.054   6.013
 9458TIP3    H228332   7.286  -0.007   6.116
 9459TIP3   OH228333   6.878   3.195   3.752
 9459TIP3    H128334   6.824   3.223   3.678
 9459TIP3    H228335   6.941   3.133   3.713
 9460TIP3   OH228336   4.177   4.065   3.424
 9460TIP3    H128337   4.202   4.154   3.399
 9460TIP3    H228338   4.136   4.074   3.510
 9461TIP3   OH228339   1.364   4.112   2.511
 9461TIP3    H128340   1.329   4.033   2.470
 9461TIP3    H228341   1.371   4.090   2.604
 9462TIP3   OH228342   2.744   7.320   1.598
 9462TIP3    H128343   2.699   7.305   1.681
 9462TIP3    H228344   2.737   7.414   1.583
 9463TIP3   OH228345   8.149   2.187   2.231
 9463TIP3    H128346   8.123   2.277   2.249
 9463TIP3    H228347   8.087   2.134   2.281
 9464TIP3   OH228348   1.194   2.557   5.448
 9464TIP3    H128349   1.248   2.632   5.472
 9464TIP3    H228350   1.105   2.581   5.475
 9465TIP3   OH228351   7.793   5.927   4.021
 9465TIP3    H128352   7.837   6.005   3.987
 9465TIP3    H228353   7.739   5.897   3.948
 9466TIP3   OH228354   0.176   1.010   6.575
 9466TIP3    H128355   0.093   1.044   6.606
 9466TIP3    H228356   0.154   0.930   6.528
 9467TIP3   OH228357   4.563   6.178   5.020
 9467TIP3    H128358   4.622   6.252   5.006
 9467TIP3    H228359   4.515   6.169   4.937
 9468TIP3   OH228360   2.771   5.545   1.366
 9468TIP3    H128361   2.814   5.619   1.409
 9468TIP3    H228362   2.710   5.512   1.432
 9469TIP3   OH228363   2.858   5.064   2.774
 9469TIP3    H128364   2.843   5.155   2.797
 9469TIP3    H228365   2.822   5.055   2.686
 9470TIP3   OH228366   7.575   4.110   1.796
 9470TIP3    H128367   7.572   4.184   1.735
 9470TIP3    H228368   7.488   4.107   1.835
 9471TIP3   OH228369   7.132   7.415   3.944
 9471TIP3    H128370   7.078   7.482   3.986
 9471TIP3    H228371   7.074   7.373   3.881
 9472TIP3   OH228372   3.397   1.063   0.154
 9472TIP3    H128373   3.321   1.061   0.213
 9472TIP3    H228374   3.363   1.102   0.073
 9473TIP3   OH228375   5.179   6.536   4.258
 9473TIP3    H128376   5.093   6.578   4.265
 9473TIP3    H228377   5.175   6.487   4.177
 9474TIP3   OH228378   7.971   4.501   0.945
 9474TIP3    H128379   7.931   4.574   0.993
 9474TIP3    H228380   7.983   4.433   1.010
 9475TIP3   OH228381   6.131   1.166   0.630
 9475TIP3    H128382   6.069   1.120   0.574
 9475TIP3    H228383   6.077   1.200   0.702
 9476TIP3   OH228384   5.964   3.975   5.555
 9476TIP3    H128385   6.000   3.986   5.643
 9476TIP3    H228386   5.918   3.892   5.557
 9477TIP3   OH228387   6.914   1.552   1.355
 9477TIP3    H128388   6.954   1.476   1.396
 9477TIP3    H228389   6.838   1.517   1.308
 9478TIP3   OH228390   7.940   1.022   3.759
 9478TIP3    H128391   7.856   0.999   3.798
 9478TIP3    H228392   7.932   0.996   3.667
 9479TIP3   OH228393   0.185   1.588   4.566
 9479TIP3    H128394   0.238   1.529   4.513
 9479TIP3    H228395   0.199   1.558   4.656
 9480TIP3   OH228396   8.149   3.602   5.923
 9480TIP3    H128397   8.096   3.625   5.999
 9480TIP3    H228398   8.141   3.677   5.864
 9481TIP3   OH228399   5.915   6.293   1.733
 9481TIP3    H128400   5.972   6.216   1.729
 9481TIP3    H228401   5.865   6.290   1.652
 9482TIP3   OH228402   1.264   0.286   1.769
 9482TIP3    H128403   1.271   0.207   1.822
 9482TIP3    H228404   1.337   0.341   1.798
 9483TIP3   OH228405   2.762   6.794   2.727
 9483TIP3    H128406   2.763   6.768   2.635
 9483TIP3    H228407   2.839   6.751   2.765
 9484TIP3   OH228408   2.237   7.153   5.724
 9484TIP3    H128409   2.183   7.183   5.651
 9484TIP3    H228410   2.174   7.123   5.790
 9485TIP3   OH228411   2.616   6.166   5.529
 9485TIP3    H128412   2.600   6.230   5.598
 9485TIP3    H228413   2.574   6.086   5.559
 9486TIP3   OH228414   1.528   4.256   2.150
 9486TIP3    H128415   1.544   4.162   2.148
 9486TIP3    H228416   1.546   4.285   2.060
 9487TIP3   OH228417   4.995   4.704   0.728
 9487TIP3    H128418   4.963   4.624   0.771
 9487TIP3    H228419   4.990   4.771   0.796
 9488TIP3   OH228420   7.566   6.031   5.878
 9488TIP3    H128421   7.611   6.018   5.961
 9488TIP3    H228422   7.477   6.056   5.902
 9489TIP3   OH228423   0.080   1.939   5.860
 9489TIP3    H128424   0.173   1.962   5.867
 9489TIP3    H228425   0.035   2.023   5.869
 9490TIP3   OH228426   4.254   4.651   0.706
 9490TIP3    H128427   4.239   4.703   0.785
 9490TIP3    H228428   4.192   4.578   0.713
 9491TIP3   OH228429   5.212   0.220   1.669
 9491TIP3    H128430   5.173   0.154   1.726
 9491TIP3    H228431   5.278   0.173   1.619
 9492TIP3   OH228432   2.864   0.068   0.283
 9492TIP3    H128433   2.837   0.125   0.211
 9492TIP3    H228434   2.958   0.084   0.291
 9493TIP3   OH228435   5.221   0.512   1.288
 9493TIP3    H128436   5.175   0.529   1.206
 9493TIP3    H228437   5.158   0.464   1.342
 9494TIP3   OH228438   4.581   4.716   5.958
 9494TIP3    H128439   4.648   4.663   5.917
 9494TIP3    H228440   4.508   4.656   5.972
 9495TIP3   OH228441   2.086   1.299   2.260
 9495TIP3    H128442   2.146   1.373   2.252
 9495TIP3    H228443   2.091   1.256   2.174
 9496TIP3   OH228444   6.728   0.429   5.960
 9496TIP3    H128445   6.752   0.359   6.020
 9496TIP3    H228446   6.673   0.387   5.894
 9497TIP3   OH228447   5.709   6.848   1.897
 9497TIP3    H128448   5.727   6.754   1.895
 9497TIP3    H228449   5.677   6.868   1.809
 9498TIP3   OH228450   2.762   3.993   2.686
 9498TIP3    H128451   2.705   4.070   2.683
 9498TIP3    H228452   2.791   3.988   2.777
 9499TIP3   OH228453   4.407   7.462   0.860
 9499TIP3    H128454   4.393   7.448   0.954
 9499TIP3    H228455   4.342   7.406   0.817
 9500TIP3   OH228456   4.788   6.533   0.783
 9500TIP3    H128457   4.732   6.488   0.719
 9500TIP3    H228458   4.833   6.600   0.732
 9501TIP3   OH228459   1.792   1.506   6.198
 9501TIP3    H128460   1.831   1.425   6.231
 9501TIP3    H228461   1.701   1.482   6.179
 9502TIP3   OH228462   7.567   4.412   4.881
 9502TIP3    H128463   7.496   4.400   4.944
 9502TIP3    H228464   7.584   4.506   4.882
 9503TIP3   OH228465   8.026   5.434   6.172
 9503TIP3    H128466   8.055   5.432   6.081
 9503TIP3    H228467   8.051   5.521   6.203
 9504TIP3   OH228468   2.391   3.013   2.479
 9504TIP3    H128469   2.357   3.097   2.510
 9504TIP3    H228470   2.482   3.011   2.509
 9505TIP3   OH228471   2.428   3.579   6.026
 9505TIP3    H128472   2.487   3.618   5.962
 9505TIP3    H228473   2.382   3.654   6.065
 9506TIP3   OH228474   1.142   3.897   2.707
 9506TIP3    H128475   1.179   3.984   2.722
 9506TIP3    H228476   1.062   3.895   2.760
 9507TIP3   OH228477   5.526   2.632   0.227
 9507TIP3    H128478   5.541   2.584   0.146
 9507TIP3    H228479   5.461   2.581   0.275
 9508TIP3   OH228480   0.603   7.243   5.121
 9508TIP3    H128481   0.548   7.190   5.063
 9508TIP3    H228482   0.556   7.243   5.204
 9509TIP3   OH228483   2.918   1.876   4.077
 9509TIP3    H128484   2.916   1.816   4.151
 9509TIP3    H228485   2.946   1.823   4.002
 9510TIP3   OH228486   2.274   7.557   5.969
 9510TIP3    H128487   2.218   7.506   6.028
 9510TIP3    H228488   2.236   7.544   5.882
 9511TIP3   OH228489   3.890   6.857   1.194
 9511TIP3    H128490   3.819   6.857   1.258
 9511TIP3    H228491   3.936   6.939   1.207
 9512TIP3   OH228492   5.830   4.984   5.906
 9512TIP3    H128493   5.844   4.998   5.813
 9512TIP3    H228494   5.737   4.964   5.914
 9513TIP3   OH228495   5.341   6.744   6.563
 9513TIP3    H128496   5.272   6.810   6.564
 9513TIP3    H228497   5.306   6.671   6.613
 9514TIP3   OH228498   3.519   7.309   0.812
 9514TIP3    H128499   3.572   7.388   0.810
 9514TIP3    H228500   3.429   7.340   0.802
 9515TIP3   OH228501   1.775   0.599   3.615
 9515TIP3    H128502   1.867   0.574   3.620
 9515TIP3    H228503   1.732   0.525   3.573
 9516TIP3   OH228504   7.088   5.840   3.122
 9516TIP3    H128505   7.166   5.872   3.166
 9516TIP3    H228506   7.033   5.805   3.192
 9517TIP3   OH228507   0.571   5.342   4.862
 9517TIP3    H128508   0.607   5.253   4.864
 9517TIP3    H228509   0.540   5.357   4.951
 9518TIP3   OH228510   7.514   4.364   1.077
 9518TIP3    H128511   7.578   4.396   1.140
 9518TIP3    H228512   7.537   4.272   1.064
 9519TIP3   OH228513   6.412   3.052   0.314
 9519TIP3    H128514   6.375   2.971   0.349
 9519TIP3    H228515   6.380   3.056   0.224
 9520TIP3   OH228516   0.577   5.640   0.611
 9520TIP3    H128517   0.615   5.718   0.653
 9520TIP3    H228518   0.496   5.625   0.658
 9521TIP3   OH228519   5.031   7.721   6.376
 9521TIP3    H128520   4.969   7.689   6.442
 9521TIP3    H228521   5.081   7.643   6.352
 9522TIP3   OH228522   5.116   7.736   2.126
 9522TIP3    H128523   5.191   7.733   2.186
 9522TIP3    H228524   5.109   7.647   2.091
 9523TIP3   OH228525   0.776   2.021   0.933
 9523TIP3    H128526   0.835   2.094   0.916
 9523TIP3    H228527   0.752   1.988   0.847
 9524TIP3   OH228528   7.586   0.413   6.322
 9524TIP3    H128529   7.591   0.380   6.412
 9524TIP3    H228530   7.665   0.467   6.312
 9525TIP3   OH228531   5.987   6.700   6.328
 9525TIP3    H128532   5.954   6.698   6.239
 9525TIP3    H228533   5.942   6.628   6.372
 9526TIP3   OH228534   3.897   5.112   5.865
 9526TIP3    H128535   3.871   5.202   5.884
 9526TIP3    H228536   3.822   5.059   5.892
 9527TIP3   OH228537   2.804   6.951   0.082
 9527TIP3    H128538   2.880   6.911   0.039
 9527TIP3    H228539   2.752   6.877   0.113
 9528TIP3   OH228540   0.329   2.792   5.804
 9528TIP3    H128541   0.313   2.754   5.718
 9528TIP3    H228542   0.383   2.870   5.786
 9529TIP3   OH228543   2.313   2.747   5.134
 9529TIP3    H128544   2.263   2.829   5.136
 9529TIP3    H228545   2.399   2.773   5.100
 9530TIP3   OH228546   3.779   2.418   2.416
 9530TIP3    H128547   3.855   2.373   2.378
 9530TIP3    H228548   3.704   2.381   2.368
 9531TIP3   OH228549   6.774   3.198   4.001
 9531TIP3    H128550   6.799   3.147   3.924
 9531TIP3    H228551   6.734   3.278   3.966
 9532TIP3   OH228552   5.907   1.721   2.484
 9532TIP3    H128553   5.944   1.636   2.463
 9532TIP3    H228554   5.832   1.731   2.425
 9533TIP3   OH228555   3.819   4.098   0.991
 9533TIP3    H128556   3.810   4.173   0.932
 9533TIP3    H228557   3.748   4.109   1.054
 9534TIP3   OH228558   6.680   3.703   5.502
 9534TIP3    H128559   6.698   3.718   5.409
 9534TIP3    H228560   6.755   3.654   5.534
 9535TIP3   OH228561   2.566   5.715   3.740
 9535TIP3    H128562   2.499   5.659   3.700
 9535TIP3    H228563   2.566   5.795   3.688
 9536TIP3   OH228564   4.775   6.277   6.342
 9536TIP3    H128565   4.746   6.189   6.318
 9536TIP3    H228566   4.847   6.262   6.403
 9537TIP3   OH228567   6.611   6.405   3.617
 9537TIP3    H128568   6.695   6.449   3.613
 9537TIP3    H228569   6.620   6.331   3.556
 9538TIP3   OH228570   5.966   4.657   0.816
 9538TIP3    H128571   5.887   4.693   0.855
 9538TIP3    H228572   5.942   4.641   0.725
 9539TIP3   OH228573   6.428   6.446   3.835
 9539TIP3    H128574   6.351   6.453   3.779
 9539TIP3    H228575   6.502   6.444   3.774
 9540TIP3   OH228576   3.900   1.382   1.924
 9540TIP3    H128577   3.821   1.385   1.978
 9540TIP3    H228578   3.910   1.471   1.891
 9541TIP3   OH228579   7.631   5.196   0.749
 9541TIP3    H128580   7.630   5.275   0.803
 9541TIP3    H228581   7.700   5.212   0.685
 9542TIP3   OH228582   0.259   0.202   5.959
 9542TIP3    H128583   0.326   0.236   6.018
 9542TIP3    H228584   0.219   0.281   5.922
 9543TIP3   OH228585   1.025   5.561   5.373
 9543TIP3    H128586   1.102   5.593   5.419
 9543TIP3    H228587   0.986   5.639   5.334
 9544TIP3   OH228588   7.849   0.781   1.086
 9544TIP3    H128589   7.879   0.836   1.014
 9544TIP3    H228590   7.902   0.702   1.080
 9545TIP3   OH228591   1.234   4.239   4.840
 9545TIP3    H128592   1.238   4.335   4.847
 9545TIP3    H228593   1.219   4.210   4.930
 9546TIP3   OH228594   0.892   1.356   6.787
 9546TIP3    H128595   0.839   1.367   6.708
 9546TIP3    H228596   0.982   1.366   6.757
 9547TIP3   OH228597   1.324   2.927   6.802
 9547TIP3    H128598   1.335   3.017   6.770
 9547TIP3    H228599   1.400   2.880   6.769
 9548TIP3   OH228600   5.171   1.548   5.304
 9548TIP3    H128601   5.246   1.590   5.262
 9548TIP3    H228602   5.210   1.481   5.360
 9549TIP3   OH228603   0.301   5.179   3.876
 9549TIP3    H128604   0.251   5.205   3.953
 9549TIP3    H228605   0.321   5.261   3.831
 9550TIP3   OH228606   0.144   4.830   6.169
 9550TIP3    H128607   0.225   4.815   6.119
 9550TIP3    H228608   0.097   4.747   6.163
 9551TIP3   OH228609   2.570   6.225   1.730
 9551TIP3    H128610   2.581   6.299   1.670
 9551TIP3    H228611   2.499   6.252   1.788
 9552TIP3   OH228612   6.544   3.108   5.921
 9552TIP3    H128613   6.496   3.026   5.921
 9552TIP3    H228614   6.489   3.169   5.873
 9553TIP3   OH228615   0.153   5.055   6.443
 9553TIP3    H128616   0.113   5.092   6.522
 9553TIP3    H228617   0.081   5.048   6.381
 9554TIP3   OH228618   1.370   5.656   4.866
 9554TIP3    H128619   1.404   5.568   4.884
 9554TIP3    H228620   1.334   5.649   4.777
 9555TIP3   OH228621   2.949   4.272   1.932
 9555TIP3    H128622   2.900   4.242   1.856
 9555TIP3    H228623   2.900   4.347   1.964
 9556TIP3   OH228624   6.025   2.219   3.595
 9556TIP3    H128625   6.071   2.204   3.678
 9556TIP3    H228626   6.034   2.137   3.547
 9557TIP3   OH228627   1.677   4.819   5.222
 9557TIP3    H128628   1.590   4.786   5.245
 9557TIP3    H228629   1.675   4.826   5.127
 9558TIP3   OH228630   3.089   7.726   6.710
 9558TIP3    H128631   2.996   7.738   6.691
 9558TIP3    H228632   3.125   7.815   6.713
 9559TIP3   OH228633   2.110   4.665   0.692
 9559TIP3    H128634   2.103   4.593   0.754
 9559TIP3    H228635   2.024   4.708   0.694
 9560TIP3   OH228636   1.402   0.806   2.077
 9560TIP3    H128637   1.330   0.810   2.014
 9560TIP3    H228638   1.478   0.781   2.025
 9561TIP3   OH228639   7.701   4.810   2.182
 9561TIP3    H128640   7.772   4.768   2.230
 9561TIP3    H228641   7.646   4.849   2.250
 9562TIP3   OH228642   1.591   1.363   6.405
 9562TIP3    H128643   1.644   1.443   6.409
 9562TIP3    H228644   1.625   1.309   6.476
 9563TIP3   OH228645   4.152   6.232   1.060
 9563TIP3    H128646   4.161   6.321   1.025
 9563TIP3    H228647   4.242   6.201   1.071
 9564TIP3   OH228648   6.273   0.061   1.346
 9564TIP3    H128649   6.295   0.137   1.292
 9564TIP3    H228650   6.357   0.016   1.360
 9565TIP3   OH228651   2.438   5.605   2.936
 9565TIP3    H128652   2.467   5.550   2.863
 9565TIP3    H228653   2.347   5.625   2.917
 9566TIP3   OH228654   4.087   5.132   2.471
 9566TIP3    H128655   4.011   5.074   2.472
 9566TIP3    H228656   4.163   5.073   2.467
 9567TIP3   OH228657   6.144   7.616   3.475
 9567TIP3    H128658   6.074   7.604   3.540
 9567TIP3    H228659   6.175   7.705   3.491
 9568TIP3   OH228660   1.191   2.472   3.612
 9568TIP3    H128661   1.248   2.508   3.544
 9568TIP3    H228662   1.243   2.480   3.692
 9569TIP3   OH228663   0.482   2.207   6.318
 9569TIP3    H128664   0.419   2.234   6.252
 9569TIP3    H228665   0.517   2.289   6.353
 9570TIP3   OH228666   4.565   5.289   1.817
 9570TIP3    H128667   4.585   5.330   1.901
 9570TIP3    H228668   4.603   5.348   1.752
 9571TIP3   OH228669   2.669   3.845   5.568
 9571TIP3    H128670   2.596   3.847   5.506
 9571TIP3    H228671   2.707   3.932   5.564
 9572TIP3   OH228672   2.467   4.524   2.329
 9572TIP3    H128673   2.423   4.472   2.262
 9572TIP3    H228674   2.557   4.532   2.298
 9573TIP3   OH228675   0.441   1.968   0.934
 9573TIP3    H128676   0.534   1.986   0.916
 9573TIP3    H228677   0.439   1.947   1.027
 9574TIP3   OH228678   6.813   2.080   0.398
 9574TIP3    H128679   6.838   2.160   0.444
 9574TIP3    H228680   6.779   2.022   0.467
 9575TIP3   OH228681   4.122   2.245   2.039
 9575TIP3    H128682   4.144   2.330   2.002
 9575TIP3    H228683   4.193   2.187   2.011
 9576TIP3   OH228684   2.374   6.533   0.069
 9576TIP3    H128685   2.325   6.592   0.012
 9576TIP3    H228686   2.332   6.448   0.060
 9577TIP3   OH228687   7.011   2.431   1.091
 9577TIP3    H128688   7.049   2.396   1.011
 9577TIP3    H228689   7.007   2.526   1.076
 9578TIP3   OH228690   2.447   5.860   4.550
 9578TIP3    H128691   2.529   5.873   4.502
 9578TIP3    H228692   2.474   5.845   4.640
 9579TIP3   OH228693   5.668   3.760   0.178
 9579TIP3    H128694   5.725   3.809   0.118
 9579TIP3    H228695   5.714   3.678   0.192
 9580TIP3   OH228696   4.279   5.018   2.718
 9580TIP3    H128697   4.295   5.087   2.653
 9580TIP3    H228698   4.225   5.061   2.785
 9581TIP3   OH228699   2.297   4.538   3.066
 9581TIP3    H128700   2.241   4.613   3.046
 9581TIP3    H228701   2.384   4.576   3.082
 9582TIP3   OH228702   4.084   4.600   1.857
 9582TIP3    H128703   4.144   4.668   1.828
 9582TIP3    H228704   4.137   4.545   1.915
 9583TIP3   OH228705   2.996   2.785   2.488
 9583TIP3    H128706   3.006   2.749   2.400
 9583TIP3    H228707   3.060   2.737   2.541
 9584TIP3   OH228708   5.407   1.617   6.038
 9584TIP3    H128709   5.482   1.558   6.040
 9584TIP3    H228710   5.404   1.649   5.948
 9585TIP3   OH228711   2.552   6.703   2.017
 9585TIP3    H128712   2.494   6.656   1.958
 9585TIP3    H228713   2.578   6.781   1.968
 9586TIP3   OH228714   5.787   7.058   1.619
 9586TIP3    H128715   5.752   7.090   1.536
 9586TIP3    H228716   5.828   6.974   1.597
 9587TIP3   OH228717   1.325   6.918   1.205
 9587TIP3    H128718   1.266   6.863   1.153
 9587TIP3    H228719   1.309   7.007   1.173
 9588TIP3   OH228720   6.647   6.144   1.681
 9588TIP3    H128721   6.707   6.088   1.730
 9588TIP3    H228722   6.701   6.181   1.611
 9589TIP3   OH228723   1.755   1.557   2.393
 9589TIP3    H128724   1.759   1.482   2.452
 9589TIP3    H228725   1.772   1.633   2.449
 9590TIP3   OH228726   3.860   4.783   4.743
 9590TIP3    H128727   3.905   4.712   4.697
 9590TIP3    H228728   3.929   4.827   4.793
 9591TIP3   OH228729   3.940   6.052   1.371
 9591TIP3    H128730   3.945   6.063   1.276
 9591TIP3    H228731   3.978   6.133   1.406
 9592TIP3   OH228732   4.259   6.309   4.423
 9592TIP3    H128733   4.348   6.325   4.394
 9592TIP3    H228734   4.267   6.294   4.518
 9593TIP3   OH228735   7.433   5.938   4.638
 9593TIP3    H128736   7.351   5.977   4.667
 9593TIP3    H228737   7.418   5.915   4.547
 9594TIP3   OH228738   2.216   2.754   4.422
 9594TIP3    H128739   2.247   2.765   4.332
 9594TIP3    H228740   2.138   2.809   4.427
 9595TIP3   OH228741   3.212   5.241   3.251
 9595TIP3    H128742   3.150   5.247   3.179
 9595TIP3    H228743   3.171   5.290   3.322
 9596TIP3   OH228744   4.602   2.427   4.028
 9596TIP3    H128745   4.520   2.433   4.077
 9596TIP3    H228746   4.668   2.410   4.095
 9597TIP3   OH228747   7.857   6.665   4.147
 9597TIP3    H128748   7.786   6.662   4.211
 9597TIP3    H228749   7.816   6.640   4.064
 9598TIP3   OH228750   2.372   5.705   6.721
 9598TIP3    H128751   2.410   5.750   6.797
 9598TIP3    H228752   2.436   5.639   6.697
 9599TIP3   OH228753   3.529   4.647   5.168
 9599TIP3    H128754   3.531   4.682   5.257
 9599TIP3    H228755   3.437   4.626   5.152
 9600TIP3   OH228756   1.154   6.005   3.862
 9600TIP3    H128757   1.119   5.917   3.876
 9600TIP3    H228758   1.208   5.997   3.783
 9601TIP3   OH228759   3.588   4.288   5.125
 9601TIP3    H128760   3.529   4.271   5.199
 9601TIP3    H228761   3.586   4.383   5.114
 9602TIP3   OH228762   2.039   1.639   1.363
 9602TIP3    H128763   2.081   1.563   1.404
 9602TIP3    H228764   2.065   1.633   1.271
 9603TIP3   OH228765   0.463   4.505   3.403
 9603TIP3    H128766   0.537   4.521   3.345
 9603TIP3    H228767   0.497   4.521   3.491
 9604TIP3   OH228768   6.410   4.016   4.660
 9604TIP3    H128769   6.504   4.035   4.669
 9604TIP3    H228770   6.382   4.068   4.586
 9605TIP3   OH228771   5.498   0.245   3.062
 9605TIP3    H128772   5.501   0.333   3.023
 9605TIP3    H228773   5.586   0.232   3.097
 9606TIP3   OH228774   1.358   0.186   5.879
 9606TIP3    H128775   1.412   0.205   5.957
 9606TIP3    H228776   1.416   0.207   5.805
 9607TIP3   OH228777   7.270   3.537   3.774
 9607TIP3    H128778   7.347   3.481   3.789
 9607TIP3    H228779   7.265   3.591   3.853
 9608TIP3   OH228780   1.171   5.145   0.320
 9608TIP3    H128781   1.264   5.122   0.326
 9608TIP3    H228782   1.168   5.224   0.267
 9609TIP3   OH228783   6.177   5.815   3.467
 9609TIP3    H128784   6.247   5.858   3.418
 9609TIP3    H228785   6.143   5.883   3.525
 9610TIP3   OH228786   0.475   1.208   2.534
 9610TIP3    H128787   0.539   1.255   2.587
 9610TIP3    H228788   0.459   1.265   2.459
 9611TIP3   OH228789   0.292   1.578   0.049
 9611TIP3    H128790   0.313   1.655   0.102
 9611TIP3    H228791   0.289   1.506   0.112
 9612TIP3   OH228792   6.379   0.381   2.001
 9612TIP3    H128793   6.340   0.298   2.027
 9612TIP3    H228794   6.425   0.362   1.919
 9613TIP3   OH228795   7.727   4.469   0.413
 9613TIP3    H128796   7.808   4.489   0.365
 9613TIP3    H228797   7.725   4.533   0.484
 9614TIP3   OH228798   3.835   2.009   0.025
 9614TIP3    H128799   3.914   1.957   0.013
 9614TIP3    H228800   3.772   1.949   0.064
 9615TIP3   OH228801   3.309   1.334   0.704
 9615TIP3    H128802   3.339   1.247   0.677
 9615TIP3    H228803   3.369   1.394   0.661
 9616TIP3   OH228804   7.666   3.994   3.610
 9616TIP3    H128805   7.602   3.929   3.639
 9616TIP3    H228806   7.704   3.956   3.531
 9617TIP3   OH228807   7.725   6.213   3.225
 9617TIP3    H128808   7.808   6.235   3.267
 9617TIP3    H228809   7.751   6.163   3.147
 9618TIP3   OH228810  -0.003   4.563   0.621
 9618TIP3    H128811   0.045   4.642   0.596
 9618TIP3    H228812   0.063   4.494   0.624
 9619TIP3   OH228813   6.623   0.888   4.652
 9619TIP3    H128814   6.648   0.807   4.608
 9619TIP3    H228815   6.539   0.911   4.613
 9620TIP3   OH228816   0.356   5.140   4.672
 9620TIP3    H128817   0.302   5.065   4.699
 9620TIP3    H228818   0.295   5.214   4.671
 9621TIP3   OH228819   6.319   0.714   0.538
 9621TIP3    H128820   6.385   0.778   0.513
 9621TIP3    H228821   6.274   0.692   0.456
 9622TIP3   OH228822   1.887   2.065   2.126
 9622TIP3    H128823   1.803   2.083   2.167
 9622TIP3    H228824   1.923   2.151   2.105
 9623TIP3   OH228825   2.861   6.736   4.072
 9623TIP3    H128826   2.836   6.691   4.153
 9623TIP3    H228827   2.954   6.714   4.060
 9624TIP3   OH228828   3.247   0.492   2.303
 9624TIP3    H128829   3.319   0.461   2.358
 9624TIP3    H228830   3.168   0.460   2.346
 9625TIP3   OH228831   3.352   2.805   1.986
 9625TIP3    H128832   3.371   2.847   1.903
 9625TIP3    H228833   3.258   2.819   1.999
 9626TIP3   OH228834   4.158   2.657   5.160
 9626TIP3    H128835   4.189   2.634   5.248
 9626TIP3    H228836   4.153   2.753   5.161
 9627TIP3   OH228837   1.524   4.755   3.787
 9627TIP3    H128838   1.558   4.809   3.716
 9627TIP3    H228839   1.600   4.741   3.845
 9628TIP3   OH228840   6.618   5.539   1.256
 9628TIP3    H128841   6.626   5.514   1.348
 9628TIP3    H228842   6.684   5.486   1.211
 9629TIP3   OH228843   6.399   1.985   0.617
 9629TIP3    H128844   6.315   2.031   0.613
 9629TIP3    H228845   6.392   1.916   0.551
 9630TIP3   OH228846   6.940   1.555   4.185
 9630TIP3    H128847   6.955   1.637   4.232
 9630TIP3    H228848   6.998   1.492   4.228
 9631TIP3   OH228849   3.704   0.979   1.429
 9631TIP3    H128850   3.720   0.889   1.400
 9631TIP3    H228851   3.719   0.977   1.524
 9632TIP3   OH228852   1.199   1.837   3.353
 9632TIP3    H128853   1.217   1.900   3.284
 9632TIP3    H228854   1.284   1.819   3.393
 9633TIP3   OH228855   1.293   6.739   5.447
 9633TIP3    H128856   1.356   6.741   5.520
 9633TIP3    H228857   1.252   6.653   5.454
 9634TIP3   OH228858   1.109   0.940   3.029
 9634TIP3    H128859   1.110   0.935   2.933
 9634TIP3    H228860   1.104   1.034   3.047
 9635TIP3   OH228861   5.487   0.517   0.511
 9635TIP3    H128862   5.437   0.438   0.533
 9635TIP3    H228863   5.522   0.499   0.423
 9636TIP3   OH228864   4.034   4.737   2.196
 9636TIP3    H128865   4.034   4.717   2.102
 9636TIP3    H228866   3.942   4.732   2.222
 9637TIP3   OH228867   2.405   3.850   5.829
 9637TIP3    H128868   2.488   3.803   5.827
 9637TIP3    H228869   2.353   3.809   5.760
 9638TIP3   OH228870   2.985   6.367   2.750
 9638TIP3    H128871   3.057   6.313   2.784
 9638TIP3    H228872   3.002   6.373   2.656
 9639TIP3   OH228873   7.855   3.524   2.181
 9639TIP3    H128874   7.814   3.606   2.156
 9639TIP3    H228875   7.846   3.520   2.276
 9640TIP3   OH228876   6.821   7.440   0.147
 9640TIP3    H128877   6.834   7.507   0.080
 9640TIP3    H228878   6.910   7.419   0.177
 9641TIP3   OH228879   6.434   3.702   2.088
 9641TIP3    H128880   6.407   3.794   2.086
 9641TIP3    H228881   6.528   3.705   2.106
 9642TIP3   OH228882   6.586   3.797   1.282
 9642TIP3    H128883   6.565   3.868   1.221
 9642TIP3    H228884   6.502   3.774   1.321
 9643TIP3   OH228885   1.821   6.203   6.133
 9643TIP3    H128886   1.726   6.192   6.141
 9643TIP3    H228887   1.833   6.298   6.127
 9644TIP3   OH228888   4.322   0.242   0.239
 9644TIP3    H128889   4.323   0.213   0.148
 9644TIP3    H228890   4.234   0.222   0.270
 9645TIP3   OH228891   8.047   2.532   1.928
 9645TIP3    H128892   7.978   2.485   1.882
 9645TIP3    H228893   8.036   2.508   2.020
 9646TIP3   OH228894   1.182   7.639   0.124
 9646TIP3    H128895   1.252   7.688   0.167
 9646TIP3    H228896   1.200   7.548   0.143
 9647TIP3   OH228897   3.521   1.240   4.455
 9647TIP3    H128898   3.536   1.331   4.479
 9647TIP3    H228899   3.432   1.238   4.420
 9648TIP3   OH228900   6.924   5.017   2.535
 9648TIP3    H128901   6.957   4.994   2.622
 9648TIP3    H228902   6.832   4.990   2.536
 9649TIP3   OH228903   2.810   3.249   5.438
 9649TIP3    H128904   2.748   3.321   5.446
 9649TIP3    H228905   2.822   3.217   5.528
 9650TIP3   OH228906   5.365   0.588   0.932
 9650TIP3    H128907   5.407   0.541   1.004
 9650TIP3    H228908   5.438   0.623   0.880
 9651TIP3   OH228909   6.557   0.330   2.283
 9651TIP3    H128910   6.476   0.375   2.259
 9651TIP3    H228911   6.529   0.246   2.318
 9652TIP3   OH228912   4.753   7.276   4.993
 9652TIP3    H128913   4.676   7.226   5.018
 9652TIP3    H228914   4.773   7.247   4.904
 9653TIP3   OH228915   6.303   4.673   2.584
 9653TIP3    H128916   6.305   4.604   2.518
 9653TIP3    H228917   6.366   4.645   2.651
 9654TIP3   OH228918   3.096   3.690   4.939
 9654TIP3    H128919   3.155   3.620   4.966
 9654TIP3    H228920   3.012   3.667   4.979
 9655TIP3   OH228921   7.863   0.580   3.366
 9655TIP3    H128922   7.850   0.674   3.378
 9655TIP3    H228923   7.862   0.544   3.455
 9656TIP3   OH228924   6.143   4.466   3.905
 9656TIP3    H128925   6.132   4.461   4.000
 9656TIP3    H228926   6.053   4.473   3.872
 9657TIP3   OH228927   5.228   5.751   3.497
 9657TIP3    H128928   5.265   5.669   3.467
 9657TIP3    H228929   5.134   5.742   3.483
 9658TIP3   OH228930   1.323   2.673   4.344
 9658TIP3    H128931   1.238   2.646   4.311
 9658TIP3    H228932   1.340   2.613   4.417
 9659TIP3   OH228933   3.206   0.385   5.962
 9659TIP3    H128934   3.255   0.304   5.975
 9659TIP3    H228935   3.170   0.377   5.874
 9660TIP3   OH228936   7.826   3.461   3.072
 9660TIP3    H128937   7.838   3.366   3.068
 9660TIP3    H228938   7.848   3.491   2.984
 9661TIP3   OH228939   1.766   0.742   5.685
 9661TIP3    H128940   1.808   0.739   5.771
 9661TIP3    H228941   1.754   0.650   5.661
 9662TIP3   OH228942   5.314   0.708   0.581
 9662TIP3    H128943   5.257   0.699   0.505
 9662TIP3    H228944   5.382   0.642   0.568
 9663TIP3   OH228945   0.104   3.777   5.154
 9663TIP3    H128946   0.063   3.843   5.097
 9663TIP3    H228947   0.031   3.740   5.204
 9664TIP3   OH228948   1.124   1.703   5.742
 9664TIP3    H128949   1.107   1.661   5.658
 9664TIP3    H228950   1.038   1.723   5.778
 9665TIP3   OH228951   1.096   2.937   0.313
 9665TIP3    H128952   1.012   2.954   0.270
 9665TIP3    H228953   1.094   2.992   0.391
 9666TIP3   OH228954   7.686   0.518   0.411
 9666TIP3    H128955   7.682   0.461   0.334
 9666TIP3    H228956   7.606   0.497   0.460
 9667TIP3   OH228957   2.933   3.077   4.545
 9667TIP3    H128958   2.957   3.150   4.489
 9667TIP3    H228959   2.856   3.108   4.593
 9668TIP3   OH228960   7.422   2.375   5.158
 9668TIP3    H128961   7.332   2.372   5.190
 9668TIP3    H228962   7.465   2.300   5.199
 9669TIP3   OH228963   1.022   6.367   3.266
 9669TIP3    H128964   1.020   6.274   3.244
 9669TIP3    H228965   1.056   6.370   3.356
 9670TIP3   OH228966   1.978   1.100   5.775
 9670TIP3    H128967   1.922   1.147   5.713
 9670TIP3    H228968   1.925   1.092   5.854
 9671TIP3   OH228969   0.543   1.621   5.674
 9671TIP3    H128970   0.576   1.532   5.682
 9671TIP3    H228971   0.460   1.611   5.626
 9672TIP3   OH228972   4.547   5.667   0.940
 9672TIP3    H128973   4.570   5.579   0.913
 9672TIP3    H228974   4.630   5.710   0.958
 9673TIP3   OH228975   3.649   2.200   4.801
 9673TIP3    H128976   3.712   2.241   4.741
 9673TIP3    H228977   3.625   2.118   4.759
 9674TIP3   OH228978   0.668   0.618   5.076
 9674TIP3    H128979   0.728   0.580   5.140
 9674TIP3    H228980   0.629   0.543   5.030
 9675TIP3   OH228981   6.309   2.703   4.148
 9675TIP3    H128982   6.295   2.794   4.121
 9675TIP3    H228983   6.358   2.664   4.075
 9676TIP3   OH228984   8.182   6.152   2.857
 9676TIP3    H128985   8.266   6.121   2.890
 9676TIP3    H228986   8.196   6.164   2.763
 9677TIP3   OH228987   8.221   6.531   2.944
 9677TIP3    H128988   8.174   6.594   2.889
 9677TIP3    H228989   8.152   6.478   2.984
 9678TIP3   OH228990   6.184   4.064   3.337
 9678TIP3    H128991   6.177   4.059   3.433
 9678TIP3    H228992   6.261   4.120   3.322
 9679TIP3   OH228993   6.477   4.980   4.660
 9679TIP3    H128994   6.419   4.907   4.679
 9679TIP3    H228995   6.470   5.036   4.737
 9680TIP3   OH228996   5.079   3.317   1.786
 9680TIP3    H128997   4.998   3.356   1.753
 9680TIP3    H228998   5.050   3.247   1.844
 9681TIP3   OH228999   4.555   3.152   6.687
 9681TIP3    H129000   4.634   3.112   6.725
 9681TIP3    H229001   4.526   3.214   6.754
 9682TIP3   OH229002   7.575   1.121   1.310
 9682TIP3    H129003   7.494   1.071   1.315
 9682TIP3    H229004   7.564   1.193   1.372
 9683TIP3   OH229005   5.768   5.809   5.230
 9683TIP3    H129006   5.721   5.817   5.147
 9683TIP3    H229007   5.743   5.723   5.264
 9684TIP3   OH229008   4.240   3.764   3.810
 9684TIP3    H129009   4.216   3.672   3.799
 9684TIP3    H229010   4.261   3.793   3.721
 9685TIP3   OH229011   0.481   3.625   4.942
 9685TIP3    H129012   0.398   3.586   4.917
 9685TIP3    H229013   0.459   3.715   4.966
 9686TIP3   OH229014   4.607   7.556   0.592
 9686TIP3    H129015   4.701   7.567   0.600
 9686TIP3    H229016   4.570   7.635   0.633
 9687TIP3   OH229017   4.017   1.564   2.246
 9687TIP3    H129018   3.929   1.591   2.221
 9687TIP3    H229019   4.049   1.634   2.303
 9688TIP3   OH229020   2.762   0.504   1.016
 9688TIP3    H129021   2.810   0.551   0.948
 9688TIP3    H229022   2.766   0.561   1.092
 9689TIP3   OH229023   4.760   7.344   2.135
 9689TIP3    H129024   4.759   7.260   2.088
 9689TIP3    H229025   4.691   7.395   2.092
 9690TIP3   OH229026   1.605   2.264   1.067
 9690TIP3    H129027   1.589   2.342   1.014
 9690TIP3    H229028   1.519   2.235   1.095
 9691TIP3   OH229029   6.210   5.484   1.155
 9691TIP3    H129030   6.152   5.504   1.081
 9691TIP3    H229031   6.191   5.393   1.177
 9692TIP3   OH229032   1.069   7.545   2.871
 9692TIP3    H129033   1.047   7.546   2.964
 9692TIP3    H229034   1.007   7.483   2.832
 9693TIP3   OH229035   6.714   1.197   1.576
 9693TIP3    H129036   6.745   1.164   1.660
 9693TIP3    H229037   6.654   1.268   1.599
 9694TIP3   OH229038   4.532   3.478   0.151
 9694TIP3    H129039   4.566   3.398   0.191
 9694TIP3    H229040   4.477   3.447   0.079
 9695TIP3   OH229041   2.682   3.162   2.996
 9695TIP3    H129042   2.718   3.086   2.950
 9695TIP3    H229043   2.712   3.237   2.945
 9696TIP3   OH229044   1.665   4.034   6.479
 9696TIP3    H129045   1.641   4.019   6.387
 9696TIP3    H229046   1.609   3.975   6.529
 9697TIP3   OH229047   0.358   0.758   2.549
 9697TIP3    H129048   0.277   0.747   2.599
 9697TIP3    H229049   0.423   0.784   2.614
 9698TIP3   OH229050   5.249   1.053   2.312
 9698TIP3    H129051   5.305   0.975   2.303
 9698TIP3    H229052   5.248   1.091   2.224
 9699TIP3   OH229053   2.603   2.417   4.951
 9699TIP3    H129054   2.652   2.492   4.985
 9699TIP3    H229055   2.546   2.390   5.023
 9700TIP3   OH229056   0.676   0.885   0.392
 9700TIP3    H129057   0.645   0.952   0.453
 9700TIP3    H229058   0.758   0.920   0.357
 9701TIP3   OH229059   2.995   1.299   1.936
 9701TIP3    H129060   3.085   1.323   1.956
 9701TIP3    H229061   2.994   1.287   1.841
 9702TIP3   OH229062   7.781   3.760   1.997
 9702TIP3    H129063   7.778   3.803   1.911
 9702TIP3    H229064   7.712   3.694   1.993
 9703TIP3   OH229065   3.199   4.180   0.955
 9703TIP3    H129066   3.207   4.263   0.908
 9703TIP3    H229067   3.245   4.194   1.038
 9704TIP3   OH229068   7.834   2.557   1.581
 9704TIP3    H129069   7.901   2.506   1.628
 9704TIP3    H229070   7.883   2.612   1.521
 9705TIP3   OH229071   5.388   7.610   5.462
 9705TIP3    H129072   5.304   7.586   5.423
 9705TIP3    H229073   5.376   7.700   5.492
 9706TIP3   OH229074   4.505   3.370   0.630
 9706TIP3    H129075   4.498   3.276   0.612
 9706TIP3    H229076   4.592   3.380   0.670
 9707TIP3   OH229077   0.899   2.835   0.515
 9707TIP3    H129078   0.869   2.776   0.585
 9707TIP3    H229079   0.966   2.889   0.557
 9708TIP3   OH229080   7.721   7.437   1.209
 9708TIP3    H129081   7.733   7.530   1.188
 9708TIP3    H229082   7.695   7.437   1.302
 9709TIP3   OH229083   8.052   0.057   0.626
 9709TIP3    H129084   7.968   0.051   0.671
 9709TIP3    H229085   8.050  -0.014   0.562
 9710TIP3   OH229086   2.513   5.982   0.633
 9710TIP3    H129087   2.484   6.054   0.689
 9710TIP3    H229088   2.521   5.907   0.691
 9711TIP3   OH229089   3.167   2.610   6.041
 9711TIP3    H129090   3.151   2.548   5.971
 9711TIP3    H229091   3.246   2.657   6.014
 9712TIP3   OH229092   4.514   5.704   2.498
 9712TIP3    H129093   4.564   5.644   2.443
 9712TIP3    H229094   4.434   5.656   2.518
 9713TIP3   OH229095   6.975   2.022   0.857
 9713TIP3    H129096   6.916   2.096   0.842
 9713TIP3    H229097   6.924   1.961   0.911
 9714TIP3   OH229098   7.275   7.176   6.161
 9714TIP3    H129099   7.264   7.096   6.110
 9714TIP3    H229100   7.208   7.236   6.128
 9715TIP3   OH229101   3.451   1.052   1.698
 9715TIP3    H129102   3.356   1.056   1.712
 9715TIP3    H229103   3.486   1.123   1.752
 9716TIP3   OH229104   2.586   2.158   3.050
 9716TIP3    H129105   2.641   2.187   2.978
 9716TIP3    H229106   2.546   2.077   3.019
 9717TIP3   OH229107   0.073   0.023   3.942
 9717TIP3    H129108   0.152   0.059   3.901
 9717TIP3    H229109   0.077  -0.071   3.926
 9718TIP3   OH229110   5.279   0.000   5.247
 9718TIP3    H129111   5.318   0.080   5.213
 9718TIP3    H229112   5.189   0.001   5.216
 9719TIP3   OH229113   2.572   7.805   2.333
 9719TIP3    H129114   2.655   7.780   2.373
 9719TIP3    H229115   2.596   7.846   2.250
 9720TIP3   OH229116   3.816   5.041   2.099
 9720TIP3    H129117   3.837   5.130   2.128
 9720TIP3    H229118   3.721   5.033   2.115
 9721TIP3   OH229119   6.690   4.634   2.134
 9721TIP3    H129120   6.725   4.711   2.180
 9721TIP3    H229121   6.618   4.668   2.081
 9722TIP3   OH229122   2.187   1.235   1.026
 9722TIP3    H129123   2.160   1.143   1.035
 9722TIP3    H229124   2.251   1.234   0.955
 9723TIP3   OH229125   7.610   7.252   4.054
 9723TIP3    H129126   7.566   7.168   4.039
 9723TIP3    H229127   7.646   7.276   3.968
 9724TIP3   OH229128   0.363   4.682   6.336
 9724TIP3    H129129   0.370   4.590   6.361
 9724TIP3    H229130   0.364   4.680   6.240
 9725TIP3   OH229131   8.280   6.193   5.630
 9725TIP3    H129132   8.272   6.185   5.725
 9725TIP3    H229133   8.226   6.122   5.595
 9726TIP3   OH229134   4.857   3.499   0.966
 9726TIP3    H129135   4.906   3.580   0.972
 9726TIP3    H229136   4.902   3.439   1.025
 9727TIP3   OH229137   2.727   4.033   4.632
 9727TIP3    H129138   2.780   4.110   4.650
 9727TIP3    H229139   2.645   4.049   4.677
 9728TIP3   OH229140   3.414   7.466   1.806
 9728TIP3    H129141   3.368   7.410   1.743
 9728TIP3    H229142   3.362   7.459   1.886
 9729TIP3   OH229143   1.378   1.702   4.898
 9729TIP3    H129144   1.296   1.731   4.937
 9729TIP3    H229145   1.435   1.684   4.973
 9730TIP3   OH229146   1.903   5.401   0.124
 9730TIP3    H129147   1.950   5.484   0.116
 9730TIP3    H229148   1.970   5.334   0.109
 9731TIP3   OH229149   4.659   4.710   2.220
 9731TIP3    H129150   4.579   4.682   2.266
 9731TIP3    H229151   4.679   4.636   2.163
 9732TIP3   OH229152   1.305   3.272   3.604
 9732TIP3    H129153   1.239   3.245   3.540
 9732TIP3    H229154   1.315   3.366   3.588
 9733TIP3   OH229155   5.262   7.178   1.725
 9733TIP3    H129156   5.301   7.199   1.810
 9733TIP3    H229157   5.337   7.162   1.668
 9734TIP3   OH229158   7.872   3.305   4.250
 9734TIP3    H129159   7.894   3.213   4.235
 9734TIP3    H229160   7.956   3.351   4.241
 9735TIP3   OH229161   7.402   2.734   4.795
 9735TIP3    H129162   7.394   2.644   4.829
 9735TIP3    H229163   7.464   2.726   4.723
 9736TIP3   OH229164   7.876   3.063   3.612
 9736TIP3    H129165   7.904   3.131   3.673
 9736TIP3    H229166   7.874   3.106   3.527
 9737TIP3   OH229167   1.386   6.792   0.009
 9737TIP3    H129168   1.479   6.809   0.027
 9737TIP3    H229169   1.384   6.767  -0.083
 9738TIP3   OH229170   7.996   4.159   2.874
 9738TIP3    H129171   8.010   4.093   2.941
 9738TIP3    H229172   8.040   4.125   2.796
 9739TIP3   OH229173   2.252   6.500   5.624
 9739TIP3    H129174   2.323   6.495   5.560
 9739TIP3    H229175   2.232   6.409   5.645
 9740TIP3   OH229176   1.342   5.120   5.936
 9740TIP3    H129177   1.359   5.199   5.885
 9740TIP3    H229178   1.351   5.048   5.874
 9741TIP3   OH229179   8.215   1.092   6.388
 9741TIP3    H129180   8.255   1.059   6.307
 9741TIP3    H229181   8.182   1.179   6.364
 9742TIP3   OH229182   7.546   5.788   5.396
 9742TIP3    H129183   7.496   5.833   5.328
 9742TIP3    H229184   7.575   5.858   5.455
 9743TIP3   OH229185   0.680   6.691   4.536
 9743TIP3    H129186   0.773   6.692   4.511
 9743TIP3    H229187   0.680   6.654   4.625
 9744TIP3   OH229188   5.248   5.204   3.407
 9744TIP3    H129189   5.195   5.281   3.384
 9744TIP3    H229190   5.194   5.130   3.380
 9745TIP3   OH229191   2.795   1.083   3.912
 9745TIP3    H129192   2.753   1.021   3.972
 9745TIP3    H229193   2.880   1.101   3.951
 9746TIP3   OH229194   3.258   0.625   3.160
 9746TIP3    H129195   3.304   0.705   3.185
 9746TIP3    H229196   3.177   0.626   3.211
 9747TIP3   OH229197   2.160   0.715   0.256
 9747TIP3    H129198   2.092   0.686   0.317
 9747TIP3    H229199   2.121   0.701   0.169
 9748TIP3   OH229200   0.659   1.726   3.003
 9748TIP3    H129201   0.701   1.793   3.056
 9748TIP3    H229202   0.568   1.756   2.994
 9749TIP3   OH229203   2.915   7.801   1.786
 9749TIP3    H129204   2.855   7.762   1.849
 9749TIP3    H229205   2.931   7.731   1.722
 9750TIP3   OH229206   3.029   2.669   4.549
 9750TIP3    H129207   2.963   2.670   4.618
 9750TIP3    H229208   2.997   2.733   4.485
 9751TIP3   OH229209   7.573   6.358   4.397
 9751TIP3    H129210   7.507   6.306   4.443
 9751TIP3    H229211   7.626   6.295   4.350
 9752TIP3   OH229212   3.147   1.484   1.177
 9752TIP3    H129213   3.237   1.506   1.152
 9752TIP3    H229214   3.156   1.431   1.256
 9753TIP3   OH229215   7.901   2.042   6.000
 9753TIP3    H129216   7.871   2.027   6.090
 9753TIP3    H229217   7.831   2.092   5.959
 9754TIP3   OH229218   2.930   6.914   1.890
 9754TIP3    H129219   2.841   6.939   1.864
 9754TIP3    H229220   2.985   6.943   1.818
 9755TIP3   OH229221   7.546   0.720   2.145
 9755TIP3    H129222   7.583   0.654   2.086
 9755TIP3    H229223   7.609   0.793   2.142
 9756TIP3   OH229224   3.890   6.431   5.887
 9756TIP3    H129225   3.933   6.492   5.828
 9756TIP3    H229226   3.955   6.414   5.955
 9757TIP3   OH229227   4.991   1.008   6.299
 9757TIP3    H129228   5.015   1.066   6.227
 9757TIP3    H229229   4.896   1.009   6.300
 9758TIP3   OH229230   2.310   2.549   5.334
 9758TIP3    H129231   2.296   2.609   5.260
 9758TIP3    H229232   2.234   2.563   5.390
 9759TIP3   OH229233   3.345   0.785   0.175
 9759TIP3    H129234   3.386   0.737   0.103
 9759TIP3    H229235   3.411   0.848   0.202
 9760TIP3   OH229236   3.056   1.507   6.206
 9760TIP3    H129237   3.131   1.556   6.172
 9760TIP3    H229238   2.982   1.538   6.153
 9761TIP3   OH229239   7.380   7.750   2.815
 9761TIP3    H129240   7.320   7.824   2.806
 9761TIP3    H229241   7.465   7.784   2.788
 9762TIP3   OH229242   1.944   6.177   3.365
 9762TIP3    H129243   1.944   6.256   3.312
 9762TIP3    H229244   1.979   6.205   3.450
 9763TIP3   OH229245   0.294   3.349   4.116
 9763TIP3    H129246   0.384   3.360   4.148
 9763TIP3    H229247   0.301   3.363   4.021
 9764TIP3   OH229248   0.947   4.118   1.136
 9764TIP3    H129249   1.007   4.101   1.063
 9764TIP3    H229250   0.864   4.078   1.109
 9765TIP3   OH229251   6.723   6.037   1.287
 9765TIP3    H129252   6.650   6.072   1.238
 9765TIP3    H229253   6.741   6.103   1.354
 9766TIP3   OH229254   4.637   5.725   3.673
 9766TIP3    H129255   4.656   5.803   3.724
 9766TIP3    H229256   4.635   5.654   3.737
 9767TIP3   OH229257   3.415   6.671   0.476
 9767TIP3    H129258   3.406   6.763   0.499
 9767TIP3    H229259   3.455   6.630   0.553
 9768TIP3   OH229260   6.516   4.033   0.038
 9768TIP3    H129261   6.548   3.997   0.120
 9768TIP3    H229262   6.572   4.109   0.021
 9769TIP3   OH229263   5.623   6.590   0.654
 9769TIP3    H129264   5.708   6.609   0.694
 9769TIP3    H229265   5.644   6.543   0.574
 9770TIP3   OH229266   7.914   3.903   6.062
 9770TIP3    H129267   7.865   3.863   6.134
 9770TIP3    H229268   7.877   3.990   6.053
 9771TIP3   OH229269   3.891   1.535   5.843
 9771TIP3    H129270   3.882   1.443   5.820
 9771TIP3    H229271   3.983   1.555   5.829
 9772TIP3   OH229272   0.910   4.236   2.901
 9772TIP3    H129273   0.928   4.224   2.808
 9772TIP3    H229274   0.915   4.331   2.914
 9773TIP3   OH229275   2.723   3.811   3.071
 9773TIP3    H129276   2.813   3.821   3.041
 9773TIP3    H229277   2.672   3.862   3.009
 9774TIP3   OH229278   0.298   1.139   6.322
 9774TIP3    H129279   0.371   1.190   6.358
 9774TIP3    H229280   0.254   1.103   6.400
 9775TIP3   OH229281   0.737   6.615   0.180
 9775TIP3    H129282   0.649   6.607   0.216
 9775TIP3    H229283   0.780   6.532   0.202
 9776TIP3   OH229284   3.860   0.928   4.837
 9776TIP3    H129285   3.784   0.917   4.894
 9776TIP3    H229286   3.850   1.017   4.801
 9777TIP3   OH229287   6.082   7.055   5.746
 9777TIP3    H129288   6.096   7.017   5.660
 9777TIP3    H229289   5.987   7.071   5.750
 9778TIP3   OH229290   3.725   4.642   2.454
 9778TIP3    H129291   3.641   4.606   2.426
 9778TIP3    H229292   3.755   4.695   2.380
 9779TIP3   OH229293   7.671   7.007   2.419
 9779TIP3    H129294   7.607   7.042   2.482
 9779TIP3    H229295   7.685   7.079   2.357
 9780TIP3   OH229296   3.321   0.642   5.101
 9780TIP3    H129297   3.409   0.607   5.085
 9780TIP3    H229298   3.323   0.671   5.192
 9781TIP3   OH229299   3.490   3.019   2.311
 9781TIP3    H129300   3.447   3.071   2.243
 9781TIP3    H229301   3.553   2.964   2.264
 9782TIP3   OH229302   2.234   6.691   3.257
 9782TIP3    H129303   2.253   6.647   3.174
 9782TIP3    H229304   2.300   6.657   3.317
 9783TIP3   OH229305   1.960   2.764   4.715
 9783TIP3    H129306   1.924   2.676   4.717
 9783TIP3    H229307   2.055   2.751   4.724
 9784TIP3   OH229308   6.802   4.191   3.016
 9784TIP3    H129309   6.807   4.115   3.074
 9784TIP3    H229310   6.848   4.260   3.063
 9785TIP3   OH229311   7.075   4.592   0.979
 9785TIP3    H129312   7.064   4.649   1.055
 9785TIP3    H229313   7.056   4.648   0.904
 9786TIP3   OH229314   7.115   7.317   3.626
 9786TIP3    H129315   7.076   7.354   3.547
 9786TIP3    H229316   7.068   7.235   3.639
 9787TIP3   OH229317   5.494   0.347   2.618
 9787TIP3    H129318   5.518   0.255   2.604
 9787TIP3    H229319   5.565   0.397   2.576
 9788TIP3   OH229320   0.286   0.938   0.104
 9788TIP3    H129321   0.238   0.964   0.183
 9788TIP3    H229322   0.227   0.960   0.032
 9789TIP3   OH229323   5.351   0.548   5.733
 9789TIP3    H129324   5.320   0.635   5.709
 9789TIP3    H229325   5.286   0.515   5.795
 9790TIP3   OH229326   4.218   3.054   0.680
 9790TIP3    H129327   4.291   3.075   0.623
 9790TIP3    H229328   4.254   3.057   0.769
 9791TIP3   OH229329   0.538   2.428   1.290
 9791TIP3    H129330   0.618   2.378   1.277
 9791TIP3    H229331   0.517   2.417   1.383
 9792TIP3   OH229332   1.418   4.199   3.309
 9792TIP3    H129333   1.459   4.282   3.336
 9792TIP3    H229334   1.491   4.143   3.284
 9793TIP3   OH229335   6.857   3.774   2.481
 9793TIP3    H129336   6.762   3.769   2.492
 9793TIP3    H229337   6.883   3.687   2.452
 9794TIP3   OH229338   0.591   3.344   6.370
 9794TIP3    H129339   0.518   3.406   6.382
 9794TIP3    H229340   0.550   3.258   6.377
 9795TIP3   OH229341   6.398   3.274   4.766
 9795TIP3    H129342   6.483   3.292   4.726
 9795TIP3    H229343   6.413   3.284   4.860
 9796TIP3   OH229344   2.009   6.593   5.478
 9796TIP3    H129345   2.044   6.618   5.563
 9796TIP3    H229346   1.953   6.518   5.496
 9797TIP3   OH229347   7.405   3.150   0.981
 9797TIP3    H129348   7.355   3.069   0.989
 9797TIP3    H229349   7.496   3.124   0.998
 9798TIP3   OH229350   1.662   5.948   2.098
 9798TIP3    H129351   1.659   6.020   2.034
 9798TIP3    H229352   1.595   5.887   2.068
 9799TIP3   OH229353   4.093   5.381   0.423
 9799TIP3    H129354   4.112   5.474   0.431
 9799TIP3    H229355   4.178   5.340   0.409
 9800TIP3   OH229356   1.273   4.447   0.796
 9800TIP3    H129357   1.326   4.368   0.784
 9800TIP3    H229358   1.182   4.416   0.795
 9801TIP3   OH229359   4.642   7.155   0.271
 9801TIP3    H129360   4.624   7.091   0.339
 9801TIP3    H229361   4.659   7.236   0.318
 9802TIP3   OH229362   7.469   5.636   4.095
 9802TIP3    H129363   7.472   5.731   4.087
 9802TIP3    H229364   7.531   5.616   4.166
 9803TIP3   OH229365   1.807   5.469   6.561
 9803TIP3    H129366   1.880   5.449   6.620
 9803TIP3    H229367   1.800   5.393   6.504
 9804TIP3   OH229368   7.784   7.707   1.239
 9804TIP3    H129369   7.871   7.687   1.274
 9804TIP3    H229370   7.778   7.803   1.242
 9805TIP3   OH229371   5.181   2.490   3.173
 9805TIP3    H129372   5.270   2.519   3.155
 9805TIP3    H229373   5.173   2.494   3.269
 9806TIP3   OH229374   2.578   3.430   4.585
 9806TIP3    H129375   2.532   3.359   4.539
 9806TIP3    H229376   2.611   3.486   4.515
 9807TIP3   OH229377   1.548   5.783   3.139
 9807TIP3    H129378   1.504   5.867   3.132
 9807TIP3    H229379   1.615   5.784   3.070
 9808TIP3   OH229380   6.682   4.600   5.105
 9808TIP3    H129381   6.729   4.676   5.141
 9808TIP3    H229382   6.599   4.635   5.073
 9809TIP3   OH229383   7.994   1.055   1.333
 9809TIP3    H129384   7.916   1.010   1.365
 9809TIP3    H229385   7.960   1.131   1.286
 9810TIP3   OH229386   5.835   2.024   5.627
 9810TIP3    H129387   5.895   2.046   5.556
 9810TIP3    H229388   5.748   2.042   5.591
 9811TIP3   OH229389   3.364   2.522   2.017
 9811TIP3    H129390   3.459   2.516   2.028
 9811TIP3    H229391   3.344   2.615   2.031
 9812TIP3   OH229392   0.899   6.847   0.232
 9812TIP3    H129393   0.853   6.775   0.188
 9812TIP3    H229394   0.833   6.914   0.244
 9813TIP3   OH229395   1.641   0.324   6.360
 9813TIP3    H129396   1.657   0.400   6.417
 9813TIP3    H229397   1.546   0.325   6.346
 9814TIP3   OH229398   0.846   2.086   1.309
 9814TIP3    H129399   0.880   2.061   1.395
 9814TIP3    H229400   0.877   2.018   1.250
 9815TIP3   OH229401   7.401   4.069   3.473
 9815TIP3    H129402   7.455   4.010   3.421
 9815TIP3    H229403   7.312   4.056   3.440
 9816TIP3   OH229404   2.259   6.978   1.127
 9816TIP3    H129405   2.269   6.951   1.219
 9816TIP3    H229406   2.330   6.933   1.081
 9817TIP3   OH229407   6.664   3.370   5.748
 9817TIP3    H129408   6.686   3.284   5.712
 9817TIP3    H229409   6.729   3.385   5.816
 9818TIP3   OH229410   4.910   6.277   0.664
 9818TIP3    H129411   4.827   6.301   0.622
 9818TIP3    H229412   4.931   6.192   0.627
 9819TIP3   OH229413   3.344   3.217   5.021
 9819TIP3    H129414   3.395   3.165   4.960
 9819TIP3    H229415   3.312   3.154   5.086
 9820TIP3   OH229416   0.619   0.211   0.902
 9820TIP3    H129417   0.654   0.231   0.989
 9820TIP3    H229418   0.653   0.124   0.882
 9821TIP3   OH229419   0.747  -0.027   6.635
 9821TIP3    H129420   0.743   0.068   6.634
 9821TIP3    H229421   0.837  -0.048   6.611
 9822TIP3   OH229422   2.642   1.894   1.235
 9822TIP3    H129423   2.647   1.870   1.327
 9822TIP3    H229424   2.619   1.813   1.190
 9823TIP3   OH229425   3.066   3.028   2.231
 9823TIP3    H129426   3.115   2.978   2.297
 9823TIP3    H229427   3.103   3.116   2.236
 9824TIP3   OH229428   2.877   6.253   3.211
 9824TIP3    H129429   2.787   6.258   3.180
 9824TIP3    H229430   2.878   6.176   3.268
 9825TIP3   OH229431   3.084   2.239   4.611
 9825TIP3    H129432   3.133   2.312   4.574
 9825TIP3    H229433   3.114   2.162   4.562
 9826TIP3   OH229434   1.646   4.452   1.331
 9826TIP3    H129435   1.609   4.517   1.390
 9826TIP3    H229436   1.726   4.422   1.375
 9827TIP3   OH229437   2.446   2.527   4.732
 9827TIP3    H129438   2.520   2.581   4.708
 9827TIP3    H229439   2.482   2.462   4.792
 9828TIP3   OH229440   0.646   7.422   4.431
 9828TIP3    H129441   0.682   7.387   4.350
 9828TIP3    H229442   0.705   7.390   4.499
 9829TIP3   OH229443   4.288   6.222   2.175
 9829TIP3    H129444   4.242   6.306   2.184
 9829TIP3    H229445   4.377   6.241   2.206
 9830TIP3   OH229446   0.596   0.362   1.683
 9830TIP3    H129447   0.538   0.342   1.609
 9830TIP3    H229448   0.601   0.457   1.685
 9831TIP3   OH229449   3.594   3.399   6.258
 9831TIP3    H129450   3.579   3.305   6.270
 9831TIP3    H229451   3.570   3.416   6.167
 9832TIP3   OH229452   4.787   2.018   4.768
 9832TIP3    H129453   4.730   2.081   4.812
 9832TIP3    H229454   4.770   2.032   4.675
 9833TIP3   OH229455   5.501   1.213   3.419
 9833TIP3    H129456   5.577   1.177   3.371
 9833TIP3    H229457   5.440   1.140   3.424
 9834TIP3   OH229458   3.037   6.849   0.237
 9834TIP3    H129459   2.971   6.781   0.221
 9834TIP3    H229460   3.120   6.806   0.216
 9835TIP3   OH229461   0.962   4.629   6.624
 9835TIP3    H129462   0.979   4.593   6.537
 9835TIP3    H229463   0.872   4.603   6.643
 9836TIP3   OH229464   0.332   3.473   1.479
 9836TIP3    H129465   0.244   3.449   1.508
 9836TIP3    H229466   0.326   3.477   1.384
 9837TIP3   OH229467   7.714   5.845   1.750
 9837TIP3    H129468   7.734   5.842   1.656
 9837TIP3    H229469   7.618   5.846   1.754
 9838TIP3   OH229470   6.332   3.852   3.223
 9838TIP3    H129471   6.278   3.847   3.144
 9838TIP3    H229472   6.294   3.924   3.273
 9839TIP3   OH229473   3.900   0.385   4.325
 9839TIP3    H129474   3.920   0.292   4.311
 9839TIP3    H229475   3.943   0.430   4.252
 9840TIP3   OH229476   6.213   0.385   0.190
 9840TIP3    H129477   6.243   0.458   0.135
 9840TIP3    H229478   6.284   0.322   0.187
 9841TIP3   OH229479   3.175   7.469   4.801
 9841TIP3    H129480   3.176   7.383   4.842
 9841TIP3    H229481   3.082   7.495   4.803
 9842TIP3   OH229482   4.936   3.853   0.374
 9842TIP3    H129483   5.024   3.886   0.395
 9842TIP3    H229484   4.949   3.794   0.301
 9843TIP3   OH229485   6.633   1.399   4.545
 9843TIP3    H129486   6.614   1.401   4.451
 9843TIP3    H229487   6.728   1.398   4.550
 9844TIP3   OH229488   2.565   5.741   1.617
 9844TIP3    H129489   2.509   5.791   1.557
 9844TIP3    H229490   2.555   5.650   1.588
 9845TIP3   OH229491   3.104   6.044   3.690
 9845TIP3    H129492   3.104   5.949   3.701
 9845TIP3    H229493   3.196   6.068   3.687
 9846TIP3   OH229494   8.189   3.194   6.449
 9846TIP3    H129495   8.125   3.263   6.465
 9846TIP3    H229496   8.273   3.234   6.475
 9847TIP3   OH229497   2.450   1.851   5.855
 9847TIP3    H129498   2.359   1.854   5.882
 9847TIP3    H229499   2.477   1.942   5.851
 9848TIP3   OH229500   3.363   1.766   6.345
 9848TIP3    H129501   3.298   1.821   6.302
 9848TIP3    H229502   3.319   1.735   6.424
 9849TIP3   OH229503   2.746   2.180   4.346
 9849TIP3    H129504   2.712   2.151   4.262
 9849TIP3    H229505   2.692   2.256   4.369
 9850TIP3   OH229506   7.373   3.625   1.714
 9850TIP3    H129507   7.376   3.530   1.708
 9850TIP3    H229508   7.465   3.653   1.712
 9851TIP3   OH229509   8.032   1.649   5.867
 9851TIP3    H129510   7.995   1.581   5.810
 9851TIP3    H229511   8.124   1.626   5.876
 9852TIP3   OH229512   5.698   6.916   2.917
 9852TIP3    H129513   5.775   6.905   2.973
 9852TIP3    H229514   5.666   6.827   2.902
 9853TIP3   OH229515   2.879   2.471   3.928
 9853TIP3    H129516   2.794   2.506   3.900
 9853TIP3    H229517   2.930   2.462   3.848
 9854TIP3   OH229518   2.449   6.051   4.991
 9854TIP3    H129519   2.493   5.977   4.950
 9854TIP3    H229520   2.504   6.127   4.972
 9855TIP3   OH229521   1.125   4.908   4.376
 9855TIP3    H129522   1.126   4.994   4.416
 9855TIP3    H229523   1.157   4.922   4.287
 9856TIP3   OH229524   4.314   6.563   4.713
 9856TIP3    H129525   4.228   6.537   4.747
 9856TIP3    H229526   4.318   6.658   4.725
 9857TIP3   OH229527   5.084   0.334   2.373
 9857TIP3    H129528   5.005   0.386   2.387
 9857TIP3    H229529   5.156   0.395   2.392
 9858TIP3   OH229530   4.256   0.832   2.440
 9858TIP3    H129531   4.243   0.893   2.367
 9858TIP3    H229532   4.214   0.751   2.411
 9859TIP3   OH229533   6.112   5.256   5.648
 9859TIP3    H129534   6.142   5.280   5.560
 9859TIP3    H229535   6.062   5.333   5.678
 9860TIP3   OH229536   7.082   2.255   0.192
 9860TIP3    H129537   7.011   2.310   0.225
 9860TIP3    H229538   7.075   2.174   0.243
 9861TIP3   OH229539   3.426   4.334   5.775
 9861TIP3    H129540   3.396   4.423   5.754
 9861TIP3    H229541   3.482   4.309   5.701
 9862TIP3   OH229542   4.123   5.637   0.496
 9862TIP3    H129543   4.115   5.731   0.508
 9862TIP3    H229544   4.181   5.608   0.566
 9863TIP3   OH229545   7.956   7.459   3.384
 9863TIP3    H129546   7.905   7.451   3.303
 9863TIP3    H229547   7.891   7.452   3.454
 9864TIP3   OH229548   5.402   5.065   6.707
 9864TIP3    H129549   5.328   5.022   6.663
 9864TIP3    H229550   5.365   5.146   6.742
 9865TIP3   OH229551   6.344   3.220   3.655
 9865TIP3    H129552   6.372   3.311   3.659
 9865TIP3    H229553   6.309   3.202   3.742
 9866TIP3   OH229554   2.698   1.659   3.239
 9866TIP3    H129555   2.607   1.677   3.214
 9866TIP3    H229556   2.720   1.580   3.189
 9867TIP3   OH229557   6.117   5.641   4.277
 9867TIP3    H129558   6.066   5.666   4.200
 9867TIP3    H229559   6.204   5.675   4.259
 9868TIP3   OH229560   6.626   2.497   3.027
 9868TIP3    H129561   6.584   2.426   2.980
 9868TIP3    H229562   6.570   2.513   3.103
 9869TIP3   OH229563   6.688   1.039   0.118
 9869TIP3    H129564   6.622   1.040   0.187
 9869TIP3    H229565   6.679   1.124   0.074
 9870TIP3   OH229566   3.368   7.193   5.517
 9870TIP3    H129567   3.373   7.192   5.613
 9870TIP3    H229568   3.422   7.267   5.491
 9871TIP3   OH229569   0.218   6.581   4.224
 9871TIP3    H129570   0.239   6.661   4.176
 9871TIP3    H229571   0.154   6.608   4.289
 9872TIP3   OH229572   5.078   7.060   3.578
 9872TIP3    H129573   5.134   7.099   3.511
 9872TIP3    H229574   5.123   6.980   3.605
 9873TIP3   OH229575   2.656   7.336   5.364
 9873TIP3    H129576   2.751   7.345   5.355
 9873TIP3    H229577   2.622   7.349   5.275
 9874TIP3   OH229578   3.209   4.260   4.211
 9874TIP3    H129579   3.195   4.341   4.259
 9874TIP3    H229580   3.278   4.214   4.260
 9875TIP3   OH229581   0.086   1.428   6.405
 9875TIP3    H129582   0.029   1.505   6.393
 9875TIP3    H229583   0.166   1.464   6.444
 9876TIP3   OH229584   6.845   4.309   2.753
 9876TIP3    H129585   6.810   4.263   2.829
 9876TIP3    H229586   6.909   4.248   2.716
 9877TIP3   OH229587   4.110   5.796   2.707
 9877TIP3    H129588   4.124   5.702   2.714
 9877TIP3    H229589   4.182   5.827   2.652
 9878TIP3   OH229590   1.152   7.598   5.604
 9878TIP3    H129591   1.112   7.682   5.583
 9878TIP3    H229592   1.231   7.594   5.550
 9879TIP3   OH229593   1.883   5.254   6.275
 9879TIP3    H129594   1.890   5.190   6.345
 9879TIP3    H229595   1.797   5.237   6.236
 9880TIP3   OH229596   0.807   4.352   1.192
 9880TIP3    H129597   0.714   4.352   1.173
 9880TIP3    H229598   0.840   4.272   1.151
 9881TIP3   OH229599   3.924   4.305   6.088
 9881TIP3    H129600   3.975   4.355   6.151
 9881TIP3    H229601   3.834   4.335   6.101
 9882TIP3   OH229602   0.750   4.448   6.279
 9882TIP3    H129603   0.695   4.479   6.351
 9882TIP3    H229604   0.835   4.491   6.293
 9883TIP3   OH229605   0.725   1.370   2.388
 9883TIP3    H129606   0.696   1.358   2.479
 9883TIP3    H229607   0.709   1.463   2.370
 9884TIP3   OH229608   5.890   2.105   1.547
 9884TIP3    H129609   5.866   2.159   1.622
 9884TIP3    H229610   5.826   2.128   1.479
 9885TIP3   OH229611   7.739   1.304   4.472
 9885TIP3    H129612   7.645   1.297   4.455
 9885TIP3    H229613   7.769   1.213   4.479
 9886TIP3   OH229614   3.179   0.063   3.119
 9886TIP3    H129615   3.169  -0.023   3.162
 9886TIP3    H229616   3.182   0.125   3.192
 9887TIP3   OH229617   5.367   1.866   4.107
 9887TIP3    H129618   5.455   1.853   4.073
 9887TIP3    H229619   5.370   1.831   4.196
 9888TIP3   OH229620   0.594   7.631   5.714
 9888TIP3    H129621   0.584   7.718   5.754
 9888TIP3    H229622   0.688   7.612   5.723
 9889TIP3   OH229623   2.578   1.377   1.696
 9889TIP3    H129624   2.615   1.458   1.732
 9889TIP3    H229625   2.588   1.313   1.766
 9890TIP3   OH229626   2.250   5.168   4.347
 9890TIP3    H129627   2.167   5.207   4.375
 9890TIP3    H229628   2.238   5.150   4.254
 9891TIP3   OH229629   2.741   3.703   1.014
 9891TIP3    H129630   2.720   3.624   0.964
 9891TIP3    H229631   2.684   3.771   0.976
 9892TIP3   OH229632   7.915   2.108   3.076
 9892TIP3    H129633   7.917   2.017   3.107
 9892TIP3    H229634   7.988   2.150   3.122
 9893TIP3   OH229635   5.933   1.483   4.495
 9893TIP3    H129636   5.994   1.529   4.438
 9893TIP3    H229637   5.893   1.416   4.439
 9894TIP3   OH229638   6.539   6.722   0.871
 9894TIP3    H129639   6.601   6.737   0.800
 9894TIP3    H229640   6.465   6.677   0.830
 9895TIP3   OH229641   6.309   0.854   6.258
 9895TIP3    H129642   6.252   0.782   6.231
 9895TIP3    H229643   6.250   0.929   6.268
 9896TIP3   OH229644   6.280   3.711   3.453
 9896TIP3    H129645   6.316   3.764   3.382
 9896TIP3    H229646   6.228   3.643   3.408
 9897TIP3   OH229647   0.611   1.274   2.129
 9897TIP3    H129648   0.661   1.337   2.182
 9897TIP3    H229649   0.631   1.189   2.168
 9898TIP3   OH229650   6.631   6.642   5.560
 9898TIP3    H129651   6.555   6.585   5.570
 9898TIP3    H229652   6.679   6.632   5.642
 9899TIP3   OH229653   1.496   0.019   0.706
 9899TIP3    H129654   1.472   0.092   0.764
 9899TIP3    H229655   1.567  -0.026   0.752
 9900TIP3   OH229656   5.260   1.408   4.788
 9900TIP3    H129657   5.201   1.483   4.797
 9900TIP3    H229658   5.222   1.341   4.844
 9901TIP3   OH229659   3.034   4.573   3.185
 9901TIP3    H129660   3.064   4.663   3.171
 9901TIP3    H229661   3.082   4.544   3.262
 9902TIP3   OH229662   7.691   0.832   3.288
 9902TIP3    H129663   7.617   0.773   3.281
 9902TIP3    H229664   7.676   0.899   3.222
 9903TIP3   OH229665   7.014   5.049   5.284
 9903TIP3    H129666   6.932   5.020   5.244
 9903TIP3    H229667   7.081   4.991   5.248
 9904TIP3   OH229668   5.064   4.898   1.399
 9904TIP3    H129669   5.098   4.912   1.311
 9904TIP3    H229670   5.105   4.968   1.451
 9905TIP3   OH229671   6.013   7.577   3.157
 9905TIP3    H129672   5.952   7.630   3.105
 9905TIP3    H229673   6.044   7.636   3.225
 9906TIP3   OH229674   3.831   7.295   0.539
 9906TIP3    H129675   3.907   7.240   0.559
 9906TIP3    H229676   3.865   7.384   0.542
 9907TIP3   OH229677   3.253   4.201   0.172
 9907TIP3    H129678   3.337   4.158   0.191
 9907TIP3    H229679   3.187   4.144   0.211
 9908TIP3   OH229680   5.749   3.044   6.548
 9908TIP3    H129681   5.785   3.016   6.633
 9908TIP3    H229682   5.813   3.108   6.516
 9909TIP3   OH229683   7.466   5.275   5.610
 9909TIP3    H129684   7.467   5.240   5.521
 9909TIP3    H229685   7.415   5.212   5.660
 9910TIP3   OH229686   8.187   3.992   0.888
 9910TIP3    H129687   8.170   3.901   0.914
 9910TIP3    H229688   8.232   4.030   0.963
 9911TIP3   OH229689   2.160   7.395   6.434
 9911TIP3    H129690   2.187   7.478   6.472
 9911TIP3    H229691   2.155   7.411   6.340
 9912TIP3   OH229692   0.573   4.126   4.563
 9912TIP3    H129693   0.640   4.061   4.544
 9912TIP3    H229694   0.613   4.182   4.631
 9913TIP3   OH229695   6.652   3.021   4.599
 9913TIP3    H129696   6.652   2.985   4.510
 9913TIP3    H229697   6.634   2.946   4.656
 9914TIP3   OH229698   2.855   3.760   3.796
 9914TIP3    H129699   2.855   3.718   3.710
 9914TIP3    H229700   2.784   3.825   3.790
 9915TIP3   OH229701   2.981   3.495   5.570
 9915TIP3    H129702   2.987   3.403   5.597
 9915TIP3    H229703   3.069   3.518   5.541
 9916TIP3   OH229704   1.148   7.003   3.800
 9916TIP3    H129705   1.198   6.951   3.863
 9916TIP3    H229706   1.191   7.089   3.801
 9917TIP3   OH229707   4.129   1.801   6.196
 9917TIP3    H129708   4.101   1.854   6.271
 9917TIP3    H229709   4.053   1.802   6.137
 9918TIP3   OH229710   6.214   3.704   0.682
 9918TIP3    H129711   6.127   3.730   0.652
 9918TIP3    H229712   6.272   3.726   0.609
 9919TIP3   OH229713   6.281   4.407   0.110
 9919TIP3    H129714   6.236   4.481   0.153
 9919TIP3    H229715   6.365   4.401   0.154
 9920TIP3   OH229716   0.764   6.141   0.083
 9920TIP3    H129717   0.796   6.063   0.037
 9920TIP3    H229718   0.689   6.170   0.030
 9921TIP3   OH229719   0.601   2.174   2.560
 9921TIP3    H129720   0.541   2.229   2.509
 9921TIP3    H229721   0.656   2.235   2.608
 9922TIP3   OH229722   7.256   1.968   0.231
 9922TIP3    H129723   7.180   1.926   0.270
 9922TIP3    H229724   7.277   2.040   0.290
 9923TIP3   OH229725   3.434   5.065   4.887
 9923TIP3    H129726   3.408   4.973   4.896
 9923TIP3    H229727   3.515   5.062   4.836
 9924TIP3   OH229728   3.247   4.180   1.242
 9924TIP3    H129729   3.197   4.099   1.234
 9924TIP3    H229730   3.287   4.175   1.329
 9925TIP3   OH229731   6.984   3.437   5.804
 9925TIP3    H129732   7.008   3.506   5.866
 9925TIP3    H229733   6.974   3.359   5.858
 9926TIP3   OH229734   2.986   3.014   3.060
 9926TIP3    H129735   3.077   2.983   3.060
 9926TIP3    H229736   2.986   3.086   2.998
 9927TIP3   OH229737   3.650   2.283   5.455
 9927TIP3    H129738   3.612   2.257   5.371
 9927TIP3    H229739   3.648   2.203   5.508
 9928TIP3   OH229740   7.062   0.483   2.314
 9928TIP3    H129741   7.146   0.515   2.279
 9928TIP3    H229742   7.001   0.555   2.299
 9929TIP3   OH229743   7.782   3.413   1.897
 9929TIP3    H129744   7.876   3.412   1.916
 9929TIP3    H229745   7.766   3.329   1.854
 9930TIP3   OH229746   1.312   5.037   0.613
 9930TIP3    H129747   1.269   5.122   0.610
 9930TIP3    H229748   1.243   4.974   0.591
 9931TIP3   OH229749   2.737   4.618   1.708
 9931TIP3    H129750   2.827   4.644   1.686
 9931TIP3    H229751   2.695   4.700   1.736
 9932TIP3   OH229752   0.698   6.178   3.353
 9932TIP3    H129753   0.712   6.268   3.382
 9932TIP3    H229754   0.734   6.125   3.425
 9933TIP3   OH229755   1.768   0.355   4.704
 9933TIP3    H129756   1.690   0.331   4.653
 9933TIP3    H229757   1.741   0.343   4.795
 9934TIP3   OH229758   5.813   3.784   1.805
 9934TIP3    H129759   5.729   3.817   1.774
 9934TIP3    H229760   5.819   3.695   1.768
 9935TIP3   OH229761   1.970   2.036   2.429
 9935TIP3    H129762   1.889   2.083   2.410
 9935TIP3    H229763   1.959   1.951   2.388
 9936TIP3   OH229764   1.649   5.415   5.792
 9936TIP3    H129765   1.718   5.414   5.857
 9936TIP3    H229766   1.680   5.476   5.725
 9937TIP3   OH229767   4.101   2.168   1.009
 9937TIP3    H129768   4.031   2.106   0.989
 9937TIP3    H229769   4.119   2.210   0.925
 9938TIP3   OH229770   0.335   6.013   5.096
 9938TIP3    H129771   0.244   5.984   5.098
 9938TIP3    H229772   0.356   6.036   5.186
 9939TIP3   OH229773   0.191   4.367   0.669
 9939TIP3    H129774   0.223   4.277   0.663
 9939TIP3    H229775   0.269   4.419   0.687
 9940TIP3   OH229776   1.524   2.368   1.911
 9940TIP3    H129777   1.557   2.438   1.854
 9940TIP3    H229778   1.432   2.389   1.923
 9941TIP3   OH229779   8.003   0.564   1.111
 9941TIP3    H129780   8.071   0.596   1.052
 9941TIP3    H229781   8.044   0.490   1.157
 9942TIP3   OH229782   3.619   0.817   5.769
 9942TIP3    H129783   3.658   0.856   5.847
 9942TIP3    H229784   3.675   0.742   5.749
 9943TIP3   OH229785   5.890   0.597   4.426
 9943TIP3    H129786   5.929   0.584   4.339
 9943TIP3    H229787   5.843   0.515   4.443
 9944TIP3   OH229788   3.769   4.761   2.218
 9944TIP3    H129789   3.705   4.715   2.165
 9944TIP3    H229790   3.761   4.853   2.191
 9945TIP3   OH229791   1.867   4.269   2.653
 9945TIP3    H129792   1.905   4.356   2.638
 9945TIP3    H229793   1.803   4.283   2.722
 9946TIP3   OH229794   1.764   4.321   3.337
 9946TIP3    H129795   1.766   4.323   3.241
 9946TIP3    H229796   1.684   4.367   3.360
 9947TIP3   OH229797   8.066   6.307   2.526
 9947TIP3    H129798   8.020   6.388   2.504
 9947TIP3    H229799   8.004   6.256   2.577
 9948TIP3   OH229800   0.012   5.014   4.076
 9948TIP3    H129801   0.105   4.992   4.076
 9948TIP3    H229802  -0.032   4.932   4.054
 9949TIP3   OH229803   5.595   4.722   0.165
 9949TIP3    H129804   5.688   4.702   0.159
 9949TIP3    H229805   5.575   4.766   0.082
 9950TIP3   OH229806   7.061   6.277   3.211
 9950TIP3    H129807   7.152   6.255   3.191
 9950TIP3    H229808   7.010   6.225   3.148
 9951TIP3   OH229809   0.227   5.742   5.917
 9951TIP3    H129810   0.133   5.732   5.930
 9951TIP3    H229811   0.258   5.653   5.900
 9952TIP3   OH229812   2.579   6.829   5.383
 9952TIP3    H129813   2.578   6.840   5.288
 9952TIP3    H229814   2.571   6.918   5.418
 9953TIP3   OH229815   2.351   1.136   3.502
 9953TIP3    H129816   2.409   1.073   3.546
 9953TIP3    H229817   2.306   1.181   3.574
 9954TIP3   OH229818   6.269   6.808   3.721
 9954TIP3    H129819   6.278   6.804   3.816
 9954TIP3    H229820   6.175   6.803   3.706
 9955TIP3   OH229821   0.669   4.403   2.392
 9955TIP3    H129822   0.580   4.408   2.358
 9955TIP3    H229823   0.712   4.336   2.339
 9956TIP3   OH229824   1.732   3.241   4.735
 9956TIP3    H129825   1.822   3.211   4.749
 9956TIP3    H229826   1.695   3.179   4.672
 9957TIP3   OH229827   4.946   3.570   2.231
 9957TIP3    H129828   4.929   3.654   2.274
 9957TIP3    H229829   4.966   3.510   2.303
 9958TIP3   OH229830   4.022   4.339   1.759
 9958TIP3    H129831   3.965   4.414   1.772
 9958TIP3    H229832   3.991   4.275   1.824
 9959TIP3   OH229833   6.412   3.676   1.797
 9959TIP3    H129834   6.477   3.739   1.767
 9959TIP3    H229835   6.424   3.673   1.892
 9960TIP3   OH229836   1.062   5.686   1.217
 9960TIP3    H129837   1.153   5.705   1.241
 9960TIP3    H229838   1.047   5.598   1.249
 9961TIP3   OH229839   7.512   7.217   5.877
 9961TIP3    H129840   7.541   7.148   5.817
 9961TIP3    H229841   7.421   7.195   5.896
 9962TIP3   OH229842   2.856   5.478   4.074
 9962TIP3    H129843   2.901   5.530   4.140
 9962TIP3    H229844   2.765   5.509   4.075
 9963TIP3   OH229845   0.198   1.744   4.272
 9963TIP3    H129846   0.143   1.746   4.193
 9963TIP3    H229847   0.177   1.825   4.318
 9964TIP3   OH229848   1.203   2.820   1.436
 9964TIP3    H129849   1.290   2.831   1.399
 9964TIP3    H229850   1.176   2.909   1.461
 9965TIP3   OH229851   0.623   0.619   1.570
 9965TIP3    H129852   0.588   0.601   1.483
 9965TIP3    H229853   0.642   0.713   1.569
 9966TIP3   OH229854   7.165   4.684   1.676
 9966TIP3    H129855   7.225   4.675   1.601
 9966TIP3    H229856   7.138   4.594   1.696
 9967TIP3   OH229857   1.854   6.943   5.453
 9967TIP3    H129858   1.795   7.014   5.479
 9967TIP3    H229859   1.940   6.985   5.445
 9968TIP3   OH229860   3.819   1.492   6.717
 9968TIP3    H129861   3.888   1.506   6.652
 9968TIP3    H229862   3.827   1.566   6.777
 9969TIP3   OH229863   4.189   0.719   0.921
 9969TIP3    H129864   4.150   0.733   0.835
 9969TIP3    H229865   4.279   0.693   0.901
 9970TIP3   OH229866   3.341   3.696   6.015
 9970TIP3    H129867   3.275   3.709   6.083
 9970TIP3    H229868   3.293   3.705   5.933
 9971TIP3   OH229869   6.911   4.565   4.625
 9971TIP3    H129870   6.885   4.503   4.557
 9971TIP3    H229871   6.873   4.530   4.706
 9972TIP3   OH229872   6.815   4.343   6.394
 9972TIP3    H129873   6.835   4.430   6.429
 9972TIP3    H229874   6.901   4.301   6.385
 9973TIP3   OH229875   7.223   0.553   6.298
 9973TIP3    H129876   7.315   0.540   6.323
 9973TIP3    H229877   7.210   0.493   6.224
 9974TIP3   OH229878   5.019   3.517   0.291
 9974TIP3    H129879   5.114   3.513   0.294
 9974TIP3    H229880   4.999   3.585   0.226
 9975TIP3   OH229881   5.342   5.133   0.529
 9975TIP3    H129882   5.307   5.058   0.578
 9975TIP3    H229883   5.405   5.094   0.468
 9976TIP3   OH229884   5.679   1.960   2.527
 9976TIP3    H129885   5.745   1.962   2.458
 9976TIP3    H229886   5.705   2.029   2.587
 9977TIP3   OH229887   3.343   4.725   4.220
 9977TIP3    H129888   3.357   4.754   4.310
 9977TIP3    H229889   3.430   4.726   4.181
 9978TIP3   OH229890   7.052   2.495   6.703
 9978TIP3    H129891   7.006   2.569   6.664
 9978TIP3    H229892   7.044   2.508   6.797
 9979TIP3   OH229893   1.626   2.850   3.406
 9979TIP3    H129894   1.664   2.782   3.461
 9979TIP3    H229895   1.679   2.928   3.423
 9980TIP3   OH229896   1.734   4.486   6.117
 9980TIP3    H129897   1.813   4.440   6.088
 9980TIP3    H229898   1.755   4.518   6.204
 9981TIP3   OH229899   4.015   4.548   5.758
 9981TIP3    H129900   4.058   4.614   5.703
 9981TIP3    H229901   3.955   4.599   5.813
 9982TIP3   OH229902  -0.005   5.116   1.501
 9982TIP3    H129903   0.053   5.053   1.543
 9982TIP3    H229904   0.053   5.178   1.458
 9983TIP3   OH229905   1.624   0.552   4.159
 9983TIP3    H129906   1.640   0.467   4.200
 9983TIP3    H229907   1.678   0.552   4.080
 9984TIP3   OH229908   4.873   3.378   3.155
 9984TIP3    H129909   4.806   3.356   3.220
 9984TIP3    H229910   4.924   3.449   3.196
 9985TIP3   OH229911   4.094   0.374   0.427
 9985TIP3    H129912   4.131   0.289   0.449
 9985TIP3    H229913   4.094   0.422   0.510
 9986TIP3   OH229914   6.463   6.352   1.491
 9986TIP3    H129915   6.515   6.286   1.537
 9986TIP3    H229916   6.408   6.390   1.558
 9987TIP3   OH229917   6.705   3.986   4.673
 9987TIP3    H129918   6.734   3.926   4.742
 9987TIP3    H229919   6.786   4.022   4.637
 9988TIP3   OH229920   6.074   1.974   3.214
 9988TIP3    H129921   6.032   1.970   3.128
 9988TIP3    H229922   6.166   1.990   3.194
 9989TIP3   OH229923   5.985   6.918   3.891
 9989TIP3    H129924   5.896   6.888   3.874
 9989TIP3    H229925   5.982   7.012   3.874
 9990TIP3   OH229926   0.671   5.275   0.593
 9990TIP3    H129927   0.591   5.232   0.626
 9990TIP3    H229928   0.685   5.236   0.507
 9991TIP3   OH229929   1.896   3.458   4.341
 9991TIP3    H129930   1.927   3.544   4.369
 9991TIP3    H229931   1.955   3.433   4.270
 9992TIP3   OH229932   3.964   3.054   3.030
 9992TIP3    H129933   4.009   3.022   2.952
 9992TIP3    H229934   3.950   2.975   3.083
 9993TIP3   OH229935   2.619   0.605   3.288
 9993TIP3    H129936   2.541   0.555   3.312
 9993TIP3    H229937   2.596   0.647   3.206
 9994TIP3   OH229938   1.898   1.558   3.831
 9994TIP3    H129939   1.952   1.605   3.895
 9994TIP3    H229940   1.816   1.542   3.876
 9995TIP3   OH229941   4.249   2.646   3.001
 9995TIP3    H129942   4.216   2.562   2.970
 9995TIP3    H229943   4.331   2.660   2.953
 9996TIP3   OH229944   7.489   2.297   3.648
 9996TIP3    H129945   7.440   2.238   3.591
 9996TIP3    H229946   7.552   2.239   3.693
 9997TIP3   OH229947   6.644   1.641   3.694
 9997TIP3    H129948   6.693   1.591   3.759
 9997TIP3    H229949   6.708   1.702   3.656
 9998TIP3   OH229950   2.649   5.819   2.297
 9998TIP3    H129951   2.561   5.810   2.332
 9998TIP3    H229952   2.642   5.888   2.231
 9999TIP3   OH229953   8.237   4.217   4.883
 9999TIP3    H129954   8.156   4.262   4.908
 9999TIP3    H229955   8.235   4.215   4.788
10000TIP3   OH229956   1.365   2.565   1.062
10000TIP3    H129957   1.457   2.549   1.042
10000TIP3    H229958   1.354   2.530   1.151
10001TIP3   OH229959   0.502   0.392   2.698
10001TIP3    H129960   0.531   0.459   2.760
10001TIP3    H229961   0.553   0.408   2.619
10002TIP3   OH229962   1.681   1.324   5.865
10002TIP3    H129963   1.721   1.332   5.779
10002TIP3    H229964   1.716   1.242   5.901
10003TIP3   OH229965   7.149   2.622   4.085
10003TIP3    H129966   7.165   2.632   3.992
10003TIP3    H229967   7.176   2.705   4.124
10004TIP3   OH229968   0.498   2.602   3.999
10004TIP3    H129969   0.469   2.644   4.080
10004TIP3    H229970   0.591   2.584   4.012
10005TIP3   OH229971   7.952   4.736   5.292
10005TIP3    H129972   7.916   4.667   5.235
10005TIP3    H229973   7.940   4.817   5.242
10006TIP3   OH229974   7.603   4.947   5.810
10006TIP3    H129975   7.680   4.982   5.765
10006TIP3    H229976   7.533   5.008   5.789
10007TIP3   OH229977   3.911   1.190   5.507
10007TIP3    H129978   3.914   1.278   5.469
10007TIP3    H229979   3.978   1.141   5.459
10008TIP3   OH229980   1.816   1.188   1.790
10008TIP3    H129981   1.856   1.270   1.762
10008TIP3    H229982   1.722   1.203   1.786
10009TIP3   OH229983   3.870   3.888   3.225
10009TIP3    H129984   3.844   3.979   3.239
10009TIP3    H229985   3.848   3.870   3.133
10010TIP3   OH229986   7.105   0.369   1.281
10010TIP3    H129987   7.163   0.293   1.281
10010TIP3    H229988   7.163   0.444   1.269
10011TIP3   OH229989   7.125   5.640   3.897
10011TIP3    H129990   7.142   5.582   3.971
10011TIP3    H229991   7.095   5.722   3.936
10012TIP3   OH229992   6.509   7.444   3.588
10012TIP3    H129993   6.551   7.502   3.525
10012TIP3    H229994   6.432   7.410   3.543
10013TIP3   OH229995   2.528   3.860   6.386
10013TIP3    H129996   2.468   3.935   6.385
10013TIP3    H229997   2.581   3.873   6.465
10014TIP3   OH229998   3.602   2.978   2.807
10014TIP3    H129999   3.577   3.070   2.801
10014TIP3    H230000   3.618   2.952   2.716
10015TIP3   OH230001   7.795   4.730   1.023
10015TIP3    H130002   7.769   4.780   0.945
10015TIP3    H230003   7.845   4.793   1.075
10016TIP3   OH230004   6.748   2.105   4.224
10016TIP3    H130005   6.722   2.031   4.280
10016TIP3    H230006   6.674   2.118   4.166
10017TIP3   OH230007   2.421   4.281   5.881
10017TIP3    H130008   2.422   4.375   5.867
10017TIP3    H230009   2.405   4.244   5.794
10018TIP3   OH230010   2.997   4.517   3.588
10018TIP3    H130011   3.037   4.514   3.675
10018TIP3    H230012   3.054   4.576   3.537
10019TIP3   OH230013   6.736   4.388   5.485
10019TIP3    H130014   6.812   4.409   5.430
10019TIP3    H230015   6.703   4.474   5.514
10020TIP3   OH230016   8.007   4.867   5.966
10020TIP3    H130017   8.078   4.812   6.000
10020TIP3    H230018   7.967   4.814   5.897
10021TIP3   OH230019   7.022   3.965   2.351
10021TIP3    H130020   7.051   3.931   2.266
10021TIP3    H230021   6.982   3.889   2.394
10022TIP3   OH230022   2.743   5.248   0.801
10022TIP3    H130023   2.799   5.214   0.870
10022TIP3    H230024   2.803   5.291   0.740
10023TIP3   OH230025   3.310   5.788   3.622
10023TIP3    H130026   3.215   5.799   3.625
10023TIP3    H230027   3.325   5.700   3.655
10024TIP3   OH230028   6.923   6.796   2.277
10024TIP3    H130029   6.974   6.867   2.238
10024TIP3    H230030   6.980   6.760   2.345
10025TIP3   OH230031   8.109   0.028   6.266
10025TIP3    H130032   8.194   0.067   6.244
10025TIP3    H230033   8.054   0.103   6.288
10026TIP3   OH230034   1.425   2.877   2.543
10026TIP3    H130035   1.380   2.795   2.562
10026TIP3    H230036   1.517   2.859   2.564
10027TIP3   OH230037   1.770   7.238   1.200
10027TIP3    H130038   1.784   7.232   1.294
10027TIP3    H230039   1.714   7.163   1.179
10028TIP3   OH230040   6.007   7.305   3.109
10028TIP3    H130041   6.009   7.394   3.144
10028TIP3    H230042   6.098   7.275   3.115
10029TIP3   OH230043   0.746   0.620   3.382
10029TIP3    H130044   0.678   0.609   3.448
10029TIP3    H230045   0.798   0.694   3.414
10030TIP3   OH230046   4.296   6.415   0.885
10030TIP3    H130047   4.390   6.425   0.868
10030TIP3    H230048   4.269   6.501   0.918
10031TIP3   OH230049   1.400   1.562   2.601
10031TIP3    H130050   1.359   1.580   2.517
10031TIP3    H230051   1.435   1.646   2.630
10032TIP3   OH230052   8.134   0.910   1.140
10032TIP3    H130053   8.084   0.911   1.058
10032TIP3    H230054   8.079   0.958   1.202
10033TIP3   OH230055   6.629   7.605   2.222
10033TIP3    H130056   6.598   7.610   2.312
10033TIP3    H230057   6.574   7.538   2.182
10034TIP3   OH230058   2.375   6.310   6.406
10034TIP3    H130059   2.287   6.312   6.369
10034TIP3    H230060   2.371   6.241   6.473
10035TIP3   OH230061   7.847   7.685   2.519
10035TIP3    H130062   7.876   7.729   2.599
10035TIP3    H230063   7.922   7.693   2.459
10036TIP3   OH230064   7.988   2.743   0.214
10036TIP3    H130065   7.972   2.665   0.267
10036TIP3    H230066   7.912   2.748   0.155
10037TIP3   OH230067   2.692   4.562   2.803
10037TIP3    H130068   2.691   4.604   2.717
10037TIP3    H230069   2.771   4.596   2.845
10038TIP3   OH230070   5.529   5.254   3.477
10038TIP3    H130071   5.436   5.239   3.459
10038TIP3    H230072   5.534   5.346   3.503
10039TIP3   OH230073   5.897   2.301   1.773
10039TIP3    H130074   5.820   2.293   1.830
10039TIP3    H230075   5.971   2.277   1.829
10040TIP3   OH230076   3.427   2.773   1.074
10040TIP3    H130077   3.491   2.703   1.061
10040TIP3    H230078   3.454   2.843   1.015
10041TIP3   OH230079   7.005   2.610   5.974
10041TIP3    H130080   6.959   2.691   5.999
10041TIP3    H230081   7.008   2.559   6.055
10042TIP3   OH230082   6.610   4.414   2.626
10042TIP3    H130083   6.672   4.369   2.684
10042TIP3    H230084   6.572   4.483   2.682
10043TIP3   OH230085   7.272   7.222   0.171
10043TIP3    H130086   7.322   7.146   0.200
10043TIP3    H230087   7.203   7.232   0.237
10044TIP3   OH230088   5.978   1.478   2.388
10044TIP3    H130089   5.952   1.430   2.309
10044TIP3    H230090   5.949   1.421   2.460
10045TIP3   OH230091   3.821   0.655   5.462
10045TIP3    H130092   3.896   0.711   5.441
10045TIP3    H230093   3.808   0.667   5.556
10046TIP3   OH230094   5.779   6.904   1.134
10046TIP3    H130095   5.712   6.892   1.201
10046TIP3    H230096   5.818   6.988   1.155
10047TIP3   OH230097   1.348   4.596   5.764
10047TIP3    H130098   1.388   4.683   5.764
10047TIP3    H230099   1.380   4.556   5.683
10048TIP3   OH230100   5.325   1.349   5.165
10048TIP3    H130101   5.334   1.280   5.230
10048TIP3    H230102   5.404   1.402   5.174
10049TIP3   OH230103   1.571   5.580   4.515
10049TIP3    H130104   1.610   5.553   4.598
10049TIP3    H230105   1.491   5.626   4.541
10050TIP3   OH230106   4.056   3.733   1.793
10050TIP3    H130107   4.120   3.797   1.762
10050TIP3    H230108   3.992   3.785   1.842
10051TIP3   OH230109   0.494   7.746   1.208
10051TIP3    H130110   0.544   7.827   1.223
10051TIP3    H230111   0.522   7.688   1.278
10052TIP3   OH230112   0.314   2.689   2.452
10052TIP3    H130113   0.393   2.644   2.484
10052TIP3    H230114   0.304   2.764   2.510
10053TIP3   OH230115   1.069   3.109   2.134
10053TIP3    H130116   1.083   3.203   2.120
10053TIP3    H230117   1.143   3.082   2.189
10054TIP3   OH230118   8.205   3.589   4.897
10054TIP3    H130119   8.219   3.495   4.908
10054TIP3    H230120   8.199   3.601   4.803
10055TIP3   OH230121   6.674   4.000   2.877
10055TIP3    H130122   6.679   4.022   2.784
10055TIP3    H230123   6.707   4.078   2.922
10056TIP3   OH230124   0.863   0.107   3.852
10056TIP3    H130125   0.812   0.038   3.809
10056TIP3    H230126   0.954   0.080   3.840
10057TIP3   OH230127   0.398   6.655   6.077
10057TIP3    H130128   0.385   6.709   5.999
10057TIP3    H230129   0.375   6.567   6.050
10058TIP3   OH230130   5.464   7.520   4.004
10058TIP3    H130131   5.446   7.521   3.910
10058TIP3    H230132   5.389   7.564   4.043
10059TIP3   OH230133   4.148   5.087   1.152
10059TIP3    H130134   4.076   5.128   1.198
10059TIP3    H230135   4.108   5.012   1.107
10060TIP3   OH230136   8.046   7.558   6.372
10060TIP3    H130137   8.140   7.549   6.388
10060TIP3    H230138   8.039   7.628   6.307
10061TIP3   OH230139   5.717   0.790   0.047
10061TIP3    H130140   5.702   0.802  -0.047
10061TIP3    H230141   5.685   0.870   0.087
10062TIP3   OH230142   5.228   4.982   1.952
10062TIP3    H130143   5.143   4.983   1.996
10062TIP3    H230144   5.213   4.931   1.873
10063TIP3   OH230145   6.690   2.603   0.277
10063TIP3    H130146   6.627   2.668   0.246
10063TIP3    H230147   6.726   2.640   0.358
10064TIP3   OH230148   2.178   2.098   0.677
10064TIP3    H130149   2.227   2.174   0.710
10064TIP3    H230150   2.171   2.040   0.754
10065TIP3   OH230151   4.180   7.218   0.175
10065TIP3    H130152   4.248   7.167   0.131
10065TIP3    H230153   4.227   7.266   0.243
10066TIP3   OH230154   2.372   6.111   1.266
10066TIP3    H130155   2.391   6.200   1.295
10066TIP3    H230156   2.323   6.121   1.185
10067TIP3   OH230157   2.012   6.184   5.536
10067TIP3    H130158   2.012   6.270   5.578
10067TIP3    H230159   1.948   6.133   5.586
10068TIP3   OH230160   3.547   4.649   1.025
10068TIP3    H130161   3.490   4.696   1.086
10068TIP3    H230162   3.516   4.676   0.938
10069TIP3   OH230163   3.252   2.060   0.110
10069TIP3    H130164   3.242   2.089   0.200
10069TIP3    H230165   3.221   1.969   0.110
10070TIP3   OH230166   5.921   1.823   1.637
10070TIP3    H130167   6.004   1.802   1.593
10070TIP3    H230168   5.901   1.912   1.609
10071TIP3   OH230169   2.109   6.919   3.965
10071TIP3    H130170   2.016   6.906   3.944
10071TIP3    H230171   2.139   6.986   3.904
10072TIP3   OH230172   2.160   6.932   3.377
10072TIP3    H130173   2.194   6.853   3.335
10072TIP3    H230174   2.232   6.965   3.430
10073TIP3   OH230175   7.213   0.096   3.845
10073TIP3    H130176   7.278   0.038   3.886
10073TIP3    H230177   7.253   0.120   3.762
10074TIP3   OH230178   0.360   2.710   3.468
10074TIP3    H130179   0.314   2.742   3.546
10074TIP3    H230180   0.319   2.627   3.448
10075TIP3   OH230181   6.704   1.710   4.923
10075TIP3    H130182   6.716   1.667   5.008
10075TIP3    H230183   6.646   1.650   4.875
10076TIP3   OH230184   5.953   0.173   6.666
10076TIP3    H130185   6.005   0.240   6.710
10076TIP3    H230186   5.876   0.220   6.634
10077TIP3   OH230187   4.904   0.336   2.652
10077TIP3    H130188   4.897   0.275   2.578
10077TIP3    H230189   4.814   0.349   2.682
10078TIP3   OH230190   6.663   6.756   2.128
10078TIP3    H130191   6.667   6.786   2.037
10078TIP3    H230192   6.748   6.778   2.165
10079TIP3   OH230193   8.191   0.329   4.623
10079TIP3    H130194   8.112   0.312   4.572
10079TIP3    H230195   8.246   0.382   4.565
10080TIP3   OH230196   2.707   4.981   4.959
10080TIP3    H130197   2.683   4.890   4.943
10080TIP3    H230198   2.786   4.976   5.013
10081TIP3   OH230199   6.487   2.187   2.534
10081TIP3    H130200   6.499   2.229   2.448
10081TIP3    H230201   6.396   2.202   2.556
10082TIP3   OH230202   2.122   4.894   5.380
10082TIP3    H130203   2.109   4.880   5.474
10082TIP3    H230204   2.036   4.919   5.348
10083TIP3   OH230205   6.673   0.869   3.126
10083TIP3    H130206   6.661   0.775   3.142
10083TIP3    H230207   6.588   0.898   3.091
10084TIP3   OH230208   6.969   1.363   5.782
10084TIP3    H130209   6.993   1.364   5.689
10084TIP3    H230210   6.974   1.271   5.807
10085TIP3   OH230211   4.896   2.385   6.590
10085TIP3    H130212   4.815   2.390   6.640
10085TIP3    H230213   4.876   2.431   6.508
10086TIP3   OH230214   5.465   6.130   2.518
10086TIP3    H130215   5.503   6.208   2.478
10086TIP3    H230216   5.491   6.058   2.461
10087TIP3   OH230217   8.170   0.949   2.879
10087TIP3    H130218   8.239   0.909   2.931
10087TIP3    H230219   8.144   1.026   2.929
10088TIP3   OH230220   3.904   1.280   2.969
10088TIP3    H130221   3.898   1.322   2.883
10088TIP3    H230222   3.994   1.296   2.997
10089TIP3   OH230223   2.052   6.466   1.659
10089TIP3    H130224   2.067   6.420   1.742
10089TIP3    H230225   1.974   6.520   1.677
10090TIP3   OH230226   7.800   1.585   4.910
10090TIP3    H130227   7.796   1.563   5.003
10090TIP3    H230228   7.817   1.679   4.908
10091TIP3   OH230229   2.519   5.702   6.339
10091TIP3    H130230   2.449   5.719   6.276
10091TIP3    H230231   2.600   5.725   6.293
10092TIP3   OH230232   1.929   4.880   2.389
10092TIP3    H130233   1.946   4.914   2.301
10092TIP3    H230234   1.836   4.858   2.389
10093TIP3   OH230235   5.229   1.412   3.910
10093TIP3    H130236   5.225   1.383   4.001
10093TIP3    H230237   5.300   1.476   3.909
10094TIP3   OH230238   2.004   3.216   1.626
10094TIP3    H130239   1.932   3.224   1.563
10094TIP3    H230240   2.081   3.250   1.578
10095TIP3   OH230241   2.073   4.473   2.170
10095TIP3    H130242   2.078   4.525   2.250
10095TIP3    H230243   2.005   4.408   2.188
10096TIP3   OH230244   3.007   4.685   1.668
10096TIP3    H130245   2.974   4.738   1.595
10096TIP3    H230246   3.084   4.733   1.698
10097TIP3   OH230247   5.314   0.946   3.355
10097TIP3    H130248   5.367   0.866   3.352
10097TIP3    H230249   5.241   0.923   3.414
10098TIP3   OH230250   4.039   2.555   4.404
10098TIP3    H130251   4.033   2.543   4.498
10098TIP3    H230252   4.073   2.471   4.372
10099TIP3   OH230253   1.833   2.383   4.994
10099TIP3    H130254   1.833   2.416   5.084
10099TIP3    H230255   1.830   2.288   5.004
10100TIP3   OH230256   6.072   6.862   1.491
10100TIP3    H130257   6.122   6.816   1.424
10100TIP3    H230258   6.023   6.792   1.535
10101TIP3   OH230259   1.779   5.569   3.714
10101TIP3    H130260   1.855   5.514   3.694
10101TIP3    H230261   1.704   5.511   3.702
10102TIP3   OH230262   3.530   5.948   5.601
10102TIP3    H130263   3.622   5.974   5.608
10102TIP3    H230264   3.494   6.005   5.532
10103TIP3   OH230265   4.805   2.367   6.022
10103TIP3    H130266   4.866   2.436   6.046
10103TIP3    H230267   4.856   2.309   5.965
10104TIP3   OH230268   5.111   0.547   2.656
10104TIP3    H130269   5.032   0.501   2.628
10104TIP3    H230270   5.170   0.541   2.581
10105TIP3   OH230271   7.800   7.324   0.851
10105TIP3    H130272   7.795   7.228   0.847
10105TIP3    H230273   7.891   7.344   0.830
10106TIP3   OH230274   0.855   1.474   5.602
10106TIP3    H130275   0.873   1.568   5.597
10106TIP3    H230276   0.935   1.436   5.640
10107TIP3   OH230277   7.151   5.337   6.214
10107TIP3    H130278   7.056   5.335   6.214
10107TIP3    H230279   7.174   5.424   6.182
10108TIP3   OH230280   7.406   2.703   2.762
10108TIP3    H130281   7.487   2.753   2.775
10108TIP3    H230282   7.401   2.689   2.667
10109TIP3   OH230283   7.081   7.115   5.061
10109TIP3    H130284   7.171   7.142   5.078
10109TIP3    H230285   7.088   7.051   4.990
10110TIP3   OH230286   4.433   4.453   5.652
10110TIP3    H130287   4.463   4.401   5.726
10110TIP3    H230288   4.346   4.419   5.632
10111TIP3   OH230289   4.937   4.478   0.887
10111TIP3    H130290   4.860   4.484   0.945
10111TIP3    H230291   4.934   4.388   0.854
10112TIP3   OH230292   7.028   2.224   0.556
10112TIP3    H130293   6.953   2.253   0.608
10112TIP3    H230294   7.033   2.130   0.572
10113TIP3   OH230295   7.764   0.170   2.090
10113TIP3    H130296   7.838   0.227   2.112
10113TIP3    H230297   7.802   0.083   2.081
10114TIP3   OH230298   7.494   7.571   6.703
10114TIP3    H130299   7.410   7.541   6.669
10114TIP3    H230300   7.525   7.499   6.757
10115TIP3   OH230301   7.337   7.690   2.307
10115TIP3    H130302   7.255   7.655   2.342
10115TIP3    H230303   7.321   7.784   2.297
10116TIP3   OH230304   6.920   0.225   0.108
10116TIP3    H130305   6.828   0.217   0.132
10116TIP3    H230306   6.957   0.138   0.123
10117TIP3   OH230307   0.820   4.049   6.409
10117TIP3    H130308   0.777   4.018   6.330
10117TIP3    H230309   0.909   4.014   6.403
10118TIP3   OH230310   2.185   4.795   4.656
10118TIP3    H130311   2.095   4.765   4.645
10118TIP3    H230312   2.177   4.884   4.689
10119TIP3   OH230313   5.308   7.580   0.594
10119TIP3    H130314   5.273   7.604   0.680
10119TIP3    H230315   5.402   7.572   0.608
10120TIP3   OH230316   5.246   4.030   2.128
10120TIP3    H130317   5.220   4.030   2.036
10120TIP3    H230318   5.245   3.938   2.153
10121TIP3   OH230319   6.255   2.387   5.386
10121TIP3    H130320   6.222   2.334   5.313
10121TIP3    H230321   6.323   2.442   5.347
10122TIP3   OH230322   2.392   7.307   3.454
10122TIP3    H130323   2.331   7.260   3.397
10122TIP3    H230324   2.359   7.292   3.543
10123TIP3   OH230325   3.866   7.495   5.703
10123TIP3    H130326   3.903   7.508   5.790
10123TIP3    H230327   3.863   7.583   5.665
10124TIP3   OH230328   4.331   1.614   0.336
10124TIP3    H130329   4.271   1.680   0.372
10124TIP3    H230330   4.369   1.572   0.414
10125TIP3   OH230331   1.717   2.349   6.054
10125TIP3    H130332   1.713   2.264   6.010
10125TIP3    H230333   1.650   2.401   6.010
10126TIP3   OH230334   6.195   1.762   2.846
10126TIP3    H130335   6.105   1.742   2.817
10126TIP3    H230336   6.222   1.835   2.790
10127TIP3   OH230337   3.475   2.174   2.062
10127TIP3    H130338   3.425   2.093   2.074
10127TIP3    H230339   3.447   2.207   1.976
10128TIP3   OH230340   1.898   5.578   3.980
10128TIP3    H130341   1.837   5.513   3.944
10128TIP3    H230342   1.918   5.636   3.907
10129TIP3   OH230343   6.384   6.192   2.419
10129TIP3    H130344   6.305   6.247   2.424
10129TIP3    H230345   6.391   6.170   2.326
10130TIP3   OH230346   2.255   1.024   2.051
10130TIP3    H130347   2.262   0.968   1.974
10130TIP3    H230348   2.321   1.092   2.037
10131TIP3   OH230349   7.859   5.787   5.669
10131TIP3    H130350   7.946   5.773   5.634
10131TIP3    H230351   7.815   5.702   5.659
10132TIP3   OH230352   7.820   6.524   6.129
10132TIP3    H130353   7.727   6.509   6.112
10132TIP3    H230354   7.822   6.571   6.212
10133TIP3   OH230355   0.539   2.872   2.649
10133TIP3    H130356   0.488   2.816   2.708
10133TIP3    H230357   0.499   2.959   2.660
10134TIP3   OH230358   1.475   2.083   2.034
10134TIP3    H130359   1.519   2.166   2.018
10134TIP3    H230360   1.501   2.027   1.960
10135TIP3   OH230361   6.153   3.232   3.858
10135TIP3    H130362   6.106   3.149   3.863
10135TIP3    H230363   6.198   3.240   3.942
10136TIP3   OH230364   5.711   1.963   0.178
10136TIP3    H130365   5.796   1.987   0.141
10136TIP3    H230366   5.660   1.933   0.104
10137TIP3   OH230367   6.199   5.204   4.658
10137TIP3    H130368   6.269   5.171   4.714
10137TIP3    H230369   6.133   5.134   4.659
10138TIP3   OH230370   5.203   1.638   2.967
10138TIP3    H130371   5.174   1.547   2.969
10138TIP3    H230372   5.129   1.686   2.932
10139TIP3   OH230373   1.281   2.561   1.338
10139TIP3    H130374   1.261   2.638   1.391
10139TIP3    H230375   1.365   2.530   1.370
10140TIP3   OH230376   3.848   1.986   5.342
10140TIP3    H130377   3.878   2.073   5.314
10140TIP3    H230378   3.917   1.927   5.316
10141TIP3   OH230379   3.427   1.994   4.634
10141TIP3    H130380   3.514   1.958   4.649
10141TIP3    H230381   3.441   2.068   4.575
10142TIP3   OH230382   0.329   0.520   5.290
10142TIP3    H130383   0.329   0.426   5.303
10142TIP3    H230384   0.375   0.555   5.366
10143TIP3   OH230385   5.087   6.409   0.896
10143TIP3    H130386   5.149   6.337   0.906
10143TIP3    H230387   5.026   6.378   0.828
10144TIP3   OH230388   7.079   6.623   3.632
10144TIP3    H130389   7.116   6.549   3.585
10144TIP3    H230390   7.155   6.677   3.655
10145TIP3   OH230391   3.468   3.801   2.626
10145TIP3    H130392   3.511   3.869   2.677
10145TIP3    H230393   3.425   3.848   2.555
10146TIP3   OH230394   6.474   4.508   4.447
10146TIP3    H130395   6.510   4.438   4.393
10146TIP3    H230396   6.502   4.487   4.536
10147TIP3   OH230397   2.707   3.102   1.625
10147TIP3    H130398   2.686   3.071   1.537
10147TIP3    H230399   2.791   3.147   1.615
10148TIP3   OH230400   6.823   1.581   5.871
10148TIP3    H130401   6.884   1.516   5.834
10148TIP3    H230402   6.870   1.616   5.947
10149TIP3   OH230403   2.708   4.211   1.154
10149TIP3    H130404   2.701   4.117   1.174
10149TIP3    H230405   2.630   4.249   1.193
10150TIP3   OH230406   7.022   3.120   5.813
10150TIP3    H130407   7.099   3.098   5.761
10150TIP3    H230408   6.981   3.193   5.765
10151TIP3   OH230409   2.742   4.533   2.265
10151TIP3    H130410   2.763   4.454   2.316
10151TIP3    H230411   2.773   4.514   2.177
10152TIP3   OH230412   1.392   6.598   1.383
10152TIP3    H130413   1.324   6.596   1.315
10152TIP3    H230414   1.391   6.509   1.420
10153TIP3   OH230415   1.925   6.157   5.882
10153TIP3    H130416   1.873   6.144   5.961
10153TIP3    H230417   1.892   6.092   5.820
10154TIP3   OH230418   5.651   6.633   2.884
10154TIP3    H130419   5.573   6.640   2.828
10154TIP3    H230420   5.699   6.558   2.848
10155TIP3   OH230421   3.366   1.025   0.566
10155TIP3    H130422   3.287   1.004   0.616
10155TIP3    H230423   3.411   0.942   0.555
10156TIP3   OH230424   4.770   7.793   4.332
10156TIP3    H130425   4.715   7.743   4.271
10156TIP3    H230426   4.828   7.844   4.275
10157TIP3   OH230427   4.980   1.122   5.280
10157TIP3    H130428   5.023   1.203   5.305
10157TIP3    H230429   4.951   1.136   5.190
10158TIP3   OH230430   3.158   3.105   1.643
10158TIP3    H130431   3.137   3.015   1.617
10158TIP3    H230432   3.106   3.120   1.722
10159TIP3   OH230433   6.669   7.019   2.424
10159TIP3    H130434   6.593   7.026   2.366
10159TIP3    H230435   6.697   6.927   2.415
10160TIP3   OH230436   3.832   1.180   5.098
10160TIP3    H130437   3.751   1.131   5.084
10160TIP3    H230438   3.834   1.243   5.026
10161TIP3   OH230439   6.541   5.704   3.837
10161TIP3    H130440   6.565   5.745   3.754
10161TIP3    H230441   6.546   5.775   3.901
10162TIP3   OH230442   4.686   0.533   1.513
10162TIP3    H130443   4.615   0.525   1.450
10162TIP3    H230444   4.762   0.560   1.461
10163TIP3   OH230445   6.070   1.421   6.691
10163TIP3    H130446   6.160   1.388   6.686
10163TIP3    H230447   6.071   1.501   6.639
10164TIP3   OH230448   3.532   2.710   2.848
10164TIP3    H130449   3.587   2.787   2.861
10164TIP3    H230450   3.575   2.661   2.779
10165TIP3   OH230451   1.629   3.666   1.639
10165TIP3    H130452   1.638   3.759   1.658
10165TIP3    H230453   1.547   3.640   1.681
10166TIP3   OH230454   1.484   2.897   4.293
10166TIP3    H130455   1.443   2.811   4.309
10166TIP3    H230456   1.413   2.959   4.304
10167TIP3   OH230457   6.814   5.786   3.629
10167TIP3    H130458   6.862   5.857   3.671
10167TIP3    H230459   6.723   5.814   3.633
10168TIP3   OH230460   4.449   2.805   4.427
10168TIP3    H130461   4.409   2.860   4.494
10168TIP3    H230462   4.383   2.800   4.358
10169TIP3   OH230463   5.573   4.599   3.245
10169TIP3    H130464   5.614   4.683   3.266
10169TIP3    H230465   5.645   4.536   3.247
10170TIP3   OH230466   0.228   2.025   3.784
10170TIP3    H130467   0.236   1.931   3.768
10170TIP3    H230468   0.273   2.066   3.710
10171TIP3   OH230469   3.043   1.609   2.511
10171TIP3    H130470   3.013   1.640   2.597
10171TIP3    H230471   2.962   1.599   2.460
10172TIP3   OH230472   6.681   6.047   3.120
10172TIP3    H130473   6.713   6.119   3.065
10172TIP3    H230474   6.590   6.036   3.094
10173TIP3   OH230475   2.864   6.080   3.550
10173TIP3    H130476   2.940   6.078   3.608
10173TIP3    H230477   2.894   6.036   3.471
10174TIP3   OH230478   5.756   3.257   1.751
10174TIP3    H130479   5.699   3.206   1.810
10174TIP3    H230480   5.843   3.217   1.762
10175TIP3   OH230481   7.645   2.827   6.392
10175TIP3    H130482   7.707   2.795   6.327
10175TIP3    H230483   7.690   2.817   6.476
10176TIP3   OH230484   5.165   3.867   1.606
10176TIP3    H130485   5.144   3.782   1.644
10176TIP3    H230486   5.260   3.864   1.591
10177TIP3   OH230487   5.365   1.617   6.670
10177TIP3    H130488   5.301   1.546   6.665
10177TIP3    H230489   5.314   1.697   6.665
10178TIP3   OH230490   0.378   0.019   2.588
10178TIP3    H130491   0.398   0.066   2.670
10178TIP3    H230492   0.381   0.087   2.521
10179TIP3   OH230493   5.482   0.227   0.940
10179TIP3    H130494   5.428   0.181   0.876
10179TIP3    H230495   5.501   0.162   1.007
10180TIP3   OH230496   3.062   4.135   1.521
10180TIP3    H130497   3.049   4.195   1.595
10180TIP3    H230498   3.129   4.074   1.551
10181TIP3   OH230499   3.526   3.478   6.008
10181TIP3    H130500   3.460   3.547   5.997
10181TIP3    H230501   3.608   3.518   5.979
10182TIP3   OH230502   2.899   3.366   2.428
10182TIP3    H130503   2.953   3.367   2.507
10182TIP3    H230504   2.903   3.456   2.396
10183TIP3   OH230505   1.691   2.818   2.562
10183TIP3    H130506   1.753   2.787   2.496
10183TIP3    H230507   1.744   2.828   2.641
10184TIP3   OH230508   5.423   3.877   0.107
10184TIP3    H130509   5.461   3.945   0.053
10184TIP3    H230510   5.498   3.828   0.141
10185TIP3   OH230511   5.510   1.881   1.433
10185TIP3    H130512   5.556   1.908   1.513
10185TIP3    H230513   5.567   1.815   1.394
10186TIP3   OH230514   2.838   7.707   5.712
10186TIP3    H130515   2.779   7.782   5.706
10186TIP3    H230516   2.814   7.650   5.639
10187TIP3   OH230517   4.524   6.816   5.605
10187TIP3    H130518   4.617   6.830   5.589
10187TIP3    H230519   4.482   6.897   5.578
10188TIP3   OH230520   4.019   2.737   3.385
10188TIP3    H130521   3.928   2.764   3.397
10188TIP3    H230522   4.026   2.723   3.290
10189TIP3   OH230523   6.431   2.210   0.316
10189TIP3    H130524   6.476   2.233   0.397
10189TIP3    H230525   6.500   2.209   0.250
10190TIP3   OH230526   1.512   7.354   2.783
10190TIP3    H130527   1.466   7.433   2.755
10190TIP3    H230528   1.541   7.313   2.702
10191TIP3   OH230529   2.207   1.991   3.908
10191TIP3    H130530   2.213   2.074   3.955
10191TIP3    H230531   2.271   1.999   3.837
10192TIP3   OH230532   7.325   0.041   3.591
10192TIP3    H130533   7.414   0.017   3.614
10192TIP3    H230534   7.320   0.030   3.496
10193TIP3   OH230535   5.686   4.982   6.217
10193TIP3    H130536   5.651   4.944   6.135
10193TIP3    H230537   5.611   5.027   6.256
10194TIP3   OH230538   1.928   4.604   3.949
10194TIP3    H130539   2.022   4.593   3.965
10194TIP3    H230540   1.887   4.536   4.003
10195TIP3   OH230541   8.025   0.578   0.131
10195TIP3    H130542   7.980   0.656   0.100
10195TIP3    H230543   7.993   0.565   0.220
10196TIP3   OH230544   7.457   4.132   3.757
10196TIP3    H130545   7.365   4.132   3.729
10196TIP3    H230546   7.504   4.089   3.686
10197TIP3   OH230547   2.186   1.611   0.067
10197TIP3    H130548   2.116   1.657   0.022
10197TIP3    H230549   2.153   1.598   0.156
10198TIP3   OH230550   2.994   0.148   1.265
10198TIP3    H130551   2.948   0.068   1.238
10198TIP3    H230552   3.076   0.116   1.303
10199TIP3   OH230553   1.984   5.199   3.031
10199TIP3    H130554   1.981   5.156   3.116
10199TIP3    H230555   1.915   5.265   3.034
10200TIP3   OH230556   0.065   5.160   6.697
10200TIP3    H130557   0.149   5.174   6.742
10200TIP3    H230558   0.036   5.249   6.675
10201TIP3   OH230559   3.543   6.318   2.241
10201TIP3    H130560   3.502   6.231   2.248
10201TIP3    H230561   3.547   6.349   2.332
10202TIP3   OH230562   2.906   5.797   1.976
10202TIP3    H130563   2.853   5.718   1.989
10202TIP3    H230564   2.974   5.770   1.914
10203TIP3   OH230565   5.509   6.286   5.738
10203TIP3    H130566   5.493   6.226   5.810
10203TIP3    H230567   5.463   6.246   5.663
10204TIP3   OH230568   2.377   1.005   3.224
10204TIP3    H130569   2.466   0.977   3.247
10204TIP3    H230570   2.356   0.955   3.145
10205TIP3   OH230571   1.733   2.905   1.625
10205TIP3    H130572   1.683   2.979   1.659
10205TIP3    H230573   1.807   2.896   1.685
10206TIP3   OH230574   7.257   0.899   4.191
10206TIP3    H130575   7.195   0.938   4.129
10206TIP3    H230576   7.220   0.813   4.210
10207TIP3   OH230577   3.752   1.972   4.035
10207TIP3    H130578   3.766   1.886   3.995
10207TIP3    H230579   3.709   1.952   4.119
10208TIP3   OH230580   6.336   3.679   1.291
10208TIP3    H130581   6.258   3.710   1.336
10208TIP3    H230582   6.311   3.674   1.199
10209TIP3   OH230583   7.911   6.960   2.333
10209TIP3    H130584   7.816   6.970   2.340
10209TIP3    H230585   7.939   6.934   2.421
10210TIP3   OH230586   0.862   1.748   5.819
10210TIP3    H130587   0.791   1.812   5.828
10210TIP3    H230588   0.838   1.678   5.880
10211TIP3   OH230589   4.330   3.467   2.649
10211TIP3    H130590   4.399   3.496   2.709
10211TIP3    H230591   4.374   3.407   2.589
10212TIP3   OH230592   3.355   2.091   5.429
10212TIP3    H130593   3.417   2.137   5.372
10212TIP3    H230594   3.277   2.146   5.427
10213TIP3   OH230595   2.105   6.119   6.727
10213TIP3    H130596   2.051   6.102   6.650
10213TIP3    H230597   2.195   6.110   6.696
10214TIP3   OH230598   2.824   3.775   5.914
10214TIP3    H130599   2.776   3.762   5.996
10214TIP3    H230600   2.901   3.826   5.939
10215TIP3   OH230601   8.080   6.590   1.321
10215TIP3    H130602   8.139   6.565   1.250
10215TIP3    H230603   8.132   6.648   1.376
10216TIP3   OH230604   6.566   4.232   6.399
10216TIP3    H130605   6.500   4.300   6.410
10216TIP3    H230606   6.648   4.280   6.388
10217TIP3   OH230607   7.177   3.610   6.347
10217TIP3    H130608   7.090   3.579   6.373
10217TIP3    H230609   7.164   3.702   6.325
10218TIP3   OH230610   7.601   4.927   2.405
10218TIP3    H130611   7.629   4.968   2.487
10218TIP3    H230612   7.506   4.924   2.412
10219TIP3   OH230613   8.151   3.835   6.680
10219TIP3    H130614   8.228   3.891   6.667
10219TIP3    H230615   8.125   3.809   6.592
10220TIP3   OH230616   6.227   4.883   2.447
10220TIP3    H130617   6.166   4.946   2.487
10220TIP3    H230618   6.218   4.804   2.500
10221TIP3   OH230619   7.748   5.474   3.212
10221TIP3    H130620   7.811   5.475   3.140
10221TIP3    H230621   7.725   5.381   3.222
10222TIP3   OH230622   0.581   7.823   5.274
10222TIP3    H130623   0.540   7.746   5.235
10222TIP3    H230624   0.585   7.803   5.368
10223TIP3   OH230625   2.285   1.497   2.513
10223TIP3    H130626   2.233   1.535   2.584
10223TIP3    H230627   2.337   1.428   2.556
10224TIP3   OH230628   4.599   6.637   0.978
10224TIP3    H130629   4.663   6.668   0.914
10224TIP3    H230630   4.637   6.558   1.014
10225TIP3   OH230631   7.842   2.458   1.318
10225TIP3    H130632   7.888   2.471   1.400
10225TIP3    H230633   7.827   2.546   1.284
10226TIP3   OH230634   1.509   5.659   5.555
10226TIP3    H130635   1.532   5.734   5.500
10226TIP3    H230636   1.415   5.647   5.541
10227TIP3   OH230637   2.984   7.663   3.897
10227TIP3    H130638   3.027   7.581   3.922
10227TIP3    H230639   2.989   7.717   3.976
10228TIP3   OH230640   6.428   4.324   1.409
10228TIP3    H130641   6.413   4.417   1.391
10228TIP3    H230642   6.363   4.279   1.355
10229TIP3   OH230643   5.569   4.456   1.264
10229TIP3    H130644   5.659   4.434   1.287
10229TIP3    H230645   5.518   4.427   1.340
10230TIP3   OH230646   2.929   7.518   0.250
10230TIP3    H130647   2.908   7.473   0.332
10230TIP3    H230648   3.022   7.541   0.259
10231TIP3   OH230649   5.271   6.883   0.849
10231TIP3    H130650   5.271   6.788   0.837
10231TIP3    H230651   5.341   6.915   0.792
10232TIP3   OH230652   6.589   0.134   5.191
10232TIP3    H130653   6.671   0.119   5.237
10232TIP3    H230654   6.521   0.127   5.259
10233TIP3   OH230655   2.260   3.756   2.670
10233TIP3    H130656   2.180   3.758   2.722
10233TIP3    H230657   2.327   3.720   2.729
10234TIP3   OH230658   1.637   7.135   1.706
10234TIP3    H130659   1.680   7.150   1.791
10234TIP3    H230660   1.552   7.177   1.714
10235TIP3   OH230661   5.100   6.613   0.536
10235TIP3    H130662   5.129   6.536   0.487
10235TIP3    H230663   5.016   6.636   0.496
10236TIP3   OH230664   6.906   0.429   4.040
10236TIP3    H130665   6.964   0.424   3.965
10236TIP3    H230666   6.950   0.487   4.102
10237TIP3   OH230667   7.123   4.605   6.074
10237TIP3    H130668   7.111   4.674   6.140
10237TIP3    H230669   7.217   4.588   6.076
10238TIP3   OH230670   1.131   0.749   2.646
10238TIP3    H130671   1.085   0.782   2.723
10238TIP3    H230672   1.068   0.689   2.606
10239TIP3   OH230673   7.557   1.028   0.769
10239TIP3    H130674   7.489   1.039   0.702
10239TIP3    H230675   7.637   1.013   0.719
10240TIP3   OH230676   3.234   2.098   1.321
10240TIP3    H130677   3.198   2.025   1.371
10240TIP3    H230678   3.236   2.171   1.383
10241TIP3   OH230679   7.669   2.253   6.031
10241TIP3    H130680   7.738   2.291   5.977
10241TIP3    H230681   7.666   2.309   6.109
10242TIP3   OH230682   4.445   6.728   0.747
10242TIP3    H130683   4.463   6.702   0.837
10242TIP3    H230684   4.398   6.654   0.709
10243TIP3   OH230685   3.764   5.564   4.190
10243TIP3    H130686   3.806   5.535   4.108
10243TIP3    H230687   3.723   5.647   4.168
10244TIP3   OH230688   5.554   4.743   1.889
10244TIP3    H130689   5.557   4.697   1.805
10244TIP3    H230690   5.508   4.825   1.870
10245TIP3   OH230691   6.711   2.235   4.461
10245TIP3    H130692   6.694   2.220   4.368
10245TIP3    H230693   6.793   2.284   4.464
10246TIP3   OH230694   1.863   4.965   1.401
10246TIP3    H130695   1.842   5.022   1.327
10246TIP3    H230696   1.779   4.949   1.444
10247TIP3   OH230697   2.308   4.722   6.470
10247TIP3    H130698   2.270   4.733   6.382
10247TIP3    H230699   2.236   4.739   6.530
10248TIP3   OH230700   7.473   6.252   0.307
10248TIP3    H130701   7.450   6.278   0.218
10248TIP3    H230702   7.568   6.257   0.310
10249TIP3   OH230703   5.290   4.944   4.017
10249TIP3    H130704   5.262   4.873   3.960
10249TIP3    H230705   5.256   5.024   3.976
10250TIP3   OH230706   1.331   5.626   1.634
10250TIP3    H130707   1.271   5.571   1.584
10250TIP3    H230708   1.281   5.652   1.711
10251TIP3   OH230709   6.199   1.351   3.608
10251TIP3    H130710   6.150   1.383   3.532
10251TIP3    H230711   6.290   1.374   3.590
10252TIP3   OH230712   3.723   0.971   3.432
10252TIP3    H130713   3.762   1.058   3.434
10252TIP3    H230714   3.633   0.985   3.402
10253TIP3   OH230715   3.367   6.281   4.519
10253TIP3    H130716   3.388   6.267   4.611
10253TIP3    H230717   3.443   6.329   4.485
10254TIP3   OH230718   2.569   7.306   5.090
10254TIP3    H130719   2.620   7.285   5.011
10254TIP3    H230720   2.480   7.319   5.058
10255TIP3   OH230721   5.770   0.265   4.870
10255TIP3    H130722   5.776   0.341   4.928
10255TIP3    H230723   5.745   0.301   4.785
10256TIP3   OH230724   5.618   6.705   5.880
10256TIP3    H130725   5.645   6.732   5.968
10256TIP3    H230726   5.552   6.637   5.896
10257TIP3   OH230727   5.195   4.214   5.900
10257TIP3    H130728   5.204   4.135   5.848
10257TIP3    H230729   5.104   4.241   5.888
10258TIP3   OH230730   1.911   5.371   5.976
10258TIP3    H130731   1.976   5.389   6.045
10258TIP3    H230732   1.840   5.325   6.022
10259TIP3   OH230733   7.769   5.555   3.931
10259TIP3    H130734   7.691   5.504   3.912
10259TIP3    H230735   7.782   5.545   4.025
10260TIP3   OH230736   1.499   3.531   6.646
10260TIP3    H130737   1.508   3.465   6.577
10260TIP3    H230738   1.585   3.574   6.648
10261TIP3   OH230739   3.976   5.091   4.640
10261TIP3    H130740   4.007   5.036   4.712
10261TIP3    H230741   4.039   5.076   4.569
10262TIP3   OH230742   2.160   7.749   1.116
10262TIP3    H130743   2.090   7.766   1.179
10262TIP3    H230744   2.120   7.764   1.031
10263TIP3   OH230745   3.786   0.729   4.222
10263TIP3    H130746   3.724   0.672   4.268
10263TIP3    H230747   3.862   0.732   4.279
10264TIP3   OH230748   6.570   4.390   2.996
10264TIP3    H130749   6.488   4.376   3.044
10264TIP3    H230750   6.637   4.346   3.048
10265TIP3   OH230751   5.891   1.088   3.739
10265TIP3    H130752   5.812   1.042   3.766
10265TIP3    H230753   5.933   1.030   3.675
10266TIP3   OH230754   4.994   7.306   3.687
10266TIP3    H130755   5.018   7.220   3.651
10266TIP3    H230756   4.909   7.325   3.647
10267TIP3   OH230757   1.268   2.060   2.918
10267TIP3    H130758   1.176   2.040   2.938
10267TIP3    H230759   1.318   2.003   2.976
10268TIP3   OH230760   4.193   1.093   1.367
10268TIP3    H130761   4.179   1.004   1.399
10268TIP3    H230762   4.110   1.118   1.325
10269TIP3   OH230763   4.224   2.212   0.111
10269TIP3    H130764   4.297   2.240   0.166
10269TIP3    H230765   4.170   2.291   0.102
10270TIP3   OH230766   0.141   1.417   1.832
10270TIP3    H130767   0.214   1.468   1.796
10270TIP3    H230768   0.107   1.367   1.757
10271TIP3   OH230769   5.687   4.543   4.206
10271TIP3    H130770   5.626   4.588   4.264
10271TIP3    H230771   5.658   4.565   4.117
10272TIP3   OH230772   0.863   5.725   5.138
10272TIP3    H130773   0.825   5.739   5.051
10272TIP3    H230774   0.802   5.770   5.198
10273TIP3   OH230775   1.427   5.174   1.989
10273TIP3    H130776   1.521   5.158   1.982
10273TIP3    H230777   1.387   5.087   1.987
10274TIP3   OH230778   5.006   5.609   5.348
10274TIP3    H130779   5.077   5.551   5.322
10274TIP3    H230780   4.929   5.574   5.304
10275TIP3   OH230781   0.693   5.155   0.348
10275TIP3    H130782   0.711   5.158   0.254
10275TIP3    H230783   0.771   5.115   0.386
10276TIP3   OH230784   5.909   4.853   2.576
10276TIP3    H130785   5.914   4.885   2.486
10276TIP3    H230786   5.941   4.926   2.629
10277TIP3   OH230787   6.686   7.243   1.654
10277TIP3    H130788   6.653   7.229   1.565
10277TIP3    H230789   6.776   7.209   1.652
10278TIP3   OH230790   0.982   5.976   5.941
10278TIP3    H130791   0.889   5.987   5.921
10278TIP3    H230792   1.006   6.056   5.988
10279TIP3   OH230793   2.066   6.856   5.646
10279TIP3    H130794   2.147   6.840   5.598
10279TIP3    H230795   1.997   6.837   5.582
10280TIP3   OH230796   4.563   0.520   5.145
10280TIP3    H130797   4.612   0.486   5.070
10280TIP3    H230798   4.580   0.457   5.215
10281TIP3   OH230799   3.131   2.117   1.733
10281TIP3    H130800   3.055   2.061   1.717
10281TIP3    H230801   3.206   2.059   1.724
10282TIP3   OH230802   2.535   0.702   4.386
10282TIP3    H130803   2.467   0.678   4.449
10282TIP3    H230804   2.613   0.718   4.439
10283TIP3   OH230805   6.125   2.352   6.005
10283TIP3    H130806   6.030   2.354   5.993
10283TIP3    H230807   6.151   2.266   5.972
10284TIP3   OH230808   1.428   1.503   6.639
10284TIP3    H130809   1.405   1.411   6.652
10284TIP3    H230810   1.390   1.526   6.555
10285TIP3   OH230811   7.735   5.686   2.207
10285TIP3    H130812   7.771   5.627   2.141
10285TIP3    H230813   7.797   5.683   2.279
10286TIP3   OH230814   3.458   0.623   2.194
10286TIP3    H130815   3.408   0.565   2.252
10286TIP3    H230816   3.394   0.687   2.163
10287TIP3   OH230817   5.267   6.254   1.946
10287TIP3    H130818   5.276   6.313   1.871
10287TIP3    H230819   5.339   6.192   1.937
10288TIP3   OH230820   5.712   4.378   4.492
10288TIP3    H130821   5.761   4.453   4.525
10288TIP3    H230822   5.620   4.405   4.500
10289TIP3   OH230823   7.287   6.531   6.174
10289TIP3    H130824   7.337   6.612   6.161
10289TIP3    H230825   7.325   6.492   6.252
10290TIP3   OH230826   4.324   6.688   1.604
10290TIP3    H130827   4.269   6.623   1.646
10290TIP3    H230828   4.273   6.769   1.607
10291TIP3   OH230829   4.525   5.595   3.448
10291TIP3    H130830   4.565   5.509   3.438
10291TIP3    H230831   4.570   5.633   3.523
10292TIP3   OH230832   2.862   4.830   5.963
10292TIP3    H130833   2.947   4.853   5.923
10292TIP3    H230834   2.814   4.786   5.893
10293TIP3   OH230835   1.857   4.159   5.466
10293TIP3    H130836   1.892   4.073   5.489
10293TIP3    H230837   1.901   4.182   5.384
10294TIP3   OH230838   7.961   2.965   0.395
10294TIP3    H130839   7.890   2.950   0.457
10294TIP3    H230840   7.940   2.909   0.321
10295TIP3   OH230841   0.740   2.658   4.521
10295TIP3    H130842   0.645   2.658   4.535
10295TIP3    H230843   0.769   2.741   4.559
10296TIP3   OH230844   7.655   7.770   1.009
10296TIP3    H130845   7.684   7.746   1.096
10296TIP3    H230846   7.646   7.687   0.963
10297TIP3   OH230847   4.929   1.860   2.485
10297TIP3    H130848   4.870   1.848   2.559
10297TIP3    H230849   4.887   1.814   2.413
10298TIP3   OH230850   1.203   2.893   3.752
10298TIP3    H130851   1.178   2.809   3.792
10298TIP3    H230852   1.271   2.870   3.689
10299TIP3   OH230853   4.278   7.025   3.408
10299TIP3    H130854   4.210   7.014   3.475
10299TIP3    H230855   4.285   6.939   3.366
10300TIP3   OH230856   7.248   7.478   4.877
10300TIP3    H130857   7.340   7.471   4.900
10300TIP3    H230858   7.225   7.568   4.899
10301TIP3   OH230859   3.936   1.438   3.483
10301TIP3    H130860   3.952   1.494   3.407
10301TIP3    H230861   3.952   1.495   3.559
10302TIP3   OH230862   1.018   4.286   2.407
10302TIP3    H130863   1.062   4.304   2.323
10302TIP3    H230864   0.985   4.372   2.435
10303TIP3   OH230865   2.348   2.342   2.946
10303TIP3    H130866   2.300   2.298   2.875
10303TIP3    H230867   2.412   2.277   2.975
10304TIP3   OH230868   2.785   5.086   4.068
10304TIP3    H130869   2.800   5.065   4.160
10304TIP3    H230870   2.713   5.028   4.042
10305TIP3   OH230871   1.351   0.898   6.051
10305TIP3    H130872   1.298   0.823   6.077
10305TIP3    H230873   1.356   0.953   6.130
10306TIP3   OH230874   5.540   0.405   2.106
10306TIP3    H130875   5.597   0.377   2.034
10306TIP3    H230876   5.567   0.352   2.181
10307TIP3   OH230877   2.956   1.732   4.306
10307TIP3    H130878   2.985   1.797   4.370
10307TIP3    H230879   2.973   1.647   4.348
10308TIP3   OH230880   5.016   3.844   3.279
10308TIP3    H130881   5.072   3.922   3.282
10308TIP3    H230882   4.942   3.866   3.336
10309TIP3   OH230883   3.575   7.482   6.603
10309TIP3    H130884   3.636   7.434   6.659
10309TIP3    H230885   3.500   7.423   6.593
10310TIP3   OH230886   2.364   3.266   6.590
10310TIP3    H130887   2.295   3.278   6.656
10310TIP3    H230888   2.361   3.346   6.538
10311TIP3   OH230889   2.330   5.534   3.621
10311TIP3    H130890   2.370   5.453   3.652
10311TIP3    H230891   2.342   5.532   3.526
10312TIP3   OH230892   7.324   0.516   4.093
10312TIP3    H130893   7.379   0.506   4.171
10312TIP3    H230894   7.332   0.432   4.048
10313TIP3   OH230895   2.367   6.924   6.114
10313TIP3    H130896   2.377   6.902   6.022
10313TIP3    H230897   2.277   6.897   6.135
10314TIP3   OH230898   3.466   0.499   5.545
10314TIP3    H130899   3.384   0.453   5.527
10314TIP3    H230900   3.448   0.547   5.626
10315TIP3   OH230901   4.998   0.387   5.319
10315TIP3    H130902   5.022   0.436   5.241
10315TIP3    H230903   5.078   0.341   5.344
10316TIP3   OH230904   4.729   4.654   4.040
10316TIP3    H130905   4.767   4.739   4.063
10316TIP3    H230906   4.650   4.648   4.094
10317TIP3   OH230907   1.033   5.889   3.531
10317TIP3    H130908   1.011   5.856   3.618
10317TIP3    H230909   1.128   5.898   3.532
10318TIP3   OH230910   1.939   4.978   0.355
10318TIP3    H130911   2.015   4.924   0.376
10318TIP3    H230912   1.956   5.011   0.267
10319TIP3   OH230913   5.582   5.777   5.606
10319TIP3    H130914   5.527   5.721   5.661
10319TIP3    H230915   5.601   5.853   5.661
10320TIP3   OH230916   4.315   7.561   3.351
10320TIP3    H130917   4.409   7.576   3.340
10320TIP3    H230918   4.307   7.465   3.358
10321TIP3   OH230919   5.885   6.197   3.684
10321TIP3    H130920   5.848   6.109   3.691
10321TIP3    H230921   5.816   6.255   3.718
10322TIP3   OH230922   0.258   2.699   3.850
10322TIP3    H130923   0.226   2.624   3.800
10322TIP3    H230924   0.329   2.664   3.903
10323TIP3   OH230925   2.584   6.225   3.326
10323TIP3    H130926   2.523   6.171   3.276
10323TIP3    H230927   2.528   6.282   3.379
10324TIP3   OH230928   7.597   3.227   3.774
10324TIP3    H130929   7.656   3.195   3.842
10324TIP3    H230930   7.618   3.173   3.697
10325TIP3   OH230931   4.185   4.879   1.693
10325TIP3    H130932   4.103   4.925   1.710
10325TIP3    H230933   4.199   4.889   1.599
10326TIP3   OH230934   7.501   1.885   0.164
10326TIP3    H130935   7.414   1.922   0.178
10326TIP3    H230936   7.514   1.890   0.070
10327TIP3   OH230937   7.296   0.442   4.605
10327TIP3    H130938   7.362   0.418   4.670
10327TIP3    H230939   7.215   0.455   4.655
10328TIP3   OH230940   2.327   6.319   5.081
10328TIP3    H130941   2.257   6.294   5.021
10328TIP3    H230942   2.286   6.377   5.145
10329TIP3   OH230943   2.449   7.337   6.157
10329TIP3    H130944   2.355   7.349   6.165
10329TIP3    H230945   2.486   7.418   6.191
10330TIP3   OH230946   5.408   6.394   6.711
10330TIP3    H130947   5.500   6.389   6.734
10330TIP3    H230948   5.368   6.320   6.757
10331TIP3   OH230949   7.113   5.371   6.742
10331TIP3    H130950   7.206   5.393   6.748
10331TIP3    H230951   7.087   5.402   6.655
10332TIP3   OH230952   3.715   4.576   3.375
10332TIP3    H130953   3.661   4.497   3.375
10332TIP3    H230954   3.692   4.622   3.294
10333TIP3   OH230955   3.631   0.552   1.824
10333TIP3    H130956   3.658   0.514   1.908
10333TIP3    H230957   3.609   0.642   1.845
10334TIP3   OH230958   5.022   7.064   4.407
10334TIP3    H130959   5.030   7.138   4.467
10334TIP3    H230960   5.060   6.990   4.454
10335TIP3   OH230961   1.908   1.645   2.722
10335TIP3    H130962   2.001   1.668   2.728
10335TIP3    H230963   1.907   1.549   2.718
10336TIP3   OH230964   4.695   6.029   6.256
10336TIP3    H130965   4.665   6.026   6.165
10336TIP3    H230966   4.620   5.998   6.307
10337TIP3   OH230967   5.483   0.113   4.990
10337TIP3    H130968   5.442   0.027   4.985
10337TIP3    H230969   5.422   0.166   5.041
10338TIP3   OH230970   0.410   1.252   0.548
10338TIP3    H130971   0.329   1.220   0.586
10338TIP3    H230972   0.423   1.338   0.587
10339TIP3   OH230973   1.244   0.625   1.452
10339TIP3    H130974   1.277   0.660   1.534
10339TIP3    H230975   1.230   0.532   1.469
10340TIP3   OH230976   5.757   7.161   5.000
10340TIP3    H130977   5.740   7.165   5.094
10340TIP3    H230978   5.851   7.173   4.992
10341TIP3   OH230979   3.427   2.319   4.160
10341TIP3    H130980   3.394   2.408   4.170
10341TIP3    H230981   3.490   2.324   4.089
10342TIP3   OH230982   3.886   3.494   3.902
10342TIP3    H130983   3.810   3.530   3.947
10342TIP3    H230984   3.958   3.502   3.964
10343TIP3   OH230985   4.462   5.882   1.838
10343TIP3    H130986   4.412   5.806   1.807
10343TIP3    H230987   4.421   5.905   1.921
10344TIP3   OH230988   0.995   6.394   0.461
10344TIP3    H130989   1.015   6.487   0.452
10344TIP3    H230990   0.957   6.370   0.377
10345TIP3   OH230991   5.270   5.944   4.494
10345TIP3    H130992   5.212   5.870   4.473
10345TIP3    H230993   5.299   5.977   4.409
10346TIP3   OH230994   0.328   0.517   4.814
10346TIP3    H130995   0.423   0.511   4.811
10346TIP3    H230996   0.298   0.462   4.742
10347TIP3   OH230997   5.957   4.522   2.055
10347TIP3    H130998   6.035   4.528   1.999
10347TIP3    H230999   5.945   4.429   2.069
10348TIP3   OH231000   2.218   7.573   3.350
10348TIP3    H131001   2.124   7.560   3.335
10348TIP3    H231002   2.228   7.668   3.355
10349TIP3   OH231003   2.526   3.979   4.181
10349TIP3    H131004   2.585   3.958   4.109
10349TIP3    H231005   2.564   3.935   4.257
10350TIP3   OH231006   3.528   4.985   2.088
10350TIP3    H131007   3.527   5.017   2.178
10350TIP3    H231008   3.489   4.898   2.093
10351TIP3   OH231009   6.788   2.824   1.014
10351TIP3    H131010   6.803   2.770   1.091
10351TIP3    H231011   6.785   2.914   1.048
10352TIP3   OH231012   3.197   4.220   6.503
10352TIP3    H131013   3.282   4.261   6.516
10352TIP3    H231014   3.215   4.126   6.502
10353TIP3   OH231015   7.299   4.829   4.840
10353TIP3    H131016   7.244   4.802   4.766
10353TIP3    H231017   7.246   4.810   4.917
10354TIP3   OH231018   3.909   1.702   6.051
10354TIP3    H131019   3.886   1.656   5.970
10354TIP3    H231020   3.850   1.664   6.117
10355TIP3   OH231021   3.921   6.918   3.774
10355TIP3    H131022   3.995   6.906   3.835
10355TIP3    H231023   3.876   6.834   3.776
10356TIP3   OH231024   1.444   0.295   2.966
10356TIP3    H131025   1.492   0.362   2.918
10356TIP3    H231026   1.471   0.212   2.927
10357TIP3   OH231027   6.482   1.174   0.529
10357TIP3    H131028   6.565   1.184   0.482
10357TIP3    H231029   6.498   1.215   0.614
10358TIP3   OH231030   3.397   1.515   2.088
10358TIP3    H131031   3.324   1.502   2.026
10358TIP3    H231032   3.358   1.500   2.174
10359TIP3   OH231033   5.254   6.875   4.499
10359TIP3    H131034   5.299   6.828   4.428
10359TIP3    H231035   5.294   6.962   4.498
10360TIP3   OH231036   2.632   0.217   2.620
10360TIP3    H131037   2.705   0.278   2.609
10360TIP3    H231038   2.598   0.204   2.532
10361TIP3   OH231039   6.957   3.374   0.988
10361TIP3    H131040   7.014   3.450   0.974
10361TIP3    H231041   6.903   3.369   0.909
10362TIP3   OH231042   3.750   0.049   3.579
10362TIP3    H131043   3.757  -0.045   3.565
10362TIP3    H231044   3.752   0.086   3.490
10363TIP3   OH231045   1.934   6.011   0.924
10363TIP3    H131046   1.886   6.003   0.841
10363TIP3    H231047   1.895   6.088   0.967
10364TIP3   OH231048   0.427   5.989   5.675
10364TIP3    H131049   0.520   6.013   5.668
10364TIP3    H231050   0.422   5.903   5.633
10365TIP3   OH231051   6.168   0.617   6.411
10365TIP3    H131052   6.177   0.710   6.432
10365TIP3    H231053   6.137   0.615   6.321
10366TIP3   OH231054   1.560   7.002   1.988
10366TIP3    H131055   1.591   7.025   2.075
10366TIP3    H231056   1.638   6.968   1.944
10367TIP3   OH231057   3.554   5.776   5.867
10367TIP3    H131058   3.568   5.801   5.776
10367TIP3    H231059   3.630   5.724   5.890
10368TIP3   OH231060   2.935   3.868   1.770
10368TIP3    H131061   3.031   3.866   1.761
10368TIP3    H231062   2.902   3.881   1.682
10369TIP3   OH231063   4.567   2.101   2.957
10369TIP3    H131064   4.472   2.087   2.956
10369TIP3    H231065   4.597   2.050   3.033
10370TIP3   OH231066   5.330   1.710   4.334
10370TIP3    H131067   5.237   1.696   4.351
10370TIP3    H231068   5.371   1.624   4.348
10371TIP3   OH231069   0.786   1.015   2.779
10371TIP3    H131070   0.771   1.091   2.835
10371TIP3    H231071   0.700   0.995   2.743
10372TIP3   OH231072   1.952   7.780   5.949
10372TIP3    H131073   1.889   7.811   6.014
10372TIP3    H231074   1.899   7.737   5.882
10373TIP3   OH231075   1.912   0.297   6.228
10373TIP3    H131076   1.916   0.215   6.178
10373TIP3    H231077   1.831   0.291   6.278
10374TIP3   OH231078   4.234   1.507   3.606
10374TIP3    H131079   4.152   1.555   3.610
10374TIP3    H231080   4.285   1.551   3.538
10375TIP3   OH231081   6.857   2.658   5.135
10375TIP3    H131082   6.887   2.748   5.148
10375TIP3    H231083   6.937   2.605   5.140
10376TIP3   OH231084   5.665   1.323   4.766
10376TIP3    H131085   5.598   1.292   4.827
10376TIP3    H231086   5.739   1.345   4.822
10377TIP3   OH231087   2.928   2.728   3.832
10377TIP3    H131088   2.895   2.752   3.746
10377TIP3    H231089   2.852   2.693   3.878
10378TIP3   OH231090   2.829   1.700   4.630
10378TIP3    H131091   2.755   1.639   4.633
10378TIP3    H231092   2.799   1.770   4.571
10379TIP3   OH231093   1.017   2.469   0.428
10379TIP3    H131094   1.113   2.471   0.419
10379TIP3    H231095   0.986   2.540   0.373
10380TIP3   OH231096   4.972   2.264   1.337
10380TIP3    H131097   5.056   2.294   1.372
10380TIP3    H231098   4.984   2.263   1.242
10381TIP3   OH231099   2.090   0.652   3.918
10381TIP3    H131100   2.146   0.575   3.910
10381TIP3    H231101   2.056   0.649   4.007
10382TIP3   OH231102   7.139   4.526   4.862
10382TIP3    H131103   7.055   4.566   4.886
10382TIP3    H231104   7.118   4.473   4.785
10383TIP3   OH231105   3.104   7.434   4.019
10383TIP3    H131106   3.139   7.361   3.968
10383TIP3    H231107   3.181   7.479   4.053
10384TIP3   OH231108   6.528   1.664   1.012
10384TIP3    H131109   6.468   1.604   0.966
10384TIP3    H231110   6.615   1.636   0.985
10385TIP3   OH231111   7.059   5.454   1.280
10385TIP3    H131112   7.047   5.451   1.375
10385TIP3    H231113   7.055   5.547   1.258
10386TIP3   OH231114   5.356   2.493   3.982
10386TIP3    H131115   5.365   2.559   3.914
10386TIP3    H231116   5.377   2.410   3.938
10387TIP3   OH231117   3.224   6.610   2.248
10387TIP3    H131118   3.198   6.675   2.312
10387TIP3    H231119   3.190   6.527   2.282
10388TIP3   OH231120   2.151   3.256   0.795
10388TIP3    H131121   2.228   3.201   0.780
10388TIP3    H231122   2.084   3.196   0.827
10389TIP3   OH231123   0.770   2.361   2.691
10389TIP3    H131124   0.865   2.370   2.704
10389TIP3    H231125   0.732   2.417   2.758
10390TIP3   OH231126   2.048   2.758   1.371
10390TIP3    H131127   2.024   2.847   1.348
10390TIP3    H231128   2.068   2.762   1.465
10391TIP3   OH231129   4.060   4.669   1.408
10391TIP3    H131130   4.139   4.720   1.391
10391TIP3    H231131   4.001   4.729   1.453
10392TIP3   OH231132   3.395   0.375   3.875
10392TIP3    H131133   3.470   0.366   3.815
10392TIP3    H231134   3.407   0.305   3.939
10393TIP3   OH231135   4.154   4.530   3.523
10393TIP3    H131136   4.089   4.479   3.474
10393TIP3    H231137   4.162   4.484   3.607
10394TIP3   OH231138   7.121   2.273   2.312
10394TIP3    H131139   7.217   2.269   2.311
10394TIP3    H231140   7.095   2.255   2.222
10395TIP3   OH231141   1.141   0.154   3.223
10395TIP3    H131142   1.186   0.157   3.308
10395TIP3    H231143   1.183   0.082   3.176
10396TIP3   OH231144   0.783   0.650   6.359
10396TIP3    H131145   0.709   0.648   6.418
10396TIP3    H231146   0.838   0.722   6.390
10397TIP3   OH231147   2.446   4.478   4.102
10397TIP3    H131148   2.446   4.535   4.025
10397TIP3    H231149   2.414   4.394   4.069
10398TIP3   OH231150   4.862   6.445   5.807
10398TIP3    H131151   4.923   6.485   5.870
10398TIP3    H231152   4.792   6.409   5.861
10399TIP3   OH231153   2.247   0.609   1.826
10399TIP3    H131154   2.304   0.612   1.903
10399TIP3    H231155   2.308   0.603   1.752
10400TIP3   OH231156   7.538   1.468   1.778
10400TIP3    H131157   7.571   1.556   1.758
10400TIP3    H231158   7.447   1.482   1.804
10401TIP3   OH231159   2.241   2.419   0.683
10401TIP3    H131160   2.196   2.407   0.767
10401TIP3    H231161   2.170   2.435   0.620
10402TIP3   OH231162   4.185   1.399   1.072
10402TIP3    H131163   4.101   1.422   1.112
10402TIP3    H231164   4.213   1.322   1.121
10403TIP3   OH231165   7.684   5.050   5.337
10403TIP3    H131166   7.639   5.118   5.287
10403TIP3    H231167   7.621   4.978   5.342
10404TIP3   OH231168   6.119   3.635   5.559
10404TIP3    H131169   6.101   3.551   5.601
10404TIP3    H231170   6.039   3.655   5.510
10405TIP3   OH231171   0.086   6.236   1.945
10405TIP3    H131172   0.001   6.203   1.975
10405TIP3    H231173   0.073   6.256   1.853
10406TIP3   OH231174   5.221   2.701   6.065
10406TIP3    H131175   5.266   2.710   5.981
10406TIP3    H231176   5.289   2.717   6.130
10407TIP3   OH231177   7.335   1.235   5.019
10407TIP3    H131178   7.382   1.177   4.959
10407TIP3    H231179   7.384   1.317   5.016
10408TIP3   OH231180   0.181   7.346   2.858
10408TIP3    H131181   0.225   7.277   2.809
10408TIP3    H231182   0.240   7.421   2.851
10409TIP3   OH231183   0.205   3.245   3.440
10409TIP3    H131184   0.218   3.153   3.414
10409TIP3    H231185   0.135   3.276   3.383
10410TIP3   OH231186   1.244   0.158   1.307
10410TIP3    H131187   1.264   0.085   1.249
10410TIP3    H231188   1.243   0.235   1.249
10411TIP3   OH231189   1.721   4.425   5.427
10411TIP3    H131190   1.693   4.474   5.504
10411TIP3    H231191   1.729   4.335   5.458
10412TIP3   OH231192   8.080   1.694   4.583
10412TIP3    H131193   8.112   1.662   4.498
10412TIP3    H231194   8.054   1.785   4.566
10413TIP3   OH231195   7.832   2.777   6.606
10413TIP3    H131196   7.850   2.851   6.548
10413TIP3    H231197   7.879   2.704   6.566
10414TIP3   OH231198   1.489   3.876   0.641
10414TIP3    H131199   1.518   3.960   0.676
10414TIP3    H231200   1.429   3.899   0.570
10415TIP3   OH231201   8.001   7.358   1.321
10415TIP3    H131202   7.913   7.381   1.291
10415TIP3    H231203   7.998   7.263   1.331
10416TIP3   OH231204   6.951   5.732   3.350
10416TIP3    H131205   6.978   5.813   3.391
10416TIP3    H231206   6.958   5.666   3.419
10417TIP3   OH231207   4.756   5.844   0.911
10417TIP3    H131208   4.712   5.916   0.865
10417TIP3    H231209   4.764   5.875   1.001
10418TIP3   OH231210   1.002   3.427   4.521
10418TIP3    H131211   1.032   3.464   4.438
10418TIP3    H231212   1.063   3.463   4.586
10419TIP3   OH231213   3.634   3.073   1.410
10419TIP3    H131214   3.617   3.163   1.381
10419TIP3    H231215   3.727   3.059   1.391
10420TIP3   OH231216   4.622   5.798   0.276
10420TIP3    H131217   4.578   5.745   0.210
10420TIP3    H231218   4.683   5.737   0.319
10421TIP3   OH231219   0.723   0.382   6.677
10421TIP3    H131220   0.740   0.324   6.751
10421TIP3    H231221   0.700   0.323   6.605
10422TIP3   OH231222   2.485   1.568   5.012
10422TIP3    H131223   2.501   1.579   5.106
10422TIP3    H231224   2.390   1.562   5.005
10423TIP3   OH231225   6.161   4.673   0.259
10423TIP3    H131226   6.224   4.703   0.194
10423TIP3    H231227   6.148   4.749   0.316
10424TIP3   OH231228   5.999   5.015   4.622
10424TIP3    H131229   6.002   4.922   4.645
10424TIP3    H231230   5.979   5.016   4.529
10425TIP3   OH231231   0.840   6.484   2.040
10425TIP3    H131232   0.848   6.526   2.125
10425TIP3    H231233   0.925   6.496   1.999
10426TIP3   OH231234   0.033   7.462   0.223
10426TIP3    H131235   0.127   7.450   0.205
10426TIP3    H231236  -0.007   7.472   0.137
10427TIP3   OH231237   4.027   0.258   0.187
10427TIP3    H131238   4.030   0.348   0.219
10427TIP3    H231239   3.941   0.227   0.212
10428TIP3   OH231240   7.918   5.296   5.674
10428TIP3    H131241   7.984   5.254   5.619
10428TIP3    H231242   7.888   5.227   5.733
10429TIP3   OH231243   3.509   6.080   3.939
10429TIP3    H131244   3.447   6.138   3.984
10429TIP3    H231245   3.577   6.139   3.906
10430TIP3   OH231246   3.854   5.776   2.409
10430TIP3    H131247   3.771   5.791   2.365
10430TIP3    H231248   3.835   5.709   2.475
10431TIP3   OH231249   6.991   5.336   1.849
10431TIP3    H131250   6.903   5.326   1.814
10431TIP3    H231251   7.002   5.262   1.908
10432TIP3   OH231252   2.623   3.419   1.965
10432TIP3    H131253   2.683   3.485   1.930
10432TIP3    H231254   2.608   3.358   1.892
10433TIP3   OH231255   4.441   3.703   4.758
10433TIP3    H131256   4.534   3.706   4.734
10433TIP3    H231257   4.396   3.743   4.683
10434TIP3   OH231258   1.936   3.314   5.106
10434TIP3    H131259   1.884   3.375   5.054
10434TIP3    H231260   1.993   3.271   5.043
10435TIP3   OH231261   6.956   0.134   4.057
10435TIP3    H131262   6.937   0.086   4.138
10435TIP3    H231263   6.953   0.226   4.082
10436TIP3   OH231264   3.366   2.585   5.314
10436TIP3    H131265   3.317   2.649   5.261
10436TIP3    H231266   3.328   2.500   5.289
10437TIP3   OH231267   0.456   2.599   3.063
10437TIP3    H131268   0.444   2.549   3.144
10437TIP3    H231269   0.380   2.577   3.010
10438TIP3   OH231270   3.886   1.273   0.050
10438TIP3    H131271   3.872   1.266   0.144
10438TIP3    H231272   3.830   1.205   0.012
10439TIP3   OH231273   0.658   5.257   4.137
10439TIP3    H131274   0.704   5.228   4.215
10439TIP3    H231275   0.606   5.332   4.166
10440TIP3   OH231276   5.631   5.350   4.826
10440TIP3    H131277   5.670   5.270   4.790
10440TIP3    H231278   5.544   5.354   4.788
10441TIP3   OH231279   6.424   5.416   4.890
10441TIP3    H131280   6.381   5.496   4.860
10441TIP3    H231281   6.476   5.444   4.965
10442TIP3   OH231282   1.432   6.574   3.989
10442TIP3    H131283   1.379   6.538   4.060
10442TIP3    H231284   1.398   6.532   3.910
10443TIP3   OH231285   0.515   3.838   6.242
10443TIP3    H131286   0.448   3.871   6.302
10443TIP3    H231287   0.468   3.782   6.181
10444TIP3   OH231288   2.659   0.717   5.486
10444TIP3    H131289   2.701   0.689   5.405
10444TIP3    H231290   2.702   0.799   5.509
10445TIP3   OH231291   1.824   5.237   5.137
10445TIP3    H131292   1.741   5.190   5.138
10445TIP3    H231293   1.885   5.179   5.181
10446TIP3   OH231294   6.600   3.218   5.179
10446TIP3    H131295   6.556   3.182   5.102
10446TIP3    H231296   6.547   3.293   5.205
10447TIP3   OH231297   1.469   2.376   4.468
10447TIP3    H131298   1.387   2.339   4.499
10447TIP3    H231299   1.489   2.445   4.531
10448TIP3   OH231300   0.723   6.779   6.314
10448TIP3    H131301   0.654   6.836   6.280
10448TIP3    H231302   0.773   6.833   6.374
10449TIP3   OH231303   5.761   0.549   5.444
10449TIP3    H131304   5.792   0.462   5.418
10449TIP3    H231305   5.686   0.531   5.501
10450TIP3   OH231306   4.323   2.228   4.069
10450TIP3    H131307   4.248   2.189   4.025
10450TIP3    H231308   4.391   2.232   4.002
10451TIP3   OH231309   2.037   4.851   3.570
10451TIP3    H131310   1.984   4.797   3.629
10451TIP3    H231311   2.058   4.794   3.497
10452TIP3   OH231312   5.391   4.401   1.059
10452TIP3    H131313   5.471   4.418   1.108
10452TIP3    H231314   5.320   4.418   1.121
10453TIP3   OH231315   3.908   7.688   3.623
10453TIP3    H131316   3.836   7.626   3.633
10453TIP3    H231317   3.878   7.768   3.664
10454TIP3   OH231318   0.928   0.569   2.082
10454TIP3    H131319   1.018   0.565   2.049
10454TIP3    H231320   0.936   0.600   2.172
10455TIP3   OH231321   6.587   0.539   2.582
10455TIP3    H131322   6.579   0.514   2.490
10455TIP3    H231323   6.625   0.626   2.580
10456TIP3   OH231324   5.288   3.501   0.064
10456TIP3    H131325   5.243   3.551  -0.005
10456TIP3    H231326   5.234   3.423   0.075
10457TIP3   OH231327   0.092   1.448   1.343
10457TIP3    H131328   0.135   1.375   1.297
10457TIP3    H231329   0.086   1.517   1.277
10458TIP3   OH231330   1.593   3.425   3.702
10458TIP3    H131331   1.677   3.389   3.732
10458TIP3    H231332   1.603   3.432   3.607
10459TIP3   OH231333   5.820   3.118   5.868
10459TIP3    H131334   5.764   3.041   5.875
10459TIP3    H231335   5.815   3.143   5.776
10460TIP3   OH231336   6.836   2.106   2.491
10460TIP3    H131337   6.836   2.130   2.584
10460TIP3    H231338   6.929   2.101   2.468
10461TIP3   OH231339   7.693   4.596   6.404
10461TIP3    H131340   7.646   4.678   6.420
10461TIP3    H231341   7.762   4.595   6.470
10462TIP3   OH231342   5.272   0.598   3.147
10462TIP3    H131343   5.235   0.643   3.071
10462TIP3    H231344   5.201   0.597   3.211
10463TIP3   OH231345   5.157   6.128   5.958
10463TIP3    H131346   5.108   6.094   6.032
10463TIP3    H231347   5.116   6.213   5.939
10464TIP3   OH231348   7.292   6.709   5.831
10464TIP3    H131349   7.361   6.714   5.897
10464TIP3    H231350   7.332   6.660   5.759
10465TIP3   OH231351   3.707   1.923   4.655
10465TIP3    H131352   3.740   1.844   4.698
10465TIP3    H231353   3.758   1.928   4.574
10466TIP3   OH231354   7.792   1.308   6.432
10466TIP3    H131355   7.801   1.376   6.498
10466TIP3    H231356   7.708   1.266   6.451
10467TIP3   OH231357   3.122   1.367   2.913
10467TIP3    H131358   3.212   1.377   2.882
10467TIP3    H231359   3.094   1.283   2.876
10468TIP3   OH231360   4.485   6.435   0.359
10468TIP3    H131361   4.431   6.374   0.310
10468TIP3    H231362   4.500   6.508   0.298
10469TIP3   OH231363   7.542   2.004   6.530
10469TIP3    H131364   7.454   1.978   6.502
10469TIP3    H231365   7.574   2.060   6.460
10470TIP3   OH231366   0.453   3.506   1.191
10470TIP3    H131367   0.390   3.550   1.134
10470TIP3    H231368   0.516   3.467   1.131
10471TIP3   OH231369   1.331   4.486   4.876
10471TIP3    H131370   1.387   4.563   4.868
10471TIP3    H231371   1.259   4.515   4.931
10472TIP3   OH231372   3.064   7.802   3.251
10472TIP3    H131373   3.061   7.810   3.346
10472TIP3    H231374   2.974   7.816   3.223
10473TIP3   OH231375   8.035   0.797   4.718
10473TIP3    H131376   8.100   0.852   4.761
10473TIP3    H231377   8.022   0.836   4.632
10474TIP3   OH231378   4.745   2.377   3.456
10474TIP3    H131379   4.839   2.360   3.448
10474TIP3    H231380   4.705   2.290   3.450
10475TIP3   OH231381   1.217   5.474   6.467
10475TIP3    H131382   1.163   5.398   6.443
10475TIP3    H231383   1.157   5.548   6.464
10476TIP3   OH231384   4.612   5.731   3.227
10476TIP3    H131385   4.707   5.719   3.235
10476TIP3    H231386   4.576   5.691   3.306
10477TIP3   OH231387   0.915   5.919   2.901
10477TIP3    H131388   0.873   5.941   2.984
10477TIP3    H231389   0.960   5.836   2.918
10478TIP3   OH231390   4.817   6.775   4.113
10478TIP3    H131391   4.845   6.865   4.130
10478TIP3    H231392   4.860   6.723   4.181
10479TIP3   OH231393   1.766   6.981   2.550
10479TIP3    H131394   1.788   7.014   2.463
10479TIP3    H231395   1.678   6.943   2.540
10480TIP3   OH231396   5.612   7.176   4.763
10480TIP3    H131397   5.669   7.189   4.839
10480TIP3    H231398   5.661   7.212   4.689
10481TIP3   OH231399   8.081   4.773   6.524
10481TIP3    H131400   8.162   4.721   6.529
10481TIP3    H231401   8.102   4.853   6.572
10482TIP3   OH231402   3.876   7.683   6.423
10482TIP3    H131403   3.876   7.744   6.497
10482TIP3    H231404   3.784   7.676   6.398
10483TIP3   OH231405   6.095   1.142   6.586
10483TIP3    H131406   6.120   1.229   6.557
10483TIP3    H231407   6.124   1.138   6.678
10484TIP3   OH231408   4.362   0.344   1.812
10484TIP3    H131409   4.416   0.421   1.793
10484TIP3    H231410   4.420   0.269   1.798
10485TIP3   OH231411   7.394   4.299   3.301
10485TIP3    H131412   7.420   4.226   3.357
10485TIP3    H231413   7.420   4.273   3.213
10486TIP3   OH231414   5.661   6.463   4.271
10486TIP3    H131415   5.645   6.555   4.252
10486TIP3    H231416   5.574   6.426   4.288
10487TIP3   OH231417   5.971   4.496   3.439
10487TIP3    H131418   6.022   4.519   3.517
10487TIP3    H231419   5.892   4.549   3.445
10488TIP3   OH231420   2.059   0.707   2.597
10488TIP3    H131421   2.040   0.614   2.585
10488TIP3    H231422   1.974   0.750   2.588
10489TIP3   OH231423   2.623   6.432   0.735
10489TIP3    H131424   2.705   6.383   0.742
10489TIP3    H231425   2.577   6.392   0.661
10490TIP3   OH231426   1.647   4.938   1.588
10490TIP3    H131427   1.564   4.894   1.572
10490TIP3    H231428   1.622   5.025   1.621
10491TIP3   OH231429   5.342   3.270   1.688
10491TIP3    H131430   5.354   3.353   1.734
10491TIP3    H231431   5.247   3.263   1.675
10492TIP3   OH231432   4.557   0.620   5.547
10492TIP3    H131433   4.640   0.663   5.568
10492TIP3    H231434   4.510   0.616   5.630
10493TIP3   OH231435   4.527   7.254   5.498
10493TIP3    H131436   4.547   7.334   5.449
10493TIP3    H231437   4.460   7.280   5.561
10494TIP3   OH231438   4.125   4.412   0.514
10494TIP3    H131439   4.115   4.356   0.591
10494TIP3    H231440   4.052   4.387   0.457
10495TIP3   OH231441   1.490   2.143   6.205
10495TIP3    H131442   1.409   2.116   6.248
10495TIP3    H231443   1.462   2.207   6.140
10496TIP3   OH231444   8.206   5.194   0.567
10496TIP3    H131445   8.222   5.221   0.658
10496TIP3    H231446   8.277   5.234   0.518
10497TIP3   OH231447   8.061   3.321   4.492
10497TIP3    H131448   8.050   3.315   4.586
10497TIP3    H231449   7.999   3.388   4.464
10498TIP3   OH231450   5.381   7.463   2.376
10498TIP3    H131451   5.361   7.556   2.370
10498TIP3    H231452   5.468   7.454   2.337
10499TIP3   OH231453   3.271   4.570   1.941
10499TIP3    H131454   3.236   4.651   1.904
10499TIP3    H231455   3.310   4.525   1.867
10500TIP3   OH231456   4.827   1.150   5.913
10500TIP3    H131457   4.784   1.199   5.843
10500TIP3    H231458   4.875   1.217   5.963
10501TIP3   OH231459   1.381   7.789   0.238
10501TIP3    H131460   1.318   7.860   0.250
10501TIP3    H231461   1.447   7.803   0.306
10502TIP3   OH231462   1.965   3.428   0.302
10502TIP3    H131463   1.929   3.358   0.357
10502TIP3    H231464   2.029   3.384   0.247
10503TIP3   OH231465   5.366   7.124   6.443
10503TIP3    H131466   5.337   7.177   6.517
10503TIP3    H231467   5.432   7.065   6.481
10504TIP3   OH231468   0.297   0.077   0.116
10504TIP3    H131469   0.319   0.151   0.060
10504TIP3    H231470   0.244   0.019   0.061
10505TIP3   OH231471   8.063   6.141   4.805
10505TIP3    H131472   8.088   6.179   4.721
10505TIP3    H231473   8.037   6.215   4.859
10506TIP3   OH231474   4.185   7.179   2.382
10506TIP3    H131475   4.188   7.183   2.478
10506TIP3    H231476   4.238   7.103   2.359
10507TIP3   OH231477   0.033   3.162   4.544
10507TIP3    H131478   0.063   3.194   4.459
10507TIP3    H231479  -0.046   3.212   4.562
10508TIP3   OH231480   5.284   3.053   0.074
10508TIP3    H131481   5.325   2.988   0.131
10508TIP3    H231482   5.238   3.001   0.007
10509TIP3   OH231483   7.926   0.998   0.286
10509TIP3    H131484   7.962   0.993   0.374
10509TIP3    H231485   7.996   1.035   0.232
10510TIP3   OH231486   3.179   3.448   5.194
10510TIP3    H131487   3.229   3.436   5.113
10510TIP3    H231488   3.093   3.411   5.175
10511TIP3   OH231489   6.074   0.897   2.014
10511TIP3    H131490   6.153   0.919   1.964
10511TIP3    H231491   6.086   0.941   2.098
10512TIP3   OH231492   6.724   0.000   0.585
10512TIP3    H131493   6.708   0.036   0.672
10512TIP3    H231494   6.818  -0.017   0.582
10513TIP3   OH231495   3.515   0.783   0.570
10513TIP3    H131496   3.524   0.770   0.664
10513TIP3    H231497   3.605   0.779   0.537
10514TIP3   OH231498   1.353   6.333   6.126
10514TIP3    H131499   1.280   6.302   6.071
10514TIP3    H231500   1.368   6.423   6.097
10515TIP3   OH231501   5.540   5.112   0.808
10515TIP3    H131502   5.469   5.069   0.761
10515TIP3    H231503   5.555   5.058   0.885
10516TIP3   OH231504   7.235   5.568   1.499
10516TIP3    H131505   7.250   5.507   1.571
10516TIP3    H231506   7.317   5.617   1.491
10517TIP3   OH231507   1.783   4.879   1.049
10517TIP3    H131508   1.805   4.965   1.083
10517TIP3    H231509   1.825   4.875   0.963
10518TIP3   OH231510   0.104   7.327   0.494
10518TIP3    H131511   0.026   7.287   0.533
10518TIP3    H231512   0.077   7.347   0.404
10519TIP3   OH231513   8.245   0.181   3.626
10519TIP3    H131514   8.183   0.254   3.632
10519TIP3    H231515   8.200   0.116   3.573
10520TIP3   OH231516   1.507   3.680   0.309
10520TIP3    H131517   1.588   3.685   0.361
10520TIP3    H231518   1.515   3.751   0.246
10521TIP3   OH231519   8.277   0.265   4.061
10521TIP3    H131520   8.254   0.318   3.984
10521TIP3    H231521   8.315   0.185   4.024
10522TIP3   OH231522   8.162   3.035   1.312
10522TIP3    H131523   8.120   3.012   1.395
10522TIP3    H231524   8.141   2.962   1.253
10523TIP3   OH231525   1.692   4.913   0.214
10523TIP3    H131526   1.759   4.967   0.255
10523TIP3    H231527   1.741   4.851   0.160
10524TIP3   OH231528   5.316   0.425   1.822
10524TIP3    H131529   5.290   0.343   1.781
10524TIP3    H231530   5.307   0.409   1.916
10525TIP3   OH231531   7.227   6.338   0.723
10525TIP3    H131532   7.218   6.387   0.805
10525TIP3    H231533   7.137   6.322   0.694
10526TIP3   OH231534   2.689   4.915   1.203
10526TIP3    H131535   2.727   4.836   1.164
10526TIP3    H231536   2.757   4.947   1.263
10527TIP3   OH231537   4.424   6.381   2.757
10527TIP3    H131538   4.424   6.285   2.755
10527TIP3    H231539   4.338   6.405   2.725
10528TIP3   OH231540   7.124   0.318   2.538
10528TIP3    H131541   7.156   0.383   2.601
10528TIP3    H231542   7.129   0.362   2.453
10529TIP3   OH231543   6.943   5.303   3.626
10529TIP3    H131544   7.020   5.247   3.633
10529TIP3    H231545   6.964   5.380   3.679
10530TIP3   OH231546   2.977   6.502   0.526
10530TIP3    H131547   2.893   6.517   0.481
10530TIP3    H231548   2.968   6.551   0.608
10531TIP3   OH231549   3.556   0.352   0.259
10531TIP3    H131550   3.606   0.297   0.319
10531TIP3    H231551   3.615   0.365   0.184
10532TIP3   OH231552   1.468   4.807   3.318
10532TIP3    H131553   1.549   4.817   3.368
10532TIP3    H231554   1.403   4.781   3.383
10533TIP3   OH231555   6.886   6.052   6.087
10533TIP3    H131556   6.932   6.052   6.003
10533TIP3    H231557   6.910   6.135   6.127
10534TIP3   OH231558   2.110   0.135   6.675
10534TIP3    H131559   2.137   0.221   6.707
10534TIP3    H231560   2.135   0.135   6.582
10535TIP3   OH231561   4.208   2.716   3.702
10535TIP3    H131562   4.254   2.734   3.620
10535TIP3    H231563   4.152   2.793   3.715
10536TIP3   OH231564   0.331   6.996   4.430
10536TIP3    H131565   0.424   7.015   4.439
10536TIP3    H231566   0.325   6.900   4.432
10537TIP3   OH231567   3.172   1.152   5.401
10537TIP3    H131568   3.228   1.226   5.378
10537TIP3    H231569   3.086   1.191   5.418
10538TIP3   OH231570   3.654   7.035   0.298
10538TIP3    H131571   3.684   7.069   0.382
10538TIP3    H231572   3.725   7.054   0.237
10539TIP3   OH231573   0.266   0.896   6.158
10539TIP3    H131574   0.348   0.936   6.188
10539TIP3    H231575   0.295   0.832   6.092
10540TIP3   OH231576   6.637   0.061   6.076
10540TIP3    H131577   6.604   0.048   5.987
10540TIP3    H231578   6.679  -0.023   6.099
10541TIP3   OH231579   1.588   1.925   2.814
10541TIP3    H131580   1.518   1.866   2.786
10541TIP3    H231581   1.593   1.912   2.909
10542TIP3   OH231582   0.669   4.636   1.371
10542TIP3    H131583   0.762   4.613   1.378
10542TIP3    H231584   0.663   4.689   1.292
10543TIP3   OH231585   2.786   2.094   1.049
10543TIP3    H131586   2.718   2.072   1.112
10543TIP3    H231587   2.850   2.143   1.099
10544TIP3   OH231588   1.800   0.478   1.359
10544TIP3    H131589   1.850   0.491   1.279
10544TIP3    H231590   1.862   0.437   1.419
10545TIP3   OH231591   4.139   1.607   0.157
10545TIP3    H131592   4.223   1.591   0.200
10545TIP3    H231593   4.162   1.623   0.065
10546TIP3   OH231594   6.883   5.067   5.904
10546TIP3    H131595   6.896   4.988   5.853
10546TIP3    H231596   6.789   5.068   5.923
10547TIP3   OH231597   4.344   7.288   3.330
10547TIP3    H131598   4.336   7.289   3.235
10547TIP3    H231599   4.322   7.198   3.355
10548TIP3   OH231600   2.694   5.354   4.409
10548TIP3    H131601   2.788   5.352   4.395
10548TIP3    H231602   2.664   5.432   4.362
10549TIP3   OH231603   3.698   7.502   3.636
10549TIP3    H131604   3.754   7.460   3.701
10549TIP3    H231605   3.619   7.527   3.685
10550TIP3   OH231606   6.050   7.654   4.566
10550TIP3    H131607   6.038   7.722   4.633
10550TIP3    H231608   6.059   7.573   4.616
10551TIP3   OH231609   3.645   3.605   4.006
10551TIP3    H131610   3.560   3.588   3.966
10551TIP3    H231611   3.651   3.701   4.010
10552TIP3   OH231612   6.947   3.527   2.371
10552TIP3    H131613   6.909   3.482   2.296
10552TIP3    H231614   7.033   3.487   2.382
10553TIP3   OH231615   6.662   5.019   5.364
10553TIP3    H131616   6.697   4.952   5.424
10553TIP3    H231617   6.569   4.998   5.357
10554TIP3   OH231618   6.076   4.765   5.516
10554TIP3    H131619   6.020   4.774   5.593
10554TIP3    H231620   6.116   4.852   5.506
10555TIP3   OH231621   2.811   1.798   2.343
10555TIP3    H131622   2.777   1.708   2.344
10555TIP3    H231623   2.740   1.850   2.381
10556TIP3   OH231624   1.845   7.620   3.736
10556TIP3    H131625   1.895   7.590   3.812
10556TIP3    H231626   1.790   7.690   3.771
10557TIP3   OH231627   4.692   7.402   2.624
10557TIP3    H131628   4.631   7.412   2.697
10557TIP3    H231629   4.654   7.453   2.553
10558TIP3   OH231630   7.933   3.849   3.260
10558TIP3    H131631   7.841   3.856   3.285
10558TIP3    H231632   7.977   3.920   3.306
10559TIP3   OH231633   5.650   5.876   0.512
10559TIP3    H131634   5.603   5.920   0.583
10559TIP3    H231635   5.725   5.933   0.495
10560TIP3   OH231636   6.608   3.864   5.915
10560TIP3    H131637   6.640   3.951   5.938
10560TIP3    H231638   6.514   3.877   5.902
10561TIP3   OH231639   5.268   7.421   5.138
10561TIP3    H131640   5.215   7.459   5.208
10561TIP3    H231641   5.241   7.329   5.134
10562TIP3   OH231642   1.168   5.059   5.395
10562TIP3    H131643   1.148   5.147   5.363
10562TIP3    H231644   1.209   5.015   5.321
10563TIP3   OH231645   4.897   1.477   4.886
10563TIP3    H131646   4.909   1.551   4.828
10563TIP3    H231647   4.974   1.479   4.944
10564TIP3   OH231648   4.578   1.106   1.691
10564TIP3    H131649   4.613   1.144   1.610
10564TIP3    H231650   4.648   1.051   1.725
10565TIP3   OH231651   2.785   6.679   6.419
10565TIP3    H131652   2.824   6.719   6.342
10565TIP3    H231653   2.733   6.749   6.459
10566TIP3   OH231654   4.011   4.304   0.288
10566TIP3    H131655   4.099   4.288   0.255
10566TIP3    H231656   3.980   4.218   0.317
10567TIP3   OH231657   0.460   2.629   4.523
10567TIP3    H131658   0.417   2.677   4.593
10567TIP3    H231659   0.404   2.552   4.509
10568TIP3   OH231660   6.040   0.110   3.153
10568TIP3    H131661   5.946   0.092   3.151
10568TIP3    H231662   6.058   0.151   3.068
10569TIP3   OH231663   1.057   1.063   2.689
10569TIP3    H131664   0.963   1.074   2.706
10569TIP3    H231665   1.081   1.139   2.635
10570TIP3   OH231666   1.714   4.650   1.583
10570TIP3    H131667   1.706   4.736   1.543
10570TIP3    H231668   1.806   4.645   1.611
10571TIP3   OH231669   3.498   0.464   0.878
10571TIP3    H131670   3.413   0.429   0.903
10571TIP3    H231671   3.553   0.450   0.955
10572TIP3   OH231672   8.032   6.489   3.373
10572TIP3    H131673   8.119   6.506   3.409
10572TIP3    H231674   7.981   6.566   3.396
10573TIP3   OH231675   0.684   7.364   1.563
10573TIP3    H131676   0.778   7.346   1.567
10573TIP3    H231677   0.651   7.338   1.649
10574TIP3   OH231678   4.219   4.663   5.638
10574TIP3    H131679   4.275   4.681   5.563
10574TIP3    H231680   4.280   4.645   5.710
10575TIP3   OH231681   3.020   7.536   4.427
10575TIP3    H131682   3.074   7.591   4.369
10575TIP3    H231683   2.973   7.478   4.368
10576TIP3   OH231684   4.927   5.572   4.992
10576TIP3    H131685   4.873   5.572   5.071
10576TIP3    H231686   4.980   5.492   4.999
10577TIP3   OH231687   5.005   1.096   2.955
10577TIP3    H131688   4.978   1.075   2.866
10577TIP3    H231689   4.943   1.049   3.011
10578TIP3   OH231690   7.660   2.245   4.882
10578TIP3    H131691   7.656   2.319   4.822
10578TIP3    H231692   7.668   2.285   4.969
10579TIP3   OH231693   6.642   6.415   4.319
10579TIP3    H131694   6.618   6.440   4.408
10579TIP3    H231695   6.737   6.431   4.314
10580TIP3   OH231696   6.587   6.199   4.996
10580TIP3    H131697   6.560   6.134   4.931
10580TIP3    H231698   6.528   6.273   4.981
10581TIP3   OH231699   6.765   2.755   6.016
10581TIP3    H131700   6.678   2.740   6.053
10581TIP3    H231701   6.749   2.812   5.941
10582TIP3   OH231702   0.256   4.988   5.364
10582TIP3    H131703   0.351   4.995   5.363
10582TIP3    H231704   0.238   4.908   5.413
10583TIP3   OH231705   2.555   3.180   1.231
10583TIP3    H131706   2.490   3.122   1.191
10583TIP3    H231707   2.611   3.121   1.282
10584TIP3   OH231708   6.992   5.364   5.290
10584TIP3    H131709   6.994   5.268   5.288
10584TIP3    H231710   7.068   5.390   5.238
10585TIP3   OH231711   6.047   5.730   4.026
10585TIP3    H131712   6.037   5.824   4.040
10585TIP3    H231713   6.110   5.723   3.954
10586TIP3   OH231714   2.312   1.095   4.816
10586TIP3    H131715   2.285   1.178   4.775
10586TIP3    H231716   2.263   1.028   4.768
10587TIP3   OH231717   6.305   0.802   2.555
10587TIP3    H131718   6.228   0.858   2.561
10587TIP3    H231719   6.378   0.859   2.578
10588TIP3   OH231720   2.878   3.345   4.342
10588TIP3    H131721   2.904   3.271   4.287
10588TIP3    H231722   2.960   3.393   4.358
10589TIP3   OH231723   4.071   2.481   3.469
10589TIP3    H131724   4.012   2.492   3.394
10589TIP3    H231725   4.131   2.555   3.464
10590TIP3   OH231726   1.269   0.686   6.739
10590TIP3    H131727   1.304   0.597   6.731
10590TIP3    H231728   1.321   0.726   6.809
10591TIP3   OH231729   0.186   3.956   3.371
10591TIP3    H131730   0.177   4.000   3.287
10591TIP3    H231731   0.189   4.028   3.435
10592TIP3   OH231732   4.251   7.028   5.220
10592TIP3    H131733   4.276   6.958   5.160
10592TIP3    H231734   4.290   7.107   5.182
10593TIP3   OH231735   1.549   5.868   4.203
10593TIP3    H131736   1.463   5.832   4.221
10593TIP3    H231737   1.575   5.829   4.120
10594TIP3   OH231738   7.619   1.030   1.740
10594TIP3    H131739   7.612   1.037   1.835
10594TIP3    H231740   7.714   1.034   1.723
10595TIP3   OH231741   5.069   6.123   4.619
10595TIP3    H131742   5.111   6.207   4.638
10595TIP3    H231743   5.136   6.071   4.576
10596TIP3   OH231744   2.072   7.223   4.454
10596TIP3    H131745   2.008   7.161   4.418
10596TIP3    H231746   2.025   7.266   4.526
10597TIP3   OH231747   0.132   7.788   4.520
10597TIP3    H131748   0.207   7.827   4.566
10597TIP3    H231749   0.056   7.833   4.555
10598TIP3   OH231750   3.551   1.434   1.758
10598TIP3    H131751   3.556   1.343   1.788
10598TIP3    H231752   3.634   1.448   1.711
10599TIP3   OH231753   3.055   5.427   6.032
10599TIP3    H131754   3.033   5.335   6.045
10599TIP3    H231755   2.999   5.474   6.094
10600TIP3   OH231756   1.824   3.350   5.560
10600TIP3    H131757   1.757   3.379   5.622
10600TIP3    H231758   1.896   3.320   5.616
10601TIP3   OH231759   3.931   2.256   2.244
10601TIP3    H131760   3.849   2.261   2.196
10601TIP3    H231761   3.996   2.230   2.179
10602TIP3   OH231762   0.391   5.217   2.051
10602TIP3    H131763   0.438   5.238   2.132
10602TIP3    H231764   0.301   5.199   2.080
10603TIP3   OH231765   5.132   2.107   4.390
10603TIP3    H131766   5.151   2.201   4.394
10603TIP3    H231767   5.218   2.065   4.394
10604TIP3   OH231768   5.810   6.579   1.924
10604TIP3    H131769   5.819   6.541   1.837
10604TIP3    H231770   5.792   6.504   1.981
10605TIP3   OH231771   1.111   2.733   6.174
10605TIP3    H131772   1.194   2.767   6.208
10605TIP3    H231773   1.133   2.697   6.088
10606TIP3   OH231774   1.169   4.708   3.156
10606TIP3    H131775   1.157   4.756   3.074
10606TIP3    H231776   1.159   4.774   3.224
10607TIP3   OH231777   2.769   3.211   5.001
10607TIP3    H131778   2.714   3.289   4.997
10607TIP3    H231779   2.832   3.222   4.929
10608TIP3   OH231780   5.020   1.855   0.370
10608TIP3    H131781   4.956   1.816   0.428
10608TIP3    H231782   4.972   1.870   0.288
10609TIP3   OH231783   4.366   3.018   1.816
10609TIP3    H131784   4.355   2.977   1.902
10609TIP3    H231785   4.392   2.947   1.758
10610TIP3   OH231786   6.699   2.953   3.810
10610TIP3    H131787   6.606   2.935   3.800
10610TIP3    H231788   6.735   2.946   3.721
10611TIP3   OH231789   5.101   5.952   6.466
10611TIP3    H131790   5.044   5.887   6.507
10611TIP3    H231791   5.128   5.911   6.384
10612TIP3   OH231792   4.178   3.583   3.379
10612TIP3    H131793   4.136   3.593   3.294
10612TIP3    H231794   4.107   3.592   3.442
10613TIP3   OH231795   5.138   5.598   1.244
10613TIP3    H131796   5.136   5.595   1.340
10613TIP3    H231797   5.051   5.629   1.219
10614TIP3   OH231798   0.846   3.626   6.576
10614TIP3    H131799   0.918   3.612   6.514
10614TIP3    H231800   0.767   3.617   6.522
10615TIP3   OH231801   7.571   1.058   2.026
10615TIP3    H131802   7.620   1.023   2.100
10615TIP3    H231803   7.600   1.149   2.019
10616TIP3   OH231804   5.863   2.310   3.100
10616TIP3    H131805   5.846   2.239   3.163
10616TIP3    H231806   5.916   2.373   3.148
10617TIP3   OH231807   4.595   3.890   4.318
10617TIP3    H131808   4.621   3.818   4.376
10617TIP3    H231809   4.677   3.918   4.278
10618TIP3   OH231810   3.510   4.403   3.385
10618TIP3    H131811   3.426   4.413   3.430
10618TIP3    H231812   3.489   4.361   3.302
10619TIP3   OH231813   0.631   1.549   5.955
10619TIP3    H131814   0.672   1.580   6.036
10619TIP3    H231815   0.584   1.625   5.920
10620TIP3   OH231816   6.657   6.916   1.533
10620TIP3    H131817   6.719   6.853   1.495
10620TIP3    H231818   6.571   6.880   1.513
10621TIP3   OH231819   8.170   6.423   3.941
10621TIP3    H131820   8.099   6.406   3.880
10621TIP3    H231821   8.127   6.440   4.025
10622TIP3   OH231822   5.488   4.507   4.415
10622TIP3    H131823   5.404   4.465   4.435
10622TIP3    H231824   5.464   4.593   4.381
10623TIP3   OH231825   5.060   0.998   4.386
10623TIP3    H131826   5.063   0.909   4.352
10623TIP3    H231827   5.145   1.011   4.429
10624TIP3   OH231828   4.218   0.268   4.506
10624TIP3    H131829   4.180   0.346   4.465
10624TIP3    H231830   4.303   0.297   4.538
10625TIP3   OH231831   6.859   0.038   0.320
10625TIP3    H131832   6.821  -0.038   0.365
10625TIP3    H231833   6.924   0.072   0.381
10626TIP3   OH231834   2.672   6.745   1.364
10626TIP3    H131835   2.583   6.774   1.343
10626TIP3    H231836   2.660   6.683   1.436
10627TIP3   OH231837   3.392   6.529   6.301
10627TIP3    H131838   3.435   6.611   6.278
10627TIP3    H231839   3.399   6.476   6.222
10628TIP3   OH231840   7.687   2.743   5.474
10628TIP3    H131841   7.601   2.700   5.483
10628TIP3    H231842   7.708   2.772   5.563
10629TIP3   OH231843   3.732   6.043   6.146
10629TIP3    H131844   3.772   6.127   6.171
10629TIP3    H231845   3.702   6.056   6.057
10630TIP3   OH231846   7.068   1.930   0.623
10630TIP3    H131847   7.090   1.841   0.651
10630TIP3    H231848   7.028   1.969   0.701
10631TIP3   OH231849   6.189   1.919   6.071
10631TIP3    H131850   6.099   1.890   6.054
10631TIP3    H231851   6.234   1.910   5.987
10632TIP3   OH231852   4.806   3.885   3.467
10632TIP3    H131853   4.843   3.816   3.523
10632TIP3    H231854   4.774   3.951   3.528
10633TIP3   OH231855   1.734   6.657   4.485
10633TIP3    H131856   1.724   6.563   4.503
10633TIP3    H231857   1.787   6.660   4.405
10634TIP3   OH231858   7.297   3.650   4.885
10634TIP3    H131859   7.350   3.571   4.877
10634TIP3    H231860   7.357   3.715   4.923
10635TIP3   OH231861   2.448   6.300   2.544
10635TIP3    H131862   2.437   6.393   2.560
10635TIP3    H231863   2.390   6.280   2.471
10636TIP3   OH231864   6.504   6.700   4.330
10636TIP3    H131865   6.417   6.661   4.324
10636TIP3    H231866   6.536   6.674   4.417
10637TIP3   OH231867   5.482   0.517   2.994
10637TIP3    H131868   5.416   0.547   3.056
10637TIP3    H231869   5.441   0.528   2.908
10638TIP3   OH231870   5.836   4.249   6.047
10638TIP3    H131871   5.925   4.222   6.066
10638TIP3    H231872   5.814   4.206   5.964
10639TIP3   OH231873   2.254   0.138   0.660
10639TIP3    H131874   2.246   0.196   0.736
10639TIP3    H231875   2.245   0.050   0.695
10640TIP3   OH231876   0.125   2.511   0.041
10640TIP3    H131877   0.113   2.545  -0.047
10640TIP3    H231878   0.036   2.502   0.075
10641TIP3   OH231879   2.723   6.326   2.473
10641TIP3    H131880   2.631   6.306   2.494
10641TIP3    H231881   2.772   6.254   2.512
10642TIP3   OH231882   5.096   6.780   4.742
10642TIP3    H131883   5.139   6.791   4.657
10642TIP3    H231884   5.065   6.868   4.765
10643TIP3   OH231885   6.486   7.113   1.131
10643TIP3    H131886   6.481   7.149   1.042
10643TIP3    H231887   6.415   7.155   1.179
10644TIP3   OH231888   4.075   0.997   6.013
10644TIP3    H131889   4.071   0.998   5.917
10644TIP3    H231890   4.077   1.089   6.038
10645TIP3   OH231891   5.071   0.769   6.606
10645TIP3    H131892   5.068   0.673   6.615
10645TIP3    H231893   5.095   0.800   6.694
10646TIP3   OH231894   0.818   2.103   4.044
10646TIP3    H131895   0.725   2.084   4.052
10646TIP3    H231896   0.859   2.018   4.026
10647TIP3   OH231897   7.072   1.476   2.494
10647TIP3    H131898   7.088   1.567   2.518
10647TIP3    H231899   7.025   1.481   2.411
10648TIP3   OH231900   0.416   2.491   0.027
10648TIP3    H131901   0.419   2.586   0.017
10648TIP3    H231902   0.332   2.466  -0.011
10649TIP3   OH231903   7.826   0.366   5.815
10649TIP3    H131904   7.739   0.368   5.856
10649TIP3    H231905   7.808   0.376   5.721
10650TIP3   OH231906   2.719   7.441   0.868
10650TIP3    H131907   2.804   7.429   0.824
10650TIP3    H231908   2.741   7.445   0.961
10651TIP3   OH231909   6.103   4.405   6.654
10651TIP3    H131910   6.127   4.482   6.705
10651TIP3    H231911   6.048   4.439   6.584
10652TIP3   OH231912   8.151   5.167   6.095
10652TIP3    H131913   8.088   5.233   6.066
10652TIP3    H231914   8.199   5.143   6.015
10653TIP3   OH231915   5.731   4.757   0.974
10653TIP3    H131916   5.684   4.739   1.056
10653TIP3    H231917   5.667   4.804   0.920
10654TIP3   OH231918   5.099   4.858   4.329
10654TIP3    H131919   5.145   4.774   4.325
10654TIP3    H231920   5.165   4.920   4.360
10655TIP3   OH231921   4.259   5.290   4.293
10655TIP3    H131922   4.246   5.224   4.362
10655TIP3    H231923   4.181   5.345   4.299
10656TIP3   OH231924   5.179   3.622   4.202
10656TIP3    H131925   5.087   3.598   4.192
10656TIP3    H231926   5.177   3.704   4.252
10657TIP3   OH231927   5.368   5.704   2.129
10657TIP3    H131928   5.352   5.610   2.124
10657TIP3    H231929   5.331   5.730   2.214
10658TIP3   OH231930   4.416   6.485   6.631
10658TIP3    H131931   4.325   6.488   6.601
10658TIP3    H231932   4.467   6.466   6.553
10659TIP3   OH231933   5.908   1.117   1.681
10659TIP3    H131934   5.899   1.051   1.750
10659TIP3    H231935   5.969   1.078   1.618
10660TIP3   OH231936   4.945   4.083   5.605
10660TIP3    H131937   4.922   4.177   5.604
10660TIP3    H231938   4.869   4.040   5.565
10661TIP3   OH231939   0.269   6.811   6.704
10661TIP3    H131940   0.224   6.738   6.660
10661TIP3    H231941   0.361   6.787   6.702
10662TIP3   OH231942   2.954   2.347   2.684
10662TIP3    H131943   2.933   2.438   2.704
10662TIP3    H231944   3.049   2.343   2.686
10663TIP3   OH231945   6.713   1.142   5.631
10663TIP3    H131946   6.730   1.084   5.705
10663TIP3    H231947   6.679   1.222   5.669
10664TIP3   OH231948   0.757   1.912   3.675
10664TIP3    H131949   0.708   1.871   3.605
10664TIP3    H231950   0.848   1.884   3.662
10665TIP3   OH231951   2.821   2.329   3.164
10665TIP3    H131952   2.780   2.380   3.095
10665TIP3    H231953   2.754   2.265   3.190
10666TIP3   OH231954   5.701   5.215   2.791
10666TIP3    H131955   5.634   5.201   2.723
10666TIP3    H231956   5.670   5.292   2.838
10667TIP3   OH231957   1.431   0.959   5.640
10667TIP3    H131958   1.471   1.028   5.587
10667TIP3    H231959   1.356   1.001   5.682
10668TIP3   OH231960   1.478   2.726   5.552
10668TIP3    H131961   1.507   2.745   5.463
10668TIP3    H231962   1.454   2.811   5.588
10669TIP3   OH231963   2.746   4.499   5.985
10669TIP3    H131964   2.808   4.563   6.019
10669TIP3    H231965   2.781   4.475   5.900
10670TIP3   OH231966   2.734   0.891   1.911
10670TIP3    H131967   2.812   0.880   1.965
10670TIP3    H231968   2.675   0.821   1.940
10671TIP3   OH231969   8.142   3.919   5.925
10671TIP3    H131970   8.205   3.963   5.983
10671TIP3    H231971   8.064   3.907   5.979
10672TIP3   OH231972   0.383   6.306   6.507
10672TIP3    H131973   0.454   6.349   6.460
10672TIP3    H231974   0.415   6.217   6.523
10673TIP3   OH231975   1.990   2.363   0.020
10673TIP3    H131976   1.930   2.324  -0.042
10673TIP3    H231977   1.935   2.416   0.077
10674TIP3   OH231978   4.647   6.100   0.501
10674TIP3    H131979   4.650   6.192   0.528
10674TIP3    H231980   4.708   6.095   0.427
10675TIP3   OH231981   7.854   7.051   0.401
10675TIP3    H131982   7.891   7.120   0.346
10675TIP3    H231983   7.780   7.018   0.351
10676TIP3   OH231984   6.672   3.044   6.192
10676TIP3    H131985   6.662   3.053   6.097
10676TIP3    H231986   6.620   3.115   6.229
10677TIP3   OH231987   0.982   3.274   1.625
10677TIP3    H131988   0.939   3.220   1.559
10677TIP3    H231989   0.946   3.362   1.612
10678TIP3   OH231990   6.559   0.487   4.851
10678TIP3    H131991   6.487   0.504   4.790
10678TIP3    H231992   6.603   0.571   4.861
10679TIP3   OH231993   3.896   2.148   6.462
10679TIP3    H131994   3.950   2.142   6.541
10679TIP3    H231995   3.821   2.201   6.488
10680TIP3   OH231996   5.746   3.546   5.694
10680TIP3    H131997   5.820   3.561   5.753
10680TIP3    H231998   5.688   3.488   5.744
10681TIP3   OH231999   3.406   6.457   5.151
10681TIP3    H132000   3.361   6.408   5.219
10681TIP3    H232001   3.410   6.547   5.184
10682TIP3   OH232002   1.019   5.753   5.783
10682TIP3    H132003   0.924   5.748   5.774
10682TIP3    H232004   1.033   5.821   5.849
10683TIP3   OH232005   0.879   7.163   5.042
10683TIP3    H132006   0.814   7.155   5.111
10683TIP3    H232007   0.837   7.126   4.965
10684TIP3   OH232008   0.327   6.682   3.439
10684TIP3    H132009   0.234   6.661   3.435
10684TIP3    H232010   0.344   6.698   3.532
10685TIP3   OH232011   1.956   4.185   5.199
10685TIP3    H132012   1.954   4.112   5.136
10685TIP3    H232013   1.890   4.246   5.168
10686TIP3   OH232014   7.788   1.862   2.211
10686TIP3    H132015   7.776   1.951   2.245
10686TIP3    H232016   7.700   1.834   2.185
10687TIP3   OH232017   5.644   4.843   3.830
10687TIP3    H132018   5.669   4.767   3.778
10687TIP3    H232019   5.591   4.896   3.771
10688TIP3   OH232020   0.168   5.400   4.355
10688TIP3    H132021   0.075   5.425   4.357
10688TIP3    H232022   0.184   5.362   4.442
10689TIP3   OH232023   6.240   2.743   3.175
10689TIP3    H132024   6.239   2.734   3.080
10689TIP3    H232025   6.299   2.673   3.204
10690TIP3   OH232026   2.530   3.967   2.951
10690TIP3    H132027   2.485   3.980   2.867
10690TIP3    H232028   2.499   4.039   3.006
10691TIP3   OH232029   1.581   1.657   0.812
10691TIP3    H132030   1.677   1.652   0.817
10691TIP3    H232031   1.559   1.609   0.732
10692TIP3   OH232032   5.187   0.795   1.073
10692TIP3    H132033   5.156   0.705   1.071
10692TIP3    H232034   5.259   0.798   1.010
10693TIP3   OH232035   6.034   5.168   4.379
10693TIP3    H132036   5.973   5.220   4.326
10693TIP3    H232037   6.076   5.232   4.436
10694TIP3   OH232038   1.551   7.301   5.783
10694TIP3    H132039   1.472   7.300   5.728
10694TIP3    H232040   1.559   7.391   5.812
10695TIP3   OH232041   4.582   1.090   2.187
10695TIP3    H132042   4.670   1.073   2.156
10695TIP3    H232043   4.536   1.125   2.111
10696TIP3   OH232044   3.151   0.467   5.474
10696TIP3    H132045   3.158   0.561   5.487
10696TIP3    H232046   3.106   0.435   5.553
10697TIP3   OH232047   6.011   7.196   3.878
10697TIP3    H132048   6.055   7.250   3.945
10697TIP3    H232049   5.920   7.223   3.883
10698TIP3   OH232050   3.761   4.180   4.003
10698TIP3    H132051   3.691   4.197   3.939
10698TIP3    H232052   3.716   4.147   4.080
10699TIP3   OH232053   4.994   5.168   5.039
10699TIP3    H132054   4.965   5.127   5.120
10699TIP3    H232055   4.928   5.142   4.974
10700TIP3   OH232056   4.108   0.328   6.255
10700TIP3    H132057   4.123   0.416   6.220
10700TIP3    H232058   4.022   0.333   6.296
10701TIP3   OH232059   3.665   5.040   4.726
10701TIP3    H132060   3.750   4.997   4.737
10701TIP3    H232061   3.687   5.128   4.695
10702TIP3   OH232062   2.752   2.729   6.440
10702TIP3    H132063   2.734   2.685   6.523
10702TIP3    H232064   2.843   2.706   6.420
10703TIP3   OH232065   3.765   3.117   6.720
10703TIP3    H132066   3.717   3.087   6.797
10703TIP3    H232067   3.794   3.206   6.743
10704TIP3   OH232068   2.808   4.288   5.385
10704TIP3    H132069   2.781   4.202   5.351
10704TIP3    H232070   2.895   4.302   5.348
10705TIP3   OH232071   5.100   2.573   5.775
10705TIP3    H132072   5.157   2.649   5.790
10705TIP3    H232073   5.144   2.523   5.706
10706TIP3   OH232074   0.605   1.082   1.688
10706TIP3    H132075   0.662   1.037   1.749
10706TIP3    H232076   0.568   1.154   1.739
10707TIP3   OH232077   6.017   1.257   0.895
10707TIP3    H132078   6.064   1.240   0.977
10707TIP3    H232079   5.932   1.217   0.908
10708TIP3   OH232080   3.906   5.846   1.610
10708TIP3    H132081   3.910   5.874   1.518
10708TIP3    H232082   3.965   5.906   1.656
10709TIP3   OH232083   2.716   0.823   1.011
10709TIP3    H132084   2.625   0.849   1.024
10709TIP3    H232085   2.731   0.838   0.917
10710TIP3   OH232086   3.807   0.573   6.316
10710TIP3    H132087   3.813   0.477   6.321
10710TIP3    H232088   3.811   0.593   6.223
10711TIP3   OH232089   4.723   3.089   5.227
10711TIP3    H132090   4.773   3.088   5.146
10711TIP3    H232091   4.781   3.130   5.291
10712TIP3   OH232092   5.657   1.564   3.685
10712TIP3    H132093   5.610   1.514   3.618
10712TIP3    H232094   5.668   1.651   3.646
10713TIP3   OH232095   6.666   3.605   3.396
10713TIP3    H132096   6.725   3.540   3.434
10713TIP3    H232097   6.584   3.559   3.382
10714TIP3   OH232098   6.366   0.439   6.465
10714TIP3    H132099   6.288   0.493   6.450
10714TIP3    H232100   6.434   0.479   6.411
10715TIP3   OH232101   6.054   5.985   3.971
10715TIP3    H132102   6.082   6.032   4.050
10715TIP3    H232103   6.096   6.032   3.899
10716TIP3   OH232104   3.781   1.793   1.898
10716TIP3    H132105   3.802   1.884   1.875
10716TIP3    H232106   3.685   1.789   1.895
10717TIP3   OH232107   2.794   3.286   6.244
10717TIP3    H132108   2.786   3.283   6.340
10717TIP3    H232109   2.791   3.194   6.217
10718TIP3   OH232110   7.982   6.390   5.004
10718TIP3    H132111   7.937   6.470   5.031
10718TIP3    H232112   7.972   6.331   5.079
10719TIP3   OH232113   1.430   2.230   4.181
10719TIP3    H132114   1.466   2.174   4.249
10719TIP3    H232115   1.344   2.256   4.214
10720TIP3   OH232116   0.680   5.534   4.708
10720TIP3    H132117   0.637   5.604   4.756
10720TIP3    H232118   0.646   5.453   4.746
10721TIP3   OH232119   6.796   5.754   2.068
10721TIP3    H132120   6.721   5.768   2.126
10721TIP3    H232121   6.844   5.681   2.107
10722TIP3   OH232122   2.093   6.913   4.718
10722TIP3    H132123   2.178   6.957   4.728
10722TIP3    H232124   2.081   6.867   4.801
10723TIP3   OH232125   1.698   2.061   1.609
10723TIP3    H132126   1.673   2.086   1.520
10723TIP3    H232127   1.709   2.144   1.655
10724TIP3   OH232128   7.794   7.582   2.250
10724TIP3    H132129   7.717   7.628   2.217
10724TIP3    H232130   7.802   7.611   2.341
10725TIP3   OH232131   2.893   2.990   0.151
10725TIP3    H132132   2.948   3.043   0.209
10725TIP3    H232133   2.836   3.054   0.108
10726TIP3   OH232134   4.809   4.338   3.649
10726TIP3    H132135   4.801   4.252   3.607
10726TIP3    H232136   4.903   4.350   3.661
10727TIP3   OH232137   6.617   7.211   3.827
10727TIP3    H132138   6.652   7.249   3.907
10727TIP3    H232139   6.657   7.262   3.756
10728TIP3   OH232140   4.619   6.260   4.604
10728TIP3    H132141   4.567   6.230   4.679
10728TIP3    H232142   4.578   6.342   4.577
10729TIP3   OH232143   7.344   2.385   0.664
10729TIP3    H132144   7.368   2.448   0.732
10729TIP3    H232145   7.428   2.359   0.625
10730TIP3   OH232146   1.840   2.633   3.036
10730TIP3    H132147   1.810   2.581   3.110
10730TIP3    H232148   1.897   2.700   3.075
10731TIP3   OH232149   6.740   5.674   5.481
10731TIP3    H132150   6.744   5.720   5.565
10731TIP3    H232151   6.710   5.586   5.504
10732TIP3   OH232152   2.064   0.508   6.428
10732TIP3    H132153   1.969   0.503   6.419
10732TIP3    H232154   2.082   0.465   6.512
10733TIP3   OH232155   1.578   0.379   3.762
10733TIP3    H132156   1.567   0.372   3.667
10733TIP3    H232157   1.493   0.352   3.798
10734TIP3   OH232158   3.339   2.035   3.076
10734TIP3    H132159   3.298   2.113   3.113
10734TIP3    H232160   3.376   1.989   3.152
10735TIP3   OH232161   2.240   5.271   5.769
10735TIP3    H132162   2.162   5.326   5.773
10735TIP3    H232163   2.276   5.287   5.681
10736TIP3   OH232164   0.845   5.835   6.299
10736TIP3    H132165   0.762   5.819   6.254
10736TIP3    H232166   0.869   5.751   6.338
10737TIP3   OH232167   2.671   4.333   3.278
10737TIP3    H132168   2.739   4.278   3.317
10737TIP3    H232169   2.695   4.422   3.303
10738TIP3   OH232170   3.303   2.149   3.555
10738TIP3    H132171   3.220   2.114   3.524
10738TIP3    H232172   3.295   2.150   3.650
10739TIP3   OH232173   3.736   5.590   4.608
10739TIP3    H132174   3.670   5.536   4.650
10739TIP3    H232175   3.770   5.536   4.537
10740TIP3   OH232176   5.230   7.234   3.941
10740TIP3    H132177   5.165   7.165   3.932
10740TIP3    H232178   5.190   7.311   3.901
10741TIP3   OH232179   7.427   3.980   6.353
10741TIP3    H132180   7.516   4.012   6.365
10741TIP3    H232181   7.401   3.948   6.439
10742TIP3   OH232182   6.738   6.178   0.205
10742TIP3    H132183   6.758   6.162   0.297
10742TIP3    H232184   6.818   6.215   0.169
10743TIP3   OH232185   6.996   6.697   0.711
10743TIP3    H132186   7.000   6.631   0.642
10743TIP3    H232187   7.027   6.652   0.789
10744TIP3   OH232188   5.028   6.043   0.899
10744TIP3    H132189   5.024   5.956   0.860
10744TIP3    H232190   5.120   6.069   0.892
10745TIP3   OH232191   1.654   1.905   6.634
10745TIP3    H132192   1.723   1.958   6.595
10745TIP3    H232193   1.637   1.946   6.719
10746TIP3   OH232194   2.647   7.611   0.195
10746TIP3    H132195   2.642   7.652   0.109
10746TIP3    H232196   2.741   7.596   0.210
10747TIP3   OH232197   1.063   5.031   2.465
10747TIP3    H132198   1.094   4.965   2.526
10747TIP3    H232199   1.128   5.032   2.395
10748TIP3   OH232200   1.317   2.102   5.602
10748TIP3    H132201   1.304   2.007   5.600
10748TIP3    H232202   1.229   2.139   5.610
10749TIP3   OH232203   0.882   6.980   2.917
10749TIP3    H132204   0.955   6.939   2.964
10749TIP3    H232205   0.811   6.982   2.981
10750TIP3   OH232206   2.347   4.659   1.917
10750TIP3    H132207   2.382   4.672   2.005
10750TIP3    H232208   2.403   4.592   1.878
10751TIP3   OH232209   4.163   3.249   3.084
10751TIP3    H132210   4.172   3.280   3.174
10751TIP3    H232211   4.077   3.206   3.082
10752TIP3   OH232212   3.726   6.067   2.284
10752TIP3    H132213   3.691   6.117   2.358
10752TIP3    H232214   3.670   5.989   2.280
10753TIP3   OH232215   5.519   0.764   3.294
10753TIP3    H132216   5.608   0.736   3.274
10753TIP3    H232217   5.464   0.693   3.260
10754TIP3   OH232218   6.774   5.534   2.531
10754TIP3    H132219   6.805   5.444   2.539
10754TIP3    H232220   6.854   5.587   2.534
10755TIP3   OH232221   6.791   4.251   5.081
10755TIP3    H132222   6.792   4.164   5.042
10755TIP3    H232223   6.707   4.256   5.127
10756TIP3   OH232224   6.002   3.249   4.869
10756TIP3    H132225   5.956   3.267   4.787
10756TIP3    H232226   6.047   3.166   4.853
10757TIP3   OH232227   6.433   7.523   0.451
10757TIP3    H132228   6.354   7.546   0.501
10757TIP3    H232229   6.404   7.522   0.360
10758TIP3   OH232230   6.704   5.441   0.215
10758TIP3    H132231   6.793   5.458   0.245
10758TIP3    H232232   6.707   5.351   0.181
10759TIP3   OH232233   3.761   1.654   2.178
10759TIP3    H132234   3.726   1.722   2.121
10759TIP3    H232235   3.706   1.578   2.162
10760TIP3   OH232236   4.499   2.727   0.558
10760TIP3    H132237   4.545   2.800   0.598
10760TIP3    H232238   4.428   2.768   0.507
10761TIP3   OH232239   1.415   6.616   6.125
10761TIP3    H132240   1.357   6.684   6.092
10761TIP3    H232241   1.432   6.641   6.216
10762TIP3   OH232242   1.974   3.712   4.109
10762TIP3    H132243   2.049   3.689   4.163
10762TIP3    H232244   1.927   3.778   4.160
10763TIP3   OH232245   7.490   1.050   6.277
10763TIP3    H132246   7.537   1.122   6.234
10763TIP3    H232247   7.466   0.992   6.205
10764TIP3   OH232248   1.429   4.005   1.448
10764TIP3    H132249   1.372   4.081   1.460
10764TIP3    H232250   1.470   4.020   1.363
10765TIP3   OH232251   3.728   3.520   1.331
10765TIP3    H132252   3.783   3.548   1.258
10765TIP3    H232253   3.732   3.594   1.392
10766TIP3   OH232254   0.795   2.569   0.732
10766TIP3    H132255   0.880   2.597   0.767
10766TIP3    H232256   0.740   2.647   0.740
10767TIP3   OH232257   2.802   6.700   0.183
10767TIP3    H132258   2.708   6.687   0.185
10767TIP3    H232259   2.836   6.624   0.137
10768TIP3   OH232260   3.766   5.407   0.877
10768TIP3    H132261   3.800   5.345   0.941
10768TIP3    H232262   3.825   5.398   0.802
10769TIP3   OH232263   3.144   2.240   0.824
10769TIP3    H132264   3.170   2.193   0.904
10769TIP3    H232265   3.073   2.297   0.852
10770TIP3   OH232266   0.936   6.574   4.434
10770TIP3    H132267   0.997   6.502   4.444
10770TIP3    H232268   0.890   6.555   4.352
10771TIP3   OH232269   6.932   7.635   4.821
10771TIP3    H132270   6.868   7.684   4.871
10771TIP3    H232271   6.931   7.547   4.859
10772TIP3   OH232272   8.214   4.203   4.592
10772TIP3    H132273   8.119   4.195   4.597
10772TIP3    H232274   8.232   4.297   4.594
10773TIP3   OH232275   1.909   7.177   6.432
10773TIP3    H132276   1.846   7.240   6.397
10773TIP3    H232277   1.896   7.180   6.527
10774TIP3   OH232278   6.183   4.471   1.883
10774TIP3    H132279   6.145   4.468   1.796
10774TIP3    H232280   6.277   4.461   1.868
10775TIP3   OH232281   4.235   1.120   4.920
10775TIP3    H132282   4.300   1.189   4.909
10775TIP3    H232283   4.229   1.078   4.834
10776TIP3   OH232284   8.031   7.376   3.889
10776TIP3    H132285   8.010   7.297   3.839
10776TIP3    H232286   8.040   7.346   3.979
10777TIP3   OH232287   1.169   4.163   5.519
10777TIP3    H132288   1.259   4.166   5.487
10777TIP3    H232289   1.131   4.247   5.493
10778TIP3   OH232290   2.168   7.130   6.423
10778TIP3    H132291   2.180   7.225   6.429
10778TIP3    H232292   2.073   7.118   6.423
10779TIP3   OH232293   4.184   0.070   6.265
10779TIP3    H132294   4.279   0.076   6.255
10779TIP3    H232295   4.153   0.160   6.253
10780TIP3   OH232296   4.494   4.370   3.628
10780TIP3    H132297   4.533   4.383   3.542
10780TIP3    H232298   4.567   4.382   3.689
10781TIP3   OH232299   1.613   6.807   0.238
10781TIP3    H132300   1.702   6.772   0.242
10781TIP3    H232301   1.583   6.807   0.329
10782TIP3   OH232302   8.122   2.634   6.109
10782TIP3    H132303   8.114   2.677   6.194
10782TIP3    H232304   8.213   2.606   6.104
10783TIP3   OH232305   5.902   6.284   3.137
10783TIP3    H132306   5.823   6.292   3.085
10783TIP3    H232307   5.960   6.229   3.085
10784TIP3   OH232308   4.957   4.618   5.964
10784TIP3    H132309   4.935   4.677   5.893
10784TIP3    H232310   5.001   4.673   6.029
10785TIP3   OH232311   5.099   3.489   4.461
10785TIP3    H132312   5.093   3.573   4.507
10785TIP3    H232313   5.018   3.444   4.483
10786TIP3   OH232314   4.263   7.750   0.120
10786TIP3    H132315   4.350   7.762   0.156
10786TIP3    H232316   4.207   7.734   0.197
10787TIP3   OH232317   4.543   1.864   2.194
10787TIP3    H132318   4.630   1.873   2.234
10787TIP3    H232319   4.537   1.937   2.133
10788TIP3   OH232320   4.412   4.370   2.353
10788TIP3    H132321   4.409   4.462   2.327
10788TIP3    H232322   4.414   4.372   2.449
10789TIP3   OH232323   6.980   6.000   1.634
10789TIP3    H132324   7.007   6.083   1.672
10789TIP3    H232325   6.962   5.944   1.709
10790TIP3   OH232326   5.557   3.899   1.756
10790TIP3    H132327   5.492   3.853   1.809
10790TIP3    H232328   5.572   3.982   1.802
10791TIP3   OH232329   1.035   3.378   3.180
10791TIP3    H132330   1.051   3.324   3.257
10791TIP3    H232331   1.061   3.466   3.206
10792TIP3   OH232332   1.339   0.425   6.360
10792TIP3    H132333   1.297   0.417   6.274
10792TIP3    H232334   1.292   0.496   6.403
10793TIP3   OH232335   7.997   6.192   5.198
10793TIP3    H132336   7.931   6.135   5.158
10793TIP3    H232337   7.970   6.199   5.290
10794TIP3   OH232338   5.051   3.240   4.325
10794TIP3    H132339   4.965   3.201   4.344
10794TIP3    H232340   5.051   3.322   4.375
10795TIP3   OH232341   5.315   0.659   2.783
10795TIP3    H132342   5.265   0.704   2.850
10795TIP3    H232343   5.250   0.614   2.730
10796TIP3   OH232344   6.662   6.214   5.955
10796TIP3    H132345   6.754   6.187   5.967
10796TIP3    H232346   6.652   6.289   6.014
10797TIP3   OH232347   0.150   7.179   5.031
10797TIP3    H132348   0.179   7.268   5.010
10797TIP3    H232349   0.067   7.169   4.983
10798TIP3   OH232350   0.424   1.946   4.567
10798TIP3    H132351   0.400   2.016   4.507
10798TIP3    H232352   0.456   1.876   4.511
10799TIP3   OH232353   5.091   4.017   4.580
10799TIP3    H132354   5.054   4.104   4.595
10799TIP3    H232355   5.170   4.015   4.634
10800TIP3   OH232356   5.930   7.194   6.509
10800TIP3    H132357   6.003   7.230   6.458
10800TIP3    H232358   5.876   7.148   6.446
10801TIP3   OH232359   0.996   0.849   6.245
10801TIP3    H132360   0.941   0.881   6.173
10801TIP3    H232361   0.963   0.895   6.322
10802TIP3   OH232362   3.372   7.045   6.693
10802TIP3    H132363   3.381   6.950   6.688
10802TIP3    H232364   3.308   7.059   6.763
10803TIP3   OH232365   4.797   6.112   3.281
10803TIP3    H132366   4.720   6.085   3.331
10803TIP3    H232367   4.795   6.057   3.203
10804TIP3   OH232368   1.945   1.820   3.081
10804TIP3    H132369   1.887   1.887   3.116
10804TIP3    H232370   1.892   1.740   3.081
10805TIP3   OH232371   3.652   3.884   4.768
10805TIP3    H132372   3.612   3.965   4.800
10805TIP3    H232373   3.654   3.827   4.845
10806TIP3   OH232374   0.655   4.459   3.206
10806TIP3    H132375   0.704   4.535   3.177
10806TIP3    H232376   0.608   4.429   3.129
10807TIP3   OH232377   4.719   3.247   2.973
10807TIP3    H132378   4.632   3.267   3.008
10807TIP3    H232379   4.780   3.289   3.035
10808TIP3   OH232380   4.906   5.111   5.452
10808TIP3    H132381   4.987   5.141   5.493
10808TIP3    H232382   4.886   5.179   5.386
10809TIP3   OH232383   0.489   4.642   2.348
10809TIP3    H132384   0.485   4.737   2.359
10809TIP3    H232385   0.531   4.610   2.428
10810TIP3   OH232386   4.101   0.827   1.454
10810TIP3    H132387   4.088   0.800   1.363
10810TIP3    H232388   4.087   0.747   1.505
10811TIP3   OH232389   0.551   6.159   1.997
10811TIP3    H132390   0.549   6.241   2.045
10811TIP3    H232391   0.597   6.098   2.055
10812TIP3   OH232392   0.251   4.527   3.141
10812TIP3    H132393   0.232   4.476   3.219
10812TIP3    H232394   0.195   4.604   3.147
10813TIP3   OH232395   0.129   1.516   0.742
10813TIP3    H132396   0.142   1.459   0.818
10813TIP3    H232397   0.119   1.604   0.779
10814TIP3   OH232398   2.440   7.438   0.562
10814TIP3    H132399   2.503   7.405   0.498
10814TIP3    H232400   2.462   7.392   0.643
10815TIP3   OH232401   7.512   6.077   6.390
10815TIP3    H132402   7.489   5.994   6.432
10815TIP3    H232403   7.508   6.142   6.460
10816TIP3   OH232404   6.529   1.926   4.613
10816TIP3    H132405   6.484   1.950   4.694
10816TIP3    H232406   6.468   1.868   4.568
10817TIP3   OH232407   4.556   1.451   1.854
10817TIP3    H132408   4.580   1.359   1.847
10817TIP3    H232409   4.475   1.451   1.906
10818TIP3   OH232410   2.655   6.320   0.470
10818TIP3    H132411   2.717   6.336   0.398
10818TIP3    H232412   2.590   6.390   0.461
10819TIP3   OH232413   6.737   1.168   6.401
10819TIP3    H132414   6.801   1.103   6.370
10819TIP3    H232415   6.653   1.136   6.367
10820TIP3   OH232416   5.770   2.167   4.166
10820TIP3    H132417   5.725   2.239   4.121
10820TIP3    H232418   5.855   2.204   4.189
10821TIP3   OH232419   6.366   0.640   4.693
10821TIP3    H132420   6.277   0.615   4.669
10821TIP3    H232421   6.387   0.714   4.637
10822TIP3   OH232422   1.401   6.445   1.911
10822TIP3    H132423   1.393   6.529   1.958
10822TIP3    H232424   1.489   6.414   1.933
10823TIP3   OH232425   7.321   7.236   2.203
10823TIP3    H132426   7.361   7.300   2.144
10823TIP3    H232427   7.358   7.256   2.289
10824TIP3   OH232428   3.747   4.920   4.151
10824TIP3    H132429   3.812   4.881   4.210
10824TIP3    H232430   3.714   4.996   4.199
10825TIP3   OH232431   0.598   2.219   0.083
10825TIP3    H132432   0.553   2.190   0.004
10825TIP3    H232433   0.555   2.302   0.106
10826TIP3   OH232434   3.131   6.407   3.648
10826TIP3    H132435   3.182   6.427   3.570
10826TIP3    H232436   3.175   6.332   3.687
10827TIP3   OH232437   5.494   6.494   0.343
10827TIP3    H132438   5.535   6.555   0.281
10827TIP3    H232439   5.404   6.526   0.350
10828TIP3   OH232440   1.350   6.932   1.837
10828TIP3    H132441   1.407   6.883   1.778
10828TIP3    H232442   1.403   6.948   1.915
10829TIP3   OH232443   4.598   5.170   4.797
10829TIP3    H132444   4.650   5.249   4.781
10829TIP3    H232445   4.581   5.135   4.709
10830TIP3   OH232446   6.632   0.663   6.038
10830TIP3    H132447   6.621   0.690   5.946
10830TIP3    H232448   6.673   0.577   6.033
10831TIP3   OH232449   3.043   6.287   1.039
10831TIP3    H132450   2.963   6.296   1.091
10831TIP3    H232451   3.113   6.311   1.100
10832TIP3   OH232452   6.800   0.680   2.682
10832TIP3    H132453   6.838   0.596   2.707
10832TIP3    H232454   6.805   0.734   2.761
10833TIP3   OH232455   6.969   6.856   3.375
10833TIP3    H132456   6.923   6.772   3.372
10833TIP3    H232457   6.909   6.914   3.421
10834TIP3   OH232458   6.790   7.368   3.965
10834TIP3    H132459   6.770   7.461   3.954
10834TIP3    H232460   6.816   7.360   4.057
10835TIP3   OH232461   4.992   5.077   6.467
10835TIP3    H132462   5.017   5.157   6.419
10835TIP3    H232463   4.967   5.015   6.398
10836TIP3   OH232464   4.303   4.821   0.506
10836TIP3    H132465   4.267   4.775   0.582
10836TIP3    H232466   4.241   4.802   0.435
10837TIP3   OH232467   5.977   2.215   2.851
10837TIP3    H132468   6.064   2.185   2.879
10837TIP3    H232469   5.940   2.258   2.928
10838TIP3   OH232470   7.392   1.390   3.224
10838TIP3    H132471   7.374   1.334   3.148
10838TIP3    H232472   7.336   1.467   3.210
10839TIP3   OH232473   0.980   3.055   3.731
10839TIP3    H132474   1.070   3.023   3.743
10839TIP3    H232475   0.945   2.999   3.662
10840TIP3   OH232476   3.188   6.529   0.321
10840TIP3    H132477   3.110   6.545   0.375
10840TIP3    H232478   3.261   6.556   0.376
10841TIP3   OH232479   4.433   1.792   5.348
10841TIP3    H132480   4.485   1.749   5.280
10841TIP3    H232481   4.413   1.722   5.411
10842TIP3   OH232482   6.658   3.578   4.958
10842TIP3    H132483   6.650   3.485   4.978
10842TIP3    H232484   6.577   3.600   4.911
10843TIP3   OH232485   7.430   1.418   4.015
10843TIP3    H132486   7.368   1.346   4.032
10843TIP3    H232487   7.495   1.379   3.957
10844TIP3   OH232488   2.927   4.341   4.484
10844TIP3    H132489   2.869   4.329   4.559
10844TIP3    H232490   2.930   4.255   4.442
10845TIP3   OH232491   5.311   3.085   2.822
10845TIP3    H132492   5.264   3.020   2.874
10845TIP3    H232493   5.363   3.134   2.887
10846TIP3   OH232494   5.044   2.552   2.213
10846TIP3    H132495   5.072   2.485   2.274
10846TIP3    H232496   5.014   2.625   2.268
10847TIP3   OH232497   1.093   4.618   0.617
10847TIP3    H132498   1.185   4.602   0.636
10847TIP3    H232499   1.046   4.554   0.671
10848TIP3   OH232500   2.983   5.157   2.377
10848TIP3    H132501   2.895   5.166   2.414
10848TIP3    H232502   3.042   5.168   2.452
10849TIP3   OH232503   0.340   5.724   5.213
10849TIP3    H132504   0.308   5.729   5.123
10849TIP3    H232505   0.277   5.668   5.258
10850TIP3   OH232506   2.545   4.094   3.393
10850TIP3    H132507   2.554   4.106   3.298
10850TIP3    H232508   2.555   4.182   3.429
10851TIP3   OH232509   0.350   3.793   2.678
10851TIP3    H132510   0.380   3.850   2.608
10851TIP3    H232511   0.405   3.714   2.670
10852TIP3   OH232512   4.257   3.342   5.206
10852TIP3    H132513   4.185   3.343   5.270
10852TIP3    H232514   4.331   3.305   5.254
10853TIP3   OH232515   7.136   5.529   5.518
10853TIP3    H132516   7.151   5.518   5.612
10853TIP3    H232517   7.223   5.520   5.480
10854TIP3   OH232518   1.897   7.312   4.658
10854TIP3    H132519   1.878   7.218   4.661
10854TIP3    H232520   1.811   7.354   4.656
10855TIP3   OH232521   5.623   5.865   2.694
10855TIP3    H132522   5.578   5.943   2.727
10855TIP3    H232523   5.557   5.820   2.642
10856TIP3   OH232524   7.335   7.338   1.625
10856TIP3    H132525   7.265   7.402   1.636
10856TIP3    H232526   7.323   7.276   1.696
10857TIP3   OH232527   8.291   3.161   4.907
10857TIP3    H132528   8.317   3.070   4.923
10857TIP3    H232529   8.226   3.180   4.975
10858TIP3   OH232530   5.295   1.333   1.795
10858TIP3    H132531   5.314   1.240   1.799
10858TIP3    H232532   5.289   1.360   1.887
10859TIP3   OH232533   5.731   5.124   4.743
10859TIP3    H132534   5.711   5.086   4.657
10859TIP3    H232535   5.823   5.102   4.758
10860TIP3   OH232536   1.422   3.266   6.012
10860TIP3    H132537   1.499   3.316   6.039
10860TIP3    H232538   1.384   3.233   6.093
10861TIP3   OH232539   0.322   5.616   3.099
10861TIP3    H132540   0.337   5.689   3.160
10861TIP3    H232541   0.330   5.655   3.012
10862TIP3   OH232542   3.822   6.759   0.057
10862TIP3    H132543   3.906   6.804   0.063
10862TIP3    H232544   3.790   6.756   0.147
10863TIP3   OH232545   4.443   4.790   1.802
10863TIP3    H132546   4.353   4.810   1.779
10863TIP3    H232547   4.494   4.863   1.767
10864TIP3   OH232548   4.218   0.352   5.204
10864TIP3    H132549   4.207   0.372   5.297
10864TIP3    H232550   4.245   0.435   5.164
10865TIP3   OH232551   3.785   5.361   5.901
10865TIP3    H132552   3.786   5.457   5.909
10865TIP3    H232553   3.709   5.333   5.952
10866TIP3   OH232554   3.120   2.204   5.498
10866TIP3    H132555   3.028   2.229   5.508
10866TIP3    H232556   3.162   2.235   5.578
10867TIP3   OH232557   1.473   4.571   5.152
10867TIP3    H132558   1.416   4.635   5.109
10867TIP3    H232559   1.556   4.579   5.105
10868TIP3   OH232560   5.354   4.017   0.377
10868TIP3    H132561   5.400   3.945   0.335
10868TIP3    H232562   5.418   4.087   0.383
10869TIP3   OH232563   2.676   0.178   1.229
10869TIP3    H132564   2.685   0.210   1.318
10869TIP3    H232565   2.619   0.240   1.186
10870TIP3   OH232566   1.049   1.572   2.539
10870TIP3    H132567   0.969   1.621   2.555
10870TIP3    H232568   1.119   1.630   2.569
10871TIP3   OH232569   5.784   1.378   1.922
10871TIP3    H132570   5.793   1.429   1.842
10871TIP3    H232571   5.721   1.309   1.899
10872TIP3   OH232572   6.521   0.242   3.318
10872TIP3    H132573   6.461   0.230   3.245
10872TIP3    H232574   6.469   0.222   3.396
10873TIP3   OH232575   1.673   4.805   2.367
10873TIP3    H132576   1.587   4.843   2.383
10873TIP3    H232577   1.658   4.710   2.368
10874TIP3   OH232578   2.037   1.662   0.326
10874TIP3    H132579   2.037   1.569   0.346
10874TIP3    H232580   2.083   1.703   0.400
10875TIP3   OH232581   0.223   7.666   3.594
10875TIP3    H132582   0.288   7.629   3.652
10875TIP3    H232583   0.200   7.595   3.534
10876TIP3   OH232584   1.338   5.618   2.719
10876TIP3    H132585   1.339   5.546   2.656
10876TIP3    H232586   1.404   5.595   2.784
10877TIP3   OH232587   4.856   2.703   5.817
10877TIP3    H132588   4.788   2.647   5.780
10877TIP3    H232589   4.938   2.666   5.784
10878TIP3   OH232590   6.507   4.706   3.943
10878TIP3    H132591   6.467   4.779   3.990
10878TIP3    H232592   6.434   4.665   3.896
10879TIP3   OH232593   7.765   4.646   3.659
10879TIP3    H132594   7.792   4.620   3.747
10879TIP3    H232595   7.845   4.638   3.606
10880TIP3   OH232596   1.723   6.027   3.257
10880TIP3    H132597   1.811   6.025   3.293
10880TIP3    H232598   1.736   6.042   3.163
10881TIP3   OH232599   1.965   7.132   3.241
10881TIP3    H132600   2.047   7.173   3.214
10881TIP3    H232601   1.991   7.053   3.288
10882TIP3   OH232602   2.461   0.016   2.704
10882TIP3    H132603   2.484  -0.045   2.774
10882TIP3    H232604   2.544   0.055   2.678
10883TIP3   OH232605   6.193   2.555   0.958
10883TIP3    H132606   6.220   2.613   0.887
10883TIP3    H232607   6.170   2.472   0.915
10884TIP3   OH232608   8.016   7.403   5.732
10884TIP3    H132609   8.024   7.336   5.665
10884TIP3    H232610   8.070   7.372   5.804
10885TIP3   OH232611   3.078   3.550   1.451
10885TIP3    H132612   3.105   3.551   1.359
10885TIP3    H232613   3.123   3.475   1.489
10886TIP3   OH232614   7.698   2.504   4.234
10886TIP3    H132615   7.710   2.534   4.324
10886TIP3    H232616   7.607   2.526   4.213
10887TIP3   OH232617   7.800   4.157   3.218
10887TIP3    H132618   7.881   4.207   3.221
10887TIP3    H232619   7.776   4.156   3.125
10888TIP3   OH232620   7.436   4.022   2.904
10888TIP3    H132621   7.358   3.991   2.858
10888TIP3    H232622   7.416   4.114   2.924
10889TIP3   OH232623   2.445   3.969   5.439
10889TIP3    H132624   2.376   3.916   5.400
10889TIP3    H232625   2.399   4.039   5.484
10890TIP3   OH232626   6.930   3.393   0.125
10890TIP3    H132627   6.906   3.481   0.096
10890TIP3    H232628   6.848   3.344   0.123
10891TIP3   OH232629   5.708   1.135   2.638
10891TIP3    H132630   5.724   1.091   2.721
10891TIP3    H232631   5.654   1.211   2.661
10892TIP3   OH232632   2.687   1.671   3.503
10892TIP3    H132633   2.717   1.587   3.538
10892TIP3    H232634   2.710   1.668   3.411
10893TIP3   OH232635   1.131   0.628   3.294
10893TIP3    H132636   1.095   0.551   3.339
10893TIP3    H232637   1.151   0.689   3.365
10894TIP3   OH232638   6.990   1.372   3.930
10894TIP3    H132639   6.927   1.433   3.968
10894TIP3    H232640   6.938   1.315   3.874
10895TIP3   OH232641   6.892   4.585   0.230
10895TIP3    H132642   6.802   4.612   0.245
10895TIP3    H232643   6.885   4.509   0.172
10896TIP3   OH232644   0.244   4.191   2.008
10896TIP3    H132645   0.218   4.225   2.094
10896TIP3    H232646   0.222   4.098   2.012
10897TIP3   OH232647   5.894   5.419   4.840
10897TIP3    H132648   5.893   5.397   4.747
10897TIP3    H232649   5.802   5.418   4.867
10898TIP3   OH232650   2.158   6.742   6.588
10898TIP3    H132651   2.066   6.727   6.610
10898TIP3    H232652   2.167   6.712   6.497
10899TIP3   OH232653   2.613   3.728   2.216
10899TIP3    H132654   2.618   3.774   2.300
10899TIP3    H232655   2.525   3.689   2.216
10900TIP3   OH232656   3.582   7.777   3.394
10900TIP3    H132657   3.502   7.797   3.442
10900TIP3    H232658   3.651   7.776   3.461
10901TIP3   OH232659   8.240   1.409   2.046
10901TIP3    H132660   8.176   1.341   2.024
10901TIP3    H232661   8.306   1.404   1.977
10902TIP3   OH232662   3.321   3.510   5.674
10902TIP3    H132663   3.330   3.437   5.736
10902TIP3    H232664   3.329   3.469   5.588
10903TIP3   OH232665   1.664   0.199   2.419
10903TIP3    H132666   1.585   0.158   2.454
10903TIP3    H232667   1.636   0.286   2.391
10904TIP3   OH232668   3.870   1.972   2.317
10904TIP3    H132669   3.947   1.915   2.316
10904TIP3    H232670   3.903   2.057   2.288
10905TIP3   OH232671   7.322   1.806   1.592
10905TIP3    H132672   7.283   1.872   1.649
10905TIP3    H232673   7.246   1.760   1.554
10906TIP3   OH232674   5.283   5.364   3.812
10906TIP3    H132675   5.249   5.399   3.894
10906TIP3    H232676   5.208   5.361   3.753
10907TIP3   OH232677   4.898   2.404   2.657
10907TIP3    H132678   4.948   2.326   2.684
10907TIP3    H232679   4.818   2.400   2.710
10908TIP3   OH232680   1.114   1.686   3.755
10908TIP3    H132681   1.092   1.762   3.701
10908TIP3    H232682   1.130   1.616   3.692
10909TIP3   OH232683   2.351   1.160   2.883
10909TIP3    H132684   2.320   1.234   2.935
10909TIP3    H232685   2.287   1.091   2.901
10910TIP3   OH232686   5.092   6.950   0.374
10910TIP3    H132687   5.096   6.997   0.457
10910TIP3    H232688   5.026   6.883   0.388
10911TIP3   OH232689   5.777   5.819   6.770
10911TIP3    H132690   5.814   5.760   6.705
10911TIP3    H232691   5.723   5.762   6.825
10912TIP3   OH232692   0.670   5.103   6.582
10912TIP3    H132693   0.574   5.096   6.579
10912TIP3    H232694   0.693   5.071   6.669
10913TIP3   OH232695   2.016   2.980   6.539
10913TIP3    H132696   1.999   3.073   6.522
10913TIP3    H232697   2.110   2.970   6.527
10914TIP3   OH232698   0.883   2.408   5.182
10914TIP3    H132699   0.903   2.336   5.241
10914TIP3    H232700   0.940   2.394   5.106
10915TIP3   OH232701   6.273   4.894   4.969
10915TIP3    H132702   6.241   4.901   4.879
10915TIP3    H232703   6.199   4.859   5.018
10916TIP3   OH232704   3.478   6.460   1.439
10916TIP3    H132705   3.512   6.404   1.508
10916TIP3    H232706   3.555   6.502   1.401
10917TIP3   OH232707   7.526   1.267   0.154
10917TIP3    H132708   7.567   1.239   0.072
10917TIP3    H232709   7.587   1.238   0.222
10918TIP3   OH232710   7.166   1.284   4.615
10918TIP3    H132711   7.191   1.376   4.620
10918TIP3    H232712   7.156   1.267   4.521
10919TIP3   OH232713   0.214   1.439   2.942
10919TIP3    H132714   0.309   1.428   2.938
10919TIP3    H232715   0.180   1.360   2.900
10920TIP3   OH232716   0.833  -0.004   2.258
10920TIP3    H132717   0.830   0.030   2.168
10920TIP3    H232718   0.869  -0.092   2.248
10921TIP3   OH232719   2.372   7.840   1.840
10921TIP3    H132720   2.305   7.785   1.880
10921TIP3    H232721   2.449   7.829   1.897
10922TIP3   OH232722   8.024   0.537   1.437
10922TIP3    H132723   8.112   0.501   1.445
10922TIP3    H232724   8.033   0.628   1.465
10923TIP3   OH232725   7.279   4.173   6.150
10923TIP3    H132726   7.227   4.154   6.072
10923TIP3    H232727   7.321   4.089   6.171
10924TIP3   OH232728   4.015   2.766   1.735
10924TIP3    H132729   4.016   2.673   1.757
10924TIP3    H232730   3.922   2.788   1.724
10925TIP3   OH232731   4.256   3.666   5.279
10925TIP3    H132732   4.264   3.722   5.202
10925TIP3    H232733   4.246   3.578   5.244
10926TIP3   OH232734   3.299   1.961   0.802
10926TIP3    H132735   3.392   1.952   0.783
10926TIP3    H232736   3.295   2.011   0.884
10927TIP3   OH232737   4.823   3.051   6.745
10927TIP3    H132738   4.847   3.084   6.832
10927TIP3    H232739   4.852   2.960   6.746
10928TIP3   OH232740   7.803   2.913   5.260
10928TIP3    H132741   7.781   2.906   5.353
10928TIP3    H232742   7.719   2.907   5.215
10929TIP3   OH232743   4.536   7.193   1.337
10929TIP3    H132744   4.466   7.235   1.288
10929TIP3    H232745   4.616   7.237   1.308
10930TIP3   OH232746   2.494   0.271   2.867
10930TIP3    H132747   2.545   0.264   2.787
10930TIP3    H232748   2.486   0.181   2.898
10931TIP3   OH232749   1.682   2.319   4.311
10931TIP3    H132750   1.612   2.344   4.371
10931TIP3    H232751   1.716   2.237   4.347
10932TIP3   OH232752   6.658   6.172   3.491
10932TIP3    H132753   6.641   6.093   3.439
10932TIP3    H232754   6.744   6.202   3.461
10933TIP3   OH232755   4.159   0.673   4.151
10933TIP3    H132756   4.175   0.736   4.081
10933TIP3    H232757   4.092   0.615   4.116
10934TIP3   OH232758   6.089   2.682   1.753
10934TIP3    H132759   6.149   2.621   1.709
10934TIP3    H232760   6.130   2.767   1.743
10935TIP3   OH232761   0.284   5.057   2.288
10935TIP3    H132762   0.210   5.042   2.229
10935TIP3    H232763   0.300   5.151   2.281
10936TIP3   OH232764   7.864   1.632   2.478
10936TIP3    H132765   7.940   1.632   2.419
10936TIP3    H232766   7.788   1.629   2.418
10937TIP3   OH232767   4.563   7.795   5.209
10937TIP3    H132768   4.565   7.702   5.187
10937TIP3    H232769   4.626   7.835   5.150
10938TIP3   OH232770   3.569   2.411   4.479
10938TIP3    H132771   3.512   2.467   4.425
10938TIP3    H232772   3.630   2.472   4.521
10939TIP3   OH232773   0.542   2.368   3.581
10939TIP3    H132774   0.479   2.328   3.521
10939TIP3    H232775   0.569   2.449   3.537
10940TIP3   OH232776   4.894   0.170   1.719
10940TIP3    H132777   4.926   0.081   1.704
10940TIP3    H232778   4.971   0.221   1.743
10941TIP3   OH232779   0.361   5.534   0.777
10941TIP3    H132780   0.320   5.617   0.802
10941TIP3    H232781   0.400   5.501   0.858
10942TIP3   OH232782   7.161   6.916   6.479
10942TIP3    H132783   7.142   7.010   6.480
10942TIP3    H232784   7.143   6.889   6.389
10943TIP3   OH232785   1.342   0.886   3.188
10943TIP3    H132786   1.403   0.931   3.129
10943TIP3    H232787   1.256   0.906   3.152
10944TIP3   OH232788   2.530   7.672   5.983
10944TIP3    H132789   2.504   7.708   5.898
10944TIP3    H232790   2.449   7.636   6.019
10945TIP3   OH232791   5.124   3.610   1.718
10945TIP3    H132792   5.162   3.523   1.732
10945TIP3    H232793   5.075   3.628   1.799
10946TIP3   OH232794   2.895   7.424   4.660
10946TIP3    H132795   2.974   7.440   4.607
10946TIP3    H232796   2.824   7.424   4.596
10947TIP3   OH232797   7.579   7.172   2.021
10947TIP3    H132798   7.663   7.218   2.018
10947TIP3    H232799   7.513   7.241   2.017
10948TIP3   OH232800   0.958   7.303   2.685
10948TIP3    H132801   0.871   7.272   2.708
10948TIP3    H232802   0.943   7.373   2.623
10949TIP3   OH232803   1.430   2.065   5.160
10949TIP3    H132804   1.448   2.151   5.122
10949TIP3    H232805   1.468   2.069   5.248
10950TIP3   OH232806   7.108   5.005   0.863
10950TIP3    H132807   7.055   4.977   0.788
10950TIP3    H232808   7.185   5.046   0.824
10951TIP3   OH232809   7.542   7.298   4.884
10951TIP3    H132810   7.609   7.233   4.862
10951TIP3    H232811   7.592   7.373   4.918
10952TIP3   OH232812   0.403   5.915   0.062
10952TIP3    H132813   0.354   5.947  -0.014
10952TIP3    H232814   0.432   5.827   0.037
10953TIP3   OH232815   4.048   0.096   5.629
10953TIP3    H132816   4.051   0.077   5.723
10953TIP3    H232817   3.962   0.062   5.601
10954TIP3   OH232818   6.055   7.596   2.620
10954TIP3    H132819   5.994   7.649   2.569
10954TIP3    H232820   6.140   7.639   2.608
10955TIP3   OH232821   3.753   3.277   2.965
10955TIP3    H132822   3.752   3.336   3.041
10955TIP3    H232823   3.790   3.196   2.999
10956TIP3   OH232824   0.797   3.595   4.472
10956TIP3    H132825   0.723   3.606   4.532
10956TIP3    H232826   0.858   3.539   4.520
10957TIP3   OH232827   4.292   2.323   1.153
10957TIP3    H132828   4.355   2.329   1.081
10957TIP3    H232829   4.233   2.398   1.141
10958TIP3   OH232830   4.069   6.037   1.687
10958TIP3    H132831   4.032   6.094   1.754
10958TIP3    H232832   4.159   6.068   1.676
10959TIP3   OH232833   0.353   1.653   6.012
10959TIP3    H132834   0.390   1.705   6.084
10959TIP3    H232835   0.329   1.570   6.052
10960TIP3   OH232836   7.118   1.214   2.501
10960TIP3    H132837   7.042   1.186   2.553
10960TIP3    H232838   7.121   1.309   2.513
10961TIP3   OH232839   7.200   1.241   4.077
10961TIP3    H132840   7.200   1.147   4.057
10961TIP3    H232841   7.173   1.282   3.995
10962TIP3   OH232842   2.053   2.345   4.410
10962TIP3    H132843   2.146   2.365   4.399
10962TIP3    H232844   2.047   2.308   4.498
10963TIP3   OH232845   3.165   2.768   0.368
10963TIP3    H132846   3.112   2.810   0.435
10963TIP3    H232847   3.217   2.703   0.415
10964TIP3   OH232848   7.213   0.593   5.062
10964TIP3    H132849   7.134   0.626   5.104
10964TIP3    H232850   7.234   0.659   4.995
10965TIP3   OH232851   5.100   3.191   4.654
10965TIP3    H132852   5.173   3.154   4.604
10965TIP3    H232853   5.140   3.260   4.707
10966TIP3   OH232854   2.301   4.360   2.186
10966TIP3    H132855   2.271   4.272   2.163
10966TIP3    H232856   2.222   4.414   2.187
10967TIP3   OH232857   7.303   4.936   2.689
10967TIP3    H132858   7.330   4.847   2.666
10967TIP3    H232859   7.229   4.924   2.749
10968TIP3   OH232860   2.183   5.691   1.507
10968TIP3    H132861   2.162   5.750   1.579
10968TIP3    H232862   2.237   5.743   1.448
10969TIP3   OH232863   6.631   6.532   1.671
10969TIP3    H132864   6.653   6.536   1.764
10969TIP3    H232865   6.535   6.528   1.669
10970TIP3   OH232866   0.705   1.199   5.906
10970TIP3    H132867   0.662   1.229   5.826
10970TIP3    H232868   0.772   1.138   5.875
10971TIP3   OH232869   2.437   6.845   4.517
10971TIP3    H132870   2.498   6.879   4.582
10971TIP3    H232871   2.370   6.799   4.569
10972TIP3   OH232872   0.372   1.755   6.569
10972TIP3    H132873   0.463   1.728   6.582
10972TIP3    H232874   0.337   1.765   6.657
10973TIP3   OH232875   6.192   2.300   3.247
10973TIP3    H132876   6.105   2.261   3.259
10973TIP3    H232877   6.248   2.254   3.309
10974TIP3   OH232878   7.720   3.116   1.002
10974TIP3    H132879   7.754   3.198   0.968
10974TIP3    H232880   7.701   3.133   1.094
10975TIP3   OH232881   4.151   5.075   3.473
10975TIP3    H132882   4.057   5.057   3.477
10975TIP3    H232883   4.170   5.124   3.553
10976TIP3   OH232884   1.215   5.717   0.243
10976TIP3    H132885   1.143   5.667   0.281
10976TIP3    H232886   1.293   5.665   0.263
10977TIP3   OH232887   8.254   5.396   3.988
10977TIP3    H132888   8.337   5.406   4.035
10977TIP3    H232889   8.195   5.355   4.051
10978TIP3   OH232890   1.349   6.890   6.006
10978TIP3    H132891   1.254   6.887   6.014
10978TIP3    H232892   1.371   6.983   6.009
10979TIP3   OH232893   6.129   0.467   3.380
10979TIP3    H132894   6.099   0.530   3.446
10979TIP3    H232895   6.094   0.383   3.408
10980TIP3   OH232896   5.688   1.063   4.179
10980TIP3    H132897   5.648   0.980   4.153
10980TIP3    H232898   5.641   1.129   4.128
10981TIP3   OH232899   5.868   2.312   6.666
10981TIP3    H132900   5.912   2.317   6.751
10981TIP3    H232901   5.909   2.380   6.613
10982TIP3   OH232902   5.487   2.661   4.174
10982TIP3    H132903   5.529   2.715   4.107
10982TIP3    H232904   5.464   2.580   4.128
10983TIP3   OH232905   8.196   0.633   3.653
10983TIP3    H132906   8.290   0.640   3.636
10983TIP3    H232907   8.176   0.706   3.712
10984TIP3   OH232908   3.404   2.707   5.939
10984TIP3    H132909   3.411   2.613   5.921
10984TIP3    H232910   3.491   2.742   5.919
10985TIP3   OH232911   6.123   3.909   6.332
10985TIP3    H132912   6.196   3.961   6.296
10985TIP3    H232913   6.130   3.825   6.288
10986TIP3   OH232914   4.430   6.931   6.176
10986TIP3    H132915   4.337   6.953   6.170
10986TIP3    H232916   4.475   7.015   6.163
10987TIP3   OH232917   2.090   5.654   6.314
10987TIP3    H132918   2.092   5.664   6.409
10987TIP3    H232919   1.998   5.639   6.293
10988TIP3   OH232920   6.056   1.030   2.736
10988TIP3    H132921   6.063   1.022   2.641
10988TIP3    H232922   6.085   1.120   2.755
10989TIP3   OH232923   6.933   4.047   4.538
10989TIP3    H132924   6.923   4.111   4.468
10989TIP3    H232925   6.957   3.966   4.493
10990TIP3   OH232926   3.409   7.124   6.420
10990TIP3    H132927   3.383   7.095   6.507
10990TIP3    H232928   3.356   7.071   6.360
10991TIP3   OH232929   6.310   3.871   6.076
10991TIP3    H132930   6.318   3.817   5.998
10991TIP3    H232931   6.326   3.960   6.045
10992TIP3   OH232932   4.933   2.591   1.259
10992TIP3    H132933   4.878   2.527   1.305
10992TIP3    H232934   4.984   2.538   1.197
10993TIP3   OH232935   1.604   4.104   6.208
10993TIP3    H132936   1.526   4.056   6.237
10993TIP3    H232937   1.599   4.104   6.113
10994TIP3   OH232938   6.186   3.711   4.993
10994TIP3    H132939   6.133   3.674   4.922
10994TIP3    H232940   6.205   3.801   4.963
10995TIP3   OH232941   6.495   6.969   3.237
10995TIP3    H132942   6.500   6.906   3.308
10995TIP3    H232943   6.405   7.000   3.238
10996TIP3   OH232944   7.864   2.850   4.426
10996TIP3    H132945   7.947   2.894   4.447
10996TIP3    H232946   7.801   2.888   4.488
10997TIP3   OH232947   3.855   4.309   5.822
10997TIP3    H132948   3.919   4.380   5.817
10997TIP3    H232949   3.855   4.283   5.914
10998TIP3   OH232950   0.777   5.246   5.326
10998TIP3    H132951   0.708   5.305   5.297
10998TIP3    H232952   0.763   5.166   5.275
10999TIP3   OH232953   8.292   2.507   5.177
10999TIP3    H132954   8.224   2.537   5.237
10999TIP3    H232955   8.254   2.431   5.134
11000TIP3   OH232956   4.543   7.313   6.701
11000TIP3    H132957   4.454   7.322   6.734
11000TIP3    H232958   4.536   7.250   6.629
11001TIP3   OH232959   1.555   4.102   4.905
11001TIP3    H132960   1.521   4.074   4.820
11001TIP3    H232961   1.585   4.192   4.890
11002TIP3   OH232962   5.188   6.273   1.527
11002TIP3    H132963   5.221   6.297   1.613
11002TIP3    H232964   5.206   6.349   1.472
11003TIP3   OH232965   6.465   0.327   0.111
11003TIP3    H132966   6.500   0.413   0.134
11003TIP3    H232967   6.541   0.269   0.112
11004TIP3   OH232968   6.330   5.453   2.829
11004TIP3    H132969   6.423   5.445   2.853
11004TIP3    H232970   6.283   5.435   2.910
11005TIP3   OH232971   1.473   7.017   4.149
11005TIP3    H132972   1.464   7.083   4.080
11005TIP3    H232973   1.410   7.043   4.215
11006TIP3   OH232974   0.569   2.242   3.122
11006TIP3    H132975   0.505   2.294   3.170
11006TIP3    H232976   0.632   2.305   3.089
11007TIP3   OH232977   5.958   4.885   0.434
11007TIP3    H132978   5.923   4.796   0.435
11007TIP3    H232979   5.911   4.927   0.361
11008TIP3   OH232980   4.831   5.289   6.170
11008TIP3    H132981   4.858   5.198   6.178
11008TIP3    H232982   4.848   5.327   6.257
11009TIP3   OH232983   2.231   2.047   4.251
11009TIP3    H132984   2.268   2.056   4.163
11009TIP3    H232985   2.282   2.107   4.305
11010TIP3   OH232986   2.329   1.293   6.506
11010TIP3    H132987   2.313   1.206   6.470
11010TIP3    H232988   2.424   1.301   6.506
11011TIP3   OH232989   6.998   5.049   4.641
11011TIP3    H132990   7.009   4.954   4.641
11011TIP3    H232991   6.914   5.063   4.598
11012TIP3   OH232992   3.280   7.688   4.658
11012TIP3    H132993   3.256   7.618   4.719
11012TIP3    H232994   3.363   7.661   4.621
11013TIP3   OH232995   5.790   1.666   4.925
11013TIP3    H132996   5.852   1.614   4.874
11013TIP3    H232997   5.799   1.635   5.015
11014TIP3   OH232998   7.453   0.281   1.353
11014TIP3    H132999   7.538   0.245   1.329
11014TIP3    H233000   7.426   0.332   1.277
11015TIP3   OH233001   0.327   5.617   4.236
11015TIP3    H133002   0.284   5.541   4.275
11015TIP3    H233003   0.270   5.691   4.259
11016TIP3   OH233004   5.846   1.292   5.845
11016TIP3    H133005   5.900   1.347   5.901
11016TIP3    H233006   5.869   1.317   5.756
11017TIP3   OH233007   4.308   3.191   2.251
11017TIP3    H133008   4.337   3.278   2.223
11017TIP3    H233009   4.264   3.206   2.334
11018TIP3   OH233010   8.197   6.828   5.250
11018TIP3    H133011   8.192   6.755   5.189
11018TIP3    H233012   8.105   6.852   5.266
11019TIP3   OH233013   2.612   3.268   0.543
11019TIP3    H133014   2.583   3.347   0.590
11019TIP3    H233015   2.560   3.197   0.581
11020TIP3   OH233016   0.127   3.627   1.912
11020TIP3    H133017   0.057   3.671   1.960
11020TIP3    H233018   0.085   3.554   1.868
11021TIP3   OH233019   6.828   7.311   5.787
11021TIP3    H133020   6.825   7.307   5.882
11021TIP3    H233021   6.866   7.227   5.761
11022TIP3   OH233022   7.373   1.646   0.691
11022TIP3    H133023   7.445   1.590   0.719
11022TIP3    H233024   7.373   1.718   0.754
11023TIP3   OH233025   5.865   6.005   6.531
11023TIP3    H133026   5.876   6.066   6.604
11023TIP3    H233027   5.772   6.007   6.512
11024TIP3   OH233028   0.885   5.283   1.828
11024TIP3    H133029   0.883   5.307   1.920
11024TIP3    H233030   0.967   5.236   1.817
11025TIP3   OH233031   1.375   4.763   1.448
11025TIP3    H133032   1.444   4.706   1.414
11025TIP3    H233033   1.305   4.703   1.473
11026TIP3   OH233034   4.169   5.570   1.341
11026TIP3    H133035   4.235   5.556   1.273
11026TIP3    H233036   4.139   5.660   1.326
11027TIP3   OH233037   1.358   6.118   4.469
11027TIP3    H133038   1.299   6.115   4.393
11027TIP3    H233039   1.394   6.206   4.467
11028TIP3   OH233040   7.647   6.850   0.290
11028TIP3    H133041   7.645   6.830   0.384
11028TIP3    H233042   7.628   6.766   0.248
11029TIP3   OH233043   5.246   1.829   1.127
11029TIP3    H133044   5.313   1.761   1.125
11029TIP3    H233045   5.163   1.780   1.129
11030TIP3   OH233046   5.601   2.537   1.836
11030TIP3    H133047   5.643   2.511   1.918
11030TIP3    H233048   5.522   2.584   1.862
11031TIP3   OH233049   6.736   6.345   6.175
11031TIP3    H133050   6.812   6.324   6.229
11031TIP3    H233051   6.661   6.315   6.226
11032TIP3   OH233052   6.601   4.989   2.492
11032TIP3    H133053   6.604   5.048   2.568
11032TIP3    H233054   6.525   5.019   2.441
11033TIP3   OH233055   4.850   5.104   0.179
11033TIP3    H133056   4.928   5.098   0.123
11033TIP3    H233057   4.817   5.193   0.164
11034TIP3   OH233058   5.116   2.635   0.495
11034TIP3    H133059   5.038   2.614   0.443
11034TIP3    H233060   5.126   2.729   0.486
11035TIP3   OH233061   0.895   1.093   5.231
11035TIP3    H133062   0.897   1.122   5.322
11035TIP3    H233063   0.824   1.029   5.228
11036TIP3   OH233064   4.164   6.774   5.568
11036TIP3    H133065   4.239   6.824   5.536
11036TIP3    H233066   4.088   6.830   5.548
11037TIP3   OH233067   3.963   1.629   3.302
11037TIP3    H133068   3.993   1.639   3.211
11037TIP3    H233069   3.900   1.700   3.314
11038TIP3   OH233070   6.368   2.614   1.965
11038TIP3    H133071   6.363   2.709   1.956
11038TIP3    H233072   6.340   2.581   1.879
11039TIP3   OH233073   7.292   0.718   3.788
11039TIP3    H133074   7.203   0.704   3.820
11039TIP3    H233075   7.322   0.631   3.761
11040TIP3   OH233076   1.503   3.886   0.124
11040TIP3    H133077   1.586   3.928   0.103
11040TIP3    H233078   1.472   3.851   0.041
11041TIP3   OH233079   8.256   7.603   1.957
11041TIP3    H133080   8.198   7.527   1.948
11041TIP3    H233081   8.230   7.642   2.041
11042TIP3   OH233082   6.669   2.213   4.731
11042TIP3    H133083   6.696   2.206   4.639
11042TIP3    H233084   6.686   2.126   4.768
11043TIP3   OH233085   7.548   7.233   1.211
11043TIP3    H133086   7.581   7.222   1.300
11043TIP3    H233087   7.611   7.291   1.168
11044TIP3   OH233088   5.098   2.376   2.434
11044TIP3    H133089   5.087   2.282   2.451
11044TIP3    H233090   5.028   2.418   2.485
11045TIP3   OH233091   7.908   3.296   3.778
11045TIP3    H133092   7.994   3.311   3.817
11045TIP3    H233093   7.848   3.296   3.853
11046TIP3   OH233094   2.774   2.606   4.237
11046TIP3    H133095   2.780   2.635   4.328
11046TIP3    H233096   2.865   2.587   4.213
11047TIP3   OH233097   5.352   5.083   3.782
11047TIP3    H133098   5.426   5.072   3.722
11047TIP3    H233099   5.347   5.177   3.797
11048TIP3   OH233100   6.666   6.627   5.829
11048TIP3    H133101   6.731   6.679   5.877
11048TIP3    H233102   6.594   6.617   5.891
11049TIP3   OH233103   5.897   5.438   4.566
11049TIP3    H133104   5.898   5.533   4.552
11049TIP3    H233105   5.876   5.402   4.480
11050TIP3   OH233106   0.819   4.623   5.680
11050TIP3    H133107   0.866   4.556   5.630
11050TIP3    H233108   0.830   4.703   5.629
11051TIP3   OH233109   7.090   0.690   1.747
11051TIP3    H133110   7.048   0.775   1.736
11051TIP3    H233111   7.020   0.626   1.737
11052TIP3   OH233112   1.254   4.366   1.917
11052TIP3    H133113   1.181   4.395   1.863
11052TIP3    H233114   1.271   4.276   1.888
11053TIP3   OH233115   4.829   2.822   3.922
11053TIP3    H133116   4.753   2.880   3.933
11053TIP3    H233117   4.792   2.741   3.886
11054TIP3   OH233118   1.237   0.661   6.468
11054TIP3    H133119   1.294   0.682   6.543
11054TIP3    H233120   1.149   0.677   6.501
11055TIP3   OH233121   2.948   3.714   0.660
11055TIP3    H133122   2.957   3.800   0.618
11055TIP3    H233123   3.021   3.709   0.722
11056TIP3   OH233124   2.964   4.922   6.627
11056TIP3    H133125   2.889   4.938   6.570
11056TIP3    H233126   3.009   5.006   6.631
11057TIP3   OH233127   6.592   1.617   1.671
11057TIP3    H133128   6.521   1.641   1.730
11057TIP3    H233129   6.668   1.605   1.729
11058TIP3   OH233130   0.371   6.965   3.823
11058TIP3    H133131   0.335   7.029   3.762
11058TIP3    H233132   0.461   6.993   3.838
11059TIP3   OH233133   0.925   2.982   6.637
11059TIP3    H133134   0.943   3.074   6.658
11059TIP3    H233135   0.984   2.932   6.692
11060TIP3   OH233136   5.622   0.666   5.872
11060TIP3    H133137   5.675   0.637   5.797
11060TIP3    H233138   5.568   0.590   5.894
11061TIP3   OH233139   1.065   1.284   1.251
11061TIP3    H133140   1.052   1.291   1.345
11061TIP3    H233141   1.106   1.198   1.239
11062TIP3   OH233142   7.788   4.729   0.573
11062TIP3    H133143   7.839   4.780   0.635
11062TIP3    H233144   7.712   4.783   0.553
11063TIP3   OH233145   5.429   6.147   5.984
11063TIP3    H133146   5.335   6.140   5.966
11063TIP3    H233147   5.435   6.155   6.079
11064TIP3   OH233148   4.379   4.233   2.614
11064TIP3    H133149   4.284   4.233   2.605
11064TIP3    H233150   4.402   4.141   2.627
11065TIP3   OH233151   7.639   4.035   1.387
11065TIP3    H133152   7.550   4.031   1.421
11065TIP3    H233153   7.674   3.946   1.400
11066TIP3   OH233154   2.550   2.532   0.977
11066TIP3    H133155   2.601   2.534   1.058
11066TIP3    H233156   2.488   2.461   0.990
11067TIP3   OH233157   5.428   2.543   3.086
11067TIP3    H133158   5.438   2.504   2.999
11067TIP3    H233159   5.510   2.522   3.131
11068TIP3   OH233160   7.275   5.140   4.502
11068TIP3    H133161   7.198   5.118   4.553
11068TIP3    H233162   7.323   5.058   4.493
11069TIP3   OH233163   5.258   3.396   4.772
11069TIP3    H133164   5.349   3.388   4.803
11069TIP3    H233165   5.240   3.490   4.774
11070TIP3   OH233166   7.613   4.216   0.390
11070TIP3    H133167   7.670   4.170   0.452
11070TIP3    H233168   7.632   4.309   0.404
11071TIP3   OH233169   1.351   2.631   2.339
11071TIP3    H133170   1.297   2.681   2.278
11071TIP3    H233171   1.303   2.637   2.422
11072TIP3   OH233172   7.432   0.599   6.573
11072TIP3    H133173   7.500   0.535   6.550
11072TIP3    H233174   7.425   0.655   6.495
11073TIP3   OH233175   1.869   0.424   3.389
11073TIP3    H133176   1.883   0.488   3.320
11073TIP3    H233177   1.774   0.423   3.401
11074TIP3   OH233178   5.788   0.949   5.980
11074TIP3    H133179   5.808   1.041   5.998
11074TIP3    H233180   5.727   0.924   6.050
11075TIP3   OH233181   1.568   0.874   2.759
11075TIP3    H133182   1.479   0.908   2.752
11075TIP3    H233183   1.582   0.861   2.852
11076TIP3   OH233184   2.133   4.753   3.037
11076TIP3    H133185   2.044   4.769   3.004
11076TIP3    H233186   2.181   4.833   3.014
11077TIP3   OH233187   5.045   4.798   2.553
11077TIP3    H133188   5.139   4.787   2.536
11077TIP3    H233189   5.034   4.777   2.646
11078TIP3   OH233190   4.102   4.364   1.218
11078TIP3    H133191   4.100   4.322   1.132
11078TIP3    H233192   4.128   4.295   1.279
11079TIP3   OH233193   1.458   5.042   4.175
11079TIP3    H133194   1.458   5.072   4.084
11079TIP3    H233195   1.443   4.948   4.169
11080TIP3   OH233196   3.024   3.399   2.663
11080TIP3    H133197   3.114   3.370   2.649
11080TIP3    H233198   3.022   3.489   2.629
11081TIP3   OH233199   7.224   5.752   1.993
11081TIP3    H133200   7.189   5.687   1.933
11081TIP3    H233201   7.213   5.835   1.947
11082TIP3   OH233202   6.716   1.411   4.240
11082TIP3    H133203   6.798   1.455   4.218
11082TIP3    H233204   6.712   1.336   4.180
11083TIP3   OH233205   4.466   4.847   6.627
11083TIP3    H133206   4.379   4.873   6.598
11083TIP3    H233207   4.453   4.810   6.714
11084TIP3   OH233208   1.106   2.678   1.011
11084TIP3    H133209   1.081   2.628   0.933
11084TIP3    H233210   1.186   2.636   1.042
11085TIP3   OH233211   6.264   6.594   2.757
11085TIP3    H133212   6.274   6.499   2.751
11085TIP3    H233213   6.213   6.618   2.679
11086TIP3   OH233214   0.763   2.431   2.420
11086TIP3    H133215   0.751   2.423   2.515
11086TIP3    H233216   0.856   2.412   2.406
11087TIP3   OH233217   1.963   1.358   0.804
11087TIP3    H133218   2.019   1.287   0.773
11087TIP3    H233219   2.022   1.433   0.814
11088TIP3   OH233220   1.596   4.359   3.750
11088TIP3    H133221   1.544   4.280   3.741
11088TIP3    H233222   1.549   4.413   3.813
11089TIP3   OH233223   5.870   7.731   2.986
11089TIP3    H133224   5.839   7.678   2.913
11089TIP3    H233225   5.903   7.811   2.945
11090TIP3   OH233226   4.896   1.355   1.292
11090TIP3    H133227   4.889   1.341   1.198
11090TIP3    H233228   4.886   1.450   1.303
11091TIP3   OH233229   6.821   2.911   3.568
11091TIP3    H133230   6.769   2.883   3.493
11091TIP3    H233231   6.910   2.885   3.546
11092TIP3   OH233232   1.774   2.694   5.661
11092TIP3    H133233   1.783   2.598   5.659
11092TIP3    H233234   1.764   2.719   5.569
11093TIP3   OH233235   0.901   5.587   6.477
11093TIP3    H133236   0.868   5.501   6.503
11093TIP3    H233237   0.859   5.648   6.537
11094TIP3   OH233238   5.128   4.614   4.750
11094TIP3    H133239   5.053   4.559   4.727
11094TIP3    H233240   5.164   4.641   4.666
11095TIP3   OH233241   1.238   5.599   5.702
11095TIP3    H133242   1.148   5.631   5.713
11095TIP3    H233243   1.264   5.570   5.789
11096TIP3   OH233244   0.292   0.291   3.080
11096TIP3    H133245   0.197   0.284   3.077
11096TIP3    H233246   0.319   0.222   3.141
11097TIP3   OH233247   1.807   1.966   1.858
11097TIP3    H133248   1.786   2.051   1.896
11097TIP3    H233249   1.769   1.969   1.769
11098TIP3   OH233250   7.610   4.420   5.205
11098TIP3    H133251   7.580   4.345   5.255
11098TIP3    H233252   7.570   4.409   5.119
11099TIP3   OH233253   1.286   1.084   0.068
11099TIP3    H133254   1.323   1.150   0.127
11099TIP3    H233255   1.212   1.048   0.117
11100TIP3   OH233256   4.164   1.014   2.237
11100TIP3    H133257   4.158   1.109   2.227
11100TIP3    H233258   4.084   0.989   2.283
11101TIP3   OH233259   1.259   0.417   4.431
11101TIP3    H133260   1.205   0.352   4.386
11101TIP3    H233261   1.198   0.485   4.458
11102TIP3   OH233262   8.018   1.615   5.454
11102TIP3    H133263   8.113   1.604   5.449
11102TIP3    H233264   7.982   1.550   5.393
11103TIP3   OH233265   4.657   1.266   3.898
11103TIP3    H133266   4.735   1.241   3.849
11103TIP3    H233267   4.594   1.291   3.830
11104TIP3   OH233268   3.610   7.397   5.118
11104TIP3    H133269   3.589   7.468   5.057
11104TIP3    H233270   3.704   7.381   5.105
11105TIP3   OH233271   0.869   0.651   3.686
11105TIP3    H133272   0.781   0.677   3.714
11105TIP3    H233273   0.882   0.697   3.603
11106TIP3   OH233274   7.375   2.900   6.334
11106TIP3    H133275   7.342   2.968   6.392
11106TIP3    H233276   7.461   2.878   6.368
11107TIP3   OH233277   5.665   2.663   4.708
11107TIP3    H133278   5.570   2.663   4.697
11107TIP3    H233279   5.699   2.699   4.627
11108TIP3   OH233280   7.005   1.794   4.291
11108TIP3    H133281   7.073   1.845   4.335
11108TIP3    H233282   6.924   1.841   4.310
11109TIP3   OH233283   4.826   3.432   0.013
11109TIP3    H133284   4.775   3.374   0.068
11109TIP3    H233285   4.859   3.376  -0.057
11110TIP3   OH233286   6.001   4.280   3.259
11110TIP3    H133287   6.010   4.193   3.298
11110TIP3    H233288   5.988   4.338   3.334
11111TIP3   OH233289   1.713   2.152   4.093
11111TIP3    H133290   1.792   2.192   4.128
11111TIP3    H233291   1.641   2.202   4.131
11112TIP3   OH233292   1.854   2.719   2.368
11112TIP3    H133293   1.917   2.654   2.400
11112TIP3    H233294   1.907   2.780   2.316
11113TIP3   OH233295   4.042   4.739   6.481
11113TIP3    H133296   4.021   4.660   6.530
11113TIP3    H233297   4.020   4.718   6.390
11114TIP3   OH233298   3.124   7.339   1.864
11114TIP3    H133299   3.040   7.353   1.906
11114TIP3    H233300   3.188   7.381   1.922
11115TIP3   OH233301   1.578   2.778   0.061
11115TIP3    H133302   1.634   2.711   0.021
11115TIP3    H233303   1.618   2.861   0.035
11116TIP3   OH233304   5.227   6.989   2.346
11116TIP3    H133305   5.194   6.928   2.412
11116TIP3    H233306   5.281   6.935   2.288
11117TIP3   OH233307   2.156   5.645   0.798
11117TIP3    H133308   2.229   5.590   0.827
11117TIP3    H233309   2.127   5.605   0.716
11118TIP3   OH233310   1.629   1.521   4.410
11118TIP3    H133311   1.541   1.549   4.435
11118TIP3    H233312   1.617   1.436   4.369
11119TIP3   OH233313   7.527   2.555   1.752
11119TIP3    H133314   7.487   2.638   1.726
11119TIP3    H233315   7.525   2.558   1.848
11120TIP3   OH233316   1.707   2.882   4.799
11120TIP3    H133317   1.734   2.885   4.891
11120TIP3    H233318   1.784   2.848   4.753
11121TIP3   OH233319   5.039   1.240   6.081
11121TIP3    H133320   5.115   1.218   6.027
11121TIP3    H233321   5.072   1.304   6.144
11122TIP3   OH233322   2.866   5.935   5.253
11122TIP3    H133323   2.854   5.946   5.347
11122TIP3    H233324   2.907   5.849   5.244
11123TIP3   OH233325   5.464   2.024   1.914
11123TIP3    H133326   5.403   2.098   1.915
11123TIP3    H233327   5.431   1.966   1.982
11124TIP3   OH233328   0.725   5.026   0.040
11124TIP3    H133329   0.777   4.999   0.116
11124TIP3    H233330   0.785   5.020  -0.034
11125TIP3   OH233331   7.952   0.931   6.333
11125TIP3    H133332   8.028   0.986   6.352
11125TIP3    H233333   7.986   0.862   6.276
11126TIP3   OH233334   2.941   2.133   2.001
11126TIP3    H133335   2.940   2.221   1.965
11126TIP3    H233336   3.032   2.104   1.991
11127TIP3   OH233337   7.994   5.054   6.410
11127TIP3    H133338   8.045   4.986   6.365
11127TIP3    H233339   8.036   5.063   6.496
11128TIP3   OH233340   0.115   4.445   6.353
11128TIP3    H133341   0.096   4.359   6.389
11128TIP3    H233342   0.204   4.437   6.317
11129TIP3   OH233343   3.536   6.950   4.422
11129TIP3    H133344   3.606   6.996   4.376
11129TIP3    H233345   3.458   6.964   4.368
11130TIP3   OH233346   1.929   0.137   1.153
11130TIP3    H133347   1.917   0.042   1.146
11130TIP3    H233348   1.852   0.168   1.200
11131TIP3   OH233349   5.368   2.293   0.536
11131TIP3    H133350   5.336   2.209   0.503
11131TIP3    H233351   5.426   2.270   0.609
11132TIP3   OH233352   6.280   4.877   0.764
11132TIP3    H133353   6.267   4.783   0.749
11132TIP3    H233354   6.330   4.880   0.846
11133TIP3   OH233355   3.526   4.376   0.737
11133TIP3    H133356   3.466   4.383   0.810
11133TIP3    H233357   3.555   4.466   0.721
11134TIP3   OH233358   0.964   2.031   2.437
11134TIP3    H133359   1.032   1.973   2.471
11134TIP3    H233360   0.883   1.997   2.475
11135TIP3   OH233361   0.651   5.491   6.172
11135TIP3    H133362   0.626   5.440   6.249
11135TIP3    H233363   0.700   5.430   6.117
11136TIP3   OH233364   3.173   2.266   2.461
11136TIP3    H133365   3.110   2.195   2.449
11136TIP3    H233366   3.183   2.305   2.374
11137TIP3   OH233367   0.689   6.198   1.407
11137TIP3    H133368   0.665   6.276   1.458
11137TIP3    H233369   0.655   6.125   1.458
11138TIP3   OH233370   1.308   0.960   2.731
11138TIP3    H133371   1.215   0.955   2.707
11138TIP3    H233372   1.324   1.054   2.742
11139TIP3   OH233373   7.690   2.851   2.578
11139TIP3    H133374   7.647   2.780   2.531
11139TIP3    H233375   7.658   2.844   2.668
11140TIP3   OH233376   1.610   3.452   4.322
11140TIP3    H133377   1.688   3.397   4.316
11140TIP3    H233378   1.538   3.391   4.337
11141TIP3   OH233379   3.531   6.275   0.655
11141TIP3    H133380   3.478   6.354   0.651
11141TIP3    H233381   3.479   6.213   0.705
11142TIP3   OH233382   5.946   1.608   2.068
11142TIP3    H133383   6.011   1.599   1.998
11142TIP3    H233384   5.914   1.519   2.082
11143TIP3   OH233385   2.307   6.893   0.378
11143TIP3    H133386   2.246   6.939   0.435
11143TIP3    H233387   2.383   6.951   0.372
11144TIP3   OH233388   1.028   6.123   2.089
11144TIP3    H133389   1.105   6.179   2.085
11144TIP3    H233390   0.958   6.181   2.121
11145TIP3   OH233391   4.046   5.707   6.299
11145TIP3    H133392   4.026   5.730   6.209
11145TIP3    H233393   4.036   5.611   6.302
11146TIP3   OH233394   6.641   1.053   4.312
11146TIP3    H133395   6.584   0.988   4.271
11146TIP3    H233396   6.598   1.137   4.297
11147TIP3   OH233397   3.424   6.691   3.563
11147TIP3    H133398   3.392   6.685   3.653
11147TIP3    H233399   3.406   6.781   3.537
11148TIP3   OH233400   5.533   7.763   3.314
11148TIP3    H133401   5.487   7.804   3.240
11148TIP3    H233402   5.624   7.789   3.302
11149TIP3   OH233403   3.579   1.484   4.020
11149TIP3    H133404   3.665   1.454   3.991
11149TIP3    H233405   3.525   1.479   3.942
11150TIP3   OH233406   2.579   6.543   5.183
11150TIP3    H133407   2.656   6.599   5.183
11150TIP3    H233408   2.614   6.454   5.190
11151TIP3   OH233409   5.576   4.130   3.622
11151TIP3    H133410   5.672   4.135   3.613
11151TIP3    H233411   5.561   4.124   3.716
11152TIP3   OH233412   4.990   2.976   5.870
11152TIP3    H133413   4.972   3.049   5.810
11152TIP3    H233414   4.943   2.901   5.831
11153TIP3   OH233415   1.096   2.509   4.827
11153TIP3    H133416   1.137   2.571   4.888
11153TIP3    H233417   1.007   2.543   4.815
11154TIP3   OH233418   1.043   0.113  -0.031
11154TIP3    H133419   0.997   0.195  -0.011
11154TIP3    H233420   1.042   0.065   0.052
11155TIP3   OH233421   6.225   6.212   5.079
11155TIP3    H133422   6.297   6.192   5.138
11155TIP3    H233423   6.237   6.304   5.056
11156TIP3   OH233424   6.955   0.739   2.248
11156TIP3    H133425   6.978   0.820   2.202
11156TIP3    H233426   6.890   0.697   2.190
11157TIP3   OH233427   1.360   6.760   2.509
11157TIP3    H133428   1.442   6.716   2.487
11157TIP3    H233429   1.303   6.741   2.434
11158TIP3   OH233430   4.084   4.099   1.980
11158TIP3    H133431   4.121   4.175   2.026
11158TIP3    H233432   3.989   4.114   1.983
11159TIP3   OH233433   7.263   0.359   6.028
11159TIP3    H133434   7.232   0.381   5.940
11159TIP3    H233435   7.202   0.292   6.059
11160TIP3   OH233436   8.189   3.711   0.980
11160TIP3    H133437   8.231   3.710   1.066
11160TIP3    H233438   8.100   3.743   0.997
11161TIP3   OH233439   0.634   7.315   2.157
11161TIP3    H133440   0.630   7.410   2.157
11161TIP3    H233441   0.660   7.291   2.246
11162TIP3   OH233442   7.305   1.658   6.103
11162TIP3    H133443   7.259   1.697   6.178
11162TIP3    H233444   7.236   1.621   6.049
11163TIP3   OH233445   2.258   3.100   3.875
11163TIP3    H133446   2.242   3.168   3.809
11163TIP3    H233447   2.320   3.040   3.834
11164TIP3   OH233448   2.663   4.095   2.119
11164TIP3    H133449   2.618   4.174   2.090
11164TIP3    H233450   2.613   4.066   2.195
11165TIP3   OH233451   7.856   6.658   3.108
11165TIP3    H133452   7.770   6.626   3.136
11165TIP3    H233453   7.902   6.579   3.080
11166TIP3   OH233454   2.293   4.769   6.008
11166TIP3    H133455   2.212   4.727   5.979
11166TIP3    H233456   2.362   4.717   5.966
11167TIP3   OH233457   6.199   2.207   2.323
11167TIP3    H133458   6.267   2.265   2.357
11167TIP3    H233459   6.198   2.133   2.383
11168TIP3   OH233460   4.119   7.268   6.409
11168TIP3    H133461   4.158   7.207   6.472
11168TIP3    H233462   4.115   7.352   6.456
11169TIP3   OH233463   3.194   7.456   2.467
11169TIP3    H133464   3.288   7.465   2.451
11169TIP3    H233465   3.187   7.383   2.528
11170TIP3   OH233466   4.372   5.182   2.516
11170TIP3    H133467   4.449   5.125   2.517
11170TIP3    H233468   4.352   5.192   2.423
11171TIP3   OH233469   3.932   6.688   2.370
11171TIP3    H133470   3.906   6.779   2.359
11171TIP3    H233471   4.006   6.691   2.431
11172TIP3   OH233472   7.794   3.792   6.289
11172TIP3    H133473   7.758   3.819   6.373
11172TIP3    H233474   7.729   3.732   6.253
11173TIP3   OH233475   5.877   6.016   4.785
11173TIP3    H133476   5.828   5.999   4.705
11173TIP3    H233477   5.921   5.933   4.804
11174TIP3   OH233478   4.543   0.101   3.133
11174TIP3    H133479   4.509   0.163   3.198
11174TIP3    H233480   4.615   0.148   3.091
11175TIP3   OH233481   1.245   6.832   3.280
11175TIP3    H133482   1.286   6.753   3.244
11175TIP3    H233483   1.314   6.898   3.277
11176TIP3   OH233484   4.170   3.233   2.797
11176TIP3    H133485   4.235   3.289   2.755
11176TIP3    H233486   4.170   3.259   2.889
11177TIP3   OH233487   2.710   1.879   1.511
11177TIP3    H133488   2.681   1.942   1.577
11177TIP3    H233489   2.672   1.796   1.540
11178TIP3   OH233490   5.876   7.514   6.581
11178TIP3    H133491   5.868   7.480   6.670
11178TIP3    H233492   5.799   7.480   6.535
11179TIP3   OH233493   0.643   0.145   4.559
11179TIP3    H133494   0.698   0.070   4.581
11179TIP3    H233495   0.631   0.139   4.464
11180TIP3   OH233496   0.846   4.776   6.152
11180TIP3    H133497   0.896   4.714   6.205
11180TIP3    H233498   0.757   4.771   6.187
11181TIP3   OH233499   3.803   2.656   1.523
11181TIP3    H133500   3.725   2.660   1.468
11181TIP3    H233501   3.783   2.713   1.597
11182TIP3   OH233502   1.405   4.615   3.582
11182TIP3    H133503   1.421   4.701   3.621
11182TIP3    H233504   1.312   4.598   3.598
11183TIP3   OH233505   4.727   4.140   5.266
11183TIP3    H133506   4.736   4.103   5.353
11183TIP3    H233507   4.674   4.077   5.217
11184TIP3   OH233508   0.481   1.757   4.245
11184TIP3    H133509   0.521   1.687   4.297
11184TIP3    H233510   0.388   1.738   4.247
11185TIP3   OH233511   4.141   5.068   2.980
11185TIP3    H133512   4.077   5.122   3.026
11185TIP3    H233513   4.213   5.058   3.042
11186TIP3   OH233514   1.659   6.828   4.259
11186TIP3    H133515   1.606   6.893   4.214
11186TIP3    H233516   1.600   6.753   4.271
11187TIP3   OH233517   7.050   0.011   4.939
11187TIP3    H133518   7.023  -0.001   4.848
11187TIP3    H233519   7.144  -0.003   4.938
11188TIP3   OH233520   0.536   0.430   5.812
11188TIP3    H133521   0.518   0.473   5.895
11188TIP3    H233522   0.483   0.350   5.814
11189TIP3   OH233523   8.230   5.671   5.827
11189TIP3    H133524   8.141   5.673   5.864
11189TIP3    H233525   8.257   5.579   5.836
11190TIP3   OH233526   3.960   0.029   4.876
11190TIP3    H133527   3.981   0.088   4.948
11190TIP3    H233528   4.033   0.039   4.815
11191TIP3   OH233529   6.971   3.827   0.791
11191TIP3    H133530   6.915   3.859   0.721
11191TIP3    H233531   6.954   3.886   0.864
11192TIP3   OH233532   3.605   4.122   2.438
11192TIP3    H133533   3.541   4.060   2.403
11192TIP3    H233534   3.690   4.085   2.414
11193TIP3   OH233535   4.856   3.218   5.465
11193TIP3    H133536   4.804   3.296   5.448
11193TIP3    H233537   4.937   3.250   5.504
11194TIP3   OH233538   3.477   2.176   4.390
11194TIP3    H133539   3.525   2.244   4.436
11194TIP3    H233540   3.453   2.216   4.306
11195TIP3   OH233541   8.105   2.343   0.639
11195TIP3    H133542   8.152   2.264   0.612
11195TIP3    H233543   8.173   2.406   0.662
11196TIP3   OH233544   1.305   2.306   6.458
11196TIP3    H133545   1.293   2.394   6.496
11196TIP3    H233546   1.328   2.251   6.532
11197TIP3   OH233547   3.127   1.214   2.367
11197TIP3    H133548   3.074   1.184   2.294
11197TIP3    H233549   3.204   1.158   2.366
11198TIP3   OH233550   0.692   3.295   2.608
11198TIP3    H133551   0.725   3.381   2.581
11198TIP3    H233552   0.667   3.252   2.526
11199TIP3   OH233553   6.309   0.151   4.818
11199TIP3    H133554   6.229   0.203   4.811
11199TIP3    H233555   6.292   0.074   4.765
11200TIP3   OH233556   6.792   3.077   3.215
11200TIP3    H133557   6.791   3.018   3.140
11200TIP3    H233558   6.733   3.037   3.279
11201TIP3   OH233559   6.464   6.856   5.596
11201TIP3    H133560   6.501   6.768   5.583
11201TIP3    H233561   6.377   6.851   5.557
11202TIP3   OH233562   0.206   4.373   5.278
11202TIP3    H133563   0.145   4.390   5.350
11202TIP3    H233564   0.222   4.459   5.240
11203TIP3   OH233565   6.934   2.905   5.174
11203TIP3    H133566   7.014   2.923   5.225
11203TIP3    H233567   6.940   2.964   5.099
11204TIP3   OH233568   6.378   0.257   5.072
11204TIP3    H133569   6.370   0.268   4.977
11204TIP3    H233570   6.440   0.185   5.083
11205TIP3   OH233571   3.670   1.603   2.706
11205TIP3    H133572   3.692   1.631   2.617
11205TIP3    H233573   3.578   1.576   2.700
11206TIP3   OH233574   1.924   2.394   1.976
11206TIP3    H133575   1.928   2.471   1.920
11206TIP3    H233576   1.910   2.428   2.064
11207TIP3   OH233577   2.707   3.537   0.733
11207TIP3    H133578   2.785   3.593   0.732
11207TIP3    H233579   2.659   3.563   0.654
11208TIP3   OH233580   4.347   3.565   0.469
11208TIP3    H133581   4.415   3.520   0.520
11208TIP3    H233582   4.317   3.500   0.406
11209TIP3   OH233583   6.629   2.229   5.826
11209TIP3    H133584   6.680   2.308   5.843
11209TIP3    H233585   6.565   2.255   5.760
11210TIP3   OH233586   6.674   0.724   4.314
11210TIP3    H133587   6.661   0.665   4.240
11210TIP3    H233588   6.756   0.769   4.294
11211TIP3   OH233589   5.159   6.166   5.311
11211TIP3    H133590   5.114   6.090   5.275
11211TIP3    H233591   5.099   6.239   5.297
11212TIP3   OH233592   6.768   7.726   2.694
11212TIP3    H133593   6.756   7.820   2.683
11212TIP3    H233594   6.863   7.715   2.698
11213TIP3   OH233595   5.309   1.759   1.585
11213TIP3    H133596   5.375   1.724   1.644
11213TIP3    H233597   5.359   1.807   1.518
11214TIP3   OH233598   3.178   1.580   1.556
11214TIP3    H133599   3.212   1.647   1.496
11214TIP3    H233600   3.083   1.593   1.553
11215TIP3   OH233601   4.041   6.167   4.345
11215TIP3    H133602   4.113   6.227   4.364
11215TIP3    H233603   3.962   6.213   4.374
11216TIP3   OH233604   4.146   6.467   0.084
11216TIP3    H133605   4.059   6.453   0.047
11216TIP3    H233606   4.189   6.527   0.022
11217TIP3   OH233607   2.267   3.219   0.377
11217TIP3    H133608   2.263   3.257   0.289
11217TIP3    H233609   2.285   3.294   0.434
11218TIP3   OH233610   4.656   5.411   2.456
11218TIP3    H133611   4.605   5.338   2.490
11218TIP3    H233612   4.716   5.371   2.392
11219TIP3   OH233613   1.347   0.092   3.396
11219TIP3    H133614   1.358   0.085   3.491
11219TIP3    H233615   1.403   0.023   3.360
11220TIP3   OH233616   3.911   5.874   0.983
11220TIP3    H133617   3.919   5.948   1.044
11220TIP3    H233618   3.841   5.900   0.923
11221TIP3   OH233619   2.424   3.413   5.773
11221TIP3    H133620   2.468   3.494   5.749
11221TIP3    H233621   2.462   3.388   5.857
11222TIP3   OH233622   7.649   3.061   2.050
11222TIP3    H133623   7.612   3.097   2.131
11222TIP3    H233624   7.725   3.010   2.079
11223TIP3   OH233625   6.000   3.718   2.839
11223TIP3    H133626   5.981   3.804   2.878
11223TIP3    H233627   6.072   3.735   2.778
11224TIP3   OH233628   6.386   3.498   4.915
11224TIP3    H133629   6.329   3.557   4.966
11224TIP3    H233630   6.330   3.468   4.843
11225TIP3   OH233631   2.566   2.121   3.366
11225TIP3    H133632   2.575   2.131   3.271
11225TIP3    H233633   2.648   2.079   3.394
11226TIP3   OH233634   6.210   4.990   5.477
11226TIP3    H133635   6.257   4.962   5.555
11226TIP3    H233636   6.218   5.085   5.476
11227TIP3   OH233637   2.122   3.552   0.718
11227TIP3    H133638   2.199   3.600   0.749
11227TIP3    H233639   2.135   3.463   0.752
11228TIP3   OH233640   8.100   4.299   2.526
11228TIP3    H133641   8.012   4.333   2.541
11228TIP3    H233642   8.097   4.264   2.437
11229TIP3   OH233643   0.800   1.515   5.284
11229TIP3    H133644   0.857   1.489   5.355
11229TIP3    H233645   0.826   1.460   5.210
11230TIP3   OH233646   7.735   6.034   1.371
11230TIP3    H133647   7.730   6.129   1.377
11230TIP3    H233648   7.697   6.013   1.285
11231TIP3   OH233649   4.056   6.207   3.340
11231TIP3    H133650   4.085   6.197   3.431
11231TIP3    H233651   3.964   6.178   3.341
11232TIP3   OH233652   5.407   3.852   1.230
11232TIP3    H133653   5.490   3.806   1.244
11232TIP3    H233654   5.428   3.944   1.246
11233TIP3   OH233655   4.204   6.186   3.604
11233TIP3    H133656   4.273   6.140   3.651
11233TIP3    H233657   4.128   6.182   3.661
11234TIP3   OH233658   5.481   4.369   1.507
11234TIP3    H133659   5.535   4.292   1.489
11234TIP3    H233660   5.435   4.347   1.587
11235TIP3   OH233661   2.569   1.280   3.623
11235TIP3    H133662   2.557   1.193   3.584
11235TIP3    H233663   2.486   1.324   3.610
11236TIP3   OH233664   4.734   7.729   5.739
11236TIP3    H133665   4.649   7.686   5.727
11236TIP3    H233666   4.758   7.759   5.651
11237TIP3   OH233667   0.132   5.307   4.658
11237TIP3    H133668   0.186   5.373   4.703
11237TIP3    H233669   0.049   5.308   4.706
11238TIP3   OH233670   2.196   5.544   3.192
11238TIP3    H133671   2.138   5.481   3.233
11238TIP3    H233672   2.138   5.608   3.151
11239TIP3   OH233673   7.681   2.405   0.371
11239TIP3    H133674   7.661   2.329   0.317
11239TIP3    H233675   7.748   2.452   0.322
11240TIP3   OH233676   7.658   7.466   0.483
11240TIP3    H133677   7.665   7.511   0.399
11240TIP3    H233678   7.566   7.437   0.486
11241TIP3   OH233679   4.097   1.469   4.055
11241TIP3    H133680   4.011   1.466   4.097
11241TIP3    H233681   4.118   1.377   4.036
11242TIP3   OH233682   0.568   0.875   3.548
11242TIP3    H133683   0.576   0.781   3.563
11242TIP3    H233684   0.522   0.908   3.625
11243TIP3   OH233685   5.207   1.068   3.732
11243TIP3    H133686   5.252   1.147   3.703
11243TIP3    H233687   5.171   1.091   3.818
11244TIP3   OH233688   2.398   6.479   1.098
11244TIP3    H133689   2.424   6.469   1.190
11244TIP3    H233690   2.350   6.399   1.078
11245TIP3   OH233691   7.534   2.486   2.957
11245TIP3    H133692   7.480   2.508   2.882
11245TIP3    H233693   7.600   2.555   2.960
11246TIP3   OH233694   5.468   2.947   6.647
11246TIP3    H133695   5.562   2.963   6.639
11246TIP3    H233696   5.442   2.996   6.725
11247TIP3   OH233697   5.004   1.815   0.664
11247TIP3    H133698   4.922   1.782   0.629
11247TIP3    H233699   5.000   1.910   0.649
11248TIP3   OH233700   5.011   2.462   0.237
11248TIP3    H133701   5.071   2.507   0.178
11248TIP3    H233702   5.062   2.387   0.270
11249TIP3   OH233703   4.462   5.084   3.155
11249TIP3    H133704   4.453   4.999   3.111
11249TIP3    H233705   4.451   5.064   3.248
11250TIP3   OH233706   2.507   1.528   0.768
11250TIP3    H133707   2.562   1.532   0.690
11250TIP3    H233708   2.444   1.599   0.757
11251TIP3   OH233709   1.869   4.051   3.204
11251TIP3    H133710   1.962   4.071   3.213
11251TIP3    H233711   1.837   4.116   3.142
11252TIP3   OH233712   4.448   6.972   4.287
11252TIP3    H133713   4.417   7.036   4.351
11252TIP3    H233714   4.496   6.907   4.340
11253TIP3   OH233715   6.561   1.818   3.015
11253TIP3    H133716   6.598   1.734   3.041
11253TIP3    H233717   6.468   1.810   3.032
11254TIP3   OH233718   6.483   2.267   0.577
11254TIP3    H133719   6.449   2.187   0.618
11254TIP3    H233720   6.410   2.330   0.584
11255TIP3   OH233721   6.667   0.617   4.552
11255TIP3    H133722   6.667   0.652   4.463
11255TIP3    H233723   6.664   0.522   4.540
11256TIP3   OH233724   3.168   2.444   4.880
11256TIP3    H133725   3.253   2.439   4.838
11256TIP3    H233726   3.132   2.355   4.873
11257TIP3   OH233727   1.072   3.755   5.997
11257TIP3    H133728   0.989   3.784   6.034
11257TIP3    H233729   1.050   3.727   5.908
11258TIP3   OH233730   4.013   2.987   2.753
11258TIP3    H133731   3.947   3.026   2.696
11258TIP3    H233732   4.089   3.045   2.744
11259TIP3   OH233733   1.671   2.045   2.579
11259TIP3    H133734   1.652   2.011   2.667
11259TIP3    H233735   1.661   2.139   2.587
11260TIP3   OH233736   7.178   5.438   5.792
11260TIP3    H133737   7.273   5.431   5.799
11260TIP3    H233738   7.157   5.520   5.837
11261TIP3   OH233739   1.419   5.378   0.810
11261TIP3    H133740   1.485   5.447   0.821
11261TIP3    H233741   1.467   5.297   0.823
11262TIP3   OH233742   4.130   6.075   0.240
11262TIP3    H133743   4.056   6.136   0.240
11262TIP3    H233744   4.099   6.001   0.188
11263TIP3   OH233745   4.221   5.187   0.174
11263TIP3    H133746   4.245   5.120   0.110
11263TIP3    H233747   4.160   5.144   0.233
11264TIP3   OH233748   4.989   6.610   1.063
11264TIP3    H133749   5.031   6.561   0.992
11264TIP3    H233750   4.934   6.546   1.108
11265TIP3   OH233751   6.842   0.882   2.470
11265TIP3    H133752   6.895   0.823   2.417
11265TIP3    H233753   6.818   0.830   2.547
11266TIP3   OH233754   3.311   0.485   1.403
11266TIP3    H133755   3.373   0.412   1.403
11266TIP3    H233756   3.258   0.471   1.482
11267TIP3   OH233757   0.655   0.990   2.199
11267TIP3    H133758   0.740   0.975   2.239
11267TIP3    H233759   0.597   0.926   2.241
11268TIP3   OH233760   4.460   3.014   6.392
11268TIP3    H133761   4.400   3.044   6.461
11268TIP3    H233762   4.403   3.000   6.316
11269TIP3   OH233763   1.290   1.166   0.605
11269TIP3    H133764   1.254   1.212   0.529
11269TIP3    H233765   1.263   1.219   0.680
11270TIP3   OH233766   2.691   4.058   5.333
11270TIP3    H133767   2.673   3.979   5.283
11270TIP3    H233768   2.610   4.075   5.382
11271TIP3   OH233769   3.724   2.605   4.620
11271TIP3    H133770   3.806   2.636   4.659
11271TIP3    H233771   3.659   2.670   4.648
11272TIP3   OH233772   3.156   2.611   1.656
11272TIP3    H133773   3.251   2.611   1.659
11272TIP3    H233774   3.130   2.537   1.711
11273TIP3   OH233775   7.927   3.021   2.068
11273TIP3    H133776   7.998   3.061   2.018
11273TIP3    H233777   7.915   2.935   2.030
11274TIP3   OH233778   7.900   4.989   4.523
11274TIP3    H133779   7.856   5.061   4.478
11274TIP3    H233780   7.976   4.969   4.468
11275TIP3   OH233781   8.208   4.970   6.256
11275TIP3    H133782   8.190   5.032   6.186
11275TIP3    H233783   8.293   4.933   6.234
11276TIP3   OH233784   3.353   3.968   1.497
11276TIP3    H133785   3.429   4.016   1.530
11276TIP3    H233786   3.385   3.926   1.417
11277TIP3   OH233787   6.723   6.717   1.192
11277TIP3    H133788   6.634   6.745   1.170
11277TIP3    H233789   6.712   6.633   1.237
11278TIP3   OH233790   5.854   5.382   1.541
11278TIP3    H133791   5.871   5.461   1.490
11278TIP3    H233792   5.867   5.409   1.632
11279TIP3   OH233793   6.695   1.955   5.901
11279TIP3    H133794   6.666   2.047   5.905
11279TIP3    H233795   6.671   1.919   5.987
11280TIP3   OH233796   4.322   5.163   6.540
11280TIP3    H133797   4.259   5.095   6.565
11280TIP3    H233798   4.309   5.175   6.446
11281TIP3   OH233799   0.966   4.800   3.992
11281TIP3    H133800   1.030   4.732   3.969
11281TIP3    H233801   0.891   4.752   4.027
11282TIP3   OH233802   2.157   4.304   5.434
11282TIP3    H133803   2.110   4.272   5.357
11282TIP3    H233804   2.127   4.394   5.445
11283TIP3   OH233805   6.568   6.952   4.218
11283TIP3    H133806   6.634   6.995   4.272
11283TIP3    H233807   6.569   6.861   4.245
11284TIP3   OH233808   5.467   3.093   3.155
11284TIP3    H133809   5.414   3.013   3.162
11284TIP3    H233810   5.554   3.066   3.183
11285TIP3   OH233811   6.392   0.086   0.727
11285TIP3    H133812   6.339   0.164   0.743
11285TIP3    H233813   6.422   0.095   0.637
11286TIP3   OH233814   3.188   5.365   1.318
11286TIP3    H133815   3.278   5.378   1.349
11286TIP3    H233816   3.171   5.439   1.261
11287TIP3   OH233817   1.255   2.704   3.134
11287TIP3    H133818   1.253   2.798   3.119
11287TIP3    H233819   1.344   2.688   3.167
11288TIP3   OH233820   4.709   1.996   4.512
11288TIP3    H133821   4.635   1.960   4.561
11288TIP3    H233822   4.679   2.083   4.484
11289TIP3   OH233823   4.938   1.300   6.408
11289TIP3    H133824   4.855   1.316   6.361
11289TIP3    H233825   4.988   1.244   6.348
11290TIP3   OH233826   7.365   6.632   1.505
11290TIP3    H133827   7.321   6.661   1.425
11290TIP3    H233828   7.371   6.711   1.559
11291TIP3   OH233829   3.057   6.118   3.024
11291TIP3    H133830   2.988   6.128   2.958
11291TIP3    H233831   3.022   6.160   3.102
11292TIP3   OH233832   3.882   2.295   3.985
11292TIP3    H133833   3.905   2.226   4.048
11292TIP3    H233834   3.806   2.339   4.025
11293TIP3   OH233835   7.785   1.690   6.306
11293TIP3    H133836   7.788   1.647   6.220
11293TIP3    H233837   7.850   1.643   6.358
11294TIP3   OH233838   3.220   6.245   2.831
11294TIP3    H133839   3.313   6.263   2.840
11294TIP3    H233840   3.204   6.170   2.888
11295TIP3   OH233841   0.447   6.145   0.536
11295TIP3    H133842   0.353   6.162   0.539
11295TIP3    H233843   0.454   6.058   0.495
11296TIP3   OH233844   0.577   7.177   0.616
11296TIP3    H133845   0.492   7.220   0.624
11296TIP3    H233846   0.557   7.084   0.616
11297TIP3   OH233847   6.084   2.929   2.954
11297TIP3    H133848   6.033   2.996   2.909
11297TIP3    H233849   6.143   2.894   2.887
11298TIP3   OH233850   4.186   2.563   1.050
11298TIP3    H133851   4.254   2.580   0.985
11298TIP3    H233852   4.113   2.526   1.000
11299TIP3   OH233853   4.440   1.057   2.830
11299TIP3    H133854   4.371   1.032   2.892
11299TIP3    H233855   4.421   1.149   2.809
11300TIP3   OH233856   7.191   5.060   1.313
11300TIP3    H133857   7.286   5.056   1.311
11300TIP3    H233858   7.168   5.129   1.251
11301TIP3   OH233859   1.386   6.824   5.741
11301TIP3    H133860   1.459   6.765   5.758
11301TIP3    H233861   1.382   6.882   5.817
11302TIP3   OH233862   0.151   0.945   1.100
11302TIP3    H133863   0.076   0.931   1.158
11302TIP3    H233864   0.207   0.869   1.114
11303TIP3   OH233865   1.348   4.721   0.706
11303TIP3    H133866   1.380   4.634   0.729
11303TIP3    H233867   1.427   4.775   0.699
11304TIP3   OH233868   0.761   3.479   1.628
11304TIP3    H133869   0.682   3.526   1.601
11304TIP3    H233870   0.817   3.547   1.666
11305TIP3   OH233871   1.605   6.947   6.171
11305TIP3    H133872   1.535   6.925   6.110
11305TIP3    H233873   1.585   6.898   6.251
11306TIP3   OH233874   0.500   2.312   3.910
11306TIP3    H133875   0.462   2.396   3.935
11306TIP3    H233876   0.452   2.247   3.962
11307TIP3   OH233877   8.119   1.828   2.993
11307TIP3    H133878   8.064   1.756   3.024
11307TIP3    H233879   8.131   1.884   3.069
11308TIP3   OH233880   4.782   0.324   0.372
11308TIP3    H133881   4.688   0.311   0.381
11308TIP3    H233882   4.812   0.345   0.461
11309TIP3   OH233883   6.144   1.634   5.072
11309TIP3    H133884   6.176   1.552   5.109
11309TIP3    H233885   6.167   1.629   4.979
11310TIP3   OH233886   2.482   6.424   6.174
11310TIP3    H133887   2.472   6.517   6.195
11310TIP3    H233888   2.471   6.380   6.258
11311TIP3   OH233889   6.792   4.305   6.059
11311TIP3    H133890   6.783   4.211   6.074
11311TIP3    H233891   6.879   4.327   6.091
11312TIP3   OH233892   6.068   7.442   0.823
11312TIP3    H133893   6.004   7.513   0.831
11312TIP3    H233894   6.035   7.388   0.752
11313TIP3   OH233895   0.779   3.324   3.198
11313TIP3    H133896   0.867   3.360   3.195
11313TIP3    H233897   0.773   3.281   3.283
11314TIP3   OH233898   0.767   5.426   2.687
11314TIP3    H133899   0.854   5.460   2.710
11314TIP3    H233900   0.775   5.331   2.696
11315TIP3   OH233901   1.667   6.682   6.032
11315TIP3    H133902   1.582   6.640   6.047
11315TIP3    H233903   1.668   6.701   5.938
11316TIP3   OH233904   8.039   6.990   3.607
11316TIP3    H133905   8.048   7.085   3.599
11316TIP3    H233906   8.037   6.958   3.517
11317TIP3   OH233907   4.593   2.845   5.301
11317TIP3    H133908   4.634   2.931   5.294
11317TIP3    H233909   4.625   2.809   5.383
11318TIP3   OH233910   6.569   1.813   6.142
11318TIP3    H133911   6.560   1.783   6.233
11318TIP3    H233912   6.490   1.865   6.126
11319TIP3   OH233913   2.584   0.304   5.305
11319TIP3    H133914   2.529   0.286   5.381
11319TIP3    H233915   2.528   0.356   5.247
11320TIP3   OH233916   2.934   7.088   0.873
11320TIP3    H133917   2.889   7.019   0.824
11320TIP3    H233918   2.866   7.126   0.929
11321TIP3   OH233919   1.013   2.960   0.823
11321TIP3    H133920   1.009   2.923   0.911
11321TIP3    H233921   0.936   3.018   0.818
11322TIP3   OH233922   3.513   2.196   5.247
11322TIP3    H133923   3.481   2.244   5.171
11322TIP3    H233924   3.563   2.124   5.210
11323TIP3   OH233925   3.374   5.040   0.580
11323TIP3    H133926   3.457   5.021   0.535
11323TIP3    H233927   3.322   4.961   0.568
11324TIP3   OH233928   4.965   1.948   6.437
11324TIP3    H133929   5.015   1.879   6.481
11324TIP3    H233930   5.030   2.015   6.415
11325TIP3   OH233931   0.155   4.023   4.936
11325TIP3    H133932   0.211   4.066   4.871
11325TIP3    H233933   0.089   4.089   4.957
11326TIP3   OH233934   6.413   7.210   0.888
11326TIP3    H133935   6.362   7.129   0.883
11326TIP3    H233936   6.427   7.234   0.796
11327TIP3   OH233937   4.855   4.730   6.407
11327TIP3    H133938   4.861   4.665   6.477
11327TIP3    H233939   4.775   4.779   6.427
11328TIP3   OH233940   8.160   5.646   6.562
11328TIP3    H133941   8.217   5.706   6.514
11328TIP3    H233942   8.071   5.678   6.545
11329TIP3   OH233943   5.694   3.568   2.675
11329TIP3    H133944   5.708   3.627   2.749
11329TIP3    H233945   5.599   3.556   2.671
11330TIP3   OH233946   0.788   1.792   4.235
11330TIP3    H133947   0.831   1.843   4.166
11330TIP3    H233948   0.697   1.821   4.233
11331TIP3   OH233949   6.326   2.635   0.733
11331TIP3    H133950   6.312   2.728   0.714
11331TIP3    H233951   6.419   2.629   0.756
11332TIP3   OH233952   7.283   0.165   0.990
11332TIP3    H133953   7.266   0.089   0.933
11332TIP3    H233954   7.330   0.128   1.065
11333TIP3   OH233955   5.437   7.758   2.698
11333TIP3    H133956   5.510   7.815   2.675
11333TIP3    H233957   5.370   7.817   2.731
11334TIP3   OH233958   3.679   1.068   3.854
11334TIP3    H133959   3.693   1.026   3.939
11334TIP3    H233960   3.629   1.004   3.803
11335TIP3   OH233961   4.192   3.628   5.543
11335TIP3    H133962   4.235   3.617   5.458
11335TIP3    H233963   4.102   3.598   5.528
11336TIP3   OH233964   8.089   0.345   6.763
11336TIP3    H133965   8.175   0.322   6.799
11336TIP3    H233966   8.087   0.440   6.764
11337TIP3   OH233967   4.531   4.825   0.077
11337TIP3    H133968   4.523   4.800   0.169
11337TIP3    H233969   4.615   4.790   0.049
11338TIP3   OH233970   4.776   5.698   5.578
11338TIP3    H133971   4.715   5.630   5.552
11338TIP3    H233972   4.837   5.705   5.505
11339TIP3   OH233973   7.784   0.820   5.899
11339TIP3    H133974   7.876   0.812   5.876
11339TIP3    H233975   7.784   0.867   5.983
11340TIP3   OH233976   8.113   2.040   1.109
11340TIP3    H133977   8.035   2.018   1.057
11340TIP3    H233978   8.095   2.127   1.144
11341TIP3   OH233979   4.458   3.885   2.671
11341TIP3    H133980   4.519   3.812   2.680
11341TIP3    H233981   4.469   3.914   2.580
11342TIP3   OH233982   0.711   3.768   5.350
11342TIP3    H133983   0.644   3.708   5.317
11342TIP3    H233984   0.794   3.726   5.329
11343TIP3   OH233985   6.799   7.007   3.517
11343TIP3    H133986   6.786   7.097   3.486
11343TIP3    H233987   6.719   6.985   3.564
11344TIP3   OH233988   6.778   3.352   5.992
11344TIP3    H133989   6.836   3.415   6.034
11344TIP3    H233990   6.693   3.367   6.033
11345TIP3   OH233991   5.879   7.833   3.518
11345TIP3    H133992   5.860   7.901   3.583
11345TIP3    H233993   5.863   7.751   3.563
11346TIP3   OH233994   7.131   3.667   5.935
11346TIP3    H133995   7.220   3.645   5.908
11346TIP3    H233996   7.105   3.738   5.875
11347TIP3   OH233997   3.212   5.485   1.818
11347TIP3    H133998   3.145   5.449   1.759
11347TIP3    H233999   3.183   5.575   1.835
11348TIP3   OH234000   7.276   6.978   0.887
11348TIP3    H134001   7.187   6.970   0.852
11348TIP3    H234002   7.295   6.892   0.924
11349TIP3   OH234003   4.003   0.925   0.737
11349TIP3    H134004   3.992   0.945   0.830
11349TIP3    H234005   4.043   1.004   0.700
11350TIP3   OH234006   7.107   4.985   1.752
11350TIP3    H134007   7.131   4.898   1.785
11350TIP3    H234008   7.086   4.971   1.660
11351TIP3   OH234009   4.643   1.502   3.675
11351TIP3    H134010   4.632   1.593   3.646
11351TIP3    H234011   4.729   1.502   3.718
11352TIP3   OH234012   6.386   7.070   1.955
11352TIP3    H134013   6.297   7.078   1.989
11352TIP3    H234014   6.376   7.081   1.860
11353TIP3   OH234015   4.440   3.368   3.015
11353TIP3    H134016   4.478   3.406   3.094
11353TIP3    H234017   4.377   3.304   3.048
11354TIP3   OH234018   4.290   4.312   3.371
11354TIP3    H134019   4.308   4.367   3.447
11354TIP3    H234020   4.369   4.258   3.362
11355TIP3   OH234021   6.376   0.574   1.085
11355TIP3    H134022   6.389   0.635   1.013
11355TIP3    H234023   6.346   0.629   1.158
11356TIP3   OH234024   7.645   1.419   2.219
11356TIP3    H134025   7.662   1.350   2.283
11356TIP3    H234026   7.551   1.413   2.202
11357TIP3   OH234027   6.122   3.121   1.291
11357TIP3    H134028   6.202   3.084   1.253
11357TIP3    H234029   6.064   3.137   1.217
11358TIP3   OH234030   2.803   3.032   6.075
11358TIP3    H134031   2.767   3.091   6.008
11358TIP3    H234032   2.867   2.979   6.027
11359TIP3   OH234033   7.491   1.447   5.054
11359TIP3    H134034   7.476   1.460   5.147
11359TIP3    H234035   7.534   1.527   5.025
11360TIP3   OH234036   2.620   7.175   2.393
11360TIP3    H134037   2.650   7.117   2.324
11360TIP3    H234038   2.585   7.116   2.460
11361TIP3   OH234039   3.906   6.532   3.614
11361TIP3    H134040   3.912   6.436   3.617
11361TIP3    H234041   3.848   6.551   3.540
11362TIP3   OH234042   1.744   2.956   4.372
11362TIP3    H134043   1.667   2.905   4.346
11362TIP3    H234044   1.816   2.919   4.322
11363TIP3   OH234045   0.537   3.636   1.542
11363TIP3    H134046   0.460   3.585   1.518
11363TIP3    H234047   0.517   3.725   1.512
11364TIP3   OH234048   0.518   6.492   6.355
11364TIP3    H134049   0.568   6.527   6.281
11364TIP3    H234050   0.454   6.560   6.375
11365TIP3   OH234051   0.530   0.975   2.688
11365TIP3    H134052   0.464   0.969   2.757
11365TIP3    H234053   0.504   1.051   2.636
11366TIP3   OH234054   1.007   3.943   4.129
11366TIP3    H134055   0.925   3.938   4.179
11366TIP3    H234056   0.996   4.021   4.074
11367TIP3   OH234057   6.519   6.159   3.751
11367TIP3    H134058   6.518   6.231   3.815
11367TIP3    H234059   6.557   6.197   3.672
11368TIP3   OH234060   2.897   0.146   4.797
11368TIP3    H134061   2.901   0.230   4.752
11368TIP3    H234062   2.804   0.121   4.792
11369TIP3   OH234063   3.558   1.539   0.389
11369TIP3    H134064   3.564   1.624   0.433
11369TIP3    H234065   3.470   1.538   0.352
11370TIP3   OH234066   7.761   5.288   2.964
11370TIP3    H134067   7.803   5.319   2.884
11370TIP3    H234068   7.696   5.225   2.934
11371TIP3   OH234069   5.102   4.263   0.448
11371TIP3    H134070   5.166   4.301   0.387
11371TIP3    H234071   5.070   4.185   0.403
11372TIP3   OH234072   5.373   3.818   1.922
11372TIP3    H134073   5.386   3.798   2.014
11372TIP3    H234074   5.299   3.878   1.921
11373TIP3   OH234075   7.658   1.891   2.983
11373TIP3    H134076   7.596   1.943   3.033
11373TIP3    H234077   7.737   1.888   3.038
11374TIP3   OH234078   7.662   7.060   0.866
11374TIP3    H134079   7.661   7.057   0.962
11374TIP3    H234080   7.593   6.999   0.840
11375TIP3   OH234081   7.545   3.510   1.118
11375TIP3    H134082   7.590   3.591   1.142
11375TIP3    H234083   7.458   3.519   1.155
11376TIP3   OH234084   3.463   2.421   5.981
11376TIP3    H134085   3.494   2.404   6.069
11376TIP3    H234086   3.503   2.352   5.927
11377TIP3   OH234087   1.855   6.227   2.847
11377TIP3    H134088   1.834   6.214   2.754
11377TIP3    H234089   1.941   6.269   2.846
11378TIP3   OH234090   6.692   4.368   6.673
11378TIP3    H134091   6.637   4.427   6.622
11378TIP3    H234092   6.765   4.422   6.703
11379TIP3   OH234093   6.744   1.166   0.411
11379TIP3    H134094   6.828   1.199   0.380
11379TIP3    H234095   6.760   1.073   0.429
11380TIP3   OH234096   6.405   5.670   1.533
11380TIP3    H134097   6.364   5.755   1.513
11380TIP3    H234098   6.499   5.687   1.526
11381TIP3   OH234099   7.908   3.465   5.703
11381TIP3    H134100   7.933   3.373   5.710
11381TIP3    H234101   7.857   3.482   5.783
11382TIP3   OH234102   1.605   3.281   1.444
11382TIP3    H134103   1.677   3.325   1.489
11382TIP3    H234104   1.530   3.292   1.502
11383TIP3   OH234105   0.058   7.441   4.664
11383TIP3    H134106   0.070   7.398   4.579
11383TIP3    H234107   0.067   7.534   4.645
11384TIP3   OH234108   2.121   5.164   3.772
11384TIP3    H134109   2.184   5.139   3.839
11384TIP3    H234110   2.057   5.093   3.771
11385TIP3   OH234111   4.147   6.891   3.899
11385TIP3    H134112   4.143   6.965   3.959
11385TIP3    H234113   4.197   6.824   3.947
11386TIP3   OH234114   3.695   1.163   3.101
11386TIP3    H134115   3.742   1.157   3.184
11386TIP3    H234116   3.762   1.190   3.038
11387TIP3   OH234117   6.353   1.763   5.841
11387TIP3    H134118   6.436   1.751   5.794
11387TIP3    H234119   6.303   1.824   5.786
11388TIP3   OH234120   7.044   6.321   4.393
11388TIP3    H134121   7.075   6.236   4.362
11388TIP3    H234122   7.112   6.352   4.453
11389TIP3   OH234123   0.163   2.840   1.635
11389TIP3    H134124   0.092   2.865   1.694
11389TIP3    H234125   0.183   2.920   1.586
11390TIP3   OH234126   1.298   6.991   0.387
11390TIP3    H134127   1.238   7.050   0.431
11390TIP3    H234128   1.320   7.035   0.305
11391TIP3   OH234129   2.508   2.063   4.626
11391TIP3    H134130   2.446   2.135   4.612
11391TIP3    H234131   2.571   2.098   4.690
11392TIP3   OH234132   5.504   1.739   0.756
11392TIP3    H134133   5.596   1.758   0.775
11392TIP3    H234134   5.481   1.802   0.687
11393TIP3   OH234135   1.605   5.054   5.117
11393TIP3    H134136   1.610   4.974   5.169
11393TIP3    H234137   1.547   5.032   5.045
11394TIP3   OH234138   1.143   4.998   4.113
11394TIP3    H134139   1.223   4.950   4.093
11394TIP3    H234140   1.072   4.941   4.082
11395TIP3   OH234141   5.287   0.312   0.543
11395TIP3    H134142   5.280   0.237   0.484
11395TIP3    H234143   5.307   0.273   0.629
11396TIP3   OH234144   5.941   3.733   0.534
11396TIP3    H134145   5.980   3.753   0.449
11396TIP3    H234146   5.847   3.727   0.516
11397TIP3   OH234147   1.622   4.759   1.317
11397TIP3    H134148   1.712   4.757   1.285
11397TIP3    H234149   1.568   4.760   1.238
11398TIP3   OH234150   7.847   1.971   4.663
11398TIP3    H134151   7.815   1.915   4.734
11398TIP3    H234152   7.893   2.042   4.708
11399TIP3   OH234153   1.949   2.739   0.663
11399TIP3    H134154   2.020   2.737   0.599
11399TIP3    H234155   1.884   2.798   0.625
11400TIP3   OH234156   2.356   5.927   2.921
11400TIP3    H134157   2.376   6.014   2.887
11400TIP3    H234158   2.391   5.867   2.855
11401TIP3   OH234159   5.300   7.464  -0.013
11401TIP3    H134160   5.228   7.463   0.050
11401TIP3    H234161   5.258   7.482  -0.097
11402TIP3   OH234162   4.065   3.631   3.144
11402TIP3    H134163   4.143   3.603   3.096
11402TIP3    H234164   4.078   3.725   3.158
11403TIP3   OH234165   2.348   2.005   6.718
11403TIP3    H134166   2.305   2.071   6.664
11403TIP3    H234167   2.292   1.997   6.795
11404TIP3   OH234168   1.817   2.424   5.667
11404TIP3    H134169   1.728   2.421   5.702
11404TIP3    H234170   1.813   2.374   5.586
11405TIP3   OH234171   3.140   0.992   1.127
11405TIP3    H134172   3.114   0.902   1.106
11405TIP3    H234173   3.074   1.047   1.086
11406TIP3   OH234174   3.555   5.461   1.840
11406TIP3    H134175   3.480   5.471   1.898
11406TIP3    H234176   3.629   5.442   1.899
11407TIP3   OH234177   7.710   2.470   3.209
11407TIP3    H134178   7.637   2.438   3.156
11407TIP3    H234179   7.690   2.441   3.298
11408TIP3   OH234180   7.506   2.782   2.252
11408TIP3    H134181   7.593   2.769   2.212
11408TIP3    H234182   7.446   2.784   2.177
11409TIP3   OH234183   3.322   5.210   6.120
11409TIP3    H134184   3.246   5.152   6.119
11409TIP3    H234185   3.287   5.295   6.149
11410TIP3   OH234186   7.899   5.765   4.387
11410TIP3    H134187   7.920   5.752   4.295
11410TIP3    H234188   7.923   5.683   4.430
11411TIP3   OH234189   4.514   4.587   0.780
11411TIP3    H134190   4.441   4.616   0.725
11411TIP3    H234191   4.477   4.517   0.835
11412TIP3   OH234192   6.889   4.726   5.237
11412TIP3    H134193   6.866   4.773   5.317
11412TIP3    H234194   6.890   4.633   5.263
11413TIP3   OH234195   3.963   0.697   3.204
11413TIP3    H134196   3.962   0.685   3.109
11413TIP3    H234197   3.874   0.722   3.225
11414TIP3   OH234198   1.243   7.262   4.671
11414TIP3    H134199   1.225   7.267   4.765
11414TIP3    H234200   1.288   7.344   4.652
11415TIP3   OH234201   3.650   0.250   6.145
11415TIP3    H134202   3.632   0.303   6.067
11415TIP3    H234203   3.600   0.169   6.132
11416TIP3   OH234204   0.208   1.385   3.464
11416TIP3    H134205   0.263   1.399   3.388
11416TIP3    H234206   0.119   1.400   3.433
11417TIP3   OH234207   2.935   6.203   2.199
11417TIP3    H134208   2.978   6.145   2.136
11417TIP3    H234209   2.903   6.145   2.268
11418TIP3   OH234210   6.345   1.042   0.771
11418TIP3    H134211   6.400   1.119   0.755
11418TIP3    H234212   6.273   1.051   0.709
11419TIP3   OH234213   1.741   0.274   2.919
11419TIP3    H134214   1.673   0.208   2.910
11419TIP3    H234215   1.781   0.256   3.004
11420TIP3   OH234216   7.295   0.550   1.590
11420TIP3    H134217   7.222   0.606   1.616
11420TIP3    H234218   7.293   0.551   1.494
11421TIP3   OH234219   2.714   5.507   4.785
11421TIP3    H134220   2.767   5.494   4.864
11421TIP3    H234221   2.672   5.423   4.771
11422TIP3   OH234222   2.544   6.946   5.105
11422TIP3    H134223   2.582   6.921   5.021
11422TIP3    H234224   2.500   7.029   5.088
11423TIP3   OH234225   1.353   5.764   6.227
11423TIP3    H134226   1.260   5.771   6.208
11423TIP3    H234227   1.374   5.843   6.277
11424TIP3   OH234228   1.547   5.638   1.254
11424TIP3    H134229   1.622   5.658   1.310
11424TIP3    H234230   1.514   5.554   1.286
11425TIP3   OH234231   2.097   4.787   5.666
11425TIP3    H134232   2.175   4.832   5.699
11425TIP3    H234233   2.033   4.794   5.736
11426TIP3   OH234234   7.148   5.383   2.326
11426TIP3    H134235   7.184   5.447   2.265
11426TIP3    H234236   7.224   5.330   2.352
11427TIP3   OH234237   2.221   3.565   1.400
11427TIP3    H134238   2.254   3.485   1.359
11427TIP3    H234239   2.299   3.604   1.441
11428TIP3   OH234240   5.134   0.823   2.087
11428TIP3    H134241   5.063   0.860   2.139
11428TIP3    H234242   5.133   0.729   2.107
11429TIP3   OH234243   1.603   5.011   3.654
11429TIP3    H134244   1.632   5.101   3.636
11429TIP3    H234245   1.510   5.011   3.631
11430TIP3   OH234246   4.285   1.052   0.968
11430TIP3    H134247   4.297   1.095   0.883
11430TIP3    H234248   4.190   1.041   0.976
11431TIP3   OH234249   1.122   4.864   0.506
11431TIP3    H134250   1.113   4.797   0.573
11431TIP3    H234251   1.199   4.837   0.455
11432TIP3   OH234252   1.858   6.200   1.605
11432TIP3    H134253   1.766   6.208   1.626
11432TIP3    H234254   1.904   6.236   1.680
11433TIP3   OH234255   4.822   2.700   6.689
11433TIP3    H134256   4.756   2.699   6.758
11433TIP3    H234257   4.795   2.631   6.629
11434TIP3   OH234258   4.831   3.798   5.216
11434TIP3    H134259   4.771   3.771   5.285
11434TIP3    H234260   4.918   3.780   5.252
11435TIP3   OH234261   1.495   4.468   0.101
11435TIP3    H134262   1.516   4.550   0.058
11435TIP3    H234263   1.409   4.483   0.141
11436TIP3   OH234264   4.432   6.401   1.366
11436TIP3    H134265   4.419   6.306   1.368
11436TIP3    H234266   4.346   6.438   1.385
11437TIP3   OH234267   2.266   4.268   4.649
11437TIP3    H134268   2.193   4.269   4.710
11437TIP3    H234269   2.233   4.217   4.574
11438TIP3   OH234270   7.305   3.982   3.945
11438TIP3    H134271   7.389   4.019   3.916
11438TIP3    H234272   7.266   3.946   3.865
11439TIP3   OH234273   0.379   2.299   2.418
11439TIP3    H134274   0.293   2.322   2.383
11439TIP3    H234275   0.405   2.375   2.469
11440TIP3   OH234276   4.414   6.996   1.773
11440TIP3    H134277   4.418   6.994   1.677
11440TIP3    H234278   4.448   7.083   1.795
11441TIP3   OH234279   2.032   4.104   1.158
11441TIP3    H134280   2.039   4.082   1.065
11441TIP3    H234281   2.122   4.110   1.189
11442TIP3   OH234282   7.674   2.135   5.604
11442TIP3    H134283   7.696   2.050   5.640
11442TIP3    H234284   7.623   2.178   5.672
11443TIP3   OH234285   4.533   6.780   2.300
11443TIP3    H134286   4.547   6.795   2.206
11443TIP3    H234287   4.544   6.686   2.311
11444TIP3   OH234288   7.640   4.203   0.682
11444TIP3    H134289   7.710   4.268   0.681
11444TIP3    H234290   7.567   4.247   0.726
11445TIP3   OH234291   6.318   5.585   2.211
11445TIP3    H134292   6.399   5.557   2.255
11445TIP3    H234293   6.296   5.512   2.153
11446TIP3   OH234294   4.713   3.027   5.725
11446TIP3    H134295   4.702   2.967   5.798
11446TIP3    H234296   4.774   3.094   5.757
11447TIP3   OH234297   6.161   4.191   1.364
11447TIP3    H134298   6.193   4.208   1.453
11447TIP3    H234299   6.073   4.156   1.376
11448TIP3   OH234300   7.785   5.091   1.277
11448TIP3    H134301   7.756   5.166   1.329
11448TIP3    H234302   7.845   5.044   1.336
11449TIP3   OH234303   4.500   1.467   5.761
11449TIP3    H134304   4.518   1.551   5.719
11449TIP3    H234305   4.529   1.478   5.851
11450TIP3   OH234306   4.710   6.182   1.292
11450TIP3    H134307   4.784   6.128   1.266
11450TIP3    H234308   4.696   6.161   1.384
11451TIP3   OH234309   6.282   2.994   5.227
11451TIP3    H134310   6.326   2.924   5.179
11451TIP3    H234311   6.233   2.949   5.296
11452TIP3   OH234312   1.800   6.867   3.429
11452TIP3    H134313   1.798   6.941   3.490
11452TIP3    H234314   1.709   6.838   3.423
11453TIP3   OH234315   6.037   6.322   6.493
11453TIP3    H134316   6.006   6.284   6.575
11453TIP3    H234317   5.957   6.346   6.446
11454TIP3   OH234318   6.927   0.915   0.164
11454TIP3    H134319   6.837   0.943   0.150
11454TIP3    H234320   6.978   0.996   0.161
11455TIP3   OH234321   1.865   2.734   5.385
11455TIP3    H134322   1.798   2.802   5.378
11455TIP3    H234323   1.948   2.780   5.371
11456TIP3   OH234324   6.630   5.529   3.592
11456TIP3    H134325   6.679   5.611   3.594
11456TIP3    H234326   6.678   5.474   3.530
11457TIP3   OH234327   7.041   2.741   4.653
11457TIP3    H134328   7.096   2.775   4.582
11457TIP3    H234329   6.959   2.789   4.645
11458TIP3   OH234330   3.762   3.171   3.676
11458TIP3    H134331   3.784   3.079   3.665
11458TIP3    H234332   3.831   3.206   3.732
11459TIP3   OH234333   7.097   5.758   4.850
11459TIP3    H134334   7.074   5.836   4.901
11459TIP3    H234335   7.190   5.744   4.869
11460TIP3   OH234336   2.015   3.021   2.468
11460TIP3    H134337   1.983   3.105   2.500
11460TIP3    H234338   1.996   2.959   2.538
11461TIP3   OH234339   3.357   5.013   6.452
11461TIP3    H134340   3.306   4.935   6.475
11461TIP3    H234341   3.414   5.027   6.528
11462TIP3   OH234342   1.380   1.820   2.682
11462TIP3    H134343   1.286   1.805   2.672
11462TIP3    H234344   1.392   1.912   2.658
11463TIP3   OH234345   7.337   4.337   6.350
11463TIP3    H134346   7.326   4.288   6.268
11463TIP3    H234347   7.430   4.327   6.371
11464TIP3   OH234348   0.035   5.437   1.210
11464TIP3    H134349   0.122   5.399   1.195
11464TIP3    H234350   0.049   5.503   1.278
11465TIP3   OH234351   6.365   0.235   3.071
11465TIP3    H134352   6.379   0.330   3.069
11465TIP3    H234353   6.271   0.224   3.056
11466TIP3   OH234354   4.275   4.489   2.033
11466TIP3    H134355   4.350   4.430   2.026
11466TIP3    H234356   4.234   4.466   2.116
11467TIP3   OH234357   4.793   1.742   0.491
11467TIP3    H134358   4.746   1.761   0.410
11467TIP3    H234359   4.838   1.659   0.473
11468TIP3   OH234360   8.154   2.436   5.919
11468TIP3    H134361   8.088   2.426   5.987
11468TIP3    H234362   8.150   2.529   5.896
11469TIP3   OH234363   3.706   3.854   1.173
11469TIP3    H134364   3.654   3.933   1.161
11469TIP3    H234365   3.787   3.884   1.214
11470TIP3   OH234366   0.410   3.985   0.926
11470TIP3    H134367   0.321   3.998   0.960
11470TIP3    H234368   0.457   3.940   0.996
11471TIP3   OH234369   7.495   1.705   3.222
11471TIP3    H134370   7.431   1.763   3.182
11471TIP3    H234371   7.522   1.646   3.152
11472TIP3   OH234372   0.271   0.459   1.596
11472TIP3    H134373   0.304   0.400   1.664
11472TIP3    H234374   0.301   0.421   1.514
11473TIP3   OH234375   6.462   2.846   2.657
11473TIP3    H134376   6.499   2.922   2.702
11473TIP3    H234377   6.369   2.867   2.647
11474TIP3   OH234378   3.844   1.024   6.195
11474TIP3    H134379   3.915   1.050   6.253
11474TIP3    H234380   3.879   1.035   6.106
11475TIP3   OH234381   2.559   5.517   5.792
11475TIP3    H134382   2.535   5.451   5.727
11475TIP3    H234383   2.479   5.569   5.804
11476TIP3   OH234384   2.365   2.415   1.474
11476TIP3    H134385   2.272   2.391   1.468
11476TIP3    H234386   2.372   2.498   1.428
11477TIP3   OH234387   4.823   0.143   2.455
11477TIP3    H134388   4.827   0.149   2.360
11477TIP3    H234389   4.856   0.056   2.475
11478TIP3   OH234390   6.370   1.477   4.607
11478TIP3    H134391   6.456   1.435   4.602
11478TIP3    H234392   6.341   1.485   4.517
11479TIP3   OH234393   0.496   0.614   5.510
11479TIP3    H134394   0.566   0.571   5.461
11479TIP3    H234395   0.498   0.572   5.596
11480TIP3   OH234396   7.472   0.488   1.796
11480TIP3    H134397   7.417   0.446   1.729
11480TIP3    H234398   7.474   0.580   1.771
11481TIP3   OH234399   2.492   4.081   2.327
11481TIP3    H134400   2.460   4.147   2.389
11481TIP3    H234401   2.420   4.070   2.264
11482TIP3   OH234402   3.929   6.655   2.072
11482TIP3    H134403   3.957   6.626   2.158
11482TIP3    H234404   3.982   6.734   2.055
11483TIP3   OH234405   1.946   1.151   0.398
11483TIP3    H134406   1.982   1.110   0.319
11483TIP3    H234407   1.851   1.145   0.387
11484TIP3   OH234408   1.712   6.335   3.439
11484TIP3    H134409   1.771   6.296   3.504
11484TIP3    H234410   1.769   6.384   3.380
11485TIP3   OH234411   6.521   6.196   6.293
11485TIP3    H134412   6.564   6.153   6.367
11485TIP3    H234413   6.473   6.126   6.249
11486TIP3   OH234414   5.766   4.398   2.595
11486TIP3    H134415   5.782   4.304   2.584
11486TIP3    H234416   5.837   4.441   2.549
11487TIP3   OH234417   6.714   6.459   2.238
11487TIP3    H134418   6.661   6.409   2.176
11487TIP3    H234419   6.657   6.473   2.313
11488TIP3   OH234420   6.397   4.665   4.244
11488TIP3    H134421   6.445   4.622   4.314
11488TIP3    H234422   6.415   4.758   4.256
11489TIP3   OH234423   0.774   7.331   4.203
11489TIP3    H134424   0.747   7.354   4.114
11489TIP3    H234425   0.843   7.394   4.224
11490TIP3   OH234426   2.469   2.025   5.468
11490TIP3    H134427   2.432   1.937   5.481
11490TIP3    H234428   2.420   2.081   5.528
11491TIP3   OH234429   3.490   6.051   0.474
11491TIP3    H134430   3.486   6.074   0.567
11491TIP3    H234431   3.412   6.091   0.436
11492TIP3   OH234432   4.340   3.381   4.418
11492TIP3    H134433   4.283   3.416   4.349
11492TIP3    H234434   4.426   3.373   4.376
11493TIP3   OH234435   6.171   3.616   0.982
11493TIP3    H134436   6.114   3.690   0.963
11493TIP3    H234437   6.228   3.610   0.905
11494TIP3   OH234438   5.592   0.978   3.128
11494TIP3    H134439   5.512   1.012   3.088
11494TIP3    H234440   5.567   0.892   3.162
11495TIP3   OH234441   1.321   1.570   3.122
11495TIP3    H134442   1.386   1.517   3.076
11495TIP3    H234443   1.277   1.509   3.181
11496TIP3   OH234444   3.696   4.491   3.994
11496TIP3    H134445   3.645   4.427   3.945
11496TIP3    H234446   3.779   4.497   3.946
11497TIP3   OH234447   3.816   6.022   3.363
11497TIP3    H134448   3.725   6.032   3.391
11497TIP3    H234449   3.860   5.981   3.438
11498TIP3   OH234450   0.854   0.336   2.667
11498TIP3    H134451   0.861   0.330   2.762
11498TIP3    H234452   0.845   0.245   2.637
11499TIP3   OH234453   5.628   5.667   4.261
11499TIP3    H134454   5.720   5.664   4.234
11499TIP3    H234455   5.580   5.693   4.183
11500TIP3   OH234456   3.370   5.376   1.614
11500TIP3    H134457   3.438   5.365   1.679
11500TIP3    H234458   3.361   5.471   1.604
11501TIP3   OH234459   0.220   5.349   5.270
11501TIP3    H134460   0.142   5.345   5.324
11501TIP3    H234461   0.290   5.375   5.330
11502TIP3   OH234462   6.037   3.362   5.110
11502TIP3    H134463   5.976   3.433   5.089
11502TIP3    H234464   6.040   3.308   5.031
11503TIP3   OH234465   5.702   3.417   0.609
11503TIP3    H134466   5.719   3.382   0.521
11503TIP3    H234467   5.653   3.498   0.593
11504TIP3   OH234468   3.086   4.010   3.670
11504TIP3    H134469   3.114   4.038   3.583
11504TIP3    H234470   2.993   3.988   3.660
11505TIP3   OH234471   3.629   2.474   2.091
11505TIP3    H134472   3.666   2.554   2.128
11505TIP3    H234473   3.588   2.430   2.166
11506TIP3   OH234474   6.059   3.066   5.472
11506TIP3    H134475   6.071   3.079   5.566
11506TIP3    H234476   6.077   2.973   5.459
11507TIP3   OH234477   1.422   3.318   0.519
11507TIP3    H134478   1.336   3.317   0.477
11507TIP3    H234479   1.421   3.244   0.579
11508TIP3   OH234480   7.228   1.529   1.537
11508TIP3    H134481   7.304   1.491   1.494
11508TIP3    H234482   7.155   1.471   1.514
11509TIP3   OH234483   5.113   5.847   5.411
11509TIP3    H134484   5.069   5.763   5.394
11509TIP3    H234485   5.042   5.911   5.412
11510TIP3   OH234486   6.043   6.053   2.994
11510TIP3    H134487   6.056   6.047   2.900
11510TIP3    H234488   6.096   5.981   3.030
11511TIP3   OH234489   2.590   5.005   3.099
11511TIP3    H134490   2.551   4.919   3.113
11511TIP3    H234491   2.614   5.006   3.007
11512TIP3   OH234492   3.362   4.174   4.596
11512TIP3    H134493   3.364   4.269   4.613
11512TIP3    H234494   3.276   4.147   4.627
11513TIP3   OH234495   1.925   7.589   5.522
11513TIP3    H134496   2.018   7.602   5.503
11513TIP3    H234497   1.885   7.578   5.436
11514TIP3   OH234498   4.291   4.111   5.182
11514TIP3    H134499   4.202   4.147   5.181
11514TIP3    H234500   4.304   4.083   5.273
11515TIP3   OH234501   3.652   3.470   3.649
11515TIP3    H134502   3.674   3.446   3.559
11515TIP3    H234503   3.657   3.387   3.698
11516TIP3   OH234504   5.898   3.473   1.073
11516TIP3    H134505   5.873   3.537   1.140
11516TIP3    H234506   5.991   3.490   1.058
11517TIP3   OH234507   4.294   5.172   6.263
11517TIP3    H134508   4.284   5.119   6.184
11517TIP3    H234509   4.304   5.262   6.231
11518TIP3   OH234510   0.670   4.450   3.922
11518TIP3    H134511   0.699   4.535   3.955
11518TIP3    H234512   0.750   4.399   3.914
11519TIP3   OH234513   5.538   2.721   3.420
11519TIP3    H134514   5.485   2.786   3.466
11519TIP3    H234515   5.500   2.718   3.332
11520TIP3   OH234516   4.554   1.496   1.267
11520TIP3    H134517   4.512   1.425   1.316
11520TIP3    H234518   4.481   1.552   1.239
11521TIP3   OH234519   1.388   5.988   5.540
11521TIP3    H134520   1.375   5.944   5.457
11521TIP3    H234521   1.482   6.004   5.545
11522TIP3   OH234522   1.711   5.496   0.533
11522TIP3    H134523   1.648   5.439   0.489
11522TIP3    H234524   1.776   5.517   0.466
11523TIP3   OH234525   0.302   4.909   3.268
11523TIP3    H134526   0.236   4.898   3.337
11523TIP3    H234527   0.256   4.888   3.187
11524TIP3   OH234528   7.181   6.053   4.733
11524TIP3    H134529   7.126   6.021   4.804
11524TIP3    H234530   7.122   6.105   4.678
11525TIP3   OH234531   5.633   4.339   2.940
11525TIP3    H134532   5.719   4.339   2.896
11525TIP3    H234533   5.573   4.373   2.874
11526TIP3   OH234534   6.036   1.980   3.478
11526TIP3    H134535   6.062   1.987   3.386
11526TIP3    H234536   5.997   1.893   3.485
11527TIP3   OH234537   0.851   7.727   1.697
11527TIP3    H134538   0.781   7.790   1.685
11527TIP3    H234539   0.929   7.770   1.662
11528TIP3   OH234540   0.908   6.834   1.573
11528TIP3    H134541   0.882   6.756   1.524
11528TIP3    H234542   0.898   6.906   1.511
11529TIP3   OH234543   4.714   2.350   3.164
11529TIP3    H134544   4.635   2.342   3.217
11529TIP3    H234545   4.779   2.297   3.209
11530TIP3   OH234546   7.094   3.711   5.498
11530TIP3    H134547   7.148   3.654   5.444
11530TIP3    H234548   7.034   3.652   5.544
11531TIP3   OH234549   7.510   1.365   0.688
11531TIP3    H134550   7.567   1.421   0.637
11531TIP3    H234551   7.473   1.303   0.625
11532TIP3   OH234552   1.796   6.996   3.876
11532TIP3    H134553   1.778   7.044   3.794
11532TIP3    H234554   1.738   6.921   3.873
11533TIP3   OH234555   3.375   6.474   4.881
11533TIP3    H134556   3.419   6.477   4.966
11533TIP3    H234557   3.405   6.392   4.842
11534TIP3   OH234558   3.644   3.578   2.897
11534TIP3    H134559   3.664   3.522   2.972
11534TIP3    H234560   3.727   3.620   2.876
11535TIP3   OH234561  -0.026   0.703   6.145
11535TIP3    H134562   0.005   0.725   6.057
11535TIP3    H234563   0.021   0.623   6.169
11536TIP3   OH234564   1.142   7.293   0.989
11536TIP3    H134565   1.190   7.340   0.921
11536TIP3    H234566   1.056   7.276   0.952
11537TIP3   OH234567   7.958   2.588   3.472
11537TIP3    H134568   7.939   2.507   3.519
11537TIP3    H234569   7.947   2.657   3.537
11538TIP3   OH234570   1.756   7.476   2.797
11538TIP3    H134571   1.666   7.447   2.814
11538TIP3    H234572   1.749   7.527   2.716
11539TIP3   OH234573   4.119   3.492   0.991
11539TIP3    H134574   4.176   3.479   0.916
11539TIP3    H234575   4.072   3.409   1.001
11540TIP3   OH234576   7.544   2.998   4.431
11540TIP3    H134577   7.601   3.070   4.460
11540TIP3    H234578   7.456   3.036   4.430
11541TIP3   OH234579   7.907   4.555   2.096
11541TIP3    H134580   7.898   4.526   2.006
11541TIP3    H234581   7.997   4.584   2.104
11542TIP3   OH234582   1.373   2.471   2.826
11542TIP3    H134583   1.335   2.434   2.906
11542TIP3    H234584   1.435   2.537   2.857
11543TIP3   OH234585   0.596   4.775   6.263
11543TIP3    H134586   0.665   4.800   6.324
11543TIP3    H234587   0.536   4.721   6.315
11544TIP3   OH234588   6.275   7.028   1.686
11544TIP3    H134589   6.187   6.996   1.664
11544TIP3    H234590   6.333   6.957   1.659
11545TIP3   OH234591   6.818   2.589   2.882
11545TIP3    H134592   6.894   2.560   2.932
11545TIP3    H234593   6.743   2.553   2.930
11546TIP3   OH234594   3.045   0.371   5.742
11546TIP3    H134595   3.035   0.279   5.766
11546TIP3    H234596   2.960   0.410   5.763
11547TIP3   OH234597   7.781   5.302   0.158
11547TIP3    H134598   7.800   5.211   0.134
11547TIP3    H234599   7.688   5.314   0.137
11548TIP3   OH234600   2.732   6.081   0.498
11548TIP3    H134601   2.658   6.054   0.552
11548TIP3    H234602   2.722   6.175   0.487
11549TIP3   OH234603   2.017   7.630   5.031
11549TIP3    H134604   2.071   7.675   4.966
11549TIP3    H234605   2.014   7.539   5.000
11550TIP3   OH234606   2.366   1.722   5.379
11550TIP3    H134607   2.448   1.681   5.408
11550TIP3    H234608   2.301   1.651   5.384
11551TIP3   OH234609   2.397   4.953   4.421
11551TIP3    H134610   2.334   4.881   4.423
11551TIP3    H234611   2.348   5.027   4.384
11552TIP3   OH234612   8.179   5.760   2.817
11552TIP3    H134613   8.177   5.695   2.747
11552TIP3    H234614   8.091   5.758   2.854
11553TIP3   OH234615   5.243   1.642   2.248
11553TIP3    H134616   5.330   1.604   2.244
11553TIP3    H234617   5.244   1.712   2.182
11554TIP3   OH234618   5.684   1.912   2.157
11554TIP3    H134619   5.774   1.923   2.128
11554TIP3    H234620   5.682   1.827   2.200
11555TIP3   OH234621   6.518   1.710   6.378
11555TIP3    H134622   6.589   1.691   6.440
11555TIP3    H234623   6.478   1.625   6.361
11556TIP3   OH234624   5.912   6.437   2.828
11556TIP3    H134625   6.002   6.408   2.816
11556TIP3    H234626   5.914   6.489   2.908
11557TIP3   OH234627   4.416   1.004   1.218
11557TIP3    H134628   4.380   1.001   1.129
11557TIP3    H234629   4.340   1.019   1.274
11558TIP3   OH234630   2.105   5.373   6.179
11558TIP3    H134631   2.028   5.336   6.222
11558TIP3    H234632   2.156   5.413   6.250
11559TIP3   OH234633   0.282   0.668   0.254
11559TIP3    H134634   0.339   0.657   0.330
11559TIP3    H234635   0.270   0.762   0.245
11560TIP3   OH234636   3.091   2.612   3.004
11560TIP3    H134637   3.185   2.628   3.009
11560TIP3    H234638   3.054   2.663   3.076
11561TIP3   OH234639   6.088   3.368   2.171
11561TIP3    H134640   6.070   3.327   2.256
11561TIP3    H234641   6.093   3.461   2.190
11562TIP3   OH234642   1.458   7.587   2.113
11562TIP3    H134643   1.431   7.563   2.202
11562TIP3    H234644   1.466   7.682   2.116
11563TIP3   OH234645   4.893   1.526   0.388
11563TIP3    H134646   4.842   1.490   0.315
11563TIP3    H234647   4.984   1.521   0.358
11564TIP3   OH234648   1.906   6.266   3.611
11564TIP3    H134649   1.901   6.189   3.667
11564TIP3    H234650   1.902   6.340   3.672
11565TIP3   OH234651   5.181   3.877   0.028
11565TIP3    H134652   5.269   3.863   0.063
11565TIP3    H234653   5.197   3.917  -0.058
11566TIP3   OH234654   3.429   4.631   0.133
11566TIP3    H134655   3.459   4.643   0.224
11566TIP3    H234656   3.379   4.550   0.135
11567TIP3   OH234657   5.127   3.571   5.977
11567TIP3    H134658   5.140   3.652   6.026
11567TIP3    H234659   5.184   3.507   6.020
11568TIP3   OH234660   1.675   1.906   5.219
11568TIP3    H134661   1.683   1.977   5.283
11568TIP3    H234662   1.617   1.942   5.152
11569TIP3   OH234663   5.488   6.635   4.590
11569TIP3    H134664   5.481   6.551   4.543
11569TIP3    H234665   5.412   6.636   4.648
11570TIP3   OH234666   3.312   1.412   3.137
11570TIP3    H134667   3.257   1.476   3.092
11570TIP3    H234668   3.343   1.354   3.067
11571TIP3   OH234669   0.223   2.516   2.930
11571TIP3    H134670   0.226   2.435   2.879
11571TIP3    H234671   0.151   2.503   2.992
11572TIP3   OH234672   6.318   3.054   4.064
11572TIP3    H134673   6.406   3.088   4.078
11572TIP3    H234674   6.271   3.078   4.144
11573TIP3   OH234675   7.800   3.940   4.837
11573TIP3    H134676   7.747   4.016   4.858
11573TIP3    H234677   7.851   3.923   4.916
11574TIP3   OH234678   8.226   7.178   6.576
11574TIP3    H134679   8.250   7.182   6.668
11574TIP3    H234680   8.139   7.216   6.571
11575TIP3   OH234681   4.726   4.353   4.482
11575TIP3    H134682   4.692   4.358   4.571
11575TIP3    H234683   4.649   4.358   4.426
11576TIP3   OH234684   6.457   6.214   1.871
11576TIP3    H134685   6.496   6.169   1.796
11576TIP3    H234686   6.531   6.238   1.926
11577TIP3   OH234687   0.912   3.935   5.179
11577TIP3    H134688   0.951   3.909   5.263
11577TIP3    H234689   0.830   3.977   5.203
11578TIP3   OH234690   0.705   5.249   1.622
11578TIP3    H134691   0.631   5.250   1.682
11578TIP3    H234692   0.781   5.272   1.676
11579TIP3   OH234693   6.893   6.561   1.636
11579TIP3    H134694   6.906   6.620   1.562
11579TIP3    H234695   6.799   6.549   1.642
11580TIP3   OH234696   3.579   3.234   5.694
11580TIP3    H134697   3.568   3.177   5.619
11580TIP3    H234698   3.504   3.215   5.750
11581TIP3   OH234699   5.528   7.041   5.828
11581TIP3    H134700   5.605   7.023   5.881
11581TIP3    H234701   5.560   7.041   5.738
11582TIP3   OH234702   6.975   5.558   0.103
11582TIP3    H134703   7.023   5.507   0.037
11582TIP3    H234704   6.912   5.609   0.053
11583TIP3   OH234705   8.310   0.270   3.095
11583TIP3    H134706   8.245   0.201   3.079
11583TIP3    H234707   8.263   0.351   3.076
11584TIP3   OH234708   0.761   3.222   2.886
11584TIP3    H134709   0.746   3.129   2.873
11584TIP3    H234710   0.761   3.259   2.797
11585TIP3   OH234711   7.919   6.781   6.689
11585TIP3    H134712   7.898   6.777   6.596
11585TIP3    H234713   7.853   6.725   6.731
11586TIP3   OH234714   0.338   6.838   1.696
11586TIP3    H134715   0.325   6.747   1.721
11586TIP3    H234716   0.319   6.888   1.776
11587TIP3   OH234717   1.127   7.011   1.702
11587TIP3    H134718   1.193   6.977   1.764
11587TIP3    H234719   1.158   6.982   1.616
11588TIP3   OH234720   7.142   5.311   2.753
11588TIP3    H134721   7.059   5.279   2.789
11588TIP3    H234722   7.117   5.357   2.673
11589TIP3   OH234723   6.638   6.478   1.323
11589TIP3    H134724   6.567   6.413   1.321
11589TIP3    H234725   6.664   6.481   1.415
11590TIP3   OH234726   2.465   4.975   6.652
11590TIP3    H134727   2.373   4.998   6.634
11590TIP3    H234728   2.505   4.968   6.566
11591TIP3   OH234729   3.554   1.242   5.267
11591TIP3    H134730   3.620   1.174   5.272
11591TIP3    H234731   3.493   1.212   5.200
11592TIP3   OH234732   3.233   4.818   1.748
11592TIP3    H134733   3.298   4.871   1.701
11592TIP3    H234734   3.200   4.876   1.817
11593TIP3   OH234735   4.177   1.902   1.715
11593TIP3    H134736   4.140   1.876   1.799
11593TIP3    H234737   4.233   1.829   1.689
11594TIP3   OH234738   1.132   7.009   4.730
11594TIP3    H134739   1.081   7.085   4.701
11594TIP3    H234740   1.084   6.934   4.697
11595TIP3   OH234741   1.458   4.788   4.306
11595TIP3    H134742   1.397   4.806   4.377
11595TIP3    H234743   1.491   4.700   4.325
11596TIP3   OH234744   5.525   1.806   2.975
11596TIP3    H134745   5.445   1.771   2.934
11596TIP3    H234746   5.593   1.743   2.951
11597TIP3   OH234747   3.040   1.464   6.682
11597TIP3    H134748   3.112   1.475   6.745
11597TIP3    H234749   2.972   1.418   6.731
11598TIP3   OH234750   2.816   2.859   5.821
11598TIP3    H134751   2.792   2.924   5.755
11598TIP3    H234752   2.767   2.781   5.797
11599TIP3   OH234753   4.781   6.609   6.348
11599TIP3    H134754   4.700   6.586   6.393
11599TIP3    H234755   4.801   6.534   6.293
11600TIP3   OH234756   7.226   4.984   6.161
11600TIP3    H134757   7.306   5.024   6.127
11600TIP3    H234758   7.170   5.059   6.182
11601TIP3   OH234759   2.241   7.297   5.258
11601TIP3    H134760   2.229   7.390   5.240
11601TIP3    H234761   2.230   7.255   5.172
11602TIP3   OH234762   5.796   1.429   3.324
11602TIP3    H134763   5.815   1.375   3.401
11602TIP3    H234764   5.767   1.512   3.360
11603TIP3   OH234765   4.694   5.813   5.840
11603TIP3    H134766   4.705   5.757   5.764
11603TIP3    H234767   4.751   5.889   5.822
11604TIP3   OH234768   0.534   6.120   3.782
11604TIP3    H134769   0.492   6.034   3.785
11604TIP3    H234770   0.463   6.182   3.797
11605TIP3   OH234771   7.485   4.659   4.527
11605TIP3    H134772   7.424   4.588   4.509
11605TIP3    H234773   7.561   4.640   4.472
11606TIP3   OH234774   5.670   4.387   0.682
11606TIP3    H134775   5.603   4.357   0.621
11606TIP3    H234776   5.628   4.456   0.733
11607TIP3   OH234777   5.117   1.358   2.968
11607TIP3    H134778   5.045   1.403   3.013
11607TIP3    H234779   5.074   1.285   2.924
11608TIP3   OH234780   4.897   7.005   6.657
11608TIP3    H134781   4.815   6.961   6.635
11608TIP3    H234782   4.928   7.039   6.573
11609TIP3   OH234783   6.314   4.885   0.442
11609TIP3    H134784   6.397   4.930   0.429
11609TIP3    H234785   6.290   4.905   0.533
11610TIP3   OH234786   0.445   3.286   5.116
11610TIP3    H134787   0.379   3.340   5.073
11610TIP3    H234788   0.528   3.319   5.081
11611TIP3   OH234789   2.776   1.884   0.209
11611TIP3    H134790   2.785   1.973   0.177
11611TIP3    H234791   2.685   1.878   0.237
11612TIP3   OH234792   0.648   6.785   2.904
11612TIP3    H134793   0.679   6.700   2.872
11612TIP3    H234794   0.578   6.810   2.844
11613TIP3   OH234795   6.929   3.123   6.390
11613TIP3    H134796   7.000   3.114   6.326
11613TIP3    H234797   6.855   3.077   6.350
11614TIP3   OH234798   1.815   6.638   1.685
11614TIP3    H134799   1.854   6.654   1.771
11614TIP3    H234800   1.762   6.716   1.668
11615TIP3   OH234801   1.492   2.991   6.529
11615TIP3    H134802   1.585   3.015   6.536
11615TIP3    H234803   1.450   3.040   6.600
11616TIP3   OH234804   4.529   3.755   1.681
11616TIP3    H134805   4.440   3.781   1.658
11616TIP3    H234806   4.518   3.700   1.759
11617TIP3   OH234807   3.752   5.104   5.305
11617TIP3    H134808   3.834   5.124   5.259
11617TIP3    H234809   3.712   5.190   5.321
11618TIP3   OH234810   7.776   4.795   2.892
11618TIP3    H134811   7.784   4.716   2.944
11618TIP3    H234812   7.856   4.798   2.839
11619TIP3   OH234813   2.211   7.666   6.404
11619TIP3    H134814   2.119   7.661   6.427
11619TIP3    H234815   2.212   7.689   6.311
11620TIP3   OH234816   2.163   7.432   0.495
11620TIP3    H134817   2.138   7.376   0.569
11620TIP3    H234818   2.252   7.459   0.515
11621TIP3   OH234819   5.559   2.241   4.340
11621TIP3    H134820   5.629   2.210   4.282
11621TIP3    H234821   5.574   2.335   4.347
11622TIP3   OH234822   6.078   7.294   2.622
11622TIP3    H134823   6.038   7.275   2.707
11622TIP3    H234824   6.062   7.387   2.608
11623TIP3   OH234825   2.954   6.884   5.860
11623TIP3    H134826   2.927   6.858   5.771
11623TIP3    H234827   2.872   6.896   5.907
11624TIP3   OH234828   4.872   3.581   1.320
11624TIP3    H134829   4.931   3.653   1.297
11624TIP3    H234830   4.803   3.623   1.373
11625TIP3   OH234831   1.292   1.839   1.047
11625TIP3    H134832   1.280   1.751   1.009
11625TIP3    H234833   1.378   1.836   1.087
11626TIP3   OH234834   8.228   1.356   0.637
11626TIP3    H134835   8.273   1.434   0.668
11626TIP3    H234836   8.203   1.309   0.716
11627TIP3   OH234837   4.429   4.509   0.146
11627TIP3    H134838   4.438   4.589   0.198
11627TIP3    H234839   4.376   4.451   0.200
11628TIP3   OH234840   7.759   4.868   1.674
11628TIP3    H134841   7.740   4.909   1.759
11628TIP3    H234842   7.809   4.789   1.697
11629TIP3   OH234843   4.966   0.057   4.642
11629TIP3    H134844   4.874   0.082   4.637
11629TIP3    H234845   4.998   0.067   4.552
11630TIP3   OH234846   1.311   7.171   5.166
11630TIP3    H134847   1.302   7.151   5.073
11630TIP3    H234848   1.281   7.262   5.174
11631TIP3   OH234849   2.506   3.284   1.730
11631TIP3    H134850   2.571   3.215   1.716
11631TIP3    H234851   2.430   3.257   1.679
11632TIP3   OH234852   0.482   4.318   1.132
11632TIP3    H134853   0.426   4.385   1.092
11632TIP3    H234854   0.477   4.336   1.226
11633TIP3   OH234855   3.564   3.122   6.271
11633TIP3    H134856   3.551   3.114   6.366
11633TIP3    H234857   3.522   3.044   6.235
11634TIP3   OH234858   5.808   1.690   6.591
11634TIP3    H134859   5.724   1.666   6.552
11634TIP3    H234860   5.795   1.681   6.685
11635TIP3   OH234861   6.322   0.564   5.077
11635TIP3    H134862   6.368   0.552   4.994
11635TIP3    H234863   6.353   0.493   5.132
11636TIP3   OH234864   3.964   0.504   3.804
11636TIP3    H134865   3.907   0.520   3.729
11636TIP3    H234866   4.009   0.422   3.783
11637TIP3   OH234867   1.651   0.749   1.977
11637TIP3    H134868   1.720   0.692   1.942
11637TIP3    H234869   1.650   0.732   2.071
11638TIP3   OH234870   3.486   0.564   4.123
11638TIP3    H134871   3.499   0.482   4.077
11638TIP3    H234872   3.548   0.560   4.196
11639TIP3   OH234873   5.448   6.711   1.995
11639TIP3    H134874   5.502   6.674   1.925
11639TIP3    H234875   5.381   6.645   2.012
11640TIP3   OH234876   5.604   5.464   1.909
11640TIP3    H134877   5.629   5.534   1.850
11640TIP3    H234878   5.593   5.387   1.853
11641TIP3   OH234879   0.782   7.240   0.071
11641TIP3    H134880   0.755   7.207   0.157
11641TIP3    H234881   0.701   7.249   0.022
11642TIP3   OH234882   0.527   3.536   5.263
11642TIP3    H134883   0.446   3.534   5.212
11642TIP3    H234884   0.571   3.454   5.241
11643TIP3   OH234885   7.273   2.243   3.220
11643TIP3    H134886   7.281   2.333   3.190
11643TIP3    H234887   7.340   2.195   3.171
11644TIP3   OH234888   7.146   2.347   4.035
11644TIP3    H134889   7.095   2.429   4.037
11644TIP3    H234890   7.225   2.369   3.987
11645TIP3   OH234891   4.852   6.660   0.400
11645TIP3    H134892   4.779   6.669   0.461
11645TIP3    H234893   4.824   6.591   0.339
11646TIP3   OH234894   5.176   0.775   6.158
11646TIP3    H134895   5.172   0.683   6.129
11646TIP3    H234896   5.105   0.818   6.109
11647TIP3   OH234897   5.688   4.836   3.361
11647TIP3    H134898   5.642   4.856   3.442
11647TIP3    H234899   5.662   4.906   3.301
11648TIP3   OH234900   6.973   5.305   2.515
11648TIP3    H134901   7.036   5.329   2.447
11648TIP3    H234902   6.969   5.209   2.511
11649TIP3   OH234903   0.531   3.597   2.591
11649TIP3    H134904   0.624   3.580   2.607
11649TIP3    H234905   0.521   3.585   2.496
11650TIP3   OH234906   8.130   1.201   6.053
11650TIP3    H134907   8.205   1.252   6.022
11650TIP3    H234908   8.168   1.120   6.088
11651TIP3   OH234909   6.874   2.399   5.808
11651TIP3    H134910   6.932   2.470   5.835
11651TIP3    H234911   6.903   2.375   5.720
11652TIP3   OH234912   7.368   0.410   1.101
11652TIP3    H134913   7.350   0.326   1.058
11652TIP3    H234914   7.358   0.475   1.031
11653TIP3   OH234915   3.424   5.251   2.341
11653TIP3    H134916   3.346   5.221   2.293
11653TIP3    H234917   3.478   5.172   2.351
11654TIP3   OH234918   0.683   0.063   5.564
11654TIP3    H134919   0.588   0.055   5.555
11654TIP3    H234920   0.714  -0.027   5.572
11655TIP3   OH234921   8.054   3.956   3.032
11655TIP3    H134922   8.008   3.931   3.113
11655TIP3    H234923   8.145   3.930   3.048
11656TIP3   OH234924   5.678   0.804   2.568
11656TIP3    H134925   5.721   0.769   2.490
11656TIP3    H234926   5.654   0.727   2.619
11657TIP3   OH234927   5.066   3.337   2.954
11657TIP3    H134928   4.995   3.347   3.018
11657TIP3    H234929   5.050   3.253   2.912
11658TIP3   OH234930   4.352   7.302   3.038
11658TIP3    H134931   4.264   7.276   3.011
11658TIP3    H234932   4.369   7.384   2.992
11659TIP3   OH234933   1.277   5.070   2.280
11659TIP3    H134934   1.321   5.153   2.263
11659TIP3    H234935   1.210   5.063   2.212
11660TIP3   OH234936   3.538   6.621   0.026
11660TIP3    H134937   3.623   6.662   0.038
11660TIP3    H234938   3.558   6.528   0.014
11661TIP3   OH234939   4.700   3.974   2.972
11661TIP3    H134940   4.749   4.054   2.991
11661TIP3    H234941   4.682   3.935   3.058
11662TIP3   OH234942   8.290   1.197   5.089
11662TIP3    H134943   8.286   1.282   5.046
11662TIP3    H234944   8.206   1.188   5.133
11663TIP3   OH234945   7.328   0.384   4.921
11663TIP3    H134946   7.410   0.431   4.935
11663TIP3    H234947   7.265   0.430   4.977
11664TIP3   OH234948   2.107   7.233   4.028
11664TIP3    H134949   2.136   7.162   3.971
11664TIP3    H234950   2.186   7.259   4.075
11665TIP3   OH234951   4.669   2.670   5.508
11665TIP3    H134952   4.626   2.652   5.592
11665TIP3    H234953   4.706   2.586   5.481
11666TIP3   OH234954   1.121   0.889   0.222
11666TIP3    H134955   1.158   0.911   0.307
11666TIP3    H234956   1.169   0.810   0.195
11667TIP3   OH234957   5.485   1.886   3.306
11667TIP3    H134958   5.429   1.964   3.305
11667TIP3    H234959   5.498   1.867   3.398
11668TIP3   OH234960   7.914   4.317   1.158
11668TIP3    H134961   7.969   4.280   1.228
11668TIP3    H234962   7.837   4.260   1.155
11669TIP3   OH234963   0.370   1.581   2.652
11669TIP3    H134964   0.403   1.524   2.722
11669TIP3    H234965   0.421   1.557   2.575
11670TIP3   OH234966   3.298   0.777   4.653
11670TIP3    H134967   3.338   0.692   4.635
11670TIP3    H234968   3.216   0.776   4.604
11671TIP3   OH234969   8.104   6.215   2.018
11671TIP3    H134970   8.018   6.177   2.035
11671TIP3    H234971   8.102   6.238   1.924
11672TIP3   OH234972   3.353   1.237   3.571
11672TIP3    H134973   3.294   1.293   3.519
11672TIP3    H234974   3.333   1.259   3.662
11673TIP3   OH234975   7.014   0.067   5.560
11673TIP3    H134976   7.100   0.046   5.521
11673TIP3    H234977   7.018   0.161   5.578
11674TIP3   OH234978   3.062   3.252   6.155
11674TIP3    H134979   2.985   3.250   6.212
11674TIP3    H234980   3.028   3.241   6.066
11675TIP3   OH234981   0.213   5.445   3.720
11675TIP3    H134982   0.256   5.374   3.672
11675TIP3    H234983   0.137   5.467   3.667
11676TIP3   OH234984   4.598   1.649   5.171
11676TIP3    H134985   4.630   1.716   5.111
11676TIP3    H234986   4.623   1.566   5.130
11677TIP3   OH234987   8.144   3.489   3.062
11677TIP3    H134988   8.094   3.543   3.123
11677TIP3    H234989   8.149   3.403   3.104
11678TIP3   OH234990   1.874   1.128   1.432
11678TIP3    H134991   1.914   1.176   1.359
11678TIP3    H234992   1.948   1.101   1.486
11679TIP3   OH234993   8.181   5.997   6.082
11679TIP3    H134994   8.100   5.973   6.128
11679TIP3    H234995   8.191   5.930   6.015
11680TIP3   OH234996   7.499   5.105   5.104
11680TIP3    H134997   7.471   5.196   5.112
11680TIP3    H234998   7.547   5.103   5.021
11681TIP3   OH234999   0.082   5.098   4.479
11681TIP3    H135000   0.080   5.030   4.546
11681TIP3    H235001   0.116   5.175   4.524
11682TIP3   OH235002   0.666   3.721   1.189
11682TIP3    H135003   0.699   3.737   1.277
11682TIP3    H235004   0.615   3.640   1.195
11683TIP3   OH235005   5.896   1.524   1.149
11683TIP3    H135006   5.879   1.527   1.054
11683TIP3    H235007   5.968   1.585   1.162
11684TIP3   OH235008   7.447   5.810   1.832
11684TIP3    H135009   7.432   5.769   1.917
11684TIP3    H235010   7.362   5.803   1.787
11685TIP3   OH235011   4.112   6.072   4.071
11685TIP3    H135012   4.093   6.087   4.163
11685TIP3    H235013   4.117   5.977   4.062
11686TIP3   OH235014   1.223   2.988   4.647
11686TIP3    H135015   1.155   2.921   4.656
11686TIP3    H235016   1.186   3.065   4.690
11687TIP3   OH235017   5.832   6.641   0.028
11687TIP3    H135018   5.831   6.560  -0.023
11687TIP3    H235019   5.925   6.667   0.031
11688TIP3   OH235020   1.038   2.409   2.689
11688TIP3    H135021   1.102   2.384   2.756
11688TIP3    H235022   1.017   2.500   2.709
11689TIP3   OH235023   2.290   2.989   6.539
11689TIP3    H135024   2.353   3.061   6.541
11689TIP3    H235025   2.324   2.925   6.601
11690TIP3   OH235026   7.109   1.038   4.972
11690TIP3    H135027   7.158   1.115   4.942
11690TIP3    H235028   7.083   1.060   5.061
11691TIP3   OH235029   7.995   7.302   4.917
11691TIP3    H135030   7.931   7.360   4.958
11691TIP3    H235031   7.991   7.222   4.969
11692TIP3   OH235032   1.792   0.594   4.570
11692TIP3    H135033   1.774   0.511   4.615
11692TIP3    H235034   1.770   0.662   4.634
11693TIP3   OH235035   6.865   2.859   1.594
11693TIP3    H135036   6.812   2.798   1.542
11693TIP3    H235037   6.906   2.804   1.661
11694TIP3   OH235038   2.788   3.663   6.566
11694TIP3    H135039   2.771   3.633   6.655
11694TIP3    H235040   2.755   3.753   6.564
11695TIP3   OH235041   8.243   6.721   2.404
11695TIP3    H135042   8.226   6.643   2.353
11695TIP3    H235043   8.335   6.713   2.430
11696TIP3   OH235044   4.164   7.022   5.844
11696TIP3    H135045   4.085   6.993   5.888
11696TIP3    H235046   4.226   6.950   5.855
11697TIP3   OH235047   5.740   7.082   6.003
11697TIP3    H135048   5.768   7.033   6.081
11697TIP3    H235049   5.671   7.140   6.034
11698TIP3   OH235050   4.739   0.235   4.591
11698TIP3    H135051   4.777   0.284   4.664
11698TIP3    H235052   4.700   0.302   4.535
11699TIP3   OH235053   1.359   1.001   6.304
11699TIP3    H135054   1.282   1.029   6.354
11699TIP3    H235055   1.404   0.939   6.361
11700TIP3   OH235056   4.743   1.907   1.793
11700TIP3    H135057   4.693   1.909   1.874
11700TIP3    H235058   4.792   1.825   1.796
11701TIP3   OH235059   8.055   1.326   6.602
11701TIP3    H135060   8.020   1.309   6.515
11701TIP3    H235061   8.026   1.414   6.623
11702TIP3   OH235062   6.527   4.782   3.171
11702TIP3    H135063   6.589   4.816   3.235
11702TIP3    H235064   6.518   4.852   3.107
11703TIP3   OH235065   0.602   1.394   0.871
11703TIP3    H135066   0.589   1.300   0.883
11703TIP3    H235067   0.591   1.431   0.959
11704TIP3   OH235068   3.791   3.027   1.037
11704TIP3    H135069   3.812   2.940   1.003
11704TIP3    H235070   3.718   3.013   1.097
11705TIP3   OH235071   6.644   0.395   0.972
11705TIP3    H135072   6.648   0.482   1.012
11705TIP3    H235073   6.656   0.411   0.878
11706TIP3   OH235074   4.222   3.052   4.047
11706TIP3    H135075   4.316   3.072   4.048
11706TIP3    H235076   4.180   3.132   4.078
11707TIP3   OH235077   5.567   4.668   2.523
11707TIP3    H135078   5.586   4.600   2.458
11707TIP3    H235079   5.627   4.650   2.595
11708TIP3   OH235080   1.854   0.366   5.234
11708TIP3    H135081   1.937   0.356   5.281
11708TIP3    H235082   1.842   0.461   5.226
11709TIP3   OH235083   5.405   1.452   5.454
11709TIP3    H135084   5.376   1.361   5.441
11709TIP3    H235085   5.476   1.463   5.392
11710TIP3   OH235086   0.722   1.356   6.583
11710TIP3    H135087   0.769   1.360   6.499
11710TIP3    H235088   0.708   1.263   6.597
11711TIP3   OH235089   7.678   6.994   1.131
11711TIP3    H135090   7.607   7.050   1.164
11711TIP3    H235091   7.724   6.965   1.209
11712TIP3   OH235092   1.562   4.860   6.041
11712TIP3    H135093   1.549   4.893   5.953
11712TIP3    H235094   1.620   4.923   6.083
11713TIP3   OH235095   0.248   0.098   0.960
11713TIP3    H135096   0.218   0.170   0.904
11713TIP3    H235097   0.170   0.072   1.009
11714TIP3   OH235098   6.082   2.624   4.532
11714TIP3    H135099   6.026   2.619   4.610
11714TIP3    H235100   6.155   2.565   4.551
11715TIP3   OH235101   2.260   0.935   3.899
11715TIP3    H135102   2.320   1.009   3.888
11715TIP3    H235103   2.313   0.858   3.879
11716TIP3   OH235104   2.806   0.561   1.921
11716TIP3    H135105   2.721   0.518   1.925
11716TIP3    H235106   2.812   0.610   2.003
11717TIP3   OH235107   4.898   0.623   6.061
11717TIP3    H135108   4.808   0.602   6.034
11717TIP3    H235109   4.904   0.718   6.052
11718TIP3   OH235110   8.298   5.946   2.465
11718TIP3    H135111   8.221   5.901   2.430
11718TIP3    H235112   8.372   5.892   2.437
11719TIP3   OH235113   5.975   6.950   6.129
11719TIP3    H135114   5.994   7.033   6.086
11719TIP3    H235115   6.038   6.889   6.091
11720TIP3   OH235116   0.716   1.517   4.150
11720TIP3    H135117   0.768   1.478   4.080
11720TIP3    H235118   0.749   1.607   4.158
11721TIP3   OH235119   6.323   7.213   4.971
11721TIP3    H135120   6.237   7.234   4.935
11721TIP3    H235121   6.345   7.288   5.025
11722TIP3   OH235122   3.814   5.396   1.345
11722TIP3    H135123   3.828   5.466   1.409
11722TIP3    H235124   3.724   5.367   1.360
11723TIP3   OH235125   4.753   0.272   5.214
11723TIP3    H135126   4.780   0.315   5.133
11723TIP3    H235127   4.807   0.314   5.282
11724TIP3   OH235128   5.869   3.160   2.926
11724TIP3    H135129   5.951   3.196   2.959
11724TIP3    H235130   5.840   3.223   2.860
11725TIP3   OH235131   2.489   7.197   6.484
11725TIP3    H135132   2.413   7.155   6.525
11725TIP3    H235133   2.514   7.138   6.413
11726TIP3   OH235134   0.054   4.556   6.106
11726TIP3    H135135   0.127   4.500   6.079
11726TIP3    H235136   0.039   4.532   6.197
11727TIP3   OH235137   2.274   7.218   2.073
11727TIP3    H135138   2.272   7.122   2.064
11727TIP3    H235139   2.346   7.235   2.133
11728TIP3   OH235140   1.355   2.534   3.398
11728TIP3    H135141   1.369   2.444   3.370
11728TIP3    H235142   1.422   2.584   3.352
11729TIP3   OH235143   1.166   2.741   2.163
11729TIP3    H135144   1.090   2.795   2.181
11729TIP3    H235145   1.190   2.761   2.072
11730TIP3   OH235146   3.789   0.604   5.752
11730TIP3    H135147   3.877   0.643   5.750
11730TIP3    H235148   3.791   0.542   5.825
11731TIP3   OH235149   6.598   4.728   5.874
11731TIP3    H135150   6.548   4.758   5.949
11731TIP3    H235151   6.690   4.742   5.898
11732TIP3   OH235152   7.598   4.323   3.915
11732TIP3    H135153   7.564   4.278   3.992
11732TIP3    H235154   7.564   4.273   3.841
11733TIP3   OH235155   5.561   3.605   2.001
11733TIP3    H135156   5.545   3.699   1.992
11733TIP3    H235157   5.505   3.564   1.936
11734TIP3   OH235158   4.825   7.561   5.042
11734TIP3    H135159   4.843   7.598   4.955
11734TIP3    H235160   4.850   7.469   5.034
11735TIP3   OH235161   7.756   0.971   0.567
11735TIP3    H135162   7.709   0.907   0.513
11735TIP3    H235163   7.848   0.946   0.558
11736TIP3   OH235164   2.414   5.249   4.997
11736TIP3    H135165   2.357   5.181   5.033
11736TIP3    H235166   2.357   5.326   4.989
11737TIP3   OH235167   2.438   2.684   6.469
11737TIP3    H135168   2.514   2.739   6.491
11737TIP3    H235169   2.396   2.666   6.553
11738TIP3   OH235170   1.144   5.399   3.776
11738TIP3    H135171   1.097   5.482   3.776
11738TIP3    H235172   1.118   5.356   3.857
11739TIP3   OH235173   3.003   7.415   1.134
11739TIP3    H135174   3.091   7.446   1.154
11739TIP3    H235175   3.015   7.323   1.113
11740TIP3   OH235176   3.296   5.253   1.936
11740TIP3    H135177   3.371   5.213   1.892
11740TIP3    H235178   3.275   5.330   1.883
11741TIP3   OH235179   0.127   7.765   5.745
11741TIP3    H135180   0.198   7.819   5.780
11741TIP3    H235181   0.055   7.827   5.731
11742TIP3   OH235182   3.851   6.982   6.156
11742TIP3    H135183   3.806   7.049   6.105
11742TIP3    H235184   3.839   7.009   6.247
11743TIP3   OH235185   3.725   2.293   1.256
11743TIP3    H135186   3.673   2.361   1.213
11743TIP3    H235187   3.809   2.295   1.210
11744TIP3   OH235188   7.111   6.249   1.593
11744TIP3    H135189   7.068   6.276   1.674
11744TIP3    H235190   7.175   6.318   1.576
11745TIP3   OH235191   0.875   7.719   2.323
11745TIP3    H135192   0.858   7.812   2.331
11745TIP3    H235193   0.969   7.712   2.308
11746TIP3   OH235194   2.279   7.299   0.168
11746TIP3    H135195   2.270   7.246   0.247
11746TIP3    H235196   2.213   7.263   0.108
11747TIP3   OH235197   3.395   2.918   1.452
11747TIP3    H135198   3.480   2.956   1.428
11747TIP3    H235199   3.337   2.943   1.379
11748TIP3   OH235200   3.024   5.565   0.799
11748TIP3    H135201   2.944   5.568   0.852
11748TIP3    H235202   3.027   5.650   0.756
11749TIP3   OH235203   0.541   0.856   0.035
11749TIP3    H135204   0.549   0.778   0.091
11749TIP3    H235205   0.451   0.886   0.050
11750TIP3   OH235206   2.435   2.227   2.299
11750TIP3    H135207   2.343   2.219   2.276
11750TIP3    H235208   2.446   2.319   2.325
11751TIP3   OH235209   5.577   6.162   1.648
11751TIP3    H135210   5.616   6.226   1.589
11751TIP3    H235211   5.598   6.195   1.736
11752TIP3   OH235212   4.977   1.911   0.058
11752TIP3    H135213   5.019   1.996   0.044
11752TIP3    H235214   4.883   1.930   0.055
11753TIP3   OH235215   1.888   5.069   3.506
11753TIP3    H135216   1.931   5.023   3.578
11753TIP3    H235217   1.882   5.003   3.437
11754TIP3   OH235218   5.785   1.539   4.178
11754TIP3    H135219   5.810   1.458   4.222
11754TIP3    H235220   5.868   1.581   4.156
11755TIP3   OH235221   2.267   6.942   4.199
11755TIP3    H135222   2.218   6.975   4.123
11755TIP3    H235223   2.221   6.863   4.225
11756TIP3   OH235224   7.500   6.738   6.451
11756TIP3    H135225   7.463   6.825   6.436
11756TIP3    H235226   7.462   6.710   6.534
11757TIP3   OH235227   2.767   1.526   2.398
11757TIP3    H135228   2.784   1.463   2.328
11757TIP3    H235229   2.700   1.483   2.451
11758TIP3   OH235230   1.646   1.917   4.877
11758TIP3    H135231   1.606   1.832   4.892
11758TIP3    H235232   1.717   1.900   4.816
11759TIP3   OH235233   1.645   6.117   1.865
11759TIP3    H135234   1.599   6.130   1.782
11759TIP3    H235235   1.617   6.190   1.920
11760TIP3   OH235236   6.996   4.242   3.464
11760TIP3    H135237   7.053   4.319   3.462
11760TIP3    H235238   6.954   4.242   3.378
11761TIP3   OH235239   3.286  -0.005   2.368
11761TIP3    H135240   3.309   0.032   2.453
11761TIP3    H235241   3.361   0.015   2.312
11762TIP3   OH235242   3.786   6.510   3.339
11762TIP3    H135243   3.823   6.574   3.279
11762TIP3    H235244   3.842   6.433   3.331
11763TIP3   OH235245   4.292   4.573   6.580
11763TIP3    H135246   4.238   4.652   6.569
11763TIP3    H235247   4.238   4.515   6.633
11764TIP3   OH235248   8.050   6.412   3.105
11764TIP3    H135249   8.098   6.331   3.121
11764TIP3    H235250   8.035   6.449   3.192
11765TIP3   OH235251   3.393   3.345   2.039
11765TIP3    H135252   3.397   3.252   2.061
11765TIP3    H235253   3.300   3.362   2.023
11766TIP3   OH235254   2.951   2.419   0.484
11766TIP3    H135255   2.959   2.492   0.546
11766TIP3    H235256   3.034   2.419   0.436
11767TIP3   OH235257   1.017   5.879   1.931
11767TIP3    H135258   1.036   5.962   1.975
11767TIP3    H235259   0.934   5.895   1.884
11768TIP3   OH235260   8.165   2.944   0.100
11768TIP3    H135261   8.087   2.961   0.047
11768TIP3    H235262   8.137   2.875   0.161
11769TIP3   OH235263   5.192   4.599   4.344
11769TIP3    H135264   5.224   4.634   4.427
11769TIP3    H235265   5.119   4.542   4.368
11770TIP3   OH235266   2.114   6.787   0.645
11770TIP3    H135267   2.145   6.767   0.734
11770TIP3    H235268   2.086   6.702   0.610
11771TIP3   OH235269   3.439   6.613   5.891
11771TIP3    H135270   3.372   6.643   5.830
11771TIP3    H235271   3.424   6.665   5.971
11772TIP3   OH235272   4.587   0.121   2.774
11772TIP3    H135273   4.604   0.203   2.728
11772TIP3    H235274   4.671   0.097   2.813
11773TIP3   OH235275   6.649   4.881   2.259
11773TIP3    H135276   6.642   4.937   2.337
11773TIP3    H235277   6.559   4.855   2.241
11774TIP3   OH235278   5.594   2.148   3.546
11774TIP3    H135279   5.597   2.121   3.638
11774TIP3    H235280   5.686   2.154   3.520
11775TIP3   OH235281   6.464   0.765   5.512
11775TIP3    H135282   6.405   0.731   5.445
11775TIP3    H235283   6.550   0.763   5.471
11776TIP3   OH235284   7.849   0.194   6.780
11776TIP3    H135285   7.931   0.238   6.761
11776TIP3    H235286   7.810   0.178   6.693
11777TIP3   OH235287   6.543   0.859   1.195
11777TIP3    H135288   6.577   0.807   1.268
11777TIP3    H235289   6.592   0.941   1.200
11778TIP3   OH235290   7.003   0.708   3.833
11778TIP3    H135291   6.919   0.754   3.824
11778TIP3    H235292   6.988   0.623   3.791
11779TIP3   OH235293   2.338   2.808   3.337
11779TIP3    H135294   2.425   2.792   3.375
11779TIP3    H235295   2.325   2.902   3.345
11780TIP3   OH235296   3.387   5.545   2.186
11780TIP3    H135297   3.451   5.475   2.199
11780TIP3    H235298   3.321   5.531   2.253
11781TIP3   OH235299   5.269   3.358   6.628
11781TIP3    H135300   5.208   3.432   6.635
11781TIP3    H235301   5.235   3.293   6.690
11782TIP3   OH235302   1.230   0.025   1.064
11782TIP3    H135303   1.139   0.033   1.035
11782TIP3    H235304   1.242  -0.069   1.078
11783TIP3   OH235305   3.387   0.066   1.671
11783TIP3    H135306   3.378   0.146   1.724
11783TIP3    H235307   3.356   0.091   1.584
11784TIP3   OH235308   2.638   6.106   1.461
11784TIP3    H135309   2.589   6.134   1.384
11784TIP3    H235310   2.575   6.058   1.515
11785TIP3   OH235311   6.659   7.151   2.038
11785TIP3    H135312   6.582   7.104   2.007
11785TIP3    H235313   6.733   7.096   2.012
11786TIP3   OH235314   3.972   2.451   1.656
11786TIP3    H135315   3.892   2.407   1.686
11786TIP3    H235316   3.940   2.515   1.592
11787TIP3   OH235317   3.151   4.789   3.052
11787TIP3    H135318   3.091   4.862   3.070
11787TIP3    H235319   3.214   4.824   2.989
11788TIP3   OH235320   3.282   1.970   2.054
11788TIP3    H135321   3.270   1.945   2.145
11788TIP3    H235322   3.222   1.914   2.005
11789TIP3   OH235323   4.521   1.884   3.954
11789TIP3    H135324   4.543   1.966   3.997
11789TIP3    H235325   4.430   1.867   3.978
11790TIP3   OH235326   3.962   5.547   1.134
11790TIP3    H135327   4.036   5.494   1.102
11790TIP3    H235328   3.930   5.499   1.210
11791TIP3   OH235329   5.127   1.794   6.623
11791TIP3    H135330   5.073   1.729   6.667
11791TIP3    H235331   5.156   1.853   6.693
11792TIP3   OH235332   3.345   1.888   1.641
11792TIP3    H135333   3.309   1.858   1.557
11792TIP3    H235334   3.383   1.810   1.680
11793TIP3   OH235335   6.743   2.413   0.990
11793TIP3    H135336   6.821   2.432   1.042
11793TIP3    H235337   6.672   2.408   1.053
11794TIP3   OH235338   8.116   6.089   6.539
11794TIP3    H135339   8.154   6.045   6.615
11794TIP3    H235340   8.190   6.107   6.481
11795TIP3   OH235341   7.327   4.700   3.974
11795TIP3    H135342   7.237   4.669   3.964
11795TIP3    H235343   7.348   4.742   3.890
11796TIP3   OH235344   5.340   4.757   0.928
11796TIP3    H135345   5.250   4.748   0.957
11796TIP3    H235346   5.392   4.737   1.006
11797TIP3   OH235347   2.975   1.416   3.420
11797TIP3    H135348   2.909   1.397   3.487
11797TIP3    H235349   2.932   1.392   3.338
11798TIP3   OH235350   1.130   3.112   2.493
11798TIP3    H135351   1.200   3.094   2.430
11798TIP3    H235352   1.167   3.179   2.551
11799TIP3   OH235353   7.158   2.181   4.632
11799TIP3    H135354   7.223   2.249   4.649
11799TIP3    H235355   7.098   2.185   4.707
11800TIP3   OH235356   1.356   0.416   0.462
11800TIP3    H135357   1.295   0.485   0.441
11800TIP3    H235358   1.301   0.339   0.479
11801TIP3   OH235359   8.094   3.361   1.738
11801TIP3    H135360   8.189   3.356   1.750
11801TIP3    H235361   8.073   3.284   1.685
11802TIP3   OH235362   8.239   6.830   4.513
11802TIP3    H135363   8.203   6.902   4.460
11802TIP3    H235364   8.277   6.874   4.589
11803TIP3   OH235365   5.683   2.616   6.040
11803TIP3    H135366   5.679   2.627   5.945
11803TIP3    H235367   5.661   2.702   6.074
11804TIP3   OH235368   7.831   2.575   5.322
11804TIP3    H135369   7.818   2.504   5.384
11804TIP3    H235370   7.793   2.652   5.365
11805TIP3   OH235371   6.773   3.534   1.695
11805TIP3    H135372   6.864   3.523   1.667
11805TIP3    H235373   6.763   3.629   1.705
11806TIP3   OH235374   7.975   1.943   1.494
11806TIP3    H135375   7.957   2.029   1.533
11806TIP3    H235376   7.898   1.924   1.441
11807TIP3   OH235377   5.546   3.281   2.410
11807TIP3    H135378   5.465   3.312   2.451
11807TIP3    H235379   5.523   3.272   2.317
11808TIP3   OH235380   1.025   0.478   3.506
11808TIP3    H135381   1.099   0.497   3.563
11808TIP3    H235382   0.948   0.508   3.554
11809TIP3   OH235383   4.318   4.600   6.047
11809TIP3    H135384   4.296   4.508   6.034
11809TIP3    H235385   4.353   4.604   6.136
11810TIP3   OH235386   7.242   5.369   0.873
11810TIP3    H135387   7.301   5.300   0.844
11810TIP3    H235388   7.204   5.336   0.955
11811TIP3   OH235389   1.493   0.749   0.163
11811TIP3    H135390   1.515   0.746   0.257
11811TIP3    H235391   1.398   0.742   0.161
11812TIP3   OH235392   5.349   6.376   6.141
11812TIP3    H135393   5.278   6.428   6.180
11812TIP3    H235394   5.339   6.289   6.181
11813TIP3   OH235395   6.658   0.718   1.423
11813TIP3    H135396   6.740   0.678   1.453
11813TIP3    H235397   6.615   0.747   1.504
11814TIP3   OH235398   4.195   7.653   4.249
11814TIP3    H135399   4.222   7.655   4.157
11814TIP3    H235400   4.111   7.700   4.250
11815TIP3   OH235401   8.170   4.988   2.350
11815TIP3    H135402   8.166   4.894   2.336
11815TIP3    H235403   8.079   5.015   2.362
11816TIP3   OH235404   6.210   0.002   2.622
11816TIP3    H135405   6.177  -0.038   2.702
11816TIP3    H235406   6.226   0.093   2.646
11817TIP3   OH235407   0.941   7.675   3.097
11817TIP3    H135408   0.991   7.638   3.170
11817TIP3    H235409   0.857   7.629   3.100
11818TIP3   OH235410   5.214   4.489   5.606
11818TIP3    H135411   5.195   4.399   5.579
11818TIP3    H235412   5.139   4.540   5.576
11819TIP3   OH235413   0.101   1.008   5.252
11819TIP3    H135414   0.130   1.049   5.333
11819TIP3    H235415   0.088   1.081   5.192
11820TIP3   OH235416   4.020   1.690   1.863
11820TIP3    H135417   3.927   1.708   1.874
11820TIP3    H235418   4.063   1.746   1.928
11821TIP3   OH235419   7.085   0.990   3.946
11821TIP3    H135420   7.001   0.943   3.940
11821TIP3    H235421   7.091   1.039   3.864
11822TIP3   OH235422   6.558   5.835   2.219
11822TIP3    H135423   6.533   5.772   2.287
11822TIP3    H235424   6.545   5.920   2.259
11823TIP3   OH235425   0.624   6.955   1.559
11823TIP3    H135426   0.586   6.882   1.510
11823TIP3    H235427   0.688   6.994   1.499
11824TIP3   OH235428   3.597   1.656   3.479
11824TIP3    H135429   3.592   1.580   3.420
11824TIP3    H235430   3.512   1.699   3.470
11825TIP3   OH235431   7.286   1.274   2.981
11825TIP3    H135432   7.198   1.237   2.987
11825TIP3    H235433   7.321   1.241   2.899
11826TIP3   OH235434   7.214   2.852   1.021
11826TIP3    H135435   7.232   2.911   1.095
11826TIP3    H235436   7.152   2.901   0.967
11827TIP3   OH235437   6.112   7.016   1.987
11827TIP3    H135438   6.075   6.930   2.006
11827TIP3    H235439   6.036   7.073   1.978
11828TIP3   OH235440   8.097   2.678   3.870
11828TIP3    H135441   8.077   2.588   3.895
11828TIP3    H235442   8.186   2.674   3.834
11829TIP3   OH235443   8.286   7.041   5.750
11829TIP3    H135444   8.379   7.030   5.731
11829TIP3    H235445   8.248   6.954   5.737
11830TIP3   OH235446   5.819   6.855   6.476
11830TIP3    H135447   5.910   6.842   6.503
11830TIP3    H235448   5.823   6.856   6.380
11831TIP3   OH235449   4.592   2.621   1.110
11831TIP3    H135450   4.541   2.700   1.125
11831TIP3    H235451   4.631   2.601   1.195
11832TIP3   OH235452   4.980   3.292   3.557
11832TIP3    H135453   4.936   3.344   3.625
11832TIP3    H235454   4.960   3.201   3.579
11833TIP3   OH235455   7.700   5.182   6.010
11833TIP3    H135456   7.707   5.208   6.102
11833TIP3    H235457   7.656   5.097   6.012
11834TIP3   OH235458   3.045   5.447   0.256
11834TIP3    H135459   3.051   5.382   0.186
11834TIP3    H235460   3.108   5.514   0.231
11835TIP3   OH235461   6.889   5.873   2.783
11835TIP3    H135462   6.850   5.843   2.865
11835TIP3    H235463   6.923   5.961   2.803
11836TIP3   OH235464   7.965   1.469   0.812
11836TIP3    H135465   8.025   1.406   0.852
11836TIP3    H235466   7.994   1.554   0.846
11837TIP3   OH235467   4.135   2.702   1.470
11837TIP3    H135468   4.220   2.683   1.508
11837TIP3    H235469   4.098   2.770   1.526
11838TIP3   OH235470   6.551   6.951   6.633
11838TIP3    H135471   6.475   6.997   6.596
11838TIP3    H235472   6.562   6.874   6.576
11839TIP3   OH235473   6.594   2.825   2.395
11839TIP3    H135474   6.673   2.772   2.396
11839TIP3    H235475   6.562   2.825   2.485
11840TIP3   OH235476   2.970   4.298   6.196
11840TIP3    H135477   2.878   4.275   6.206
11840TIP3    H235478   2.983   4.304   6.101
11841TIP3   OH235479   4.242   4.405   3.754
11841TIP3    H135480   4.329   4.386   3.722
11841TIP3    H235481   4.252   4.486   3.805
11842TIP3   OH235482   5.020   6.555   6.001
11842TIP3    H135483   5.050   6.524   6.086
11842TIP3    H235484   5.034   6.650   6.004
11843TIP3   OH235485   1.843   6.971   5.987
11843TIP3    H135486   1.785   6.980   6.063
11843TIP3    H235487   1.848   6.876   5.972
11844TIP3   OH235488   4.521   2.859   2.297
11844TIP3    H135489   4.492   2.871   2.387
11844TIP3    H235490   4.590   2.924   2.285
11845TIP3   OH235491   4.194   2.758   4.297
11845TIP3    H135492   4.181   2.733   4.206
11845TIP3    H235493   4.132   2.703   4.346
11846TIP3   OH235494   0.304   7.396   6.684
11846TIP3    H135495   0.225   7.424   6.731
11846TIP3    H235496   0.356   7.350   6.749
11847TIP3   OH235497   0.739   3.612   3.929
11847TIP3    H135498   0.814   3.670   3.921
11847TIP3    H235499   0.732   3.593   4.023
11848TIP3   OH235500   3.122   0.263   0.850
11848TIP3    H135501   3.154   0.353   0.858
11848TIP3    H235502   3.029   0.270   0.872
11849TIP3   OH235503   7.707   3.739   3.825
11849TIP3    H135504   7.755   3.754   3.744
11849TIP3    H235505   7.617   3.723   3.798
11850TIP3   OH235506   8.016   6.017   0.001
11850TIP3    H135507   7.939   6.072   0.005
11850TIP3    H235508   7.994   5.940   0.054
11851TIP3   OH235509   5.386   5.029   2.257
11851TIP3    H135510   5.441   5.019   2.335
11851TIP3    H235511   5.449   5.028   2.185
11852TIP3   OH235512   2.810   0.553   4.892
11852TIP3    H135513   2.876   0.571   4.959
11852TIP3    H235514   2.752   0.629   4.894
11853TIP3   OH235515   8.192   1.580   0.227
11853TIP3    H135516   8.281   1.567   0.259
11853TIP3    H235517   8.136   1.545   0.297
11854TIP3   OH235518   4.468   7.574   1.265
11854TIP3    H135519   4.443   7.488   1.231
11854TIP3    H235520   4.563   7.577   1.253
11855TIP3   OH235521   4.399   6.003   0.407
11855TIP3    H135522   4.402   5.931   0.343
11855TIP3    H235523   4.490   6.016   0.433
11856TIP3   OH235524   3.817   4.492   0.255
11856TIP3    H135525   3.736   4.450   0.225
11856TIP3    H235526   3.885   4.427   0.240
11857TIP3   OH235527   5.210   2.322   1.059
11857TIP3    H135528   5.261   2.245   1.033
11857TIP3    H235529   5.120   2.300   1.036
11858TIP3   OH235530   1.728   4.100   0.341
11858TIP3    H135531   1.632   4.096   0.345
11858TIP3    H235532   1.747   4.193   0.328
11859TIP3   OH235533   0.343   1.425   6.771
11859TIP3    H135534   0.376   1.336   6.782
11859TIP3    H235535   0.252   1.414   6.742
11860TIP3   OH235536   3.882   0.953   2.335
11860TIP3    H135537   3.790   0.937   2.318
11860TIP3    H235538   3.909   0.879   2.390
11861TIP3   OH235539   0.586   2.131   6.022
11861TIP3    H135540   0.593   2.208   6.079
11861TIP3    H235541   0.666   2.135   5.969
11862TIP3   OH235542   2.196   5.631   3.850
11862TIP3    H135543   2.219   5.558   3.908
11862TIP3    H235544   2.227   5.604   3.764
11863TIP3   OH235545   1.840   0.612   0.663
11863TIP3    H135546   1.848   0.699   0.701
11863TIP3    H235547   1.766   0.572   0.708
11864TIP3   OH235548   1.409   0.447  -0.002
11864TIP3    H135549   1.450   0.383  -0.060
11864TIP3    H235550   1.414   0.409   0.085
11865TIP3   OH235551   6.669   1.580   3.063
11865TIP3    H135552   6.728   1.556   2.991
11865TIP3    H235553   6.644   1.496   3.102
11866TIP3   OH235554   3.912   2.898   6.576
11866TIP3    H135555   3.842   2.939   6.626
11866TIP3    H235556   3.919   2.950   6.496
11867TIP3   OH235557   4.366   0.720   5.407
11867TIP3    H135558   4.402   0.779   5.341
11867TIP3    H235559   4.443   0.685   5.453
11868TIP3   OH235560   0.920   6.928   5.381
11868TIP3    H135561   0.858   6.996   5.406
11868TIP3    H235562   1.005   6.973   5.377
11869TIP3   OH235563   6.320   1.394   5.774
11869TIP3    H135564   6.258   1.465   5.757
11869TIP3    H235565   6.375   1.391   5.696
11870TIP3   OH235566   0.830   1.638   6.563
11870TIP3    H135567   0.923   1.658   6.575
11870TIP3    H235568   0.829   1.557   6.513
11871TIP3   OH235569   6.253   5.144   0.644
11871TIP3    H135570   6.325   5.207   0.649
11871TIP3    H235571   6.279   5.074   0.704
11872TIP3   OH235572   5.391   2.809   2.400
11872TIP3    H135573   5.360   2.742   2.461
11872TIP3    H235574   5.483   2.823   2.424
11873TIP3   OH235575   2.249   1.125   5.896
11873TIP3    H135576   2.163   1.116   5.854
11873TIP3    H235577   2.312   1.104   5.828
11874TIP3   OH235578   1.608   4.172   5.590
11874TIP3    H135579   1.698   4.157   5.564
11874TIP3    H235580   1.614   4.197   5.683
11875TIP3   OH235581   0.239   3.205   6.327
11875TIP3    H135582   0.216   3.228   6.417
11875TIP3    H235583   0.177   3.135   6.304
11876TIP3   OH235584   4.320   1.127   6.167
11876TIP3    H135585   4.377   1.099   6.239
11876TIP3    H235586   4.232   1.105   6.197
11877TIP3   OH235587   6.099   3.627   4.712
11877TIP3    H135588   6.151   3.684   4.655
11877TIP3    H235589   6.030   3.593   4.656
11878TIP3   OH235590   4.683   4.216   6.152
11878TIP3    H135591   4.674   4.277   6.226
11878TIP3    H235592   4.619   4.147   6.171
11879TIP3   OH235593   0.378   7.011   3.481
11879TIP3    H135594   0.470   6.984   3.488
11879TIP3    H235595   0.357   7.000   3.388
11880TIP3   OH235596   5.366   3.998   6.781
11880TIP3    H135597   5.398   4.084   6.809
11880TIP3    H235598   5.363   4.003   6.686
11881TIP3   OH235599   6.385   3.938   2.712
11881TIP3    H135600   6.464   3.934   2.765
11881TIP3    H235601   6.396   4.017   2.659
11882TIP3   OH235602   7.946   2.375   2.443
11882TIP3    H135603   7.960   2.438   2.515
11882TIP3    H235604   7.854   2.385   2.420
11883TIP3   OH235605   1.171   6.986   2.283
11883TIP3    H135606   1.215   6.903   2.298
11883TIP3    H235607   1.141   6.982   2.192
11884TIP3   OH235608   1.145   4.683   4.575
11884TIP3    H135609   1.067   4.735   4.558
11884TIP3    H235610   1.132   4.602   4.525
11885TIP3   OH235611   7.283   3.956   5.517
11885TIP3    H135612   7.350   3.933   5.582
11885TIP3    H235613   7.217   3.886   5.525
11886TIP3   OH235614   1.771   5.571   1.934
11886TIP3    H135615   1.753   5.661   1.959
11886TIP3    H235616   1.687   5.527   1.942
11887TIP3   OH235617   6.371   1.256   4.991
11887TIP3    H135618   6.312   1.299   5.053
11887TIP3    H235619   6.433   1.208   5.046
11888TIP3   OH235620   3.241   0.715   5.530
11888TIP3    H135621   3.335   0.727   5.543
11888TIP3    H235622   3.221   0.765   5.451
11889TIP3   OH235623   6.797   0.900   0.530
11889TIP3    H135624   6.856   0.858   0.468
11889TIP3    H235625   6.854   0.925   0.603
11890TIP3   OH235626   5.043   3.995   2.498
11890TIP3    H135627   5.070   3.977   2.588
11890TIP3    H235628   5.087   4.077   2.476
11891TIP3   OH235629   3.122   5.858   4.921
11891TIP3    H135630   3.204   5.846   4.872
11891TIP3    H235631   3.142   5.927   4.984
11892TIP3   OH235632   6.862   1.833   1.012
11892TIP3    H135633   6.788   1.862   1.066
11892TIP3    H235634   6.916   1.780   1.071
11893TIP3   OH235635   4.901   7.115   0.908
11893TIP3    H135636   4.815   7.121   0.950
11893TIP3    H235637   4.958   7.080   0.977
11894TIP3   OH235638   1.336   1.980   4.867
11894TIP3    H135639   1.406   2.001   4.929
11894TIP3    H235640   1.288   1.908   4.909
11895TIP3   OH235641   7.572   4.991   1.117
11895TIP3    H135642   7.530   4.908   1.138
11895TIP3    H235643   7.616   5.017   1.198
11896TIP3   OH235644   1.280   3.553   2.417
11896TIP3    H135645   1.268   3.602   2.499
11896TIP3    H235646   1.340   3.482   2.440
11897TIP3   OH235647   1.453   3.952   2.735
11897TIP3    H135648   1.402   3.908   2.803
11897TIP3    H235649   1.455   3.891   2.662
11898TIP3   OH235650   6.720   7.744   6.682
11898TIP3    H135651   6.752   7.659   6.711
11898TIP3    H235652   6.762   7.807   6.740
11899TIP3   OH235653   1.965   2.840   5.802
11899TIP3    H135654   1.901   2.781   5.761
11899TIP3    H235655   1.936   2.928   5.778
11900TIP3   OH235656   0.353   1.804   0.725
11900TIP3    H135657   0.375   1.865   0.796
11900TIP3    H235658   0.420   1.736   0.730
11901TIP3   OH235659   6.732   7.124   0.664
11901TIP3    H135660   6.736   7.030   0.681
11901TIP3    H235661   6.681   7.131   0.583
11902TIP3   OH235662   5.472   6.547   3.833
11902TIP3    H135663   5.394   6.502   3.800
11902TIP3    H235664   5.447   6.575   3.922
11903TIP3   OH235665   6.276   4.381   3.152
11903TIP3    H135666   6.203   4.327   3.180
11903TIP3    H235667   6.254   4.470   3.179
11904TIP3   OH235668   4.843   5.114   6.698
11904TIP3    H135669   4.765   5.152   6.658
11904TIP3    H235670   4.903   5.100   6.625
11905TIP3   OH235671   4.290   7.299   1.662
11905TIP3    H135672   4.205   7.258   1.677
11905TIP3    H235673   4.281   7.341   1.576
11906TIP3   OH235674   3.217   1.959   6.205
11906TIP3    H135675   3.145   2.011   6.169
11906TIP3    H235676   3.296   2.007   6.181
11907TIP3   OH235677   3.312   5.833   0.844
11907TIP3    H135678   3.405   5.838   0.868
11907TIP3    H235679   3.309   5.771   0.771
11908TIP3   OH235680   7.110   3.072   2.781
11908TIP3    H135681   7.187   3.054   2.727
11908TIP3    H235682   7.080   3.158   2.753
11909TIP3   OH235683   6.437   5.264   6.145
11909TIP3    H135684   6.471   5.353   6.143
11909TIP3    H235685   6.401   5.250   6.057
11910TIP3   OH235686   0.079   4.174   1.524
11910TIP3    H135687   0.125   4.254   1.551
11910TIP3    H235688  -0.005   4.179   1.567
11911TIP3   OH235689   6.553   4.352   5.166
11911TIP3    H135690   6.607   4.429   5.147
11911TIP3    H235691   6.463   4.381   5.148
11912TIP3   OH235692   0.714   7.210   5.686
11912TIP3    H135693   0.623   7.207   5.714
11912TIP3    H235694   0.762   7.164   5.755
11913TIP3   OH235695   4.420   4.414   0.426
11913TIP3    H135696   4.368   4.415   0.506
11913TIP3    H235697   4.501   4.458   0.450
11914TIP3   OH235698   4.948   3.124   6.477
11914TIP3    H135699   5.002   3.203   6.469
11914TIP3    H235700   4.897   3.138   6.556
11915TIP3   OH235701   5.298   7.646   5.800
11915TIP3    H135702   5.320   7.662   5.892
11915TIP3    H235703   5.268   7.730   5.767
11916TIP3   OH235704   1.215   3.238   4.802
11916TIP3    H135705   1.134   3.261   4.847
11916TIP3    H235706   1.243   3.319   4.759
11917TIP3   OH235707   0.137   1.765   0.945
11917TIP3    H135708   0.094   1.723   1.019
11917TIP3    H235709   0.219   1.716   0.935
11918TIP3   OH235710   5.154   4.174   1.605
11918TIP3    H135711   5.103   4.251   1.580
11918TIP3    H235712   5.099   4.100   1.580
11919TIP3   OH235713   3.309   0.496   0.238
11919TIP3    H135714   3.403   0.476   0.231
11919TIP3    H235715   3.305   0.592   0.239
11920TIP3   OH235716   7.798   3.800   2.670
11920TIP3    H135717   7.778   3.889   2.699
11920TIP3    H235718   7.865   3.770   2.731
11921TIP3   OH235719   3.947   0.093   2.086
11921TIP3    H135720   3.976   0.017   2.137
11921TIP3    H235721   3.894   0.144   2.147
11922TIP3   OH235722   4.575   0.105   0.190
11922TIP3    H135723   4.604   0.024   0.233
11922TIP3    H235724   4.519   0.148   0.255
11923TIP3   OH235725   5.034   2.049   4.833
11923TIP3    H135726   5.079   1.993   4.896
11923TIP3    H235727   4.946   2.011   4.825
11924TIP3   OH235728   7.499   1.451   6.257
11924TIP3    H135729   7.448   1.465   6.177
11924TIP3    H235730   7.511   1.538   6.294
11925TIP3   OH235731   2.829   7.720   2.294
11925TIP3    H135732   2.919   7.690   2.308
11925TIP3    H235733   2.826   7.746   2.201
11926TIP3   OH235734   1.070   7.190   2.922
11926TIP3    H135735   1.039   7.103   2.944
11926TIP3    H235736   1.010   7.222   2.855
11927TIP3   OH235737   5.169   5.877   3.768
11927TIP3    H135738   5.215   5.854   3.687
11927TIP3    H235739   5.098   5.813   3.775
11928TIP3   OH235740   2.926   7.285   5.305
11928TIP3    H135741   2.993   7.348   5.283
11928TIP3    H235742   2.968   7.224   5.365
11929TIP3   OH235743   1.822   6.695   4.758
11929TIP3    H135744   1.852   6.605   4.772
11929TIP3    H235745   1.780   6.692   4.672
11930TIP3   OH235746   6.263   6.310   1.720
11930TIP3    H135747   6.200   6.240   1.704
11930TIP3    H235748   6.326   6.272   1.781
11931TIP3   OH235749   7.333   5.544   2.158
11931TIP3    H135750   7.273   5.602   2.112
11931TIP3    H235751   7.355   5.477   2.094
11932TIP3   OH235752   5.619   2.798   3.724
11932TIP3    H135753   5.656   2.718   3.687
11932TIP3    H235754   5.559   2.768   3.793
11933TIP3   OH235755   7.240   0.157   6.651
11933TIP3    H135756   7.260   0.084   6.709
11933TIP3    H235757   7.239   0.234   6.708
11934TIP3   OH235758   7.383   5.823   4.393
11934TIP3    H135759   7.343   5.737   4.386
11934TIP3    H235760   7.460   5.818   4.337
11935TIP3   OH235761   5.735   0.752   1.543
11935TIP3    H135762   5.824   0.734   1.572
11935TIP3    H235763   5.683   0.679   1.577
11936TIP3   OH235764   8.193   3.766   0.387
11936TIP3    H135765   8.274   3.742   0.432
11936TIP3    H235766   8.124   3.724   0.439
11937TIP3   OH235767   2.696   6.371   2.088
11937TIP3    H135768   2.772   6.354   2.143
11937TIP3    H235769   2.704   6.309   2.015
11938TIP3   OH235770   5.648   0.745   1.882
11938TIP3    H135771   5.607   0.763   1.797
11938TIP3    H235772   5.632   0.652   1.897
11939TIP3   OH235773   3.417   6.470   6.629
11939TIP3    H135774   3.338   6.450   6.678
11939TIP3    H235775   3.391   6.462   6.537
11940TIP3   OH235776   5.341   1.695   4.684
11940TIP3    H135777   5.327   1.782   4.647
11940TIP3    H235778   5.370   1.641   4.610
11941TIP3   OH235779   3.556   2.936   0.900
11941TIP3    H135780   3.503   3.013   0.881
11941TIP3    H235781   3.541   2.878   0.825
11942TIP3   OH235782   6.462   3.038   5.489
11942TIP3    H135783   6.461   3.009   5.398
11942TIP3    H235784   6.408   3.117   5.490
11943TIP3   OH235785   0.127   1.224   1.194
11943TIP3    H135786   0.143   1.135   1.164
11943TIP3    H235787   0.042   1.220   1.239
11944TIP3   OH235788   1.998   6.076   4.189
11944TIP3    H135789   2.094   6.079   4.193
11944TIP3    H235790   1.978   5.993   4.145
11945TIP3   OH235791   2.780   5.231   6.806
11945TIP3    H135792   2.732   5.296   6.756
11945TIP3    H235793   2.848   5.200   6.747
11946TIP3   OH235794   1.510   7.570   5.263
11946TIP3    H135795   1.488   7.652   5.220
11946TIP3    H235796   1.601   7.552   5.237
11947TIP3   OH235797   5.578   0.410   5.930
11947TIP3    H135798   5.661   0.381   5.969
11947TIP3    H235799   5.514   0.346   5.960
11948TIP3   OH235800   5.638   2.427   4.907
11948TIP3    H135801   5.657   2.474   4.826
11948TIP3    H235802   5.686   2.475   4.974
11949TIP3   OH235803   2.927   2.388   1.944
11949TIP3    H135804   2.995   2.398   1.878
11949TIP3    H235805   2.845   2.386   1.894
11950TIP3   OH235806   2.041   5.112   1.099
11950TIP3    H135807   2.093   5.086   1.023
11950TIP3    H235808   2.085   5.190   1.133
11951TIP3   OH235809   7.985   1.121   5.166
11951TIP3    H135810   8.001   1.037   5.211
11951TIP3    H235811   7.910   1.103   5.109
11952TIP3   OH235812   4.250   6.806   3.253
11952TIP3    H135813   4.166   6.767   3.230
11952TIP3    H235814   4.271   6.862   3.178
11953TIP3   OH235815   6.957   5.604   1.556
11953TIP3    H135816   6.948   5.657   1.635
11953TIP3    H235817   7.052   5.593   1.545
11954TIP3   OH235818   7.697   0.117   3.319
11954TIP3    H135819   7.736   0.158   3.242
11954TIP3    H235820   7.620   0.071   3.286
11955TIP3   OH235821   0.735   4.226   4.226
11955TIP3    H135822   0.787   4.278   4.286
11955TIP3    H235823   0.663   4.284   4.200
11956TIP3   OH235824   7.858   3.153   3.300
11956TIP3    H135825   7.930   3.165   3.239
11956TIP3    H235826   7.805   3.232   3.290
11957TIP3   OH235827   0.012   5.835   6.436
11957TIP3    H135828   0.103   5.846   6.410
11957TIP3    H235829  -0.031   5.916   6.407
11958TIP3   OH235830   1.379   2.206   5.830
11958TIP3    H135831   1.362   2.181   5.739
11958TIP3    H235832   1.456   2.156   5.854
11959TIP3   OH235833   4.547   6.859   1.164
11959TIP3    H135834   4.495   6.822   1.235
11959TIP3    H235835   4.574   6.783   1.112
11960TIP3   OH235836   3.095   0.229   2.527
11960TIP3    H135837   3.042   0.262   2.454
11960TIP3    H235838   3.111   0.306   2.581
11961TIP3   OH235839   0.145   0.463   0.534
11961TIP3    H135840   0.065   0.411   0.546
11961TIP3    H235841   0.196   0.413   0.469
11962TIP3   OH235842   0.716   2.173   3.703
11962TIP3    H135843   0.762   2.208   3.627
11962TIP3    H235844   0.749   2.084   3.713
11963TIP3   OH235845   6.816   2.643   2.403
11963TIP3    H135846   6.875   2.567   2.408
11963TIP3    H235847   6.861   2.704   2.345
11964TIP3   OH235848   7.460   2.663   5.173
11964TIP3    H135849   7.372   2.687   5.200
11964TIP3    H235850   7.463   2.568   5.182
11965TIP3   OH235851   5.678   6.996   4.411
11965TIP3    H135852   5.690   6.920   4.468
11965TIP3    H235853   5.597   7.037   4.443
11966TIP3   OH235854   6.938   1.367   0.369
11966TIP3    H135855   6.956   1.460   0.384
11966TIP3    H235856   7.024   1.325   0.367
11967TIP3   OH235857   8.116   4.050   6.254
11967TIP3    H135858   8.094   4.127   6.202
11967TIP3    H235859   8.198   4.017   6.216
11968TIP3   OH235860   1.455   0.252   4.061
11968TIP3    H135861   1.494   0.172   4.024
11968TIP3    H235862   1.516   0.278   4.130
11969TIP3   OH235863   7.573   6.653   1.811
11969TIP3    H135864   7.589   6.673   1.903
11969TIP3    H235865   7.484   6.686   1.794
11970TIP3   OH235866   2.586   3.154   0.035
11970TIP3    H135867   2.641   3.207   0.093
11970TIP3    H235868   2.547   3.217  -0.026
11971TIP3   OH235869   2.026   2.908   2.229
11971TIP3    H135870   2.007   2.978   2.167
11971TIP3    H235871   2.042   2.953   2.312
11972TIP3   OH235872   3.224   4.950   6.230
11972TIP3    H135873   3.139   4.992   6.245
11972TIP3    H235874   3.281   4.988   6.297
11973TIP3   OH235875   2.435   1.070   0.916
11973TIP3    H135876   2.476   0.988   0.888
11973TIP3    H235877   2.477   1.091   0.999
11974TIP3   OH235878   2.747   1.467   4.369
11974TIP3    H135879   2.784   1.402   4.310
11974TIP3    H235880   2.763   1.432   4.457
11975TIP3   OH235881   0.663   6.489   3.047
11975TIP3    H135882   0.583   6.436   3.045
11975TIP3    H235883   0.633   6.575   3.077
11976TIP3   OH235884   4.485   0.076   1.130
11976TIP3    H135885   4.409   0.126   1.162
11976TIP3    H235886   4.469  -0.013   1.160
11977TIP3   OH235887   4.589   0.767   6.318
11977TIP3    H135888   4.562   0.835   6.380
11977TIP3    H235889   4.650   0.811   6.259
11978TIP3   OH235890   3.836   2.217   0.836
11978TIP3    H135891   3.796   2.216   0.748
11978TIP3    H235892   3.875   2.130   0.846
11979TIP3   OH235893   1.828   4.593   6.352
11979TIP3    H135894   1.818   4.669   6.409
11979TIP3    H235895   1.885   4.534   6.401
11980TIP3   OH235896   7.975   6.020   4.416
11980TIP3    H135897   7.977   5.925   4.408
11980TIP3    H235898   8.065   6.045   4.434
11981TIP3   OH235899   1.829   2.694   3.808
11981TIP3    H135900   1.898   2.631   3.787
11981TIP3    H235901   1.840   2.711   3.902
11982TIP3   OH235902   0.428   0.733   3.296
11982TIP3    H135903   0.354   0.692   3.341
11982TIP3    H235904   0.495   0.742   3.364
11983TIP3   OH235905   0.454   4.298   3.911
11983TIP3    H135906   0.422   4.284   4.000
11983TIP3    H235907   0.512   4.374   3.919
11984TIP3   OH235908   6.217   6.758   4.439
11984TIP3    H135909   6.165   6.714   4.372
11984TIP3    H235910   6.156   6.776   4.509
11985TIP3   OH235911   5.792   0.263   4.396
11985TIP3    H135912   5.812   0.201   4.325
11985TIP3    H235913   5.824   0.219   4.475
11986TIP3   OH235914   4.079   1.610   2.667
11986TIP3    H135915   4.157   1.562   2.642
11986TIP3    H235916   4.036   1.555   2.732
11987TIP3   OH235917   1.414   4.963   6.601
11987TIP3    H135918   1.475   4.983   6.671
11987TIP3    H235919   1.356   4.895   6.638
11988TIP3   OH235920   6.183   0.539   1.859
11988TIP3    H135921   6.248   0.496   1.915
11988TIP3    H235922   6.195   0.499   1.773
11989TIP3   OH235923   1.529   5.433   1.951
11989TIP3    H135924   1.544   5.449   1.858
11989TIP3    H235925   1.514   5.339   1.957
11990TIP3   OH235926   6.606   3.469   1.896
11990TIP3    H135927   6.633   3.378   1.885
11990TIP3    H235928   6.662   3.518   1.836
11991TIP3   OH235929   3.703   3.879   6.339
11991TIP3    H135930   3.639   3.826   6.291
11991TIP3    H235931   3.747   3.817   6.397
11992TIP3   OH235932   5.048   5.295   3.710
11992TIP3    H135933   5.072   5.226   3.647
11992TIP3    H235934   5.021   5.247   3.788
11993TIP3   OH235935   4.911   0.683   4.916
11993TIP3    H135936   4.978   0.742   4.882
11993TIP3    H235937   4.862   0.655   4.838
11994TIP3   OH235938   5.976   5.081   3.117
11994TIP3    H135939   5.935   5.162   3.088
11994TIP3    H235940   5.911   5.013   3.095
11995TIP3   OH235941   7.047   3.525   5.117
11995TIP3    H135942   7.026   3.446   5.166
11995TIP3    H235943   7.063   3.494   5.028
11996TIP3   OH235944   8.220   3.285   3.832
11996TIP3    H135945   8.250   3.334   3.908
11996TIP3    H235946   8.209   3.352   3.764
11997TIP3   OH235947   3.313   2.526   6.470
11997TIP3    H135948   3.233   2.478   6.449
11997TIP3    H235949   3.315   2.599   6.408
11998TIP3   OH235950   1.373   3.706   4.696
11998TIP3    H135951   1.303   3.708   4.631
11998TIP3    H235952   1.385   3.798   4.721
11999TIP3   OH235953   3.541   3.860   0.486
11999TIP3    H135954   3.456   3.825   0.511
11999TIP3    H235955   3.543   3.851   0.390
12000TIP3   OH235956   6.269   2.858   5.689
12000TIP3    H135957   6.325   2.864   5.612
12000TIP3    H235958   6.203   2.793   5.666
12001TIP3   OH235959   4.749   7.589   1.320
12001TIP3    H135960   4.818   7.605   1.385
12001TIP3    H235961   4.776   7.508   1.276
12002TIP3   OH235962   7.593   7.537   5.741
12002TIP3    H135963   7.666   7.592   5.771
12002TIP3    H235964   7.559   7.583   5.664
12003TIP3   OH235965   1.403   4.413   4.620
12003TIP3    H135966   1.312   4.403   4.591
12003TIP3    H235967   1.396   4.454   4.706
12004TIP3   OH235968   2.948   3.551   4.123
12004TIP3    H135969   2.875   3.494   4.145
12004TIP3    H235970   3.008   3.544   4.197
12005TIP3   OH235971   3.034   4.214   6.725
12005TIP3    H135972   3.051   4.304   6.752
12005TIP3    H235973   3.076   4.205   6.640
12006TIP3   OH235974   2.323   5.457   1.581
12006TIP3    H135975   2.268   5.527   1.547
12006TIP3    H235976   2.266   5.380   1.581
12007TIP3   OH235977   4.652   6.531   1.288
12007TIP3    H135978   4.585   6.469   1.316
12007TIP3    H235979   4.718   6.477   1.245
12008TIP3   OH235980   6.791   6.343   2.714
12008TIP3    H135981   6.814   6.417   2.770
12008TIP3    H235982   6.711   6.370   2.669
12009TIP3   OH235983   2.222   7.143   5.021
12009TIP3    H135984   2.288   7.138   4.951
12009TIP3    H235985   2.192   7.053   5.031
12010TIP3   OH235986   4.267   5.691   1.773
12010TIP3    H135987   4.285   5.613   1.826
12010TIP3    H235988   4.173   5.706   1.784
12011TIP3   OH235989   0.022   3.477   6.383
12011TIP3    H135990   0.072   3.479   6.302
12011TIP3    H235991  -0.069   3.491   6.357
12012TIP3   OH235992   8.098   5.653   0.627
12012TIP3    H135993   8.182   5.688   0.656
12012TIP3    H235994   8.120   5.597   0.552
12013TIP3   OH235995   4.306   6.227   0.509
12013TIP3    H135996   4.325   6.213   0.602
12013TIP3    H235997   4.348   6.153   0.465
12014TIP3   OH235998   0.168   6.544   5.784
12014TIP3    H135999   0.180   6.464   5.836
12014TIP3    H236000   0.094   6.525   5.727
12015TIP3   OH236001   1.671   1.015   2.062
12015TIP3    H136002   1.719   0.969   2.131
12015TIP3    H236003   1.676   0.957   1.986
12016TIP3   OH236004   1.000   4.509   0.150
12016TIP3    H136005   0.977   4.467   0.068
12016TIP3    H236006   0.932   4.575   0.164
12017TIP3   OH236007   1.030   7.188   1.414
12017TIP3    H136008   0.973   7.111   1.409
12017TIP3    H236009   1.036   7.220   1.324
12018TIP3   OH236010   2.993   0.440   2.293
12018TIP3    H136011   2.942   0.386   2.232
12018TIP3    H236012   2.928   0.483   2.348
12019TIP3   OH236013   7.907   4.104   3.719
12019TIP3    H136014   7.821   4.064   3.705
12019TIP3    H236015   7.954   4.040   3.774
12020TIP3   OH236016   2.005   2.517   3.677
12020TIP3    H136017   1.974   2.547   3.592
12020TIP3    H236018   1.994   2.422   3.675
12021TIP3   OH236019   4.024   3.854   3.958
12021TIP3    H136020   4.096   3.840   3.897
12021TIP3    H236021   4.025   3.777   4.014
12022TIP3   OH236022   0.828   6.183   4.840
12022TIP3    H136023   0.793   6.103   4.800
12022TIP3    H236024   0.751   6.237   4.857
12023TIP3   OH236025   2.829   3.982   1.538
12023TIP3    H136026   2.777   4.042   1.591
12023TIP3    H236027   2.910   4.030   1.520
12024TIP3   OH236028   7.191   0.566   1.998
12024TIP3    H136029   7.129   0.499   1.972
12024TIP3    H236030   7.199   0.623   1.921
12025TIP3   OH236031   2.781   2.541   1.753
12025TIP3    H136032   2.824   2.558   1.669
12025TIP3    H236033   2.710   2.605   1.758
12026TIP3   OH236034   2.667   5.310   2.994
12026TIP3    H136035   2.596   5.248   3.009
12026TIP3    H236036   2.672   5.361   3.075
12027TIP3   OH236037   8.318   2.338   1.065
12027TIP3    H136038   8.336   2.367   0.975
12027TIP3    H236039   8.226   2.314   1.064
12028TIP3   OH236040   3.135   5.516   0.510
12028TIP3    H136041   3.093   5.501   0.425
12028TIP3    H236042   3.155   5.428   0.543
12029TIP3   OH236043   2.781   5.398   1.826
12029TIP3    H136044   2.767   5.452   1.904
12029TIP3    H236045   2.813   5.459   1.760
12030TIP3   OH236046   3.439   5.613   6.132
12030TIP3    H136047   3.385   5.692   6.133
12030TIP3    H236048   3.515   5.635   6.186
12031TIP3   OH236049   7.251   4.064   1.764
12031TIP3    H136050   7.181   4.120   1.799
12031TIP3    H236051   7.257   3.992   1.827
12032TIP3   OH236052   7.648   1.624   0.622
12032TIP3    H136053   7.737   1.653   0.641
12032TIP3    H236054   7.616   1.684   0.555
12033TIP3   OH236055   4.635   6.508   5.601
12033TIP3    H136056   4.714   6.513   5.656
12033TIP3    H236057   4.598   6.596   5.604
12034TIP3   OH236058   6.440   7.509   1.206
12034TIP3    H136059   6.470   7.584   1.154
12034TIP3    H236060   6.359   7.482   1.165
12035TIP3   OH236061   6.355   0.163   6.452
12035TIP3    H136062   6.273   0.163   6.503
12035TIP3    H236063   6.389   0.252   6.462
12036TIP3   OH236064   4.345   4.849   3.081
12036TIP3    H136065   4.357   4.764   3.040
12036TIP3    H236066   4.251   4.853   3.101
12037TIP3   OH236067   6.138   0.103   5.469
12037TIP3    H136068   6.065   0.064   5.420
12037TIP3    H236069   6.177   0.166   5.408
12038TIP3   OH236070   2.050   3.117   3.236
12038TIP3    H136071   2.013   3.204   3.223
12038TIP3    H236072   2.099   3.099   3.156
12039TIP3   OH236073   2.425   1.340   6.000
12039TIP3    H136074   2.360   1.270   5.991
12039TIP3    H236075   2.501   1.298   6.039
12040TIP3   OH236076   4.634   7.565   5.951
12040TIP3    H136077   4.673   7.611   5.876
12040TIP3    H236078   4.610   7.479   5.917
12041TIP3   OH236079   5.549   6.602   1.769
12041TIP3    H136080   5.531   6.686   1.726
12041TIP3    H236081   5.626   6.568   1.724
12042TIP3   OH236082   4.561   5.674   4.520
12042TIP3    H136083   4.510   5.601   4.556
12042TIP3    H236084   4.594   5.720   4.597
12043TIP3   OH236085   5.893   4.774   1.762
12043TIP3    H136086   5.887   4.680   1.777
12043TIP3    H236087   5.967   4.784   1.702
12044TIP3   OH236088   6.330   5.122   2.887
12044TIP3    H136089   6.299   5.046   2.935
12044TIP3    H236090   6.287   5.197   2.929
12045TIP3   OH236091   6.650   0.055   1.547
12045TIP3    H136092   6.670  -0.022   1.493
12045TIP3    H236093   6.688   0.035   1.632
12046TIP3   OH236094   7.646   7.154   0.197
12046TIP3    H136095   7.585   7.100   0.248
12046TIP3    H236096   7.609   7.242   0.200
12047TIP3   OH236097   0.762   5.474   5.543
12047TIP3    H136098   0.832   5.475   5.478
12047TIP3    H236099   0.682   5.462   5.492
12048TIP3   OH236100   2.448   1.995   4.948
12048TIP3    H136101   2.439   1.939   4.870
12048TIP3    H236102   2.366   1.983   4.995
12049TIP3   OH236103   1.413   0.746   4.928
12049TIP3    H136104   1.376   0.757   4.841
12049TIP3    H236105   1.358   0.680   4.970
12050TIP3   OH236106   1.063   5.212   5.610
12050TIP3    H136107   1.115   5.146   5.655
12050TIP3    H236108   1.032   5.167   5.531
12051TIP3   OH236109   6.525   0.986   6.359
12051TIP3    H136110   6.579   0.966   6.283
12051TIP3    H236111   6.450   0.927   6.351
12052TIP3   OH236112   1.563   6.340   4.157
12052TIP3    H136113   1.581   6.255   4.198
12052TIP3    H236114   1.477   6.329   4.118
12053TIP3   OH236115   6.046   2.033   0.751
12053TIP3    H136116   6.003   2.044   0.667
12053TIP3    H236117   6.000   2.094   0.809
12054TIP3   OH236118   6.737   6.794   0.701
12054TIP3    H136119   6.818   6.748   0.724
12054TIP3    H236120   6.737   6.794   0.605
12055TIP3   OH236121   5.167   6.506   6.635
12055TIP3    H136122   5.257   6.482   6.656
12055TIP3    H236123   5.117   6.488   6.715
12056TIP3   OH236124   2.120   0.412   5.318
12056TIP3    H136125   2.158   0.335   5.361
12056TIP3    H236126   2.170   0.421   5.237
12057TIP3   OH236127   4.955   4.447   2.917
12057TIP3    H136128   4.891   4.513   2.891
12057TIP3    H236129   5.019   4.496   2.971
12058TIP3   OH236130   6.798   2.112   5.419
12058TIP3    H136131   6.735   2.047   5.450
12058TIP3    H236132   6.766   2.195   5.455
12059TIP3   OH236133   1.068   5.296   5.247
12059TIP3    H136134   0.984   5.261   5.218
12059TIP3    H236135   1.048   5.384   5.277
12060TIP3   OH236136   7.688   7.284   3.777
12060TIP3    H136137   7.660   7.242   3.695
12060TIP3    H236138   7.748   7.221   3.816
12061TIP3   OH236139   0.047   3.706   3.506
12061TIP3    H136140   0.034   3.781   3.447
12061TIP3    H236141   0.128   3.666   3.476
12062TIP3   OH236142   4.143   0.284   3.692
12062TIP3    H136143   4.235   0.268   3.676
12062TIP3    H236144   4.106   0.306   3.607
12063TIP3   OH236145   2.103   6.029   2.820
12063TIP3    H136146   2.048   5.951   2.819
12063TIP3    H236147   2.184   6.001   2.863
12064TIP3   OH236148   0.516   1.286   3.843
12064TIP3    H136149   0.572   1.339   3.786
12064TIP3    H236150   0.427   1.305   3.813
12065TIP3   OH236151   6.325   6.155   4.008
12065TIP3    H136152   6.296   6.171   3.918
12065TIP3    H236153   6.246   6.167   4.061
12066TIP3   OH236154   7.385   1.932   5.484
12066TIP3    H136155   7.381   1.897   5.573
12066TIP3    H236156   7.409   2.024   5.495
12067TIP3   OH236157   6.354   4.389   6.178
12067TIP3    H136158   6.399   4.454   6.232
12067TIP3    H236159   6.389   4.403   6.090
12068TIP3   OH236160   5.317   1.052   1.458
12068TIP3    H136161   5.326   1.014   1.546
12068TIP3    H236162   5.297   0.977   1.402
12069TIP3   OH236163   1.885   7.402   6.100
12069TIP3    H136164   1.848   7.316   6.118
12069TIP3    H236165   1.929   7.393   6.015
12070TIP3   OH236166   6.954   4.393   2.369
12070TIP3    H136167   7.043   4.396   2.403
12070TIP3    H236168   6.956   4.324   2.302
12071TIP3   OH236169   1.293   0.587   2.336
12071TIP3    H136170   1.320   0.609   2.425
12071TIP3    H236171   1.216   0.641   2.319
12072TIP3   OH236172   4.922   1.662   3.536
12072TIP3    H136173   4.927   1.576   3.578
12072TIP3    H236174   5.014   1.689   3.529
12073TIP3   OH236175   2.941   6.000   3.321
12073TIP3    H136176   2.884   5.943   3.269
12073TIP3    H236177   3.023   6.003   3.272
12074TIP3   OH236178   0.369   4.655   3.843
12074TIP3    H136179   0.286   4.632   3.802
12074TIP3    H236180   0.365   4.751   3.853
12075TIP3   OH236181   0.860   3.051   0.138
12075TIP3    H136182   0.820   2.985   0.083
12075TIP3    H236183   0.787   3.093   0.183
12076TIP3   OH236184   6.188   4.977   0.224
12076TIP3    H136185   6.193   4.932   0.308
12076TIP3    H236186   6.262   4.944   0.174
12077TIP3   OH236187   5.596   3.053   1.902
12077TIP3    H136188   5.512   3.040   1.946
12077TIP3    H236189   5.661   3.039   1.971
12078TIP3   OH236190   0.257   6.678   0.818
12078TIP3    H136191   0.162   6.676   0.831
12078TIP3    H236192   0.292   6.697   0.905
12079TIP3   OH236193   0.869   4.068   1.978
12079TIP3    H136194   0.955   4.043   2.012
12079TIP3    H236195   0.806   4.016   2.027
12080TIP3   OH236196   2.027   5.291   4.418
12080TIP3    H136197   2.036   5.320   4.509
12080TIP3    H236198   1.985   5.365   4.374
12081TIP3   OH236199   2.057   3.008   0.175
12081TIP3    H136200   2.137   3.060   0.178
12081TIP3    H236201   2.077   2.937   0.114
12082TIP3   OH236202   3.564   5.403   4.731
12082TIP3    H136203   3.527   5.405   4.819
12082TIP3    H236204   3.653   5.371   4.743
12083TIP3   OH236205   5.651   7.597   3.792
12083TIP3    H136206   5.709   7.604   3.716
12083TIP3    H236207   5.673   7.513   3.832
12084TIP3   OH236208   4.350   0.503   2.493
12084TIP3    H136209   4.363   0.441   2.422
12084TIP3    H236210   4.438   0.520   2.527
12085TIP3   OH236211   2.189   3.373   5.358
12085TIP3    H136212   2.182   3.468   5.367
12085TIP3    H236213   2.192   3.358   5.263
12086TIP3   OH236214   2.929   7.460   2.017
12086TIP3    H136215   2.878   7.540   2.010
12086TIP3    H236216   2.865   7.392   2.040
12087TIP3   OH236217   7.680   0.949   3.856
12087TIP3    H136218   7.597   0.917   3.889
12087TIP3    H236219   7.677   0.932   3.762
12088TIP3   OH236220   3.461   4.654   6.547
12088TIP3    H136221   3.446   4.562   6.569
12088TIP3    H236222   3.375   4.695   6.560
12089TIP3   OH236223   0.520   2.800   3.260
12089TIP3    H136224   0.475   2.762   3.184
12089TIP3    H236225   0.476   2.763   3.336
12090TIP3   OH236226   0.473   3.565   0.864
12090TIP3    H136227   0.444   3.484   0.820
12090TIP3    H236228   0.402   3.585   0.925
12091TIP3   OH236229   0.105   7.357   3.751
12091TIP3    H136230   0.189   7.364   3.796
12091TIP3    H236231   0.117   7.284   3.690
12092TIP3   OH236232   4.714   2.793   4.248
12092TIP3    H136233   4.797   2.746   4.247
12092TIP3    H236234   4.692   2.801   4.341
12093TIP3   OH236235   4.501   7.175   5.027
12093TIP3    H136236   4.515   7.188   4.933
12093TIP3    H236237   4.425   7.230   5.048
12094TIP3   OH236238   6.826   0.352   2.368
12094TIP3    H136239   6.904   0.375   2.319
12094TIP3    H236240   6.755   0.353   2.303
12095TIP3   OH236241   2.462   5.494   1.834
12095TIP3    H136242   2.489   5.584   1.819
12095TIP3    H236243   2.391   5.479   1.773
12096TIP3   OH236244   1.037   2.224   2.977
12096TIP3    H136245   0.972   2.254   3.040
12096TIP3    H236246   0.995   2.150   2.932
12097TIP3   OH236247   3.399   2.711   0.499
12097TIP3    H136248   3.390   2.657   0.577
12097TIP3    H236249   3.459   2.781   0.524
12098TIP3   OH236250   1.156   1.848   5.012
12098TIP3    H136251   1.084   1.910   4.997
12098TIP3    H236252   1.203   1.883   5.087
12099TIP3   OH236253   0.603   6.831   3.469
12099TIP3    H136254   0.523   6.783   3.489
12099TIP3    H236255   0.659   6.768   3.424
12100TIP3   OH236256   0.600   3.999   5.712
12100TIP3    H136257   0.535   4.002   5.642
12100TIP3    H236258   0.684   3.992   5.667
12101TIP3   OH236259   2.685   7.320   4.480
12101TIP3    H136260   2.619   7.354   4.419
12101TIP3    H236261   2.726   7.248   4.432
12102TIP3   OH236262   0.947   3.279   6.663
12102TIP3    H136263   0.928   3.361   6.617
12102TIP3    H236264   0.896   3.286   6.744
12103TIP3   OH236265   1.798   3.693   3.900
12103TIP3    H136266   1.867   3.678   3.965
12103TIP3    H236267   1.734   3.625   3.917
12104TIP3   OH236268   5.799   3.079   3.478
12104TIP3    H136269   5.759   3.146   3.534
12104TIP3    H236270   5.762   2.996   3.510
12105TIP3   OH236271   5.109   5.485   2.272
12105TIP3    H136272   5.056   5.406   2.264
12105TIP3    H236273   5.180   5.474   2.208
12106TIP3   OH236274   5.249   7.729   5.010
12106TIP3    H136275   5.288   7.770   4.933
12106TIP3    H236276   5.201   7.654   4.975
12107TIP3   OH236277   0.436   6.329   3.045
12107TIP3    H136278   0.340   6.330   3.039
12107TIP3    H236279   0.454   6.312   3.137
12108TIP3   OH236280   7.412   1.028   3.272
12108TIP3    H136281   7.326   1.045   3.234
12108TIP3    H236282   7.468   1.009   3.197
12109TIP3   OH236283   1.189   2.712   4.989
12109TIP3    H136284   1.130   2.787   4.996
12109TIP3    H236285   1.263   2.746   4.939
12110TIP3   OH236286   5.046   4.862   4.872
12110TIP3    H136287   5.046   4.801   4.798
12110TIP3    H236288   4.981   4.928   4.848
12111TIP3   OH236289   7.794   5.910   4.627
12111TIP3    H136290   7.824   5.948   4.544
12111TIP3    H236291   7.748   5.831   4.601
12112TIP3   OH236292   5.901   5.601   6.595
12112TIP3    H136293   5.992   5.624   6.614
12112TIP3    H236294   5.908   5.524   6.538
12113TIP3   OH236295   7.266   5.565   3.558
12113TIP3    H136296   7.172   5.576   3.573
12113TIP3    H236297   7.306   5.592   3.640
12114TIP3   OH236298   4.292   2.448   3.715
12114TIP3    H136299   4.302   2.522   3.655
12114TIP3    H236300   4.228   2.478   3.779
12115TIP3   OH236301   6.665   1.353   0.935
12115TIP3    H136302   6.743   1.366   0.881
12115TIP3    H236303   6.607   1.299   0.881
12116TIP3   OH236304   4.580   2.971   1.296
12116TIP3    H136305   4.517   2.909   1.261
12116TIP3    H236306   4.654   2.917   1.324
12117TIP3   OH236307   0.607   1.960   0.691
12117TIP3    H136308   0.605   2.044   0.645
12117TIP3    H236309   0.577   1.897   0.626
12118TIP3   OH236310   6.379   5.972   0.663
12118TIP3    H136311   6.328   5.988   0.584
12118TIP3    H236312   6.357   6.045   0.721
12119TIP3   OH236313  -0.003   3.910   4.731
12119TIP3    H136314   0.040   3.982   4.776
12119TIP3    H236315   0.066   3.845   4.718
12120TIP3   OH236316   2.149   1.570   0.736
12120TIP3    H136317   2.201   1.640   0.776
12120TIP3    H236318   2.208   1.495   0.733
12121TIP3   OH236319   7.133   1.842   6.579
12121TIP3    H136320   7.068   1.883   6.637
12121TIP3    H236321   7.160   1.763   6.626
12122TIP3   OH236322   4.024   2.501   0.631
12122TIP3    H136323   3.939   2.544   0.618
12122TIP3    H236324   4.032   2.441   0.556
12123TIP3   OH236325   7.677   3.370   6.446
12123TIP3    H136326   7.605   3.418   6.405
12123TIP3    H236327   7.642   3.281   6.459
12124TIP3   OH236328   3.391   1.031   5.573
12124TIP3    H136329   3.378   1.078   5.490
12124TIP3    H236330   3.330   1.073   5.634
12125TIP3   OH236331   3.798   6.479   0.542
12125TIP3    H136332   3.762   6.467   0.454
12125TIP3    H236333   3.740   6.543   0.583
12126TIP3   OH236334   7.157   2.016   4.416
12126TIP3    H136335   7.167   2.072   4.492
12126TIP3    H236336   7.132   2.076   4.345
12127TIP3   OH236337   7.272   6.485   2.300
12127TIP3    H136338   7.189   6.531   2.287
12127TIP3    H236339   7.287   6.437   2.219
12128TIP3   OH236340   3.089   5.443   5.526
12128TIP3    H136341   3.069   5.527   5.567
12128TIP3    H236342   3.151   5.401   5.585
12129TIP3   OH236343   5.387   3.043   0.836
12129TIP3    H136344   5.434   3.022   0.917
12129TIP3    H236345   5.455   3.075   0.777
12130TIP3   OH236346   0.418   7.182   5.798
12130TIP3    H136347   0.369   7.263   5.786
12130TIP3    H236348   0.451   7.187   5.888
12131TIP3   OH236349   2.368   1.169   2.300
12131TIP3    H136350   2.376   1.242   2.362
12131TIP3    H236351   2.298   1.197   2.241
12132TIP3   OH236352   0.521   4.807   6.659
12132TIP3    H136353   0.470   4.867   6.714
12132TIP3    H236354   0.458   4.775   6.595
12133TIP3   OH236355   6.549   0.815   5.774
12133TIP3    H136356   6.505   0.809   5.689
12133TIP3    H236357   6.490   0.868   5.827
12134TIP3   OH236358   4.108   3.645   2.668
12134TIP3    H136359   4.183   3.586   2.666
12134TIP3    H236360   4.142   3.727   2.702
12135TIP3   OH236361   5.615   6.854   4.998
12135TIP3    H136362   5.577   6.901   4.924
12135TIP3    H236363   5.567   6.886   5.074
12136TIP3   OH236364   5.777   0.624   0.256
12136TIP3    H136365   5.724   0.545   0.243
12136TIP3    H236366   5.725   0.694   0.217
12137TIP3   OH236367   2.467   2.308   3.780
12137TIP3    H136368   2.407   2.335   3.849
12137TIP3    H236369   2.412   2.295   3.703
12138TIP3   OH236370   5.949   1.701   0.670
12138TIP3    H136371   6.017   1.732   0.610
12138TIP3    H236372   5.901   1.780   0.694
12139TIP3   OH236373   2.397   0.798   5.877
12139TIP3    H136374   2.377   0.843   5.795
12139TIP3    H236375   2.362   0.709   5.865
12140TIP3   OH236376   6.523   1.879   1.968
12140TIP3    H136377   6.497   1.890   2.060
12140TIP3    H236378   6.531   1.969   1.935
12141TIP3   OH236379   3.233   1.685   3.766
12141TIP3    H136380   3.320   1.703   3.802
12141TIP3    H236381   3.193   1.771   3.754
12142TIP3   OH236382   6.381   1.834   0.379
12142TIP3    H136383   6.440   1.834   0.303
12142TIP3    H236384   6.347   1.745   0.383
12143TIP3   OH236385   8.070   2.501   4.329
12143TIP3    H136386   8.001   2.568   4.327
12143TIP3    H236387   8.119   2.520   4.409
12144TIP3   OH236388   0.117   2.339   5.968
12144TIP3    H136389   0.036   2.377   5.932
12144TIP3    H236390   0.095   2.247   5.984
12145TIP3   OH236391   7.128   5.886   5.207
12145TIP3    H136392   7.064   5.826   5.247
12145TIP3    H236393   7.165   5.837   5.135
12146TIP3   OH236394   5.918   5.864   2.689
12146TIP3    H136395   5.897   5.782   2.735
12146TIP3    H236396   5.833   5.906   2.675
12147TIP3   OH236397   3.523   5.459   3.652
12147TIP3    H136398   3.434   5.489   3.667
12147TIP3    H236399   3.543   5.404   3.727
12148TIP3   OH236400   5.360   4.647   3.431
12148TIP3    H136401   5.435   4.613   3.382
12148TIP3    H236402   5.361   4.741   3.415
12149TIP3   OH236403   4.816   1.623   1.290
12149TIP3    H136404   4.838   1.681   1.362
12149TIP3    H236405   4.725   1.598   1.306
12150TIP3   OH236406   2.846   2.110   5.189
12150TIP3    H136407   2.826   2.198   5.160
12150TIP3    H236408   2.796   2.052   5.132
12151TIP3   OH236409   7.440   6.624   4.587
12151TIP3    H136410   7.495   6.678   4.529
12151TIP3    H236411   7.503   6.577   4.641
12152TIP3   OH236412   5.325   2.225   3.446
12152TIP3    H136413   5.417   2.200   3.454
12152TIP3    H236414   5.324   2.319   3.464
12153TIP3   OH236415   3.335   1.023   1.332
12153TIP3    H136416   3.408   0.983   1.380
12153TIP3    H236417   3.279   0.950   1.307
12154TIP3   OH236418   0.938   5.873   5.482
12154TIP3    H136419   0.995   5.946   5.459
12154TIP3    H236420   0.965   5.849   5.571
12155TIP3   OH236421   0.073   0.126   6.166
12155TIP3    H136422   0.108   0.159   6.084
12155TIP3    H236423   0.140   0.068   6.200
12156TIP3   OH236424   3.542   3.067   6.561
12156TIP3    H136425   3.625   3.091   6.601
12156TIP3    H236426   3.476   3.113   6.612
12157TIP3   OH236427   4.167   6.801   0.513
12157TIP3    H136428   4.170   6.709   0.538
12157TIP3    H236429   4.076   6.816   0.488
12158TIP3   OH236430   7.760   4.893   6.449
12158TIP3    H136431   7.737   4.883   6.357
12158TIP3    H236432   7.815   4.972   6.452
12159TIP3   OH236433   4.671   7.503   3.948
12159TIP3    H136434   4.609   7.464   3.886
12159TIP3    H236435   4.696   7.586   3.907
12160TIP3   OH236436   0.458   3.648   1.841
12160TIP3    H136437   0.529   3.701   1.803
12160TIP3    H236438   0.398   3.633   1.767
12161TIP3   OH236439   7.632   4.952   3.771
12161TIP3    H136440   7.640   5.029   3.715
12161TIP3    H236441   7.723   4.923   3.784
12162TIP3   OH236442   6.015   6.468   5.179
12162TIP3    H136443   6.025   6.397   5.243
12162TIP3    H236444   6.094   6.464   5.125
12163TIP3   OH236445   4.473   1.890   6.384
12163TIP3    H136446   4.568   1.878   6.388
12163TIP3    H236447   4.440   1.848   6.463
12164TIP3   OH236448   8.050   1.508   3.381
12164TIP3    H136449   7.990   1.506   3.306
12164TIP3    H236450   8.005   1.562   3.446
12165TIP3   OH236451   6.741   6.596   6.495
12165TIP3    H136452   6.650   6.571   6.481
12165TIP3    H236453   6.757   6.667   6.433
12166TIP3   OH236454   8.206   6.073   4.018
12166TIP3    H136455   8.156   6.139   4.065
12166TIP3    H236456   8.296   6.106   4.018
12167TIP3   OH236457   6.946   0.325   2.886
12167TIP3    H136458   6.942   0.356   2.796
12167TIP3    H236459   7.033   0.285   2.894
12168TIP3   OH236460   4.640   4.206   2.356
12168TIP3    H136461   4.570   4.271   2.360
12168TIP3    H236462   4.686   4.225   2.274
12169TIP3   OH236463   2.346   4.361   3.424
12169TIP3    H136464   2.340   4.355   3.328
12169TIP3    H236465   2.300   4.284   3.456
12170TIP3   OH236466   4.901   0.538   5.586
12170TIP3    H136467   4.949   0.466   5.628
12170TIP3    H236468   4.901   0.516   5.493
12171TIP3   OH236469   6.468   1.099   5.495
12171TIP3    H136470   6.457   1.017   5.543
12171TIP3    H236471   6.543   1.142   5.538
12172TIP3   OH236472   1.421   6.684   2.057
12172TIP3    H136473   1.344   6.681   2.001
12172TIP3    H236474   1.389   6.716   2.141
12173TIP3   OH236475   5.317   2.492   0.338
12173TIP3    H136476   5.360   2.446   0.410
12173TIP3    H236477   5.254   2.550   0.380
12174TIP3   OH236478   2.930   3.530   4.635
12174TIP3    H136479   2.906   3.616   4.668
12174TIP3    H236480   2.987   3.548   4.560
12175TIP3   OH236481   5.193   5.437   2.956
12175TIP3    H136482   5.173   5.402   2.869
12175TIP3    H236483   5.166   5.368   3.017
12176TIP3   OH236484   1.133   3.959   2.053
12176TIP3    H136485   1.148   4.007   2.134
12176TIP3    H236486   1.162   3.870   2.072
12177TIP3   OH236487   8.075   2.310   1.192
12177TIP3    H136488   8.017   2.367   1.142
12177TIP3    H236489   8.079   2.350   1.279
12178TIP3   OH236490   4.739   5.000   5.152
12178TIP3    H136491   4.803   4.931   5.141
12178TIP3    H236492   4.659   4.966   5.113
12179TIP3   OH236493   5.754   1.819   3.178
12179TIP3    H136494   5.672   1.851   3.141
12179TIP3    H236495   5.810   1.803   3.102
12180TIP3   OH236496   7.788   2.924   3.043
12180TIP3    H136497   7.884   2.925   3.044
12180TIP3    H236498   7.764   2.861   3.110
12181TIP3   OH236499   1.718   0.905   4.069
12181TIP3    H136500   1.787   0.894   4.004
12181TIP3    H236501   1.644   0.854   4.035
12182TIP3   OH236502   7.411   7.023   0.329
12182TIP3    H136503   7.345   7.009   0.397
12182TIP3    H236504   7.444   6.936   0.309
12183TIP3   OH236505   6.657   6.825   3.013
12183TIP3    H136506   6.613   6.773   2.945
12183TIP3    H236507   6.589   6.842   3.078
12184TIP3   OH236508   2.061   4.124   6.563
12184TIP3    H136509   2.066   4.184   6.489
12184TIP3    H236510   2.150   4.123   6.599
12185TIP3   OH236511   5.300   3.283   5.703
12185TIP3    H136512   5.319   3.225   5.776
12185TIP3    H236513   5.379   3.336   5.692
12186TIP3   OH236514   0.102   6.976   6.511
12186TIP3    H136515   0.154   6.959   6.590
12186TIP3    H236516   0.033   7.035   6.541
12187TIP3   OH236517   3.665   7.521   3.981
12187TIP3    H136518   3.615   7.556   4.054
12187TIP3    H236519   3.756   7.532   4.007
12188TIP3   OH236520   3.072   3.629   3.888
12188TIP3    H136521   3.004   3.697   3.880
12188TIP3    H236522   3.046   3.579   3.965
12189TIP3   OH236523   1.080   7.403   1.243
12189TIP3    H136524   1.086   7.371   1.153
12189TIP3    H236525   1.053   7.495   1.234
12190TIP3   OH236526   5.872   1.870   1.051
12190TIP3    H136527   5.959   1.886   1.014
12190TIP3    H236528   5.851   1.950   1.099
12191TIP3   OH236529   1.556   7.620   5.797
12191TIP3    H136530   1.588   7.616   5.887
12191TIP3    H236531   1.612   7.685   5.754
12192TIP3   OH236532   4.928   4.405   2.617
12192TIP3    H136533   4.870   4.329   2.627
12192TIP3    H236534   4.945   4.434   2.707
12193TIP3   OH236535   6.850   2.262   0.788
12193TIP3    H136536   6.805   2.305   0.860
12193TIP3    H236537   6.814   2.302   0.709
12194TIP3   OH236538   3.944   1.971   3.164
12194TIP3    H136539   3.882   1.899   3.179
12194TIP3    H236540   3.971   1.960   3.073
12195TIP3   OH236541   4.754   2.437   5.375
12195TIP3    H136542   4.835   2.403   5.338
12195TIP3    H236543   4.704   2.470   5.300
12196TIP3   OH236544   6.403   1.996   3.272
12196TIP3    H136545   6.388   1.965   3.183
12196TIP3    H236546   6.453   1.925   3.313
12197TIP3   OH236547   0.617   5.901   1.460
12197TIP3    H136548   0.612   5.873   1.552
12197TIP3    H236549   0.705   5.876   1.432
12198TIP3   OH236550   3.923   0.691   6.529
12198TIP3    H136551   3.883   0.778   6.535
12198TIP3    H236552   3.881   0.650   6.453
12199TIP3   OH236553   3.491   6.314   3.133
12199TIP3    H136554   3.513   6.367   3.210
12199TIP3    H236555   3.423   6.254   3.164
12200TIP3   OH236556   3.113   3.230   0.881
12200TIP3    H136557   3.092   3.254   0.791
12200TIP3    H236558   3.067   3.148   0.896
12201TIP3   OH236559   2.508   6.483   5.882
12201TIP3    H136560   2.423   6.526   5.896
12201TIP3    H236561   2.525   6.438   5.965
12202TIP3   OH236562   6.698   7.304   5.520
12202TIP3    H136563   6.708   7.272   5.430
12202TIP3    H236564   6.698   7.225   5.574
12203TIP3   OH236565   4.539   0.096   1.791
12203TIP3    H136566   4.497   0.055   1.867
12203TIP3    H236567   4.550   0.025   1.728
12204TIP3   OH236568   5.602   0.832   6.741
12204TIP3    H136569   5.530   0.885   6.706
12204TIP3    H236570   5.596   0.844   6.836
12205TIP3   OH236571   7.794   6.155   5.423
12205TIP3    H136572   7.777   6.089   5.491
12205TIP3    H236573   7.793   6.238   5.471
12206TIP3   OH236574   6.431   3.460   3.337
12206TIP3    H136575   6.423   3.504   3.252
12206TIP3    H236576   6.409   3.368   3.318
12207TIP3   OH236577   3.603   2.930   2.537
12207TIP3    H136578   3.558   2.962   2.458
12207TIP3    H236579   3.610   2.836   2.524
12208TIP3   OH236580   4.819   7.475   6.233
12208TIP3    H136581   4.780   7.543   6.178
12208TIP3    H236582   4.913   7.491   6.229
12209TIP3   OH236583   0.649   7.626   2.670
12209TIP3    H136584   0.591   7.701   2.656
12209TIP3    H236585   0.694   7.646   2.752
12210TIP3   OH236586   1.840   0.242   2.609
12210TIP3    H136587   1.772   0.263   2.673
12210TIP3    H236588   1.793   0.226   2.528
12211TIP3   OH236589   2.945   3.685   1.204
12211TIP3    H136590   3.004   3.624   1.160
12211TIP3    H236591   2.861   3.672   1.159
12212TIP3   OH236592   3.325   1.825   5.878
12212TIP3    H136593   3.359   1.867   5.957
12212TIP3    H236594   3.326   1.894   5.812
12213TIP3   OH236595   4.235   0.790   3.195
12213TIP3    H136596   4.149   0.774   3.234
12213TIP3    H236597   4.269   0.703   3.173
12214TIP3   OH236598   6.573   3.469   2.824
12214TIP3    H136599   6.592   3.554   2.785
12214TIP3    H236600   6.514   3.427   2.762
12215TIP3   OH236601   3.205   5.346   5.813
12215TIP3    H136602   3.292   5.384   5.820
12215TIP3    H236603   3.160   5.373   5.893
12216TIP3   OH236604   3.773   4.562   0.628
12216TIP3    H136605   3.831   4.559   0.704
12216TIP3    H236606   3.812   4.629   0.572
12217TIP3   OH236607   7.614   0.969   4.812
12217TIP3    H136608   7.624   0.930   4.726
12217TIP3    H236609   7.579   1.057   4.795
12218TIP3   OH236610   2.791   0.634   3.939
12218TIP3    H136611   2.748   0.667   3.860
12218TIP3    H236612   2.884   0.632   3.916
12219TIP3   OH236613   3.809   2.872   4.909
12219TIP3    H136614   3.717   2.849   4.923
12219TIP3    H236615   3.857   2.814   4.968
12220TIP3   OH236616   3.166   4.556   2.737
12220TIP3    H136617   3.132   4.584   2.652
12220TIP3    H236618   3.259   4.581   2.736
12221TIP3   OH236619   5.668   5.073   0.517
12221TIP3    H136620   5.594   5.047   0.462
12221TIP3    H236621   5.746   5.050   0.466
12222TIP3   OH236622   2.339   0.059   5.948
12222TIP3    H136623   2.262   0.109   5.920
12222TIP3    H236624   2.325  -0.029   5.913
12223TIP3   OH236625   4.161   6.838   2.513
12223TIP3    H136626   4.117   6.901   2.569
12223TIP3    H236627   4.204   6.892   2.446
12224TIP3   OH236628   7.359   1.037   1.615
12224TIP3    H136629   7.373   1.017   1.523
12224TIP3    H236630   7.445   1.029   1.655
12225TIP3   OH236631   4.800   2.344   4.190
12225TIP3    H136632   4.855   2.384   4.258
12225TIP3    H236633   4.840   2.258   4.174
12226TIP3   OH236634   3.190   0.532   1.139
12226TIP3    H136635   3.210   0.499   1.052
12226TIP3    H236636   3.227   0.466   1.198
12227TIP3   OH236637   2.813   5.703   3.494
12227TIP3    H136638   2.732   5.698   3.445
12227TIP3    H236639   2.788   5.689   3.586
12228TIP3   OH236640   2.210   0.810   1.067
12228TIP3    H136641   2.302   0.782   1.070
12228TIP3    H236642   2.191   0.838   1.156
12229TIP3   OH236643   6.692   5.462   4.077
12229TIP3    H136644   6.787   5.475   4.073
12229TIP3    H236645   6.659   5.542   4.118
12230TIP3   OH236646   2.078   2.547   2.412
12230TIP3    H136647   2.086   2.579   2.502
12230TIP3    H236648   2.167   2.554   2.377
12231TIP3   OH236649   2.159   4.309   2.998
12231TIP3    H136650   2.224   4.377   3.018
12231TIP3    H236651   2.079   4.357   2.977
12232TIP3   OH236652   8.115   2.811   5.372
12232TIP3    H136653   8.020   2.812   5.375
12232TIP3    H236654   8.142   2.785   5.460
12233TIP3   OH236655   5.046   7.739   0.327
12233TIP3    H136656   5.015   7.800   0.394
12233TIP3    H236657   5.142   7.742   0.335
12234TIP3   OH236658   2.098   1.060   1.557
12234TIP3    H136659   2.154   0.988   1.530
12234TIP3    H236660   2.154   1.114   1.613
12235TIP3   OH236661   7.397   5.127   0.870
12235TIP3    H136662   7.473   5.145   0.814
12235TIP3    H236663   7.435   5.104   0.955
12236TIP3   OH236664   7.013   0.375   1.934
12236TIP3    H136665   7.012   0.294   1.884
12236TIP3    H236666   6.931   0.419   1.911
12237TIP3   OH236667   7.385   7.617   1.458
12237TIP3    H136668   7.319   7.659   1.514
12237TIP3    H236669   7.456   7.681   1.452
12238TIP3   OH236670   5.953   7.246   2.859
12238TIP3    H136671   5.862   7.219   2.868
12238TIP3    H236672   5.984   7.258   2.949
12239TIP3   OH236673   3.132   2.184   0.316
12239TIP3    H136674   3.157   2.276   0.317
12239TIP3    H236675   3.081   2.172   0.396
12240TIP3   OH236676   0.451   3.811   4.498
12240TIP3    H136677   0.538   3.839   4.526
12240TIP3    H236678   0.464   3.723   4.464
12241TIP3   OH236679   1.222   3.275   4.305
12241TIP3    H136680   1.157   3.344   4.317
12241TIP3    H236681   1.268   3.271   4.389
12242TIP3   OH236682   3.689   3.361   6.566
12242TIP3    H136683   3.637   3.363   6.485
12242TIP3    H236684   3.773   3.325   6.539
12243TIP3   OH236685  -0.002   7.139   5.252
12243TIP3    H136686   0.018   7.052   5.285
12243TIP3    H236687   0.046   7.144   5.169
12244TIP3   OH236688   3.836   4.209   3.237
12244TIP3    H136689   3.796   4.241   3.156
12244TIP3    H236690   3.923   4.177   3.209
12245TIP3   OH236691   6.299   0.873   4.263
12245TIP3    H136692   6.314   0.897   4.172
12245TIP3    H236693   6.316   0.779   4.267
12246TIP3   OH236694   1.292   5.317   3.197
12246TIP3    H136695   1.235   5.359   3.262
12246TIP3    H236696   1.256   5.230   3.186
12247TIP3   OH236697   5.322   0.098   6.337
12247TIP3    H136698   5.355   0.177   6.295
12247TIP3    H236699   5.399   0.041   6.345
12248TIP3   OH236700   1.455   4.292   5.161
12248TIP3    H136701   1.393   4.288   5.088
12248TIP3    H236702   1.457   4.384   5.186
12249TIP3   OH236703   0.562   2.633   4.934
12249TIP3    H136704   0.586   2.634   5.027
12249TIP3    H236705   0.484   2.689   4.929
12250TIP3   OH236706   6.203   4.830   4.711
12250TIP3    H136707   6.117   4.795   4.733
12250TIP3    H236708   6.262   4.756   4.718
12251TIP3   OH236709   7.922   5.847   3.025
12251TIP3    H136710   7.995   5.882   3.075
12251TIP3    H236711   7.874   5.924   2.995
12252TIP3   OH236712   1.872   2.180   1.027
12252TIP3    H136713   1.892   2.100   1.074
12252TIP3    H236714   1.783   2.203   1.055
12253TIP3   OH236715   6.100   3.271   3.488
12253TIP3    H136716   6.043   3.231   3.554
12253TIP3    H236717   6.188   3.245   3.514
12254TIP3   OH236718   3.518   4.531   1.456
12254TIP3    H136719   3.568   4.449   1.450
12254TIP3    H236720   3.448   4.521   1.391
12255TIP3   OH236721   7.256   2.173   6.083
12255TIP3    H136722   7.213   2.199   6.001
12255TIP3    H236723   7.243   2.247   6.142
12256TIP3   OH236724   5.146   6.884   6.708
12256TIP3    H136725   5.216   6.944   6.735
12256TIP3    H236726   5.074   6.942   6.682
12257TIP3   OH236727   2.735   7.224   4.154
12257TIP3    H136728   2.720   7.157   4.221
12257TIP3    H236729   2.648   7.260   4.138
12258TIP3   OH236730   1.852   5.974   5.685
12258TIP3    H136731   1.764   5.944   5.706
12258TIP3    H236732   1.894   5.897   5.645
12259TIP3   OH236733   0.453   0.295   3.805
12259TIP3    H136734   0.531   0.350   3.794
12259TIP3    H236735   0.407   0.302   3.721
12260TIP3   OH236736   2.544   6.501   2.294
12260TIP3    H136737   2.575   6.506   2.204
12260TIP3    H236738   2.515   6.410   2.305
12261TIP3   OH236739   4.948   1.653   2.720
12261TIP3    H136740   4.907   1.573   2.752
12261TIP3    H236741   5.017   1.622   2.661
12262TIP3   OH236742   1.761   1.273   6.603
12262TIP3    H136743   1.825   1.344   6.601
12262TIP3    H236744   1.813   1.194   6.618
12263TIP3   OH236745   4.439   7.639   2.995
12263TIP3    H136746   4.363   7.671   2.946
12263TIP3    H236747   4.435   7.686   3.078
12264TIP3   OH236748   1.973   6.967   0.967
12264TIP3    H136749   2.010   7.022   1.036
12264TIP3    H236750   1.917   6.905   1.014
12265TIP3   OH236751   6.518   4.262   0.675
12265TIP3    H136752   6.558   4.222   0.598
12265TIP3    H236753   6.428   4.230   0.675
12266TIP3   OH236754   5.142   2.637   5.145
12266TIP3    H136755   5.065   2.605   5.098
12266TIP3    H236756   5.106   2.692   5.214
12267TIP3   OH236757   3.536   2.797   4.974
12267TIP3    H136758   3.594   2.722   4.962
12267TIP3    H236759   3.453   2.759   5.001
12268TIP3   OH236760   7.792   0.609   4.336
12268TIP3    H136761   7.876   0.623   4.379
12268TIP3    H236762   7.789   0.515   4.318
12269TIP3   OH236763   7.953   5.092   5.854
12269TIP3    H136764   7.967   5.003   5.885
12269TIP3    H236765   7.889   5.129   5.914
12270TIP3   OH236766   0.334   3.940   2.256
12270TIP3    H136767   0.393   3.923   2.329
12270TIP3    H236768   0.253   3.896   2.279
12271TIP3   OH236769   0.349   5.249   5.036
12271TIP3    H136770   0.272   5.255   5.094
12271TIP3    H236771   0.422   5.277   5.091
12272TIP3   OH236772   4.188   0.665   2.047
12272TIP3    H136773   4.131   0.601   2.005
12272TIP3    H236774   4.172   0.653   2.141
12273TIP3   OH236775   2.669   6.460   0.056
12273TIP3    H136776   2.606   6.515   0.008
12273TIP3    H236777   2.716   6.412  -0.012
12274TIP3   OH236778   2.376   2.362   5.148
12274TIP3    H136779   2.369   2.424   5.221
12274TIP3    H236780   2.396   2.278   5.189
12275TIP3   OH236781   6.211   1.639   1.631
12275TIP3    H136782   6.284   1.701   1.621
12275TIP3    H236783   6.230   1.569   1.568
12276TIP3   OH236784   0.039   1.888   6.540
12276TIP3    H136785   0.020   1.982   6.535
12276TIP3    H236786   0.057   1.872   6.632
12277TIP3   OH236787   5.656   0.933   3.508
12277TIP3    H136788   5.674   0.989   3.433
12277TIP3    H236789   5.601   0.863   3.473
12278TIP3   OH236790   5.206   5.723   2.364
12278TIP3    H136791   5.122   5.745   2.405
12278TIP3    H236792   5.201   5.629   2.349
12279TIP3   OH236793   4.452   2.885   0.256
12279TIP3    H136794   4.456   2.931   0.340
12279TIP3    H236795   4.388   2.933   0.205
12280TIP3   OH236796   3.785   4.504   6.345
12280TIP3    H136797   3.758   4.487   6.435
12280TIP3    H236798   3.746   4.433   6.294
12281TIP3   OH236799   4.000   3.220   1.355
12281TIP3    H136800   4.014   3.218   1.450
12281TIP3    H236801   3.982   3.129   1.332
12282TIP3   OH236802   7.537   5.736   0.241
12282TIP3    H136803   7.456   5.718   0.194
12282TIP3    H236804   7.593   5.660   0.225
12283TIP3   OH236805  -0.009   5.877   5.353
12283TIP3    H136806   0.079   5.915   5.347
12283TIP3    H236807  -0.018   5.851   5.444
12284TIP3   OH236808   3.676   1.108  -0.004
12284TIP3    H136809   3.643   1.159   0.070
12284TIP3    H236810   3.599   1.063  -0.039
12285TIP3   OH236811   4.372   7.729   0.812
12285TIP3    H136812   4.388   7.635   0.817
12285TIP3    H236813   4.295   7.743   0.868
12286TIP3   OH236814   4.335   4.497   3.985
12286TIP3    H136815   4.323   4.410   4.022
12286TIP3    H236816   4.429   4.514   3.992
12287TIP3   OH236817   3.978   4.183   5.530
12287TIP3    H136818   3.992   4.273   5.558
12287TIP3    H236819   3.902   4.154   5.581
12288TIP3   OH236820   1.295   1.666   2.362
12288TIP3    H136821   1.349   1.659   2.284
12288TIP3    H236822   1.290   1.760   2.380
12289TIP3   OH236823   2.625   0.544   2.200
12289TIP3    H136824   2.611   0.449   2.200
12289TIP3    H236825   2.574   0.576   2.275
12290TIP3   OH236826   2.137   1.141   6.193
12290TIP3    H136827   2.132   1.068   6.132
12290TIP3    H236828   2.178   1.104   6.271
12291TIP3   OH236829   1.319   2.207   1.131
12291TIP3    H136830   1.246   2.145   1.122
12291TIP3    H236831   1.336   2.210   1.225
12292TIP3   OH236832   2.047   4.032   0.868
12292TIP3    H136833   2.082   3.984   0.792
12292TIP3    H236834   1.968   3.985   0.892
12293TIP3   OH236835   2.293   6.621   2.299
12293TIP3    H136836   2.383   6.593   2.282
12293TIP3    H236837   2.297   6.666   2.383
12294TIP3   OH236838   2.819   6.765   2.464
12294TIP3    H136839   2.823   6.671   2.446
12294TIP3    H236840   2.735   6.793   2.426
12295TIP3   OH236841   1.695   0.134   5.794
12295TIP3    H136842   1.728   0.104   5.710
12295TIP3    H236843   1.721   0.226   5.799
12296TIP3   OH236844   7.978   5.782   5.901
12296TIP3    H136845   7.970   5.860   5.846
12296TIP3    H236846   7.911   5.722   5.868
12297TIP3   OH236847   4.528   6.822   4.524
12297TIP3    H136848   4.618   6.833   4.557
12297TIP3    H236849   4.473   6.835   4.601
12298TIP3   OH236850   5.352   1.774   5.139
12298TIP3    H136851   5.272   1.823   5.119
12298TIP3    H236852   5.372   1.727   5.058
12299TIP3   OH236853   7.237   7.650   6.083
12299TIP3    H136854   7.170   7.667   6.017
12299TIP3    H236855   7.247   7.733   6.129
12300TIP3   OH236856   7.913   6.224   3.965
12300TIP3    H136857   7.855   6.299   3.978
12300TIP3    H236858   7.961   6.216   4.047
12301TIP3   OH236859   1.516   7.009   0.581
12301TIP3    H136860   1.479   6.931   0.622
12301TIP3    H236861   1.449   7.038   0.518
12302TIP3   OH236862   2.828   6.283   0.260
12302TIP3    H136863   2.892   6.352   0.244
12302TIP3    H236864   2.876   6.202   0.240
12303TIP3   OH236865   6.981   6.660   0.176
12303TIP3    H136866   7.027   6.730   0.129
12303TIP3    H236867   6.896   6.655   0.132
12304TIP3   OH236868   3.851   0.300   6.318
12304TIP3    H136869   3.858   0.214   6.360
12304TIP3    H236870   3.777   0.291   6.258
12305TIP3   OH236871   1.714   1.303   4.962
12305TIP3    H136872   1.638   1.341   4.918
12305TIP3    H236873   1.766   1.264   4.892
12306TIP3   OH236874   7.343   7.744   3.644
12306TIP3    H136875   7.403   7.812   3.675
12306TIP3    H236876   7.391   7.700   3.573
12307TIP3   OH236877   0.621   3.426   0.152
12307TIP3    H136878   0.627   3.332   0.135
12307TIP3    H236879   0.578   3.431   0.237
12308TIP3   OH236880   4.794   1.758   2.227
12308TIP3    H136881   4.773   1.669   2.198
12308TIP3    H236882   4.841   1.796   2.152
12309TIP3   OH236883   4.979   2.097   0.668
12309TIP3    H136884   4.894   2.099   0.624
12309TIP3    H236885   5.009   2.188   0.665
12310TIP3   OH236886   5.767   1.908   0.796
12310TIP3    H136887   5.761   2.001   0.816
12310TIP3    H236888   5.787   1.867   0.880
12311TIP3   OH236889   4.648   4.722   5.624
12311TIP3    H136890   4.601   4.801   5.650
12311TIP3    H236891   4.623   4.708   5.533
12312TIP3   OH236892   6.522   7.187   6.021
12312TIP3    H136893   6.457   7.185   5.951
12312TIP3    H236894   6.598   7.141   5.985
12313TIP3   OH236895   4.072   3.303   5.916
12313TIP3    H136896   4.129   3.230   5.893
12313TIP3    H236897   3.984   3.267   5.910
12314TIP3   OH236898   3.955   3.594   0.127
12314TIP3    H136899   4.045   3.609   0.098
12314TIP3    H236900   3.952   3.629   0.216
12315TIP3   OH236901   8.056   6.403   6.057
12315TIP3    H136902   8.100   6.405   6.142
12315TIP3    H236903   7.973   6.450   6.072
12316TIP3   OH236904   2.703   1.959   5.007
12316TIP3    H136905   2.713   1.899   5.081
12316TIP3    H236906   2.609   1.966   4.994
12317TIP3   OH236907   8.016   5.889   2.107
12317TIP3    H136908   7.985   5.853   2.023
12317TIP3    H236909   7.964   5.969   2.119
12318TIP3   OH236910   3.994   5.036   0.276
12318TIP3    H136911   3.954   5.045   0.362
12318TIP3    H236912   3.922   5.042   0.214
12319TIP3   OH236913   0.699   1.999   3.187
12319TIP3    H136914   0.786   2.030   3.212
12319TIP3    H236915   0.652   2.078   3.162
12320TIP3   OH236916   0.668   2.023   1.533
12320TIP3    H136917   0.726   2.082   1.580
12320TIP3    H236918   0.607   1.992   1.600
12321TIP3   OH236919   6.559   5.877   6.258
12321TIP3    H136920   6.470   5.845   6.241
12321TIP3    H236921   6.556   5.911   6.347
12322TIP3   OH236922   5.661   2.968   2.917
12322TIP3    H136923   5.739   3.017   2.944
12322TIP3    H236924   5.602   2.973   2.992
12323TIP3   OH236925   6.040   6.655   4.231
12323TIP3    H136926   5.989   6.736   4.224
12323TIP3    H236927   6.087   6.649   4.148
12324TIP3   OH236928   3.293   4.379   0.506
12324TIP3    H136929   3.242   4.422   0.437
12324TIP3    H236930   3.384   4.401   0.486
12325TIP3   OH236931   4.339   6.668   1.934
12325TIP3    H136932   4.271   6.612   1.898
12325TIP3    H236933   4.421   6.628   1.903
12326TIP3   OH236934   5.544   5.877   0.952
12326TIP3    H136935   5.564   5.793   0.912
12326TIP3    H236936   5.586   5.873   1.038
12327TIP3   OH236937   3.825   3.894   1.888
12327TIP3    H136938   3.881   3.870   1.962
12327TIP3    H236939   3.759   3.953   1.925
12328TIP3   OH236940   3.414   5.812   6.774
12328TIP3    H136941   3.369   5.728   6.787
12328TIP3    H236942   3.347   5.870   6.737
12329TIP3   OH236943   5.347   6.030   3.003
12329TIP3    H136944   5.419   5.969   3.020
12329TIP3    H236945   5.379   6.087   2.934
12330TIP3   OH236946   7.074   2.839   3.810
12330TIP3    H136947   7.073   2.920   3.759
12330TIP3    H236948   7.024   2.860   3.889
12331TIP3   OH236949   3.944   1.341   1.468
12331TIP3    H136950   3.881   1.331   1.539
12331TIP3    H236951   3.925   1.267   1.409
12332TIP3   OH236952   1.948   6.777   3.207
12332TIP3    H136953   1.900   6.797   3.287
12332TIP3    H236954   2.036   6.754   3.238
12333TIP3   OH236955   3.709   2.795   6.305
12333TIP3    H136956   3.682   2.792   6.396
12333TIP3    H236957   3.641   2.747   6.258
12334TIP3   OH236958   7.417   3.482   3.302
12334TIP3    H136959   7.374   3.397   3.292
12334TIP3    H236960   7.365   3.542   3.249
12335TIP3   OH236961   5.914   2.380   6.336
12335TIP3    H136962   5.930   2.378   6.242
12335TIP3    H236963   5.819   2.392   6.344
12336TIP3   OH236964   0.861   1.965   6.138
12336TIP3    H136965   0.931   1.919   6.091
12336TIP3    H236966   0.905   2.042   6.176
12337TIP3   OH236967   5.106   0.812   5.294
12337TIP3    H136968   5.137   0.757   5.223
12337TIP3    H236969   5.059   0.883   5.251
12338TIP3   OH236970   6.551   2.629   1.484
12338TIP3    H136971   6.511   2.627   1.397
12338TIP3    H236972   6.551   2.721   1.508
12339TIP3   OH236973   5.240   2.373   4.399
12339TIP3    H136974   5.213   2.424   4.323
12339TIP3    H236975   5.335   2.380   4.400
12340TIP3   OH236976   6.936   4.466   1.324
12340TIP3    H136977   6.846   4.477   1.353
12340TIP3    H236978   6.976   4.410   1.390
12341TIP3   OH236979   0.907   7.197   0.638
12341TIP3    H136980   0.856   7.260   0.690
12341TIP3    H236981   0.842   7.132   0.611
12342TIP3   OH236982   4.076   0.476   1.351
12342TIP3    H136983   4.009   0.527   1.397
12342TIP3    H236984   4.026   0.416   1.295
12343TIP3   OH236985   2.317   7.346   3.735
12343TIP3    H136986   2.407   7.379   3.740
12343TIP3    H236987   2.263   7.419   3.765
12344TIP3   OH236988   8.187   4.635   2.098
12344TIP3    H136989   8.271   4.676   2.074
12344TIP3    H236990   8.212   4.559   2.151
12345TIP3   OH236991   1.436   1.304   0.966
12345TIP3    H136992   1.465   1.218   0.937
12345TIP3    H236993   1.383   1.337   0.894
12346TIP3   OH236994   0.855   7.551   5.764
12346TIP3    H136995   0.918   7.617   5.794
12346TIP3    H236996   0.899   7.467   5.779
12347TIP3   OH236997   7.023   2.119   1.488
12347TIP3    H136998   7.027   2.026   1.513
12347TIP3    H236999   6.943   2.126   1.437
12348TIP3   OH237000   3.526   1.943   1.461
12348TIP3    H137001   3.494   1.922   1.549
12348TIP3    H237002   3.553   2.034   1.467
12349TIP3   OH237003   6.464   4.672   4.697
12349TIP3    H137004   6.528   4.707   4.636
12349TIP3    H237005   6.481   4.577   4.698
12350TIP3   OH237006   0.522   6.626   5.658
12350TIP3    H137007   0.536   6.715   5.691
12350TIP3    H237008   0.514   6.572   5.736
12351TIP3   OH237009   2.512   3.847   1.950
12351TIP3    H137010   2.592   3.798   1.968
12351TIP3    H237011   2.441   3.786   1.970
12352TIP3   OH237012   5.137   6.846   2.577
12352TIP3    H137013   5.150   6.760   2.618
12352TIP3    H237014   5.199   6.904   2.623
12353TIP3   OH237015   2.969   1.682   3.876
12353TIP3    H137016   3.057   1.643   3.870
12353TIP3    H237017   2.911   1.608   3.892
12354TIP3   OH237018   7.781   6.280   0.623
12354TIP3    H137019   7.791   6.361   0.574
12354TIP3    H237020   7.717   6.300   0.691
12355TIP3   OH237021   6.281   1.976   2.174
12355TIP3    H137022   6.282   2.066   2.208
12355TIP3    H237023   6.231   1.926   2.239
12356TIP3   OH237024   8.065   2.229   5.471
12356TIP3    H137025   8.006   2.156   5.490
12356TIP3    H237026   8.153   2.192   5.481
12357TIP3   OH237027   4.634   0.889   2.401
12357TIP3    H137028   4.614   0.962   2.342
12357TIP3    H237029   4.558   0.884   2.459
12358TIP3   OH237030   6.048   4.170   5.773
12358TIP3    H137031   6.052   4.236   5.842
12358TIP3    H237032   6.127   4.185   5.721
12359TIP3   OH237033   4.634   0.038   5.086
12359TIP3    H137034   4.689  -0.024   5.040
12359TIP3    H237035   4.691   0.078   5.152
12360TIP3   OH237036   2.040   3.737   2.818
12360TIP3    H137037   1.968   3.799   2.803
12360TIP3    H237038   2.001   3.667   2.871
12361TIP3   OH237039   6.413   2.896   1.917
12361TIP3    H137040   6.440   2.985   1.890
12361TIP3    H237041   6.468   2.877   1.993
12362TIP3   OH237042   2.106   0.129   2.052
12362TIP3    H137043   2.049   0.176   1.992
12362TIP3    H237044   2.057   0.051   2.076
12363TIP3   OH237045   7.573   3.073   0.676
12363TIP3    H137046   7.583   3.167   0.690
12363TIP3    H237047   7.650   3.034   0.716
12364TIP3   OH237048   3.442   7.752   5.669
12364TIP3    H137049   3.366   7.699   5.647
12364TIP3    H237050   3.435   7.828   5.611
12365TIP3   OH237051   4.318   7.722   2.315
12365TIP3    H137052   4.328   7.714   2.410
12365TIP3    H237053   4.345   7.812   2.296
12366TIP3   OH237054   2.306   5.442   0.881
12366TIP3    H137055   2.287   5.361   0.834
12366TIP3    H237056   2.401   5.444   0.888
12367TIP3   OH237057   6.507   6.926   5.885
12367TIP3    H137058   6.586   6.893   5.927
12367TIP3    H237059   6.506   6.884   5.799
12368TIP3   OH237060   2.959   3.089   1.140
12368TIP3    H137061   2.893   3.032   1.179
12368TIP3    H237062   2.921   3.177   1.148
12369TIP3   OH237063   5.572   4.184   0.277
12369TIP3    H137064   5.561   4.172   0.183
12369TIP3    H237065   5.662   4.157   0.294
12370TIP3   OH237066   7.916   1.856   4.939
12370TIP3    H137067   7.997   1.812   4.913
12370TIP3    H237068   7.929   1.875   5.032
12371TIP3   OH237069   8.218   6.735   3.981
12371TIP3    H137070   8.268   6.817   3.983
12371TIP3    H237071   8.159   6.745   3.906
12372TIP3   OH237072   1.383   4.608   1.847
12372TIP3    H137073   1.309   4.655   1.886
12372TIP3    H237074   1.364   4.516   1.864
12373TIP3   OH237075   2.186   0.895   1.795
12373TIP3    H137076   2.096   0.927   1.790
12373TIP3    H237077   2.177   0.800   1.808
12374TIP3   OH237078   0.340   5.846   3.253
12374TIP3    H137079   0.342   5.810   3.341
12374TIP3    H237080   0.290   5.928   3.262
12375TIP3   OH237081   0.715   1.324   0.521
12375TIP3    H137082   0.659   1.341   0.597
12375TIP3    H237083   0.756   1.409   0.503
12376TIP3   OH237084   0.347   6.669   2.361
12376TIP3    H137085   0.320   6.578   2.373
12376TIP3    H237086   0.375   6.673   2.269
12377TIP3   OH237087   3.379   0.725   1.290
12377TIP3    H137088   3.365   0.668   1.365
12377TIP3    H237089   3.346   0.676   1.215
12378TIP3   OH237090   1.635   2.652   0.336
12378TIP3    H137091   1.704   2.621   0.278
12378TIP3    H237092   1.631   2.747   0.321
12379TIP3   OH237093   0.851   5.491   3.668
12379TIP3    H137094   0.777   5.536   3.710
12379TIP3    H237095   0.920   5.557   3.665
12380TIP3   OH237096   4.699   6.919   3.764
12380TIP3    H137097   4.627   6.866   3.799
12380TIP3    H237098   4.778   6.872   3.790
12381TIP3   OH237099   3.086   1.961   2.816
12381TIP3    H137100   3.164   2.005   2.783
12381TIP3    H237101   3.062   2.011   2.894
12382TIP3   OH237102   7.122   1.148   6.704
12382TIP3    H137103   7.171   1.193   6.773
12382TIP3    H237104   7.136   1.201   6.626
12383TIP3   OH237105   5.842   4.738   6.600
12383TIP3    H137106   5.824   4.829   6.624
12383TIP3    H237107   5.853   4.741   6.504
12384TIP3   OH237108   5.985   5.950   4.437
12384TIP3    H137109   5.944   5.981   4.357
12384TIP3    H237110   6.000   6.030   4.489
12385TIP3   OH237111   1.756   2.475   0.110
12385TIP3    H137112   1.669   2.447   0.140
12385TIP3    H237113   1.737   2.543   0.045
12386TIP3   OH237114   2.634   1.843   6.327
12386TIP3    H137115   2.577   1.876   6.258
12386TIP3    H237116   2.618   1.900   6.402
12387TIP3   OH237117   7.377   2.410   3.868
12387TIP3    H137118   7.324   2.478   3.826
12387TIP3    H237119   7.409   2.356   3.796
12388TIP3   OH237120   2.650   3.063   4.804
12388TIP3    H137121   2.685   3.118   4.874
12388TIP3    H237122   2.634   3.123   4.731
12389TIP3   OH237123   1.562   6.426   1.054
12389TIP3    H137124   1.628   6.448   0.989
12389TIP3    H237125   1.491   6.489   1.039
12390TIP3   OH237126   4.088   6.938   4.680
12390TIP3    H137127   4.041   6.996   4.620
12390TIP3    H237128   4.024   6.918   4.749
12391TIP3   OH237129   3.406   6.345   2.622
12391TIP3    H137130   3.475   6.384   2.675
12391TIP3    H237131   3.376   6.416   2.565
12392TIP3   OH237132   0.014   3.977   6.483
12392TIP3    H137133  -0.033   4.002   6.403
12392TIP3    H237134   0.101   3.950   6.452
12393TIP3   OH237135   7.432   6.587   3.749
12393TIP3    H137136   7.378   6.516   3.785
12393TIP3    H237137   7.461   6.553   3.664
12394TIP3   OH237138   1.884   4.871   2.983
12394TIP3    H137139   1.802   4.900   2.944
12394TIP3    H237140   1.949   4.936   2.954
12395TIP3   OH237141   3.054   4.186   5.328
12395TIP3    H137142   3.078   4.128   5.256
12395TIP3    H237143   3.093   4.146   5.406
12396TIP3   OH237144   1.899   3.767   5.243
12396TIP3    H137145   1.884   3.673   5.246
12396TIP3    H237146   1.813   3.806   5.256
12397TIP3   OH237147   4.039   3.731   5.040
12397TIP3    H137148   4.033   3.825   5.059
12397TIP3    H237149   3.999   3.721   4.954
12398TIP3   OH237150   6.678   0.704   5.164
12398TIP3    H137151   6.676   0.739   5.075
12398TIP3    H237152   6.639   0.617   5.157
12399TIP3   OH237153   7.582   6.776   2.983
12399TIP3    H137154   7.594   6.777   3.078
12399TIP3    H237155   7.497   6.733   2.970
12400TIP3   OH237156   7.809   7.076   6.265
12400TIP3    H137157   7.718   7.105   6.265
12400TIP3    H237158   7.858   7.152   6.233
12401TIP3   OH237159   4.659   1.042   0.130
12401TIP3    H137160   4.678   1.105   0.060
12401TIP3    H237161   4.623   0.966   0.085
12402TIP3   OH237162   4.229   2.664   0.287
12402TIP3    H137163   4.211   2.749   0.246
12402TIP3    H237164   4.227   2.682   0.381
12403TIP3   OH237165   5.813   7.803   5.127
12403TIP3    H137166   5.889   7.749   5.146
12403TIP3    H237167   5.775   7.765   5.047
12404TIP3   OH237168   3.971   3.862   0.977
12404TIP3    H137169   3.906   3.921   0.939
12404TIP3    H237170   4.023   3.831   0.903
12405TIP3   OH237171   5.509   4.135   3.979
12405TIP3    H137172   5.484   4.043   3.983
12405TIP3    H237173   5.507   4.164   4.071
12406TIP3   OH237174   3.984   0.062   1.662
12406TIP3    H137175   4.003  -0.020   1.707
12406TIP3    H237176   4.071   0.100   1.644
12407TIP3   OH237177   2.225   7.745   4.888
12407TIP3    H137178   2.309   7.702   4.906
12407TIP3    H237179   2.240   7.791   4.805
12408TIP3   OH237180   1.032   0.077   2.817
12408TIP3    H137181   0.953   0.118   2.854
12408TIP3    H237182   1.105   0.123   2.860
12409TIP3   OH237183   2.969   1.416   5.435
12409TIP3    H137184   2.925   1.491   5.395
12409TIP3    H237185   3.014   1.452   5.512
12410TIP3   OH237186   6.570   5.540   2.341
12410TIP3    H137187   6.598   5.483   2.269
12410TIP3    H237188   6.650   5.553   2.392
12411TIP3   OH237189   7.097   2.951   0.525
12411TIP3    H137190   7.025   2.923   0.467
12411TIP3    H237191   7.104   3.045   0.509
12412TIP3   OH237192   4.603   5.785   1.422
12412TIP3    H137193   4.652   5.737   1.489
12412TIP3    H237194   4.511   5.763   1.441
12413TIP3   OH237195   7.368   7.516   6.436
12413TIP3    H137196   7.399   7.606   6.423
12413TIP3    H237197   7.409   7.466   6.365
12414TIP3   OH237198   3.514   4.495   2.278
12414TIP3    H137199   3.476   4.551   2.209
12414TIP3    H237200   3.477   4.408   2.261
12415TIP3   OH237201   5.277   1.142   0.953
12415TIP3    H137202   5.338   1.172   1.020
12415TIP3    H237203   5.201   1.110   1.002
12416TIP3   OH237204   7.453   1.260   4.456
12416TIP3    H137205   7.481   1.273   4.365
12416TIP3    H237206   7.400   1.180   4.453
12417TIP3   OH237207   4.350   6.985   5.485
12417TIP3    H137208   4.302   7.012   5.407
12417TIP3    H237209   4.331   7.053   5.549
12418TIP3   OH237210   3.238   6.766   1.346
12418TIP3    H137211   3.268   6.691   1.397
12418TIP3    H237212   3.163   6.800   1.393
12419TIP3   OH237213   5.759   0.840   5.363
12419TIP3    H137214   5.788   0.885   5.442
12419TIP3    H237215   5.730   0.754   5.393
12420TIP3   OH237216   8.160   0.092   4.754
12420TIP3    H137217   8.187   0.176   4.715
12420TIP3    H237218   8.225   0.029   4.723
12421TIP3   OH237219   2.448   5.330   3.757
12421TIP3    H137220   2.419   5.242   3.780
12421TIP3    H237221   2.535   5.338   3.797
12422TIP3   OH237222   0.955   0.334   2.371
12422TIP3    H137223   0.946   0.404   2.435
12422TIP3    H237224   0.918   0.257   2.413
12423TIP3   OH237225   1.870   2.543   0.844
12423TIP3    H137226   1.910   2.457   0.830
12423TIP3    H237227   1.915   2.600   0.782
12424TIP3   OH237228   2.449   4.076   6.240
12424TIP3    H137229   2.486   4.050   6.155
12424TIP3    H237230   2.435   4.170   6.232
12425TIP3   OH237231   2.109   5.921   4.497
12425TIP3    H137232   2.083   5.906   4.588
12425TIP3    H237233   2.068   6.004   4.473
12426TIP3   OH237234   6.889   0.476   0.191
12426TIP3    H137235   6.867   0.512   0.105
12426TIP3    H237236   6.904   0.383   0.175
12427TIP3   OH237237   1.742   6.416   6.382
12427TIP3    H137238   1.811   6.419   6.447
12427TIP3    H237239   1.747   6.500   6.337
12428TIP3   OH237240   4.383   1.280   3.308
12428TIP3    H137241   4.361   1.190   3.332
12428TIP3    H237242   4.478   1.284   3.313
12429TIP3   OH237243   1.583   6.258   1.652
12429TIP3    H137244   1.539   6.331   1.695
12429TIP3    H237245   1.569   6.273   1.558
12430TIP3   OH237246   6.804   5.875   5.071
12430TIP3    H137247   6.819   5.782   5.059
12430TIP3    H237248   6.709   5.885   5.067
12431TIP3   OH237249   0.167   0.428   1.037
12431TIP3    H137250   0.247   0.386   1.007
12431TIP3    H237251   0.195   0.512   1.073
12432TIP3   OH237252   2.001   2.593   6.527
12432TIP3    H137253   2.082   2.542   6.528
12432TIP3    H237254   1.932   2.527   6.527
12433TIP3   OH237255   7.663   2.918   0.474
12433TIP3    H137256   7.631   2.833   0.504
12433TIP3    H237257   7.639   2.979   0.545
12434TIP3   OH237258   4.741   4.658   0.079
12434TIP3    H137259   4.811   4.695   0.134
12434TIP3    H237260   4.729   4.569   0.111
12435TIP3   OH237261   0.906   1.451   5.879
12435TIP3    H137262   0.811   1.449   5.891
12435TIP3    H237263   0.933   1.360   5.886
12436TIP3   OH237264   1.787   5.308   3.416
12436TIP3    H137265   1.826   5.226   3.446
12436TIP3    H237266   1.751   5.288   3.330
12437TIP3   OH237267   6.020   6.857   4.623
12437TIP3    H137268   5.942   6.884   4.574
12437TIP3    H237269   5.986   6.817   4.702
12438TIP3   OH237270   2.608   1.184   6.161
12438TIP3    H137271   2.558   1.106   6.136
12438TIP3    H237272   2.681   1.149   6.213
12439TIP3   OH237273   7.578   3.351   0.600
12439TIP3    H137274   7.574   3.422   0.665
12439TIP3    H237275   7.658   3.368   0.551
12440TIP3   OH237276   7.593   7.497   0.932
12440TIP3    H137277   7.512   7.464   0.894
12440TIP3    H237278   7.660   7.434   0.906
12441TIP3   OH237279   6.739   6.688   2.465
12441TIP3    H137280   6.792   6.669   2.542
12441TIP3    H237281   6.802   6.708   2.396
12442TIP3   OH237282   0.213   7.198   3.280
12442TIP3    H137283   0.162   7.129   3.237
12442TIP3    H237284   0.301   7.188   3.244
12443TIP3   OH237285   6.285   2.813   6.332
12443TIP3    H137286   6.277   2.908   6.324
12443TIP3    H237287   6.249   2.792   6.419
12444TIP3   OH237288   0.765   4.236   3.563
12444TIP3    H137289   0.691   4.206   3.510
12444TIP3    H237290   0.796   4.314   3.517
12445TIP3   OH237291   8.270   4.495   2.303
12445TIP3    H137292   8.334   4.565   2.318
12445TIP3    H237293   8.204   4.508   2.371
12446TIP3   OH237294   7.305   5.919   3.710
12446TIP3    H137295   7.263   5.834   3.712
12446TIP3    H237296   7.388   5.904   3.664
12447TIP3   OH237297   6.374   5.124   2.388
12447TIP3    H137298   6.321   5.056   2.429
12447TIP3    H237299   6.312   5.176   2.337
12448TIP3   OH237300   0.844   2.798   6.216
12448TIP3    H137301   0.938   2.786   6.230
12448TIP3    H237302   0.839   2.860   6.143
12449TIP3   OH237303   5.368   2.748   6.343
12449TIP3    H137304   5.461   2.769   6.345
12449TIP3    H237305   5.336   2.771   6.430
12450TIP3   OH237306   3.392   5.584   5.084
12450TIP3    H137307   3.393   5.673   5.050
12450TIP3    H237308   3.314   5.544   5.045
12451TIP3   OH237309   1.488   0.307   6.121
12451TIP3    H137310   1.475   0.396   6.088
12451TIP3    H237311   1.578   0.305   6.152
12452TIP3   OH237312   3.776   7.309   2.450
12452TIP3    H137313   3.792   7.403   2.443
12452TIP3    H237314   3.845   7.269   2.397
12453TIP3   OH237315   4.974   4.993   2.085
12453TIP3    H137316   4.988   5.010   2.178
12453TIP3    H237317   4.928   4.909   2.082
12454TIP3   OH237318   6.670   3.751   4.469
12454TIP3    H137319   6.763   3.762   4.449
12454TIP3    H237320   6.645   3.832   4.512
12455TIP3   OH237321   4.113   4.162   2.538
12455TIP3    H137322   4.052   4.089   2.527
12455TIP3    H237323   4.097   4.219   2.463
12456TIP3   OH237324   6.779   2.113   1.316
12456TIP3    H137325   6.699   2.159   1.292
12456TIP3    H237326   6.765   2.024   1.287
12457TIP3   OH237327   2.092   2.707   6.056
12457TIP3    H137328   2.136   2.665   6.130
12457TIP3    H237329   2.045   2.636   6.012
12458TIP3   OH237330   7.301   1.874   2.874
12458TIP3    H137331   7.352   1.851   2.797
12458TIP3    H237332   7.290   1.791   2.921
12459TIP3   OH237333   5.618   2.885   6.362
12459TIP3    H137334   5.635   2.957   6.423
12459TIP3    H237335   5.694   2.827   6.372
12460TIP3   OH237336   0.735   3.364   3.820
12460TIP3    H137337   0.739   3.457   3.842
12460TIP3    H237338   0.782   3.357   3.737
12461TIP3   OH237339   0.264   3.467   3.821
12461TIP3    H137340   0.188   3.520   3.798
12461TIP3    H237341   0.339   3.521   3.799
12462TIP3   OH237342   5.266   0.938   0.107
12462TIP3    H137343   5.260   0.921   0.201
12462TIP3    H237344   5.180   0.914   0.073
12463TIP3   OH237345   8.279   6.718   0.954
12463TIP3    H137346   8.195   6.737   0.913
12463TIP3    H237347   8.300   6.798   1.002
12464TIP3   OH237348   1.208   6.706   2.280
12464TIP3    H137349   1.115   6.725   2.268
12464TIP3    H237350   1.213   6.611   2.284
12465TIP3   OH237351   2.435   1.117   5.075
12465TIP3    H137352   2.389   1.184   5.125
12465TIP3    H237353   2.379   1.100   5.000
12466TIP3   OH237354   1.540   2.454   5.616
12466TIP3    H137355   1.494   2.535   5.594
12466TIP3    H237356   1.528   2.398   5.540
12467TIP3   OH237357   2.628   4.502   4.297
12467TIP3    H137358   2.544   4.495   4.252
12467TIP3    H237359   2.605   4.505   4.390
12468TIP3   OH237360   2.237   0.899   4.652
12468TIP3    H137361   2.230   0.805   4.669
12468TIP3    H237362   2.167   0.917   4.588
12469TIP3   OH237363   7.673   0.183   1.107
12469TIP3    H137364   7.755   0.165   1.153
12469TIP3    H237365   7.691   0.261   1.054
12470TIP3   OH237366   1.181   4.613   1.018
12470TIP3    H137367   1.209   4.590   0.929
12470TIP3    H237368   1.221   4.547   1.074
12471TIP3   OH237369   0.386   5.068   0.622
12471TIP3    H137370   0.298   5.071   0.658
12471TIP3    H237371   0.432   5.005   0.677
12472TIP3   OH237372   6.876   5.368   6.190
12472TIP3    H137373   6.905   5.357   6.099
12472TIP3    H237374   6.856   5.461   6.198
12473TIP3   OH237375   8.194   2.223   4.985
12473TIP3    H137376   8.169   2.167   5.059
12473TIP3    H237377   8.118   2.280   4.971
12474TIP3   OH237378   0.520   5.372   5.191
12474TIP3    H137379   0.493   5.459   5.163
12474TIP3    H237380   0.492   5.366   5.283
12475TIP3   OH237381   7.230   0.376   5.259
12475TIP3    H137382   7.169   0.320   5.212
12475TIP3    H237383   7.251   0.446   5.197
12476TIP3   OH237384   1.111   6.438   4.995
12476TIP3    H137385   1.025   6.480   4.992
12476TIP3    H237386   1.169   6.505   5.032
12477TIP3   OH237387   1.818   4.327   5.809
12477TIP3    H137388   1.827   4.311   5.904
12477TIP3    H237389   1.908   4.324   5.776
12478TIP3   OH237390   1.225   0.770   4.729
12478TIP3    H137391   1.159   0.750   4.795
12478TIP3    H237392   1.191   0.845   4.681
12479TIP3   OH237393   5.950   4.258   4.831
12479TIP3    H137394   5.973   4.181   4.779
12479TIP3    H237395   6.030   4.279   4.879
12480TIP3   OH237396   2.563   7.772   2.913
12480TIP3    H137397   2.513   7.786   2.993
12480TIP3    H237398   2.512   7.816   2.845
12481TIP3   OH237399   6.225   5.179   5.070
12481TIP3    H137400   6.161   5.122   5.112
12481TIP3    H237401   6.293   5.192   5.137
12482TIP3   OH237402   4.657   3.490   5.229
12482TIP3    H137403   4.700   3.414   5.190
12482TIP3    H237404   4.707   3.565   5.197
12483TIP3   OH237405   6.824   6.413   5.673
12483TIP3    H137406   6.757   6.430   5.739
12483TIP3    H237407   6.775   6.407   5.590
12484TIP3   OH237408   1.563   0.770   3.674
12484TIP3    H137409   1.501   0.734   3.611
12484TIP3    H237410   1.635   0.707   3.675
12485TIP3   OH237411   7.844   5.999   1.113
12485TIP3    H137412   7.805   6.086   1.100
12485TIP3    H237413   7.785   5.955   1.174
12486TIP3   OH237414   0.536   0.065   3.281
12486TIP3    H137415   0.516   0.043   3.372
12486TIP3    H237416   0.617   0.115   3.285
12487TIP3   OH237417   2.694   1.389   1.185
12487TIP3    H137418   2.768   1.390   1.124
12487TIP3    H237419   2.681   1.481   1.208
12488TIP3   OH237420   0.828   3.606   0.208
12488TIP3    H137421   0.783   3.649   0.281
12488TIP3    H237422   0.762   3.548   0.170
12489TIP3   OH237423   1.430   6.365   3.528
12489TIP3    H137424   1.485   6.332   3.599
12489TIP3    H237425   1.490   6.410   3.469
12490TIP3   OH237426   5.277   3.301   5.014
12490TIP3    H137427   5.250   3.353   4.939
12490TIP3    H237428   5.195   3.272   5.055
12491TIP3   OH237429   4.148   5.380   1.548
12491TIP3    H137430   4.225   5.428   1.580
12491TIP3    H237431   4.130   5.418   1.463
12492TIP3   OH237432   2.846   1.193   2.489
12492TIP3    H137433   2.822   1.133   2.419
12492TIP3    H237434   2.922   1.152   2.530
12493TIP3   OH237435   5.949   4.300   6.334
12493TIP3    H137436   6.021   4.350   6.374
12493TIP3    H237437   5.981   4.277   6.247
12494TIP3   OH237438   0.440   6.407   5.508
12494TIP3    H137439   0.454   6.473   5.577
12494TIP3    H237440   0.362   6.359   5.537
12495TIP3   OH237441   3.429   7.282   5.786
12495TIP3    H137442   3.523   7.302   5.793
12495TIP3    H237443   3.396   7.291   5.876
12496TIP3   OH237444   1.654   7.587   3.052
12496TIP3    H137445   1.693   7.673   3.067
12496TIP3    H237446   1.715   7.542   2.994
12497TIP3   OH237447   3.050   1.469   4.399
12497TIP3    H137448   2.979   1.414   4.433
12497TIP3    H237449   3.115   1.471   4.468
12498TIP3   OH237450   4.274   3.010   5.137
12498TIP3    H137451   4.261   3.019   5.231
12498TIP3    H237452   4.191   3.039   5.098
12499TIP3   OH237453   0.407   4.533   0.701
12499TIP3    H137454   0.387   4.626   0.690
12499TIP3    H237455   0.502   4.529   0.702
12500TIP3   OH237456   4.021   1.502   0.427
12500TIP3    H137457   4.090   1.557   0.464
12500TIP3    H237458   4.027   1.515   0.333
12501TIP3   OH237459   0.642   5.722   4.464
12501TIP3    H137460   0.581   5.788   4.496
12501TIP3    H237461   0.637   5.728   4.369
12502TIP3   OH237462   3.569   2.215   5.851
12502TIP3    H137463   3.625   2.148   5.891
12502TIP3    H237464   3.545   2.179   5.766
12503TIP3   OH237465   7.876   3.929   0.038
12503TIP3    H137466   7.961   3.971   0.029
12503TIP3    H237467   7.868   3.873  -0.039
12504TIP3   OH237468   5.335   0.970   6.749
12504TIP3    H137469   5.267   0.932   6.805
12504TIP3    H237470   5.311   1.063   6.743
12505TIP3   OH237471   7.025   7.247   5.308
12505TIP3    H137472   6.940   7.285   5.329
12505TIP3    H237473   7.014   7.210   5.220
12506TIP3   OH237474   7.670   6.348   3.903
12506TIP3    H137475   7.624   6.285   3.847
12506TIP3    H237476   7.608   6.368   3.972
12507TIP3   OH237477   5.220   2.880   5.614
12507TIP3    H137478   5.246   2.852   5.702
12507TIP3    H237479   5.248   2.808   5.557
12508TIP3   OH237480   4.062   3.552   2.402
12508TIP3    H137481   4.141   3.596   2.372
12508TIP3    H237482   4.049   3.584   2.491
12509TIP3   OH237483   0.490   6.247   0.153
12509TIP3    H137484   0.412   6.285   0.193
12509TIP3    H237485   0.532   6.197   0.223
12510TIP3   OH237486   4.363   2.513   4.151
12510TIP3    H137487   4.328   2.588   4.103
12510TIP3    H237488   4.300   2.442   4.134
12511TIP3   OH237489   5.390   6.204   0.521
12511TIP3    H137490   5.403   6.114   0.552
12511TIP3    H237491   5.417   6.259   0.595
12512TIP3   OH237492   2.547   1.190   6.689
12512TIP3    H137493   2.597   1.185   6.771
12512TIP3    H237494   2.571   1.110   6.642
12513TIP3   OH237495   0.309   0.626   6.049
12513TIP3    H137496   0.395   0.617   6.089
12513TIP3    H237497   0.250   0.579   6.107
12514TIP3   OH237498   3.560   3.220   2.450
12514TIP3    H137499   3.601   3.293   2.403
12514TIP3    H237500   3.553   3.151   2.385
12515TIP3   OH237501   6.599   2.968   4.335
12515TIP3    H137502   6.605   2.877   4.308
12515TIP3    H237503   6.507   2.980   4.360
12516TIP3   OH237504   7.847   7.462   1.551
12516TIP3    H137505   7.878   7.553   1.558
12516TIP3    H237506   7.753   7.468   1.564
12517TIP3   OH237507   0.694   7.534   3.143
12517TIP3    H137508   0.675   7.440   3.151
12517TIP3    H237509   0.608   7.576   3.150
12518TIP3   OH237510   1.162   1.294   6.693
12518TIP3    H137511   1.110   1.239   6.751
12518TIP3    H237512   1.236   1.238   6.667
12519TIP3   OH237513   4.951   1.177   3.856
12519TIP3    H137514   5.027   1.177   3.913
12519TIP3    H237515   4.903   1.098   3.880
12520TIP3   OH237516   0.443   4.203   5.835
12520TIP3    H137517   0.376   4.188   5.768
12520TIP3    H237518   0.506   4.133   5.822
12521TIP3   OH237519   8.029   3.861   6.417
12521TIP3    H137520   8.066   3.943   6.384
12521TIP3    H237521   7.957   3.842   6.358
12522TIP3   OH237522   1.475   4.475   1.106
12522TIP3    H137523   1.531   4.455   1.180
12522TIP3    H237524   1.512   4.555   1.068
12523TIP3   OH237525   4.801   0.891   6.518
12523TIP3    H137526   4.889   0.860   6.499
12523TIP3    H237527   4.773   0.839   6.594
12524TIP3   OH237528   3.445   5.001   2.630
12524TIP3    H137529   3.420   4.990   2.722
12524TIP3    H237530   3.497   5.082   2.628
12525TIP3   OH237531   6.384   6.407   2.143
12525TIP3    H137532   6.333   6.410   2.062
12525TIP3    H237533   6.320   6.396   2.213
12526TIP3   OH237534   3.609   5.990   1.238
12526TIP3    H137535   3.632   5.898   1.225
12526TIP3    H237536   3.692   6.035   1.249
12527TIP3   OH237537   4.255   2.057   2.255
12527TIP3    H137538   4.336   2.105   2.236
12527TIP3    H237539   4.231   2.084   2.344
12528TIP3   OH237540   5.492   0.576   1.689
12528TIP3    H137541   5.429   0.524   1.739
12528TIP3    H237542   5.495   0.533   1.603
12529TIP3   OH237543   7.047   2.860   1.356
12529TIP3    H137544   6.952   2.867   1.354
12529TIP3    H237545   7.074   2.916   1.429
12530TIP3   OH237546   3.867   6.266   4.114
12530TIP3    H137547   3.929   6.294   4.181
12530TIP3    H237548   3.914   6.276   4.032
12531TIP3   OH237549   0.079   6.510   5.277
12531TIP3    H137550   0.084   6.566   5.355
12531TIP3    H237551   0.100   6.422   5.310
12532TIP3   OH237552   0.458   1.520   2.388
12532TIP3    H137553   0.442   1.594   2.329
12532TIP3    H237554   0.388   1.458   2.368
12533TIP3   OH237555   6.274   7.753   2.884
12533TIP3    H137556   6.239   7.685   2.942
12533TIP3    H237557   6.278   7.711   2.798
12534TIP3   OH237558   0.385   2.427   6.668
12534TIP3    H137559   0.480   2.421   6.657
12534TIP3    H237560   0.349   2.363   6.606
12535TIP3   OH237561   1.170   1.306   3.249
12535TIP3    H137562   1.099   1.344   3.197
12535TIP3    H237563   1.126   1.244   3.308
12536TIP3   OH237564   5.573   0.335   1.189
12536TIP3    H137565   5.567   0.294   1.103
12536TIP3    H237566   5.644   0.398   1.181
12537TIP3   OH237567   4.529   7.354   5.777
12537TIP3    H137568   4.437   7.331   5.791
12537TIP3    H237569   4.575   7.270   5.776
12538TIP3   OH237570   6.908   7.780   3.696
12538TIP3    H137571   6.946   7.858   3.736
12538TIP3    H237572   6.980   7.717   3.693
12539TIP3   OH237573   6.971   0.748   0.355
12539TIP3    H137574   6.941   0.792   0.276
12539TIP3    H237575   7.008   0.665   0.323
12540TIP3   OH237576   1.241   3.832   0.445
12540TIP3    H137577   1.322   3.840   0.395
12540TIP3    H237578   1.172   3.838   0.379
12541TIP3   OH237579   0.295   3.562   3.114
12541TIP3    H137580   0.335   3.540   3.029
12541TIP3    H237581   0.368   3.559   3.176
12542TIP3   OH237582   1.258   2.653   0.608
12542TIP3    H137583   1.295   2.742   0.603
12542TIP3    H237584   1.266   2.619   0.519
12543TIP3   OH237585   3.756   0.105   1.532
12543TIP3    H137586   3.846   0.083   1.555
12543TIP3    H237587   3.754   0.101   1.436
12544TIP3   OH237588   2.106   7.153   2.952
12544TIP3    H137589   2.029   7.098   2.935
12544TIP3    H237590   2.069   7.236   2.981
12545TIP3   OH237591   4.504   1.086   6.379
12545TIP3    H137592   4.520   1.032   6.457
12545TIP3    H237593   4.580   1.071   6.323
12546TIP3   OH237594   7.835   2.582   4.459
12546TIP3    H137595   7.855   2.676   4.453
12546TIP3    H237596   7.812   2.569   4.551
12547TIP3   OH237597   5.950   1.955   2.976
12547TIP3    H137598   5.983   1.933   2.889
12547TIP3    H237599   5.859   1.981   2.962
12548TIP3   OH237600   4.351   1.559   5.507
12548TIP3    H137601   4.386   1.546   5.595
12548TIP3    H237602   4.373   1.479   5.460
12549TIP3   OH237603   6.112   1.909   2.418
12549TIP3    H137604   6.039   1.847   2.419
12549TIP3    H237605   6.155   1.896   2.503
12550TIP3   OH237606   4.185   1.798   4.971
12550TIP3    H137607   4.218   1.732   5.032
12550TIP3    H237608   4.243   1.873   4.984
12551TIP3   OH237609   2.016   0.641   1.936
12551TIP3    H137610   1.977   0.663   1.852
12551TIP3    H237611   2.110   0.635   1.919
12552TIP3   OH237612   3.969   3.880   5.373
12552TIP3    H137613   4.022   3.817   5.421
12552TIP3    H237614   3.934   3.938   5.440
12553TIP3   OH237615   0.314   2.142   4.400
12553TIP3    H137616   0.222   2.166   4.392
12553TIP3    H237617   0.353   2.213   4.451
12554TIP3   OH237618   7.146   7.019   5.434
12554TIP3    H137619   7.219   7.063   5.477
12554TIP3    H237620   7.097   7.089   5.392
12555TIP3   OH237621   3.512   0.269   6.505
12555TIP3    H137622   3.581   0.329   6.533
12555TIP3    H237623   3.521   0.193   6.562
12556TIP3   OH237624   0.471   2.005   3.615
12556TIP3    H137625   0.548   2.061   3.626
12556TIP3    H237626   0.461   1.997   3.520
12557TIP3   OH237627   3.693   0.733   3.143
12557TIP3    H137628   3.718   0.751   3.052
12557TIP3    H237629   3.612   0.783   3.155
12558TIP3   OH237630   7.282   5.314   4.253
12558TIP3    H137631   7.307   5.280   4.339
12558TIP3    H237632   7.241   5.239   4.209
12559TIP3   OH237633   8.002   3.737   1.732
12559TIP3    H137634   7.939   3.806   1.753
12559TIP3    H237635   8.017   3.693   1.815
12560TIP3   OH237636   3.864   7.637   5.144
12560TIP3    H137637   3.900   7.607   5.228
12560TIP3    H237638   3.775   7.665   5.166
12561TIP3   OH237639   5.872   3.646   1.292
12561TIP3    H137640   5.949   3.616   1.339
12561TIP3    H237641   5.866   3.739   1.311
12562TIP3   OH237642   6.963   2.806   4.375
12562TIP3    H137643   6.888   2.820   4.317
12562TIP3    H237644   6.991   2.716   4.357
12563TIP3   OH237645   4.800   4.214   3.036
12563TIP3    H137646   4.828   4.280   2.973
12563TIP3    H237647   4.760   4.264   3.107
12564TIP3   OH237648   0.102   4.320   0.227
12564TIP3    H137649   0.056   4.239   0.252
12564TIP3    H237650   0.183   4.318   0.278
12565TIP3   OH237651   7.018   3.334   2.680
12565TIP3    H137652   7.052   3.351   2.593
12565TIP3    H237653   6.932   3.375   2.681
12566TIP3   OH237654   0.854   7.441   4.651
12566TIP3    H137655   0.910   7.511   4.617
12566TIP3    H237656   0.821   7.475   4.735
12567TIP3   OH237657   7.500   1.790   5.985
12567TIP3    H137658   7.491   1.874   6.029
12567TIP3    H237659   7.416   1.746   5.998
12568TIP3   OH237660   1.625   5.794   4.815
12568TIP3    H137661   1.645   5.805   4.722
12568TIP3    H237662   1.557   5.726   4.817
12569TIP3   OH237663   5.927   1.825   6.079
12569TIP3    H137664   5.906   1.895   6.141
12569TIP3    H237665   5.864   1.836   6.008
12570TIP3   OH237666   2.999   2.863   0.623
12570TIP3    H137667   2.987   2.885   0.715
12570TIP3    H237668   2.956   2.935   0.575
12571TIP3   OH237669   0.256   3.260   5.853
12571TIP3    H137670   0.186   3.195   5.865
12571TIP3    H237671   0.309   3.254   5.933
12572TIP3   OH237672   3.384   1.981   2.744
12572TIP3    H137673   3.397   1.972   2.839
12572TIP3    H237674   3.395   2.074   2.727
12573TIP3   OH237675   1.124   0.057   3.762
12573TIP3    H137676   1.167  -0.002   3.701
12573TIP3    H237677   1.185   0.131   3.770
12574TIP3   OH237678   0.432   6.175   5.340
12574TIP3    H137679   0.513   6.139   5.379
12574TIP3    H237680   0.438   6.269   5.355
12575TIP3   OH237681   6.223   2.771   3.709
12575TIP3    H137682   6.155   2.829   3.676
12575TIP3    H237683   6.178   2.689   3.728
12576TIP3   OH237684   2.003   6.515   0.977
12576TIP3    H137685   2.046   6.454   0.917
12576TIP3    H237686   1.915   6.526   0.942
12577TIP3   OH237687   0.282   2.197   0.919
12577TIP3    H137688   0.316   2.111   0.894
12577TIP3    H237689   0.278   2.246   0.837
12578TIP3   OH237690   4.137   3.429   1.870
12578TIP3    H137691   4.129   3.418   1.775
12578TIP3    H237692   4.053   3.465   1.897
12579TIP3   OH237693   6.392   6.865   1.468
12579TIP3    H137694   6.330   6.911   1.411
12579TIP3    H237695   6.350   6.781   1.486
12580TIP3   OH237696   2.912   1.993   5.443
12580TIP3    H137697   2.980   1.933   5.411
12580TIP3    H237698   2.882   2.039   5.364
12581TIP3   OH237699   5.917   6.719   2.971
12581TIP3    H137700   5.915   6.735   2.877
12581TIP3    H237701   6.006   6.689   2.989
12582TIP3   OH237702   7.148   7.323   5.942
12582TIP3    H137703   7.062   7.329   5.985
12582TIP3    H237704   7.135   7.257   5.874
12583TIP3   OH237705   3.531   3.496   2.660
12583TIP3    H137706   3.574   3.534   2.736
12583TIP3    H237707   3.448   3.543   2.653
12584TIP3   OH237708   6.869   7.084   4.789
12584TIP3    H137709   6.894   6.992   4.798
12584TIP3    H237710   6.776   7.087   4.810
12585TIP3   OH237711   5.912   2.493   4.725
12585TIP3    H137712   5.953   2.416   4.763
12585TIP3    H237713   5.859   2.530   4.796
12586TIP3   OH237714   2.385   3.211   2.144
12586TIP3    H137715   2.430   3.207   2.229
12586TIP3    H237716   2.416   3.292   2.105
12587TIP3   OH237717   4.963   1.867   2.016
12587TIP3    H137718   4.998   1.789   1.973
12587TIP3    H237719   5.034   1.930   2.011
12588TIP3   OH237720   7.428   6.203   1.815
12588TIP3    H137721   7.407   6.281   1.763
12588TIP3    H237722   7.427   6.131   1.752
12589TIP3   OH237723   2.989   5.305   3.054
12589TIP3    H137724   2.973   5.377   2.993
12589TIP3    H237725   2.923   5.317   3.123
12590TIP3   OH237726   1.528   1.895   2.266
12590TIP3    H137727   1.613   1.860   2.239
12590TIP3    H237728   1.466   1.859   2.202
12591TIP3   OH237729   7.878   3.581   0.071
12591TIP3    H137730   7.898   3.626  -0.011
12591TIP3    H237731   7.807   3.521   0.048
12592TIP3   OH237732   1.879   0.263   0.599
12592TIP3    H137733   1.899   0.221   0.683
12592TIP3    H237734   1.788   0.292   0.608
12593TIP3   OH237735   5.755   7.332   3.471
12593TIP3    H137736   5.791   7.261   3.418
12593TIP3    H237737   5.737   7.293   3.556
12594TIP3   OH237738   1.667   6.680   2.402
12594TIP3    H137739   1.666   6.753   2.340
12594TIP3    H237740   1.758   6.676   2.432
12595TIP3   OH237741   3.057   0.170   3.605
12595TIP3    H137742   3.093   0.140   3.689
12595TIP3    H237743   3.030   0.089   3.561
12596TIP3   OH237744   3.158   5.381   2.593
12596TIP3    H137745   3.077   5.340   2.622
12596TIP3    H237746   3.161   5.465   2.640
12597TIP3   OH237747   6.574   5.515   5.623
12597TIP3    H137748   6.495   5.494   5.673
12597TIP3    H237749   6.583   5.610   5.632
12598TIP3   OH237750   1.452   1.231   6.201
12598TIP3    H137751   1.509   1.266   6.269
12598TIP3    H237752   1.432   1.142   6.231
12599TIP3   OH237753   6.745   0.485   1.904
12599TIP3    H137754   6.656   0.470   1.872
12599TIP3    H237755   6.733   0.539   1.983
12600TIP3   OH237756   6.865   0.098   2.568
12600TIP3    H137757   6.879   0.189   2.540
12600TIP3    H237758   6.954   0.062   2.578
12601TIP3   OH237759   7.932   1.154   4.728
12601TIP3    H137760   7.897   1.237   4.761
12601TIP3    H237761   7.988   1.122   4.799
12602TIP3   OH237762   2.648   5.472   5.377
12602TIP3    H137763   2.624   5.490   5.286
12602TIP3    H237764   2.732   5.425   5.370
12603TIP3   OH237765   5.262   0.912   6.417
12603TIP3    H137766   5.345   0.866   6.430
12603TIP3    H237767   5.283   1.004   6.430
12604TIP3   OH237768   4.346   5.927   0.126
12604TIP3    H137769   4.286   5.867   0.171
12604TIP3    H237770   4.338   6.009   0.174
12605TIP3   OH237771   7.130   3.271   0.274
12605TIP3    H137772   7.087   3.253   0.358
12605TIP3    H237773   7.063   3.316   0.223
12606TIP3   OH237774   7.423   2.224   2.969
12606TIP3    H137775   7.502   2.173   2.952
12606TIP3    H237776   7.453   2.314   2.978
12607TIP3   OH237777   2.782   7.442   2.784
12607TIP3    H137778   2.831   7.366   2.815
12607TIP3    H237779   2.693   7.409   2.773
12608TIP3   OH237780   0.564   3.460   5.576
12608TIP3    H137781   0.608   3.544   5.559
12608TIP3    H237782   0.523   3.438   5.492
12609TIP3   OH237783   1.630   4.632   0.695
12609TIP3    H137784   1.635   4.656   0.603
12609TIP3    H237785   1.620   4.537   0.694
12610TIP3   OH237786   5.079   7.642   1.257
12610TIP3    H137787   5.137   7.573   1.291
12610TIP3    H237788   5.039   7.603   1.179
12611TIP3   OH237789   1.825   0.196   3.180
12611TIP3    H137790   1.920   0.187   3.171
12611TIP3    H237791   1.813   0.243   3.262
12612TIP3   OH237792   2.072   3.707   1.812
12612TIP3    H137793   2.150   3.658   1.784
12612TIP3    H237794   2.011   3.639   1.840
12613TIP3   OH237795   0.924   3.952   2.897
12613TIP3    H137796   0.943   4.046   2.891
12613TIP3    H237797   0.939   3.930   2.989
12614TIP3   OH237798   5.672   3.496   6.130
12614TIP3    H137799   5.616   3.571   6.111
12614TIP3    H237800   5.760   3.526   6.107
12615TIP3   OH237801   2.501   0.076   3.076
12615TIP3    H137802   2.521  -0.015   3.100
12615TIP3    H237803   2.580   0.125   3.099
12616TIP3   OH237804   3.720   6.583   1.396
12616TIP3    H137805   3.771   6.508   1.428
12616TIP3    H237806   3.737   6.652   1.460
12617TIP3   OH237807   7.898   0.202   3.104
12617TIP3    H137808   7.831   0.197   3.036
12617TIP3    H237809   7.907   0.295   3.123
12618TIP3   OH237810   3.752   4.852   5.142
12618TIP3    H137811   3.690   4.899   5.085
12618TIP3    H237812   3.697   4.794   5.195
12619TIP3   OH237813   6.140   4.344   2.568
12619TIP3    H137814   6.157   4.359   2.661
12619TIP3    H237815   6.086   4.419   2.542
12620TIP3   OH237816   5.692   1.713   1.350
12620TIP3    H137817   5.782   1.739   1.334
12620TIP3    H237818   5.655   1.698   1.263
12621TIP3   OH237819   6.566   7.042   2.664
12621TIP3    H137820   6.497   6.977   2.654
12621TIP3    H237821   6.603   7.052   2.576
12622TIP3   OH237822   7.694   4.254   2.976
12622TIP3    H137823   7.599   4.253   2.972
12622TIP3    H237824   7.715   4.329   3.032
12623TIP3   OH237825   7.517   0.205   5.836
12623TIP3    H137826   7.510   0.193   5.742
12623TIP3    H237827   7.427   0.198   5.868
12624TIP3   OH237828   8.075   6.726   2.800
12624TIP3    H137829   8.098   6.819   2.796
12624TIP3    H237830   7.980   6.726   2.813
12625TIP3   OH237831   5.233   6.029   4.862
12625TIP3    H137832   5.183   5.956   4.897
12625TIP3    H237833   5.217   6.101   4.923
12626TIP3   OH237834   4.236   2.330   4.598
12626TIP3    H137835   4.222   2.254   4.542
12626TIP3    H237836   4.265   2.399   4.538
12627TIP3   OH237837   8.092   0.846   1.956
12627TIP3    H137838   8.167   0.893   1.920
12627TIP3    H237839   8.132   0.775   2.007
12628TIP3   OH237840   6.558   7.655   3.011
12628TIP3    H137841   6.548   7.738   2.966
12628TIP3    H237842   6.468   7.626   3.028
12629TIP3   OH237843   4.182   0.421   4.225
12629TIP3    H137844   4.176   0.385   4.137
12629TIP3    H237845   4.176   0.516   4.213
12630TIP3   OH237846   0.268   4.894   3.582
12630TIP3    H137847   0.220   4.814   3.558
12630TIP3    H237848   0.199   4.955   3.610
12631TIP3   OH237849   6.520   2.852   5.172
12631TIP3    H137850   6.523   2.854   5.076
12631TIP3    H237851   6.606   2.883   5.200
12632TIP3   OH237852   6.126   0.090   4.090
12632TIP3    H137853   6.163   0.004   4.074
12632TIP3    H237854   6.032   0.077   4.089
12633TIP3   OH237855   2.252   6.969   3.100
12633TIP3    H137856   2.208   6.971   3.185
12633TIP3    H237857   2.203   7.032   3.047
12634TIP3   OH237858   3.769   5.051   0.121
12634TIP3    H137859   3.714   5.129   0.118
12634TIP3    H237860   3.720   4.985   0.073
12635TIP3   OH237861   8.099   6.253   4.195
12635TIP3    H137862   8.125   6.343   4.213
12635TIP3    H237863   8.117   6.206   4.277
12636TIP3   OH237864   3.844   3.815   4.228
12636TIP3    H137865   3.921   3.869   4.246
12636TIP3    H237866   3.823   3.833   4.137
12637TIP3   OH237867   2.055   1.365   5.966
12637TIP3    H137868   2.108   1.287   5.953
12637TIP3    H237869   2.077   1.394   6.054
12638TIP3   OH237870   3.162   4.792   0.751
12638TIP3    H137871   3.098   4.725   0.728
12638TIP3    H237872   3.134   4.824   0.837
12639TIP3   OH237873   0.190   6.784   4.850
12639TIP3    H137874   0.155   6.859   4.803
12639TIP3    H237875   0.250   6.742   4.788
12640TIP3   OH237876   4.153   1.505   6.086
12640TIP3    H137877   4.104   1.552   6.154
12640TIP3    H237878   4.163   1.569   6.016
12641TIP3   OH237879   4.981   4.726   0.225
12641TIP3    H137880   4.965   4.723   0.320
12641TIP3    H237881   5.053   4.787   0.214
12642TIP3   OH237882   0.946   1.324   0.140
12642TIP3    H137883   0.990   1.340   0.224
12642TIP3    H237884   0.916   1.233   0.146
12643TIP3   OH237885   0.511   3.312   3.096
12643TIP3    H137886   0.443   3.246   3.099
12643TIP3    H237887   0.474   3.387   3.143
12644TIP3   OH237888   0.313   0.808   5.556
12644TIP3    H137889   0.384   0.744   5.555
12644TIP3    H237890   0.291   0.818   5.649
12645TIP3   OH237891   7.969   5.886   3.399
12645TIP3    H137892   8.012   5.913   3.317
12645TIP3    H237893   7.892   5.837   3.370
12646TIP3   OH237894   0.483   7.728   6.134
12646TIP3    H137895   0.538   7.795   6.175
12646TIP3    H237896   0.405   7.776   6.107
12647TIP3   OH237897   4.258   6.277   5.960
12647TIP3    H137898   4.321   6.251   5.893
12647TIP3    H237899   4.309   6.330   6.021
12648TIP3   OH237900   4.659   0.002   4.131
12648TIP3    H137901   4.726   0.054   4.176
12648TIP3    H237902   4.700  -0.022   4.047
12649TIP3   OH237903   5.779   6.842   5.295
12649TIP3    H137904   5.733   6.759   5.307
12649TIP3    H237905   5.754   6.872   5.208
12650TIP3   OH237906   3.530   0.775   5.481
12650TIP3    H137907   3.597   0.709   5.464
12650TIP3    H237908   3.553   0.848   5.423
12651TIP3   OH237909   0.453   0.732   5.175
12651TIP3    H137910   0.400   0.660   5.208
12651TIP3    H237911   0.527   0.689   5.131
12652TIP3   OH237912   3.970   4.704   5.382
12652TIP3    H137913   3.891   4.680   5.432
12652TIP3    H237914   3.983   4.797   5.403
12653TIP3   OH237915   7.954   7.001   3.309
12653TIP3    H137916   7.866   7.034   3.329
12653TIP3    H237917   8.006   7.080   3.295
12654TIP3   OH237918   1.800   3.024   4.023
12654TIP3    H137919   1.884   2.978   4.031
12654TIP3    H237920   1.806   3.070   3.939
12655TIP3   OH237921   3.139   7.006   2.071
12655TIP3    H137922   3.073   6.996   2.001
12655TIP3    H237923   3.091   7.046   2.143
12656TIP3   OH237924   4.835   2.866   2.109
12656TIP3    H137925   4.773   2.922   2.064
12656TIP3    H237926   4.895   2.836   2.041
12657TIP3   OH237927   4.793   5.349   2.805
12657TIP3    H137928   4.730   5.337   2.876
12657TIP3    H237929   4.779   5.274   2.747
12658TIP3   OH237930   0.699   7.388   0.754
12658TIP3    H137931   0.716   7.330   0.829
12658TIP3    H237932   0.634   7.341   0.702
12659TIP3   OH237933   6.111   2.860   2.494
12659TIP3    H137934   6.049   2.826   2.428
12659TIP3    H237935   6.190   2.880   2.444
12660TIP3   OH237936   2.993   5.761   0.574
12660TIP3    H137937   3.066   5.702   0.553
12660TIP3    H237938   2.915   5.707   0.566
12661TIP3   OH237939   6.848   6.247   4.813
12661TIP3    H137940   6.936   6.261   4.850
12661TIP3    H237941   6.789   6.256   4.887
12662TIP3   OH237942   7.782   6.899   1.365
12662TIP3    H137943   7.701   6.940   1.395
12662TIP3    H237944   7.788   6.818   1.415
12663TIP3   OH237945   4.034   1.934   3.675
12663TIP3    H137946   4.127   1.950   3.655
12663TIP3    H237947   3.988   2.004   3.629
12664TIP3   OH237948   4.517   4.177   3.379
12664TIP3    H137949   4.544   4.102   3.325
12664TIP3    H237950   4.599   4.217   3.407
12665TIP3   OH237951   4.665   6.394   3.145
12665TIP3    H137952   4.691   6.306   3.116
12665TIP3    H237953   4.618   6.380   3.227
12666TIP3   OH237954   1.703   0.033   5.506
12666TIP3    H137955   1.617   0.076   5.495
12666TIP3    H237956   1.736   0.023   5.417
12667TIP3   OH237957   7.632   0.971   3.575
12667TIP3    H137958   7.656   0.955   3.483
12667TIP3    H237959   7.568   1.042   3.571
12668TIP3   OH237960   6.275   7.409   2.781
12668TIP3    H137961   6.274   7.322   2.819
12668TIP3    H237962   6.183   7.434   2.774
12669TIP3   OH237963   6.816   4.017   1.302
12669TIP3    H137964   6.771   3.980   1.226
12669TIP3    H237965   6.751   4.074   1.342
12670TIP3   OH237966   7.847   1.079   6.573
12670TIP3    H137967   7.809   1.166   6.562
12670TIP3    H237968   7.901   1.066   6.495
12671TIP3   OH237969   7.227   5.073   4.119
12671TIP3    H137970   7.160   5.006   4.133
12671TIP3    H237971   7.293   5.030   4.064
12672TIP3   OH237972   0.880   4.599   0.465
12672TIP3    H137973   0.817   4.648   0.518
12672TIP3    H237974   0.963   4.608   0.512
12673TIP3   OH237975   0.954   1.283   3.669
12673TIP3    H137976   0.870   1.237   3.663
12673TIP3    H237977   1.017   1.221   3.633
12674TIP3   OH237978   2.912   1.983   3.149
12674TIP3    H137979   2.869   1.978   3.063
12674TIP3    H237980   2.978   1.914   3.147
12675TIP3   OH237981   1.189   0.352   1.113
12675TIP3    H137982   1.231   0.336   1.029
12675TIP3    H237983   1.216   0.441   1.138
12676TIP3   OH237984   4.733   4.870   0.599
12676TIP3    H137985   4.691   4.955   0.608
12676TIP3    H237986   4.732   4.833   0.687
12677TIP3   OH237987   5.166   1.997   3.897
12677TIP3    H137988   5.167   1.957   3.983
12677TIP3    H237989   5.142   2.088   3.913
12678TIP3   OH237990   0.508   7.780   3.506
12678TIP3    H137991   0.540   7.746   3.589
12678TIP3    H237992   0.428   7.730   3.489
12679TIP3   OH237993   5.601   0.236   2.313
12679TIP3    H137994   5.590   0.156   2.363
12679TIP3    H237995   5.690   0.231   2.279
12680TIP3   OH237996   6.476   1.221   3.474
12680TIP3    H137997   6.421   1.254   3.403
12680TIP3    H237998   6.426   1.149   3.512
12681TIP3   OH237999   2.711   1.078   0.750
12681TIP3    H138000   2.684   1.162   0.713
12681TIP3    H238001   2.662   1.013   0.700
12682TIP3   OH238002   0.331   5.381   3.254
12682TIP3    H138003   0.309   5.457   3.200
12682TIP3    H238004   0.345   5.310   3.191
12683TIP3   OH238005   5.718   3.529   3.374
12683TIP3    H138006   5.799   3.519   3.323
12683TIP3    H238007   5.744   3.512   3.464
12684TIP3   OH238008   3.799   7.671   1.804
12684TIP3    H138009   3.799   7.668   1.900
12684TIP3    H238010   3.754   7.753   1.782
12685TIP3   OH238011   5.533   1.397   5.710
12685TIP3    H138012   5.503   1.426   5.624
12685TIP3    H238013   5.579   1.472   5.747
12686TIP3   OH238014   7.149   5.740   0.614
12686TIP3    H138015   7.139   5.722   0.521
12686TIP3    H238016   7.217   5.680   0.643
12687TIP3   OH238017   2.757   4.466   5.636
12687TIP3    H138018   2.743   4.410   5.560
12687TIP3    H238019   2.851   4.459   5.654
12688TIP3   OH238020   4.441   1.625   4.838
12688TIP3    H138021   4.387   1.656   4.765
12688TIP3    H238022   4.483   1.704   4.872
12689TIP3   OH238023   1.344   7.163   0.196
12689TIP3    H138024   1.432   7.144   0.164
12689TIP3    H238025   1.289   7.159   0.117
12690TIP3   OH238026   6.001   0.401   1.386
12690TIP3    H138027   5.979   0.461   1.457
12690TIP3    H238028   5.951   0.434   1.311
12691TIP3   OH238029   5.973   0.745   2.818
12691TIP3    H138030   5.995   0.833   2.786
12691TIP3    H238031   5.920   0.761   2.896
12692TIP3   OH238032   8.020   1.932   5.793
12692TIP3    H138033   7.970   1.969   5.865
12692TIP3    H238034   8.035   1.841   5.819
12693TIP3   OH238035   1.768   6.560   4.136
12693TIP3    H138036   1.828   6.549   4.210
12693TIP3    H238037   1.757   6.654   4.128
12694TIP3   OH238038   3.164   0.506   6.321
12694TIP3    H138039   3.252   0.521   6.289
12694TIP3    H238040   3.175   0.451   6.398
12695TIP3   OH238041   2.933   1.387   1.001
12695TIP3    H138042   3.008   1.432   1.039
12695TIP3    H238043   2.903   1.445   0.930
12696TIP3   OH238044   2.230   4.173   3.711
12696TIP3    H138045   2.151   4.122   3.694
12696TIP3    H238046   2.300   4.108   3.718
12697TIP3   OH238047   7.290   0.907   2.838
12697TIP3    H138048   7.339   0.856   2.773
12697TIP3    H238049   7.290   0.996   2.804
12698TIP3   OH238050   0.796   5.449   5.098
12698TIP3    H138051   0.842   5.531   5.117
12698TIP3    H238052   0.708   5.477   5.072
12699TIP3   OH238053   3.340   0.675   2.632
12699TIP3    H138054   3.300   0.704   2.714
12699TIP3    H238055   3.296   0.727   2.564
12700TIP3   OH238056   2.770   2.894   2.045
12700TIP3    H138057   2.738   2.931   2.127
12700TIP3    H238058   2.759   2.800   2.055
12701TIP3   OH238059   4.555   4.015   5.863
12701TIP3    H138060   4.640   3.971   5.865
12701TIP3    H238061   4.508   3.980   5.938
12702TIP3   OH238062   2.354   2.143   2.697
12702TIP3    H138063   2.367   2.049   2.689
12702TIP3    H238064   2.436   2.181   2.664
12703TIP3   OH238065   5.707   4.191   0.888
12703TIP3    H138066   5.688   4.243   0.810
12703TIP3    H238067   5.802   4.186   0.891
12704TIP3   OH238068   2.058   5.017   1.599
12704TIP3    H138069   2.111   4.939   1.616
12704TIP3    H238070   2.001   4.992   1.526
12705TIP3   OH238071   3.837   5.618   5.229
12705TIP3    H138072   3.904   5.556   5.260
12705TIP3    H238073   3.782   5.634   5.306
12706TIP3   OH238074   4.053   2.623   4.679
12706TIP3    H138075   4.117   2.584   4.738
12706TIP3    H238076   4.083   2.714   4.668
12707TIP3   OH238077   3.157   7.742   1.956
12707TIP3    H138078   3.089   7.699   2.008
12707TIP3    H238079   3.161   7.693   1.874
12708TIP3   OH238080   7.293   5.703   5.058
12708TIP3    H138081   7.358   5.757   5.102
12708TIP3    H238082   7.285   5.625   5.113
12709TIP3   OH238083   7.230   6.460   0.365
12709TIP3    H138084   7.315   6.415   0.366
12709TIP3    H238085   7.240   6.530   0.429
12710TIP3   OH238086   5.949   5.601   1.415
12710TIP3    H138087   5.902   5.620   1.333
12710TIP3    H238088   6.042   5.601   1.390
12711TIP3   OH238089   2.477   0.765   4.133
12711TIP3    H138090   2.393   0.806   4.152
12711TIP3    H238091   2.504   0.727   4.217
12712TIP3   OH238092   4.356   4.750   2.048
12712TIP3    H138093   4.333   4.657   2.040
12712TIP3    H238094   4.400   4.771   1.966
12713TIP3   OH238095   7.852   6.675   1.566
12713TIP3    H138096   7.923   6.634   1.517
12713TIP3    H238097   7.781   6.612   1.563
12714TIP3   OH238098   5.743   0.071   5.135
12714TIP3    H138099   5.667   0.101   5.084
12714TIP3    H238100   5.810   0.052   5.070
12715TIP3   OH238101   0.158   6.658   0.534
12715TIP3    H138102   0.164   6.671   0.629
12715TIP3    H238103   0.184   6.743   0.497
12716TIP3   OH238104   7.935   5.420   2.755
12716TIP3    H138105   7.927   5.472   2.835
12716TIP3    H238106   7.933   5.484   2.684
12717TIP3   OH238107   4.355   3.173   1.197
12717TIP3    H138108   4.446   3.198   1.216
12717TIP3    H238109   4.306   3.255   1.205
12718TIP3   OH238110   0.137   2.806   4.090
12718TIP3    H138111   0.124   2.818   3.996
12718TIP3    H238112   0.203   2.870   4.114
12719TIP3   OH238113   0.118   4.458   4.008
12719TIP3    H138114   0.094   4.395   4.076
12719TIP3    H238115   0.073   4.539   4.033
12720TIP3   OH238116   5.012   2.265   5.851
12720TIP3    H138117   5.101   2.292   5.873
12720TIP3    H238118   4.981   2.331   5.790
12721TIP3   OH238119   0.777   6.830   6.671
12721TIP3    H138120   0.782   6.876   6.587
12721TIP3    H238121   0.776   6.899   6.737
12722TIP3   OH238122   5.127   5.399   4.895
12722TIP3    H138123   5.142   5.399   4.800
12722TIP3    H238124   5.105   5.308   4.915
12723TIP3   OH238125   2.693   2.432   6.501
12723TIP3    H138126   2.598   2.415   6.499
12723TIP3    H238127   2.719   2.429   6.409
12724TIP3   OH238128   5.244   2.511   1.889
12724TIP3    H138129   5.302   2.588   1.890
12724TIP3    H238130   5.222   2.496   1.981
12725TIP3   OH238131   5.217   6.628   5.104
12725TIP3    H138132   5.301   6.600   5.067
12725TIP3    H238133   5.238   6.704   5.158
12726TIP3   OH238134   2.709   0.298   1.466
12726TIP3    H138135   2.800   0.327   1.471
12726TIP3    H238136   2.709   0.213   1.509
12727TIP3   OH238137   1.262   4.924   6.152
12727TIP3    H138138   1.354   4.911   6.173
12727TIP3    H238139   1.250   4.879   6.068
12728TIP3   OH238140   3.879   2.675   1.223
12728TIP3    H138141   3.931   2.626   1.287
12728TIP3    H238142   3.853   2.609   1.159
12729TIP3   OH238143   0.849   0.068   1.972
12729TIP3    H138144   0.887   0.140   2.022
12729TIP3    H238145   0.924   0.026   1.930
12730TIP3   OH238146   2.932   3.756   5.666
12730TIP3    H138147   2.958   3.664   5.659
12730TIP3    H238148   2.866   3.757   5.735
12731TIP3   OH238149   3.614   6.425   5.983
12731TIP3    H138150   3.578   6.502   5.939
12731TIP3    H238151   3.705   6.420   5.952
12732TIP3   OH238152   1.948   7.703   1.326
12732TIP3    H138153   1.859   7.701   1.292
12732TIP3    H238154   1.971   7.611   1.341
12733TIP3   OH238155   2.826   0.127   2.053
12733TIP3    H138156   2.894   0.192   2.034
12733TIP3    H238157   2.873   0.054   2.093
12734TIP3   OH238158   5.872   4.021   3.319
12734TIP3    H138159   5.928   3.945   3.328
12734TIP3    H238160   5.788   3.986   3.288
12735TIP3   OH238161   6.408   6.039   3.025
12735TIP3    H138162   6.425   6.059   2.933
12735TIP3    H238163   6.360   5.956   3.023
12736TIP3   OH238164   5.085   4.672   1.031
12736TIP3    H138165   5.043   4.594   0.996
12736TIP3    H238166   5.025   4.743   1.011
12737TIP3   OH238167   5.680   3.035   0.175
12737TIP3    H138168   5.751   3.020   0.237
12737TIP3    H238169   5.707   2.991   0.095
12738TIP3   OH238170   2.341   7.219   2.852
12738TIP3    H138171   2.314   7.310   2.859
12738TIP3    H238172   2.259   7.170   2.845
12739TIP3   OH238173   7.156   5.935   1.001
12739TIP3    H138174   7.166   5.862   0.939
12739TIP3    H238175   7.065   5.931   1.028
12740TIP3   OH238176   4.885   6.534   3.250
12740TIP3    H138177   4.885   6.600   3.181
12740TIP3    H238178   4.813   6.475   3.228
12741TIP3   OH238179   0.423   5.149   3.167
12741TIP3    H138180   0.455   5.135   3.078
12741TIP3    H238181   0.385   5.065   3.193
12742TIP3   OH238182   6.504   3.697   3.934
12742TIP3    H138183   6.559   3.776   3.940
12742TIP3    H238184   6.433   3.721   3.875
12743TIP3   OH238185   5.674   4.392   0.009
12743TIP3    H138186   5.637   4.419  -0.075
12743TIP3    H238187   5.598   4.380   0.066
12744TIP3   OH238188   8.079   4.509   1.429
12744TIP3    H138189   8.022   4.432   1.438
12744TIP3    H238190   8.125   4.494   1.346
12745TIP3   OH238191   1.477   0.168   5.493
12745TIP3    H138192   1.467   0.224   5.570
12745TIP3    H238193   1.391   0.167   5.452
12746TIP3   OH238194   7.238   4.696   5.072
12746TIP3    H138195   7.300   4.624   5.058
12746TIP3    H238196   7.153   4.658   5.052
12747TIP3   OH238197   0.633   7.345   3.625
12747TIP3    H138198   0.676   7.387   3.551
12747TIP3    H238199   0.674   7.259   3.632
12748TIP3   OH238200   4.839   5.391   0.470
12748TIP3    H138201   4.794   5.390   0.386
12748TIP3    H238202   4.873   5.302   0.480
12749TIP3   OH238203   2.246   6.147   3.875
12749TIP3    H138204   2.295   6.154   3.793
12749TIP3    H238205   2.198   6.064   3.868
12750TIP3   OH238206   5.593   5.524   3.490
12750TIP3    H138207   5.679   5.483   3.503
12750TIP3    H238208   5.605   5.614   3.520
12751TIP3   OH238209   7.567   5.320   2.027
12751TIP3    H138210   7.620   5.291   2.101
12751TIP3    H238211   7.626   5.374   1.975
12752TIP3   OH238212   7.716   2.226   1.240
12752TIP3    H138213   7.793   2.277   1.266
12752TIP3    H238214   7.659   2.290   1.199
12753TIP3   OH238215   2.952   5.537   2.908
12753TIP3    H138216   3.017   5.607   2.901
12753TIP3    H238217   2.868   5.582   2.900
12754TIP3   OH238218   3.751   6.526   6.237
12754TIP3    H138219   3.695   6.565   6.171
12754TIP3    H238220   3.784   6.600   6.288
12755TIP3   OH238221   7.874   4.066   0.446
12755TIP3    H138222   7.927   4.031   0.517
12755TIP3    H238223   7.934   4.123   0.397
12756TIP3   OH238224   5.477   3.068   3.812
12756TIP3    H138225   5.400   3.085   3.756
12756TIP3    H238226   5.463   3.123   3.889
12757TIP3   OH238227   2.496   1.607   0.196
12757TIP3    H138228   2.467   1.608   0.105
12757TIP3    H238229   2.538   1.692   0.209
12758TIP3   OH238230   8.064   7.368   2.396
12758TIP3    H138231   8.141   7.322   2.428
12758TIP3    H238232   7.999   7.356   2.465
12759TIP3   OH238233   7.495   4.058   6.014
12759TIP3    H138234   7.479   4.061   5.920
12759TIP3    H238235   7.470   3.970   6.041
12760TIP3   OH238236   1.535   3.973   2.149
12760TIP3    H138237   1.624   3.937   2.152
12760TIP3    H238238   1.479   3.897   2.137
12761TIP3   OH238239   2.681   2.606   5.879
12761TIP3    H138240   2.590   2.578   5.863
12761TIP3    H238241   2.674   2.669   5.950
12762TIP3   OH238242   3.277   3.251   2.344
12762TIP3    H138243   3.243   3.332   2.383
12762TIP3    H238244   3.364   3.275   2.313
12763TIP3   OH238245   0.550   1.859   3.889
12763TIP3    H138246   0.543   1.937   3.945
12763TIP3    H238247   0.611   1.885   3.820
12764TIP3   OH238248   4.162   2.455   1.865
12764TIP3    H138249   4.237   2.510   1.843
12764TIP3    H238250   4.108   2.456   1.786
12765TIP3   OH238251   7.186   0.369   3.550
12765TIP3    H138252   7.149   0.281   3.557
12765TIP3    H238253   7.129   0.414   3.488
12766TIP3   OH238254   2.805   6.890   5.603
12766TIP3    H138255   2.773   6.947   5.533
12766TIP3    H238256   2.736   6.825   5.614
12767TIP3   OH238257   5.754   3.574   2.961
12767TIP3    H138258   5.836   3.555   2.916
12767TIP3    H238259   5.728   3.491   3.000
12768TIP3   OH238260   8.078   6.644   5.559
12768TIP3    H138261   8.064   6.668   5.468
12768TIP3    H238262   8.010   6.579   5.578
12769TIP3   OH238263   7.694   5.912   2.647
12769TIP3    H138264   7.789   5.906   2.654
12769TIP3    H238265   7.677   6.005   2.628
12770TIP3   OH238266   3.117   6.668   4.017
12770TIP3    H138267   3.152   6.595   4.069
12770TIP3    H238268   3.190   6.729   4.009
12771TIP3   OH238269   7.222   5.817   1.677
12771TIP3    H138270   7.137   5.858   1.689
12771TIP3    H238271   7.228   5.799   1.583
12772TIP3   OH238272   4.299   6.832   5.053
12772TIP3    H138273   4.213   6.805   5.085
12772TIP3    H238274   4.358   6.762   5.079
12773TIP3   OH238275   4.851   7.726   6.623
12773TIP3    H138276   4.811   7.806   6.590
12773TIP3    H238277   4.784   7.659   6.611
12774TIP3   OH238278   0.937   7.062   6.205
12774TIP3    H138279   0.994   7.072   6.129
12774TIP3    H238280   0.851   7.090   6.174
12775TIP3   OH238281   4.248   0.958   2.986
12775TIP3    H138282   4.223   0.897   3.054
12775TIP3    H238283   4.202   1.039   3.008
12776TIP3   OH238284   2.534   4.179   0.923
12776TIP3    H138285   2.598   4.144   0.985
12776TIP3    H238286   2.455   4.192   0.976
12777TIP3   OH238287   3.007   5.829   6.296
12777TIP3    H138288   3.090   5.860   6.332
12777TIP3    H238289   2.965   5.908   6.262
12778TIP3   OH238290   2.562   4.890   6.257
12778TIP3    H138291   2.468   4.911   6.259
12778TIP3    H238292   2.576   4.854   6.169
12779TIP3   OH238293   4.129   1.361   3.277
12779TIP3    H138294   4.221   1.342   3.297
12779TIP3    H238295   4.101   1.419   3.348
12780TIP3   OH238296   1.335   7.338   2.058
12780TIP3    H138297   1.296   7.372   2.139
12780TIP3    H238298   1.387   7.262   2.086
12781TIP3   OH238299   3.694   0.209   0.484
12781TIP3    H138300   3.668   0.299   0.506
12781TIP3    H238301   3.748   0.181   0.557
12782TIP3   OH238302   6.230   3.881   4.052
12782TIP3    H138303   6.155   3.922   4.094
12782TIP3    H238304   6.220   3.904   3.959
12783TIP3   OH238305   1.716   1.521   4.029
12783TIP3    H138306   1.712   1.425   4.033
12783TIP3    H238307   1.707   1.549   4.119
12784TIP3   OH238308   3.996   3.280   4.373
12784TIP3    H138309   4.003   3.186   4.390
12784TIP3    H238310   4.048   3.294   4.295
12785TIP3   OH238311   3.175   0.062   1.482
12785TIP3    H138312   3.175  -0.020   1.532
12785TIP3    H238313   3.124   0.123   1.535
12786TIP3   OH238314   6.842   0.146   5.300
12786TIP3    H138315   6.869   0.207   5.231
12786TIP3    H238316   6.916   0.143   5.361
12787TIP3   OH238317   3.506   5.374   3.945
12787TIP3    H138318   3.485   5.467   3.930
12787TIP3    H238319   3.493   5.362   4.039
12788TIP3   OH238320   3.488   1.536   4.274
12788TIP3    H138321   3.517   1.502   4.190
12788TIP3    H238322   3.393   1.545   4.265
12789TIP3   OH238323   4.036   5.999   3.002
12789TIP3    H138324   4.038   6.007   2.907
12789TIP3    H238325   3.951   5.959   3.021
12790TIP3   OH238326   6.561   4.659   6.594
12790TIP3    H138327   6.597   4.748   6.596
12790TIP3    H238328   6.519   4.649   6.679
12791TIP3   OH238329   4.447   3.787   1.026
12791TIP3    H138330   4.540   3.767   1.038
12791TIP3    H238331   4.415   3.719   0.967
12792TIP3   OH238332   0.235   5.522   0.112
12792TIP3    H138333   0.180   5.446   0.093
12792TIP3    H238334   0.193   5.564   0.187
12793TIP3   OH238335   8.166   2.921   0.789
12793TIP3    H138336   8.097   2.858   0.807
12793TIP3    H238337   8.185   2.909   0.696
12794TIP3   OH238338   5.588   3.658   1.268
12794TIP3    H138339   5.549   3.574   1.241
12794TIP3    H238340   5.682   3.642   1.265
12795TIP3   OH238341   1.101   0.182   5.989
12795TIP3    H138342   1.063   0.267   5.969
12795TIP3    H238343   1.184   0.181   5.940
12796TIP3   OH238344   6.631   3.170   2.094
12796TIP3    H138345   6.691   3.146   2.164
12796TIP3    H238346   6.544   3.157   2.132
12797TIP3   OH238347   5.578   1.166   5.839
12797TIP3    H138348   5.558   1.247   5.792
12797TIP3    H238349   5.673   1.155   5.828
12798TIP3   OH238350   5.798   3.254   2.090
12798TIP3    H138351   5.842   3.175   2.059
12798TIP3    H238352   5.768   3.232   2.178
12799TIP3   OH238353   7.986   7.761   6.182
12799TIP3    H138354   7.937   7.797   6.109
12799TIP3    H238355   7.993   7.833   6.245
12800TIP3   OH238356   5.885   4.618   0.542
12800TIP3    H138357   5.931   4.548   0.496
12800TIP3    H238358   5.802   4.627   0.495
12801TIP3   OH238359   3.978   1.470   1.249
12801TIP3    H138360   3.891   1.454   1.213
12801TIP3    H238361   3.972   1.441   1.340
12802TIP3   OH238362   2.274   7.234   2.371
12802TIP3    H138363   2.344   7.254   2.434
12802TIP3    H238364   2.258   7.141   2.384
12803TIP3   OH238365   6.935   5.865   4.503
12803TIP3    H138366   6.959   5.938   4.447
12803TIP3    H238367   6.901   5.907   4.583
12804TIP3   OH238368   7.404   1.058   1.041
12804TIP3    H138369   7.468   1.126   1.064
12804TIP3    H238370   7.382   1.017   1.125
12805TIP3   OH238371   1.163   5.907   6.724
12805TIP3    H138372   1.111   5.843   6.772
12805TIP3    H238373   1.180   5.977   6.788
12806TIP3   OH238374   2.579   0.334   0.728
12806TIP3    H138375   2.636   0.387   0.673
12806TIP3    H238376   2.589   0.245   0.695
12807TIP3   OH238377   2.509   7.234   1.841
12807TIP3    H138378   2.452   7.224   1.765
12807TIP3    H238379   2.514   7.147   1.879
12808TIP3   OH238380   6.802   5.386   3.413
12808TIP3    H138381   6.857   5.347   3.481
12808TIP3    H238382   6.832   5.345   3.332
12809TIP3   OH238383   5.832   4.745   0.063
12809TIP3    H138384   5.901   4.802   0.029
12809TIP3    H238385   5.867   4.657   0.056
12810TIP3   OH238386   7.622   4.338   6.364
12810TIP3    H138387   7.673   4.416   6.386
12810TIP3    H238388   7.588   4.357   6.276
12811TIP3   OH238389   5.493   7.749   5.173
12811TIP3    H138390   5.496   7.654   5.163
12811TIP3    H238391   5.401   7.771   5.158
12812TIP3   OH238392   3.875   0.785   3.932
12812TIP3    H138393   3.968   0.800   3.949
12812TIP3    H238394   3.870   0.763   3.839
12813TIP3   OH238395   6.380   2.523   5.811
12813TIP3    H138396   6.319   2.551   5.879
12813TIP3    H238397   6.355   2.574   5.734
12814TIP3   OH238398   7.671   4.277   3.492
12814TIP3    H138399   7.629   4.201   3.533
12814TIP3    H238400   7.725   4.239   3.423
12815TIP3   OH238401   3.254   7.645   1.582
12815TIP3    H138402   3.299   7.565   1.610
12815TIP3    H238403   3.195   7.616   1.513
12816TIP3   OH238404   1.944   7.728   6.384
12816TIP3    H138405   1.902   7.682   6.457
12816TIP3    H238406   1.880   7.794   6.358
12817TIP3   OH238407   7.842   5.226   3.823
12817TIP3    H138408   7.879   5.137   3.826
12817TIP3    H238409   7.758   5.218   3.869
12818TIP3   OH238410   0.256   5.484   5.907
12818TIP3    H138411   0.218   5.424   5.970
12818TIP3    H238412   0.287   5.429   5.835
12819TIP3   OH238413   5.151   6.404   2.868
12819TIP3    H138414   5.165   6.355   2.787
12819TIP3    H238415   5.057   6.423   2.869
12820TIP3   OH238416   6.245   1.528   2.300
12820TIP3    H138417   6.168   1.579   2.324
12820TIP3    H238418   6.255   1.541   2.206
12821TIP3   OH238419   6.083   7.654   5.342
12821TIP3    H138420   6.072   7.748   5.327
12821TIP3    H238421   6.174   7.645   5.370
12822TIP3   OH238422   7.708   5.037   0.126
12822TIP3    H138423   7.631   5.052   0.181
12822TIP3    H238424   7.671   5.016   0.040
12823TIP3   OH238425   2.417   2.968   3.581
12823TIP3    H138426   2.352   3.015   3.528
12823TIP3    H238427   2.462   3.037   3.630
12824TIP3   OH238428   4.530   4.322   5.874
12824TIP3    H138429   4.449   4.336   5.922
12824TIP3    H238430   4.596   4.309   5.942
12825TIP3   OH238431   3.094   6.688   3.405
12825TIP3    H138432   3.153   6.743   3.354
12825TIP3    H238433   3.129   6.600   3.395
12826TIP3   OH238434   0.886   0.360   1.343
12826TIP3    H138435   0.890   0.456   1.347
12826TIP3    H238436   0.957   0.331   1.401
12827TIP3   OH238437   7.865   1.301   6.049
12827TIP3    H138438   7.948   1.254   6.039
12827TIP3    H238439   7.890   1.383   6.091
12828TIP3   OH238440   0.508   7.175   1.679
12828TIP3    H138441   0.531   7.159   1.771
12828TIP3    H238442   0.549   7.103   1.631
12829TIP3   OH238443   3.544   4.404   4.794
12829TIP3    H138444   3.568   4.409   4.701
12829TIP3    H238445   3.586   4.480   4.833
12830TIP3   OH238446   2.535   3.587   1.729
12830TIP3    H138447   2.563   3.509   1.681
12830TIP3    H238448   2.598   3.595   1.801
12831TIP3   OH238449   1.462   1.582   3.862
12831TIP3    H138450   1.503   1.573   3.776
12831TIP3    H238451   1.535   1.575   3.924
12832TIP3   OH238452   5.840   5.929   3.679
12832TIP3    H138453   5.748   5.903   3.674
12832TIP3    H238454   5.888   5.846   3.682
12833TIP3   OH238455   5.035   2.870   3.731
12833TIP3    H138456   4.963   2.888   3.790
12833TIP3    H238457   5.022   2.931   3.658
12834TIP3   OH238458   3.015   2.976   0.878
12834TIP3    H138459   3.096   2.926   0.889
12834TIP3    H238460   2.973   2.971   0.964
12835TIP3   OH238461   7.901   1.056   3.239
12835TIP3    H138462   7.865   1.107   3.166
12835TIP3    H238463   7.950   1.120   3.290
12836TIP3   OH238464   4.393   4.201   6.224
12836TIP3    H138465   4.314   4.149   6.211
12836TIP3    H238466   4.363   4.292   6.224
12837TIP3   OH238467   4.161   7.244   6.139
12837TIP3    H138468   4.222   7.318   6.143
12837TIP3    H238469   4.145   7.222   6.231
12838TIP3   OH238470   1.599   4.687   6.744
12838TIP3    H138471   1.570   4.718   6.830
12838TIP3    H238472   1.522   4.643   6.707
12839TIP3   OH238473   2.598   5.922   6.552
12839TIP3    H138474   2.657   5.964   6.489
12839TIP3    H238475   2.564   5.845   6.506
12840TIP3   OH238476   4.657   7.118   2.751
12840TIP3    H138477   4.723   7.052   2.774
12840TIP3    H238478   4.575   7.083   2.785
12841TIP3   OH238479   3.267   5.905   4.128
12841TIP3    H138480   3.267   5.983   4.074
12841TIP3    H238481   3.217   5.841   4.077
12842TIP3   OH238482   3.183   1.086   0.347
12842TIP3    H138483   3.094   1.060   0.368
12842TIP3    H238484   3.234   1.064   0.424
12843TIP3   OH238485   4.509   6.298   4.308
12843TIP3    H138486   4.490   6.321   4.217
12843TIP3    H238487   4.578   6.359   4.334
12844TIP3   OH238488   2.814   6.364   3.566
12844TIP3    H138489   2.832   6.280   3.523
12844TIP3    H238490   2.897   6.388   3.607
12845TIP3   OH238491   5.205   1.432   2.042
12845TIP3    H138492   5.184   1.339   2.047
12845TIP3    H238493   5.192   1.465   2.130
12846TIP3   OH238494   4.126   1.954   5.728
12846TIP3    H138495   4.147   2.029   5.784
12846TIP3    H238496   4.162   1.978   5.642
12847TIP3   OH238497   5.771   5.015   5.426
12847TIP3    H138498   5.755   5.062   5.344
12847TIP3    H238499   5.788   4.925   5.399
12848TIP3   OH238500   4.411   1.914   4.307
12848TIP3    H138501   4.458   1.845   4.354
12848TIP3    H238502   4.385   1.874   4.224
12849TIP3   OH238503   2.081   6.124   4.902
12849TIP3    H138504   2.143   6.151   4.835
12849TIP3    H238505   2.014   6.074   4.855
12850TIP3   OH238506   2.964   4.972   3.285
12850TIP3    H138507   2.963   4.990   3.191
12850TIP3    H238508   3.057   4.968   3.307
12851TIP3   OH238509   4.465   3.084   3.283
12851TIP3    H138510   4.397   3.151   3.277
12851TIP3    H238511   4.453   3.045   3.370
12852TIP3   OH238512   2.590   1.064   4.789
12852TIP3    H138513   2.596   0.974   4.758
12852TIP3    H238514   2.499   1.074   4.819
12853TIP3   OH238515   3.995   0.525   1.937
12853TIP3    H138516   3.932   0.546   2.006
12853TIP3    H238517   3.978   0.433   1.917
12854TIP3   OH238518   0.189   7.644   2.483
12854TIP3    H138519   0.259   7.609   2.428
12854TIP3    H238520   0.234   7.707   2.541
12855TIP3   OH238521   4.972   7.321   4.229
12855TIP3    H138522   5.045   7.259   4.236
12855TIP3    H238523   4.927   7.294   4.149
12856TIP3   OH238524   6.451   7.075   2.287
12856TIP3    H138525   6.407   7.160   2.280
12856TIP3    H238526   6.389   7.020   2.336
12857TIP3   OH238527   4.831   6.136   4.477
12857TIP3    H138528   4.907   6.127   4.534
12857TIP3    H238529   4.763   6.174   4.532
12858TIP3   OH238530   5.141   3.447   1.035
12858TIP3    H138531   5.199   3.511   1.077
12858TIP3    H238532   5.162   3.454   0.942
12859TIP3   OH238533   0.007   3.444   4.035
12859TIP3    H138534   0.085   3.420   4.084
12859TIP3    H238535  -0.065   3.402   4.082
12860TIP3   OH238536   0.707   3.011   1.994
12860TIP3    H138537   0.734   3.093   1.952
12860TIP3    H238538   0.646   3.038   2.062
12861TIP3   OH238539   1.333   7.267   3.242
12861TIP3    H138540   1.315   7.285   3.150
12861TIP3    H238541   1.394   7.336   3.268
12862TIP3   OH238542   4.517   5.777   6.615
12862TIP3    H138543   4.531   5.836   6.688
12862TIP3    H238544   4.462   5.707   6.651
12863TIP3   OH238545   3.123   2.425   2.152
12863TIP3    H138546   3.196   2.436   2.091
12863TIP3    H238547   3.046   2.419   2.096
12864TIP3   OH238548   1.265   2.545   4.596
12864TIP3    H138549   1.338   2.590   4.639
12864TIP3    H238550   1.215   2.507   4.668
12865TIP3   OH238551   4.604   5.446   5.473
12865TIP3    H138552   4.609   5.395   5.554
12865TIP3    H238553   4.575   5.383   5.407
12866TIP3   OH238554   5.600   1.166   1.622
12866TIP3    H138555   5.688   1.130   1.634
12866TIP3    H238556   5.602   1.208   1.536
12867TIP3   OH238557   2.711   5.461   2.593
12867TIP3    H138558   2.678   5.447   2.504
12867TIP3    H238559   2.638   5.436   2.650
12868TIP3   OH238560   2.013   3.380   3.245
12868TIP3    H138561   2.006   3.361   3.339
12868TIP3    H238562   2.066   3.459   3.241
12869TIP3   OH238563   6.560   1.540   2.597
12869TIP3    H138564   6.641   1.564   2.641
12869TIP3    H238565   6.562   1.445   2.592
12870TIP3   OH238566   4.131   1.328   2.796
12870TIP3    H138567   4.226   1.324   2.803
12870TIP3    H238568   4.115   1.356   2.706
12871TIP3   OH238569   5.405   1.632   1.016
12871TIP3    H138570   5.496   1.658   1.005
12871TIP3    H238571   5.371   1.628   0.927
12872TIP3   OH238572   3.574   1.903   3.016
12872TIP3    H138573   3.493   1.953   3.028
12872TIP3    H238574   3.546   1.812   3.017
12873TIP3   OH238575   4.040   1.120   6.382
12873TIP3    H138576   4.087   1.203   6.378
12873TIP3    H238577   4.094   1.064   6.437
12874TIP3   OH238578   6.148   6.820   0.973
12874TIP3    H138579   6.227   6.784   0.932
12874TIP3    H238580   6.088   6.746   0.979
12875TIP3   OH238581   2.504   3.337   6.172
12875TIP3    H138582   2.481   3.406   6.109
12875TIP3    H238583   2.597   3.353   6.190
12876TIP3   OH238584   0.782   7.333   6.011
12876TIP3    H138585   0.746   7.250   6.043
12876TIP3    H238586   0.711   7.373   5.960
12877TIP3   OH238587   6.302   0.644   5.861
12877TIP3    H138588   6.340   0.571   5.910
12877TIP3    H238589   6.303   0.717   5.922
12878TIP3   OH238590   0.623   1.976   6.357
12878TIP3    H138591   0.704   2.010   6.396
12878TIP3    H238592   0.594   2.046   6.299
12879TIP3   OH238593   0.429   6.759   1.456
12879TIP3    H138594   0.353   6.729   1.407
12879TIP3    H238595   0.395   6.777   1.544
12880TIP3   OH238596   4.812   3.071   4.280
12880TIP3    H138597   4.739   3.019   4.314
12880TIP3    H238598   4.889   3.018   4.299
12881TIP3   OH238599   5.080   2.592   3.642
12881TIP3    H138600   5.038   2.552   3.718
12881TIP3    H238601   5.067   2.686   3.655
12882TIP3   OH238602   4.041   0.603   4.938
12882TIP3    H138603   4.120   0.621   4.989
12882TIP3    H238604   4.060   0.640   4.852
12883TIP3   OH238605   6.513   0.888   0.468
12883TIP3    H138606   6.486   0.969   0.512
12883TIP3    H238607   6.601   0.871   0.502
12884TIP3   OH238608   3.604   2.680   0.025
12884TIP3    H138609   3.640   2.765   0.048
12884TIP3    H238610   3.654   2.618   0.079
12885TIP3   OH238611   4.830   2.543   4.674
12885TIP3    H138612   4.761   2.562   4.611
12885TIP3    H238613   4.837   2.623   4.725
12886TIP3   OH238614   0.692   6.136   5.387
12886TIP3    H138615   0.738   6.055   5.408
12886TIP3    H238616   0.710   6.150   5.294
12887TIP3   OH238617   6.765   0.666   1.089
12887TIP3    H138618   6.675   0.697   1.099
12887TIP3    H238619   6.771   0.592   1.149
12888TIP3   OH238620   1.917   6.573   3.012
12888TIP3    H138621   1.921   6.640   3.080
12888TIP3    H238622   1.991   6.515   3.031
12889TIP3   OH238623   0.813   3.823   4.914
12889TIP3    H138624   0.891   3.876   4.898
12889TIP3    H238625   0.824   3.789   5.002
12890TIP3   OH238626   3.469   0.242   2.069
12890TIP3    H138627   3.475   0.150   2.043
12890TIP3    H238628   3.431   0.286   1.993
12891TIP3   OH238629   0.523   0.836   4.180
12891TIP3    H138630   0.438   0.843   4.224
12891TIP3    H238631   0.572   0.912   4.211
12892TIP3   OH238632   4.712   3.306   2.439
12892TIP3    H138633   4.767   3.278   2.512
12892TIP3    H238634   4.695   3.227   2.389
12893TIP3   OH238635   6.322   3.473   3.982
12893TIP3    H138636   6.379   3.407   3.944
12893TIP3    H238637   6.380   3.546   4.002
12894TIP3   OH238638   3.315   3.698   5.222
12894TIP3    H138639   3.259   3.621   5.213
12894TIP3    H238640   3.403   3.662   5.235
12895TIP3   OH238641   7.710   5.597   5.272
12895TIP3    H138642   7.648   5.661   5.309
12895TIP3    H238643   7.795   5.640   5.279
12896TIP3   OH238644   8.130   5.012   6.648
12896TIP3    H138645   8.209   5.055   6.682
12896TIP3    H238646   8.099   4.959   6.720
12897TIP3   OH238647   2.412   5.005   1.622
12897TIP3    H138648   2.346   5.056   1.669
12897TIP3    H238649   2.400   5.030   1.531
12898TIP3   OH238650   6.253   2.569   6.187
12898TIP3    H138651   6.169   2.540   6.151
12898TIP3    H238652   6.229   2.633   6.254
12899TIP3   OH238653   0.112   7.596   1.533
12899TIP3    H138654   0.047   7.582   1.464
12899TIP3    H238655   0.188   7.546   1.504
12900TIP3   OH238656   4.688   4.697   1.795
12900TIP3    H138657   4.597   4.722   1.810
12900TIP3    H238658   4.695   4.609   1.832
12901TIP3   OH238659   4.573   3.710   3.083
12901TIP3    H138660   4.572   3.634   3.141
12901TIP3    H238661   4.660   3.708   3.043
12902TIP3   OH238662   2.999   4.547   0.684
12902TIP3    H138663   2.964   4.541   0.595
12902TIP3    H238664   3.057   4.471   0.692
12903TIP3   OH238665   6.411   3.431   2.115
12903TIP3    H138666   6.437   3.402   2.027
12903TIP3    H238667   6.408   3.526   2.108
12904TIP3   OH238668   0.450   7.559   3.719
12904TIP3    H138669   0.519   7.498   3.692
12904TIP3    H238670   0.460   7.567   3.814
12905TIP3   OH238671   3.318   6.154   1.532
12905TIP3    H138672   3.286   6.102   1.606
12905TIP3    H238673   3.393   6.202   1.567
12906TIP3   OH238674   5.439   4.344   0.468
12906TIP3    H138675   5.377   4.371   0.400
12906TIP3    H238676   5.511   4.303   0.420
12907TIP3   OH238677   2.280   6.756   5.475
12907TIP3    H138678   2.355   6.716   5.432
12907TIP3    H238679   2.230   6.682   5.511
12908TIP3   OH238680   0.696   2.108   5.633
12908TIP3    H138681   0.756   2.108   5.707
12908TIP3    H238682   0.653   2.023   5.636
12909TIP3   OH238683   4.518   7.586   5.679
12909TIP3    H138684   4.481   7.581   5.591
12909TIP3    H238685   4.555   7.499   5.694
12910TIP3   OH238686   2.083   0.774   3.659
12910TIP3    H138687   1.992   0.804   3.664
12910TIP3    H238688   2.106   0.751   3.749
12911TIP3   OH238689   3.456   3.114   3.691
12911TIP3    H138690   3.546   3.144   3.702
12911TIP3    H238691   3.439   3.062   3.770
12912TIP3   OH238692   5.514   0.919   1.642
12912TIP3    H138693   5.568   0.996   1.623
12912TIP3    H238694   5.556   0.848   1.595
12913TIP3   OH238695   7.624   4.858   1.927
12913TIP3    H138696   7.658   4.839   2.014
12913TIP3    H238697   7.538   4.816   1.925
12914TIP3   OH238698   0.149   6.332   2.968
12914TIP3    H138699   0.070   6.382   2.949
12914TIP3    H238700   0.121   6.265   3.031
12915TIP3   OH238701   5.174   4.267   5.123
12915TIP3    H138702   5.189   4.173   5.127
12915TIP3    H238703   5.191   4.290   5.032
12916TIP3   OH238704   2.465   1.120   3.880
12916TIP3    H138705   2.438   1.212   3.888
12916TIP3    H238706   2.547   1.124   3.832
12917TIP3   OH238707   4.749   4.163   1.403
12917TIP3    H138708   4.801   4.101   1.454
12917TIP3    H238709   4.795   4.172   1.320
12918TIP3   OH238710   6.669   3.304   3.292
12918TIP3    H138711   6.725   3.265   3.225
12918TIP3    H238712   6.584   3.262   3.280
12919TIP3   OH238713   7.293   7.749   4.189
12919TIP3    H138714   7.337   7.666   4.174
12919TIP3    H238715   7.289   7.758   4.284
12920TIP3   OH238716   5.752   4.243   3.926
12920TIP3    H138717   5.789   4.289   4.001
12920TIP3    H238718   5.675   4.198   3.961
12921TIP3   OH238719   2.420   0.620   5.521
12921TIP3    H138720   2.430   0.527   5.502
12921TIP3    H238721   2.506   0.658   5.505
12922TIP3   OH238722   4.711   2.926   6.382
12922TIP3    H138723   4.690   2.834   6.368
12922TIP3    H238724   4.627   2.967   6.404
12923TIP3   OH238725   4.644   3.028   1.961
12923TIP3    H138726   4.676   3.086   2.030
12923TIP3    H238727   4.551   3.017   1.980
12924TIP3   OH238728   0.854   6.291   2.966
12924TIP3    H138729   0.814   6.218   3.013
12924TIP3    H238730   0.816   6.369   3.007
12925TIP3   OH238731   2.813   1.675   0.042
12925TIP3    H138732   2.795   1.737   0.113
12925TIP3    H238733   2.768   1.712  -0.034
12926TIP3   OH238734   1.285   2.935   2.870
12926TIP3    H138735   1.299   2.841   2.882
12926TIP3    H238736   1.226   2.942   2.795
12927TIP3   OH238737   7.006   3.619   0.551
12927TIP3    H138738   6.957   3.701   0.554
12927TIP3    H238739   7.077   3.635   0.490
12928TIP3   OH238740   6.697   4.439   1.455
12928TIP3    H138741   6.706   4.468   1.545
12928TIP3    H238742   6.603   4.444   1.437
12929TIP3   OH238743   2.119   0.842   6.088
12929TIP3    H138744   2.144   0.777   6.154
12929TIP3    H238745   2.187   0.836   6.022
12930TIP3   OH238746   1.457   5.629   6.565
12930TIP3    H138747   1.389   5.567   6.539
12930TIP3    H238748   1.522   5.575   6.610
12931TIP3   OH238749   2.625   3.964   0.563
12931TIP3    H138750   2.534   3.968   0.534
12931TIP3    H238751   2.676   3.959   0.481
12932TIP3   OH238752   7.030   4.796   6.249
12932TIP3    H138753   6.952   4.851   6.246
12932TIP3    H238754   7.103   4.858   6.248
12933TIP3   OH238755   5.182   6.434   2.416
12933TIP3    H138756   5.098   6.448   2.460
12933TIP3    H238757   5.160   6.389   2.334
12934TIP3   OH238758   6.089   5.231   1.822
12934TIP3    H138759   6.003   5.241   1.864
12934TIP3    H238760   6.098   5.309   1.767
12935TIP3   OH238761   0.085   1.666   3.022
12935TIP3    H138762   0.005   1.694   2.978
12935TIP3    H238763   0.120   1.596   2.967
12936TIP3   OH238764   3.857   0.193   2.988
12936TIP3    H138765   3.915   0.139   2.934
12936TIP3    H238766   3.832   0.136   3.061
12937TIP3   OH238767   2.267   1.998   1.656
12937TIP3    H138768   2.177   2.027   1.639
12937TIP3    H238769   2.257   1.914   1.700
12938TIP3   OH238770   7.952   2.898   5.616
12938TIP3    H138771   7.963   2.831   5.683
12938TIP3    H238772   7.989   2.977   5.655
12939TIP3   OH238773   0.605   2.474   2.175
12939TIP3    H138774   0.660   2.457   2.252
12939TIP3    H238775   0.667   2.497   2.106
12940TIP3   OH238776   3.596   0.710   4.941
12940TIP3    H138777   3.646   0.630   4.923
12940TIP3    H238778   3.650   0.759   5.002
12941TIP3   OH238779   0.611   0.909   4.472
12941TIP3    H138780   0.592   0.821   4.442
12941TIP3    H238781   0.669   0.946   4.406
12942TIP3   OH238782   6.191   2.138   6.240
12942TIP3    H138783   6.165   2.063   6.186
12942TIP3    H238784   6.257   2.184   6.189
12943TIP3   OH238785   5.409   1.204   0.688
12943TIP3    H138786   5.349   1.180   0.758
12943TIP3    H238787   5.424   1.298   0.701
12944TIP3   OH238788   2.350   5.871   1.401
12944TIP3    H138789   2.345   5.924   1.481
12944TIP3    H238790   2.338   5.934   1.330
12945TIP3   OH238791   1.566   3.140   6.285
12945TIP3    H138792   1.599   3.051   6.278
12945TIP3    H238793   1.475   3.135   6.255
12946TIP3   OH238794   2.728   1.173   1.880
12946TIP3    H138795   2.814   1.214   1.873
12946TIP3    H238796   2.745   1.080   1.869
12947TIP3   OH238797   3.687   0.158   4.947
12947TIP3    H138798   3.717   0.168   5.037
12947TIP3    H238799   3.760   0.117   4.901
12948TIP3   OH238800   0.935   2.111   4.896
12948TIP3    H138801   0.982   2.061   4.830
12948TIP3    H238802   1.000   2.172   4.932
12949TIP3   OH238803   1.092   5.003   3.118
12949TIP3    H138804   1.180   5.022   3.149
12949TIP3    H238805   1.036   5.021   3.194
12950TIP3   OH238806   3.344   1.642   0.718
12950TIP3    H138807   3.256   1.667   0.746
12950TIP3    H238808   3.395   1.640   0.799
12951TIP3   OH238809   1.091   4.548   3.584
12951TIP3    H138810   1.000   4.579   3.585
12951TIP3    H238811   1.087   4.462   3.544
12952TIP3   OH238812   0.412   6.926   1.211
12952TIP3    H138813   0.415   6.901   1.304
12952TIP3    H238814   0.471   7.001   1.204
12953TIP3   OH238815   0.482   4.898   2.380
12953TIP3    H138816   0.410   4.927   2.324
12953TIP3    H238817   0.527   4.979   2.405
12954TIP3   OH238818   5.298   1.782   3.779
12954TIP3    H138819   5.276   1.856   3.836
12954TIP3    H238820   5.308   1.708   3.840
12955TIP3   OH238821   1.488   2.792   5.284
12955TIP3    H138822   1.448   2.818   5.201
12955TIP3    H238823   1.552   2.725   5.260
12956TIP3   OH238824   1.400   7.086   3.718
12956TIP3    H138825   1.402   6.991   3.705
12956TIP3    H238826   1.324   7.116   3.669
12957TIP3   OH238827   1.011   5.014   6.157
12957TIP3    H138828   0.989   4.923   6.135
12957TIP3    H238829   1.107   5.013   6.166
12958TIP3   OH238830   2.219   2.796   0.060
12958TIP3    H138831   2.278   2.862   0.023
12958TIP3    H238832   2.274   2.717   0.068
12959TIP3   OH238833   7.150   6.339   2.884
12959TIP3    H138834   7.121   6.263   2.934
12959TIP3    H238835   7.162   6.306   2.795
12960TIP3   OH238836   7.233   1.700   5.700
12960TIP3    H138837   7.218   1.697   5.795
12960TIP3    H238838   7.177   1.772   5.669
12961TIP3   OH238839   4.282   7.532   5.871
12961TIP3    H138840   4.372   7.541   5.840
12961TIP3    H238841   4.240   7.614   5.846
12962TIP3   OH238842   2.811   3.888   0.123
12962TIP3    H138843   2.824   3.890   0.028
12962TIP3    H238844   2.757   3.810   0.138
12963TIP3   OH238845   2.920   0.776   6.054
12963TIP3    H138846   2.855   0.719   6.012
12963TIP3    H238847   3.004   0.739   6.028
12964TIP3   OH238848   1.242   5.539   1.030
12964TIP3    H138849   1.288   5.455   1.042
12964TIP3    H238850   1.172   5.519   0.967
12965TIP3   OH238851   1.586   0.926   1.778
12965TIP3    H138852   1.622   0.928   1.689
12965TIP3    H238853   1.626   0.850   1.819
12966TIP3   OH238854   2.616   4.852   1.748
12966TIP3    H138855   2.549   4.917   1.729
12966TIP3    H238856   2.696   4.903   1.763
12967TIP3   OH238857   2.021   1.586   4.243
12967TIP3    H138858   2.031   1.610   4.151
12967TIP3    H238859   2.054   1.661   4.292
12968TIP3   OH238860   6.006   5.011   5.205
12968TIP3    H138861   6.050   5.036   5.287
12968TIP3    H238862   5.917   5.045   5.215
12969TIP3   OH238863   6.941   1.344   2.807
12969TIP3    H138864   6.921   1.277   2.741
12969TIP3    H238865   6.909   1.426   2.769
12970TIP3   OH238866   1.532   2.346   5.112
12970TIP3    H138867   1.622   2.378   5.112
12970TIP3    H238868   1.498   2.367   5.199
12971TIP3   OH238869   4.399   3.864   3.281
12971TIP3    H138870   4.439   3.805   3.217
12971TIP3    H238871   4.305   3.859   3.262
12972TIP3   OH238872   5.887   5.675   4.445
12972TIP3    H138873   5.891   5.770   4.452
12972TIP3    H238874   5.970   5.650   4.405
12973TIP3   OH238875   7.537   7.439   0.208
12973TIP3    H138876   7.462   7.460   0.263
12973TIP3    H238877   7.588   7.520   0.204
12974TIP3   OH238878   4.270   3.012   5.724
12974TIP3    H138879   4.337   3.057   5.672
12974TIP3    H238880   4.312   2.995   5.808
12975TIP3   OH238881   6.570   2.554   3.703
12975TIP3    H138882   6.547   2.480   3.759
12975TIP3    H238883   6.569   2.518   3.614
12976TIP3   OH238884   1.553   1.263   3.652
12976TIP3    H138885   1.531   1.247   3.560
12976TIP3    H238886   1.609   1.341   3.649
12977TIP3   OH238887   0.057   0.518   0.142
12977TIP3    H138888  -0.013   0.584   0.137
12977TIP3    H238889   0.126   0.560   0.194
12978TIP3   OH238890   2.638   5.595   4.328
12978TIP3    H138891   2.677   5.622   4.412
12978TIP3    H238892   2.546   5.621   4.336
12979TIP3   OH238893   1.200   1.479   3.939
12979TIP3    H138894   1.281   1.530   3.943
12979TIP3    H238895   1.132   1.545   3.927
12980TIP3   OH238896   4.579   5.096   5.364
12980TIP3    H138897   4.492   5.096   5.323
12980TIP3    H238898   4.637   5.065   5.295
12981TIP3   OH238899   3.296   1.400   5.410
12981TIP3    H138900   3.348   1.480   5.418
12981TIP3    H238901   3.244   1.397   5.490
12982TIP3   OH238902   6.841   1.156   2.616
12982TIP3    H138903   6.849   1.112   2.532
12982TIP3    H238904   6.794   1.094   2.672
12983TIP3   OH238905   7.848   3.274   1.474
12983TIP3    H138906   7.818   3.364   1.471
12983TIP3    H238907   7.786   3.226   1.419
12984TIP3   OH238908   4.636   4.719   5.344
12984TIP3    H138909   4.623   4.669   5.263
12984TIP3    H238910   4.727   4.748   5.340
12985TIP3   OH238911   7.726   5.263   2.267
12985TIP3    H138912   7.761   5.198   2.206
12985TIP3    H238913   7.785   5.259   2.342
12986TIP3   OH238914   6.338   1.593   6.064
12986TIP3    H138915   6.328   1.666   6.003
12986TIP3    H238916   6.423   1.555   6.042
12987TIP3   OH238917   4.369   1.017   0.150
12987TIP3    H138918   4.302   1.076   0.118
12987TIP3    H238919   4.434   1.075   0.191
12988TIP3   OH238920   1.688   2.388   3.697
12988TIP3    H138921   1.652   2.312   3.653
12988TIP3    H238922   1.756   2.353   3.755
12989TIP3   OH238923   0.383   6.757   5.429
12989TIP3    H138924   0.443   6.734   5.500
12989TIP3    H238925   0.396   6.688   5.363
12990TIP3   OH238926   6.599   2.272   2.780
12990TIP3    H138927   6.562   2.213   2.715
12990TIP3    H238928   6.653   2.332   2.729
12991TIP3   OH238929   3.300   3.041   4.617
12991TIP3    H138930   3.245   3.094   4.675
12991TIP3    H238931   3.272   2.951   4.632
12992TIP3   OH238932   4.569   1.596   2.659
12992TIP3    H138933   4.618   1.565   2.735
12992TIP3    H238934   4.583   1.690   2.658
12993TIP3   OH238935   4.791   4.085   0.385
12993TIP3    H138936   4.744   4.050   0.310
12993TIP3    H238937   4.844   4.011   0.417
12994TIP3   OH238938   5.873   0.502   3.878
12994TIP3    H138939   5.880   0.413   3.843
12994TIP3    H238940   5.783   0.528   3.859
12995TIP3   OH238941   2.725   3.018   6.378
12995TIP3    H138942   2.742   2.928   6.349
12995TIP3    H238943   2.773   3.026   6.460
12996TIP3   OH238944   0.809   0.747   5.528
12996TIP3    H138945   0.768   0.678   5.476
12996TIP3    H238946   0.892   0.764   5.483
12997TIP3   OH238947   6.493   2.687   3.934
12997TIP3    H138948   6.480   2.777   3.904
12997TIP3    H238949   6.492   2.634   3.853
12998TIP3   OH238950   5.582   2.310   0.719
12998TIP3    H138951   5.625   2.391   0.690
12998TIP3    H238952   5.534   2.337   0.798
12999TIP3   OH238953   4.810   7.531   1.618
12999TIP3    H138954   4.764   7.564   1.696
12999TIP3    H238955   4.827   7.439   1.638
13000TIP3   OH238956   1.299   5.574   5.973
13000TIP3    H138957   1.247   5.494   5.960
13000TIP3    H238958   1.237   5.636   6.012
13001TIP3   OH238959   1.154   3.387   2.179
13001TIP3    H138960   1.232   3.350   2.137
13001TIP3    H238961   1.183   3.413   2.266
13002TIP3   OH238962   0.556   0.348   4.114
13002TIP3    H138963   0.544   0.441   4.098
13002TIP3    H238964   0.583   0.312   4.029
13003TIP3   OH238965   5.619   0.644   4.502
13003TIP3    H138966   5.641   0.614   4.414
13003TIP3    H238967   5.693   0.699   4.528
13004TIP3   OH238968   6.284   1.169   1.019
13004TIP3    H138969   6.297   1.128   0.934
13004TIP3    H238970   6.271   1.095   1.079
13005TIP3   OH238971   4.286   0.992   1.911
13005TIP3    H138972   4.296   0.928   1.841
13005TIP3    H238973   4.210   0.962   1.960
13006TIP3   OH238974   5.930   1.155   1.249
13006TIP3    H138975   5.862   1.107   1.298
13006TIP3    H238976   5.882   1.204   1.182
13007TIP3   OH238977   5.411   2.055   0.346
13007TIP3    H138978   5.366   2.110   0.281
13007TIP3    H238979   5.367   1.971   0.340
13008TIP3   OH238980   2.050   5.295   1.834
13008TIP3    H138981   1.968   5.258   1.800
13008TIP3    H238982   2.113   5.223   1.827
13009TIP3   OH238983   0.824   2.951   5.330
13009TIP3    H138984   0.819   2.985   5.241
13009TIP3    H238985   0.818   2.856   5.320
13010TIP3   OH238986   0.402   7.452   6.151
13010TIP3    H138987   0.389   7.438   6.245
13010TIP3    H238988   0.421   7.546   6.143
13011TIP3   OH238989   0.236   1.284   3.847
13011TIP3    H138990   0.258   1.368   3.887
13011TIP3    H238991   0.239   1.221   3.920
13012TIP3   OH238992   7.549   7.671   2.116
13012TIP3    H138993   7.471   7.695   2.165
13012TIP3    H238994   7.550   7.575   2.118
13013TIP3   OH238995   5.545   4.844   1.469
13013TIP3    H138996   5.553   4.828   1.563
13013TIP3    H238997   5.629   4.816   1.432
13014TIP3   OH238998   0.167   5.825   2.266
13014TIP3    H138999   0.116   5.853   2.190
13014TIP3    H239000   0.249   5.793   2.230
13015TIP3   OH239001   0.958   0.547   3.925
13015TIP3    H139002   0.897   0.609   3.967
13015TIP3    H239003   0.984   0.591   3.844
13016TIP3   OH239004   7.715   3.697   1.222
13016TIP3    H139005   7.729   3.739   1.138
13016TIP3    H239006   7.801   3.661   1.245
13017TIP3   OH239007   3.727   2.907   2.244
13017TIP3    H139008   3.764   2.990   2.212
13017TIP3    H239009   3.800   2.846   2.244
13018TIP3   OH239010   2.210   1.828   5.647
13018TIP3    H139011   2.284   1.864   5.697
13018TIP3    H239012   2.204   1.737   5.675
13019TIP3   OH239013   5.604   5.385   0.398
13019TIP3    H139014   5.645   5.468   0.422
13019TIP3    H239015   5.581   5.345   0.482
13020TIP3   OH239016   7.494   6.393   5.161
13020TIP3    H139017   7.519   6.401   5.253
13020TIP3    H239018   7.577   6.374   5.116
13021TIP3   OH239019   6.226   6.799   1.255
13021TIP3    H139020   6.193   6.836   1.173
13021TIP3    H239021   6.318   6.780   1.237
13022TIP3   OH239022   4.605   2.150   6.061
13022TIP3    H139023   4.656   2.211   6.007
13022TIP3    H239024   4.660   2.134   6.138
13023TIP3   OH239025   2.935   4.986   5.090
13023TIP3    H139026   2.954   5.066   5.042
13023TIP3    H239027   3.009   4.976   5.150
13024TIP3   OH239028   7.632   3.240   1.216
13024TIP3    H139029   7.553   3.200   1.252
13024TIP3    H239030   7.609   3.332   1.205
13025TIP3   OH239031   8.005   3.896   3.865
13025TIP3    H139032   8.092   3.908   3.903
13025TIP3    H239033   7.988   3.803   3.874
13026TIP3   OH239034   4.279   5.205   2.266
13026TIP3    H139035   4.216   5.142   2.299
13026TIP3    H239036   4.246   5.229   2.179
13027TIP3   OH239037   6.285   5.080   5.762
13027TIP3    H139038   6.363   5.122   5.796
13027TIP3    H239039   6.255   5.138   5.691
13028TIP3   OH239040   3.587   7.671   6.388
13028TIP3    H139041   3.528   7.743   6.407
13028TIP3    H239042   3.567   7.604   6.454
13029TIP3   OH239043   3.688   2.464   4.084
13029TIP3    H139044   3.708   2.519   4.159
13029TIP3    H239045   3.614   2.508   4.041
13030TIP3   OH239046   2.372   4.607   4.697
13030TIP3    H139047   2.314   4.678   4.671
13030TIP3    H239048   2.356   4.596   4.791
13031TIP3   OH239049   6.367   1.711   1.237
13031TIP3    H139050   6.424   1.676   1.306
13031TIP3    H239051   6.414   1.690   1.155
13032TIP3   OH239052   0.168   6.347   5.966
13032TIP3    H139053   0.255   6.320   5.993
13032TIP3    H239054   0.115   6.268   5.972
13033TIP3   OH239055   3.083   4.168   2.736
13033TIP3    H139056   3.174   4.195   2.750
13033TIP3    H239057   3.048   4.232   2.674
13034TIP3   OH239058   0.380   1.918   1.270
13034TIP3    H139059   0.469   1.951   1.256
13034TIP3    H239060   0.389   1.854   1.341
13035TIP3   OH239061   4.741   6.593   2.347
13035TIP3    H139062   4.778   6.680   2.363
13035TIP3    H239063   4.720   6.594   2.253
13036TIP3   OH239064   0.099   5.947   2.874
13036TIP3    H139065   0.137   5.951   2.787
13036TIP3    H239066   0.049   5.866   2.875
13037TIP3   OH239067   1.651   6.493   0.452
13037TIP3    H139068   1.619   6.404   0.462
13037TIP3    H239069   1.606   6.543   0.521
13038TIP3   OH239070   6.434   2.294   5.657
13038TIP3    H139071   6.410   2.349   5.731
13038TIP3    H239072   6.353   2.287   5.606
13039TIP3   OH239073   7.943   0.642   2.416
13039TIP3    H139074   7.862   0.596   2.395
13039TIP3    H239075   8.008   0.606   2.356
13040TIP3   OH239076   2.028   7.293   2.660
13040TIP3    H139077   2.103   7.348   2.636
13040TIP3    H239078   2.020   7.303   2.754
13041TIP3   OH239079   3.688   6.776   2.563
13041TIP3    H139080   3.753   6.815   2.504
13041TIP3    H239081   3.654   6.701   2.514
13042TIP3   OH239082   7.432   7.030   4.075
13042TIP3    H139083   7.344   7.017   4.039
13042TIP3    H239084   7.424   7.106   4.132
13043TIP3   OH239085   0.546   6.160   2.880
13043TIP3    H139086   0.521   6.090   2.939
13043TIP3    H239087   0.518   6.240   2.925
13044TIP3   OH239088   7.807   1.133   0.936
13044TIP3    H139089   7.722   1.090   0.931
13044TIP3    H239090   7.866   1.076   0.886
13045TIP3   OH239091   5.207   5.441   1.757
13045TIP3    H139092   5.130   5.440   1.699
13045TIP3    H239093   5.175   5.407   1.840
13046TIP3   OH239094   3.450   4.008   3.005
13046TIP3    H139095   3.359   4.019   3.035
13046TIP3    H239096   3.464   3.914   3.006
13047TIP3   OH239097   4.635   7.469   6.479
13047TIP3    H139098   4.576   7.394   6.483
13047TIP3    H239099   4.714   7.435   6.437
13048TIP3   OH239100   0.639   2.992   6.688
13048TIP3    H139101   0.613   3.029   6.604
13048TIP3    H239102   0.728   2.960   6.675
13049TIP3   OH239103   6.861   6.539   4.806
13049TIP3    H139104   6.890   6.461   4.759
13049TIP3    H239105   6.887   6.523   4.897
13050TIP3   OH239106   4.165   6.491   1.313
13050TIP3    H139107   4.100   6.505   1.244
13050TIP3    H239108   4.177   6.577   1.353
13051TIP3   OH239109   0.468   3.566   4.363
13051TIP3    H139110   0.384   3.581   4.320
13051TIP3    H239111   0.511   3.499   4.310
13052TIP3   OH239112   6.489   4.728   4.951
13052TIP3    H139113   6.432   4.803   4.933
13052TIP3    H239114   6.504   4.689   4.864
13053TIP3   OH239115   0.810   0.561   0.071
13053TIP3    H139116   0.770   0.619   0.136
13053TIP3    H239117   0.884   0.521   0.116
13054TIP3   OH239118   0.571   2.844   6.294
13054TIP3    H139119   0.531   2.847   6.207
13054TIP3    H239120   0.665   2.834   6.276
13055TIP3   OH239121   1.853   7.034   2.298
13055TIP3    H139122   1.871   7.104   2.236
13055TIP3    H239123   1.938   6.993   2.313
13056TIP3   OH239124   3.676   1.446   1.227
13056TIP3    H139125   3.640   1.372   1.274
13056TIP3    H239126   3.691   1.513   1.293
13057TIP3   OH239127   5.482   1.470   0.780
13057TIP3    H139128   5.474   1.566   0.779
13057TIP3    H239129   5.546   1.453   0.849
13058TIP3   OH239130   7.977   2.434   4.874
13058TIP3    H139131   7.927   2.473   4.947
13058TIP3    H239132   8.018   2.509   4.831
13059TIP3   OH239133   4.695   4.201   4.977
13059TIP3    H139134   4.633   4.238   5.040
13059TIP3    H239135   4.733   4.126   5.022
13060TIP3   OH239136   2.249   5.065   2.508
13060TIP3    H139137   2.321   5.121   2.479
13060TIP3    H239138   2.209   5.034   2.426
13061TIP3   OH239139   5.654   5.458   6.269
13061TIP3    H139140   5.670   5.544   6.309
13061TIP3    H239141   5.740   5.418   6.264
13062TIP3   OH239142   4.018   0.241   3.366
13062TIP3    H139143   3.924   0.230   3.355
13062TIP3    H239144   4.057   0.199   3.289
13063TIP3   OH239145   0.550   0.764   2.340
13063TIP3    H139146   0.474   0.750   2.396
13063TIP3    H239147   0.616   0.803   2.398
13064TIP3   OH239148   8.120   1.306   2.778
13064TIP3    H139149   8.139   1.400   2.771
13064TIP3    H239150   8.137   1.286   2.870
13065TIP3   OH239151   5.656   7.339   0.504
13065TIP3    H139152   5.647   7.429   0.537
13065TIP3    H239153   5.579   7.294   0.537
13066TIP3   OH239154   1.554   5.401   5.449
13066TIP3    H139155   1.458   5.400   5.460
13066TIP3    H239156   1.581   5.484   5.488
13067TIP3   OH239157   2.765   4.522   5.148
13067TIP3    H139158   2.686   4.576   5.157
13067TIP3    H239159   2.733   4.439   5.112
13068TIP3   OH239160   3.030   4.461   5.156
13068TIP3    H139161   2.943   4.499   5.143
13068TIP3    H239162   3.031   4.385   5.098
13069TIP3   OH239163   7.050   3.006   0.868
13069TIP3    H139164   7.108   3.061   0.815
13069TIP3    H239165   7.027   2.933   0.810
13070TIP3   OH239166   5.521   4.187   5.174
13070TIP3    H139167   5.484   4.204   5.087
13070TIP3    H239168   5.499   4.264   5.226
13071TIP3   OH239169   4.668   1.246   5.717
13071TIP3    H139170   4.627   1.162   5.737
13071TIP3    H239171   4.600   1.311   5.734
13072TIP3   OH239172   0.125   0.468   4.507
13072TIP3    H139173   0.140   0.484   4.414
13072TIP3    H239174   0.210   0.441   4.541
13073TIP3   OH239175   6.267   6.826   6.319
13073TIP3    H139176   6.196   6.832   6.255
13073TIP3    H239177   6.258   6.737   6.355
13074TIP3   OH239178   2.359   7.757   0.557
13074TIP3    H139179   2.360   7.665   0.531
13074TIP3    H239180   2.374   7.805   0.476
13075TIP3   OH239181   0.856   7.507   2.547
13075TIP3    H139182   0.767   7.496   2.581
13075TIP3    H239183   0.849   7.581   2.486
13076TIP3   OH239184   6.672   5.561   3.191
13076TIP3    H139185   6.691   5.517   3.274
13076TIP3    H239186   6.757   5.573   3.150
13077TIP3   OH239187   0.460   7.157   1.976
13077TIP3    H139188   0.513   7.192   2.048
13077TIP3    H239189   0.371   7.187   1.995
13078TIP3   OH239190   5.315   2.882   3.595
13078TIP3    H139191   5.233   2.878   3.545
13078TIP3    H239192   5.327   2.975   3.615
13079TIP3   OH239193   1.486   4.486   1.559
13079TIP3    H139194   1.568   4.525   1.588
13079TIP3    H239195   1.422   4.513   1.625
13080TIP3   OH239196   1.304   6.818   3.946
13080TIP3    H139197   1.344   6.734   3.921
13080TIP3    H239198   1.375   6.867   3.987
13081TIP3   OH239199   6.270   0.782   2.261
13081TIP3    H139200   6.186   0.741   2.240
13081TIP3    H239201   6.274   0.782   2.357
13082TIP3   OH239202   1.145   1.456   3.580
13082TIP3    H139203   1.062   1.408   3.584
13082TIP3    H239204   1.211   1.392   3.607
13083TIP3   OH239205   6.126   6.617   0.380
13083TIP3    H139206   6.113   6.625   0.475
13083TIP3    H239207   6.053   6.665   0.342
13084TIP3   OH239208   6.073   5.183   0.038
13084TIP3    H139209   6.004   5.230   0.084
13084TIP3    H239210   6.096   5.111   0.097
13085TIP3   OH239211   8.130   7.678   3.465
13085TIP3    H139212   8.136   7.657   3.558
13085TIP3    H239213   8.071   7.611   3.429
13086TIP3   OH239214   7.057   6.987   1.244
13086TIP3    H139215   7.057   7.055   1.311
13086TIP3    H239216   7.133   7.007   1.189
13087TIP3   OH239217   7.595   5.578   2.953
13087TIP3    H139218   7.653   5.511   2.990
13087TIP3    H239219   7.617   5.580   2.860
13088TIP3   OH239220   3.656   3.099   1.686
13088TIP3    H139221   3.699   3.183   1.670
13088TIP3    H239222   3.621   3.074   1.600
13089TIP3   OH239223   5.620   5.615   5.404
13089TIP3    H139224   5.698   5.560   5.415
13089TIP3    H239225   5.620   5.672   5.480
13090TIP3   OH239226   7.040   7.515   6.257
13090TIP3    H139227   7.099   7.567   6.202
13090TIP3    H239228   6.952   7.539   6.228
13091TIP3   OH239229   2.606   3.658   5.787
13091TIP3    H139230   2.624   3.691   5.699
13091TIP3    H239231   2.679   3.690   5.841
13092TIP3   OH239232   5.618   2.727   0.847
13092TIP3    H139233   5.713   2.720   0.847
13092TIP3    H239234   5.597   2.774   0.928
13093TIP3   OH239235   6.483   2.169   5.298
13093TIP3    H139236   6.545   2.187   5.369
13093TIP3    H239237   6.537   2.171   5.219
13094TIP3   OH239238   2.847   7.449   4.935
13094TIP3    H139239   2.831   7.449   4.841
13094TIP3    H239240   2.772   7.495   4.973
13095TIP3   OH239241   4.730   1.686   4.609
13095TIP3    H139242   4.658   1.749   4.614
13095TIP3    H239243   4.808   1.740   4.596
13096TIP3   OH239244   3.891   0.591   0.386
13096TIP3    H139245   3.876   0.506   0.427
13096TIP3    H239246   3.872   0.655   0.455
13097TIP3   OH239247   4.891   6.019   5.459
13097TIP3    H139248   4.904   6.106   5.496
13097TIP3    H239249   4.903   6.031   5.365
13098TIP3   OH239250   3.552   5.952   3.140
13098TIP3    H139251   3.511   5.880   3.189
13098TIP3    H239252   3.644   5.928   3.135
13099TIP3   OH239253   6.050   4.396   5.932
13099TIP3    H139254   6.090   4.369   6.015
13099TIP3    H239255   6.093   4.479   5.911
13100TIP3   OH239256   6.541   1.764   0.165
13100TIP3    H139257   6.615   1.756   0.225
13100TIP3    H239258   6.539   1.681   0.117
13101TIP3   OH239259   1.283   7.648   6.295
13101TIP3    H139260   1.257   7.596   6.219
13101TIP3    H239261   1.319   7.728   6.257
13102TIP3   OH239262   2.198   1.820   5.958
13102TIP3    H139263   2.224   1.764   6.031
13102TIP3    H239264   2.109   1.848   5.979
13103TIP3   OH239265   4.902   0.317   4.787
13103TIP3    H139266   4.977   0.264   4.814
13103TIP3    H239267   4.941   0.390   4.739
13104TIP3   OH239268   3.307   6.893   0.606
13104TIP3    H139269   3.274   6.936   0.684
13104TIP3    H239270   3.276   6.947   0.533
13105TIP3   OH239271   7.186   7.067   4.793
13105TIP3    H139272   7.214   7.043   4.705
13105TIP3    H239273   7.141   7.152   4.781
13106TIP3   OH239274   4.225   0.456   5.451
13106TIP3    H139275   4.150   0.450   5.511
13106TIP3    H239276   4.251   0.548   5.456
13107TIP3   OH239277   1.772   0.523   3.915
13107TIP3    H139278   1.845   0.522   3.852
13107TIP3    H239279   1.700   0.481   3.868
13108TIP3   OH239280   3.042   1.278   0.734
13108TIP3    H139281   3.015   1.259   0.824
13108TIP3    H239282   3.137   1.284   0.739
13109TIP3   OH239283   0.498   4.000   1.642
13109TIP3    H139284   0.589   3.970   1.641
13109TIP3    H239285   0.501   4.086   1.685
13110TIP3   OH239286   2.158   3.344   2.756
13110TIP3    H139287   2.094   3.413   2.770
13110TIP3    H239288   2.218   3.351   2.831
13111TIP3   OH239289   5.750   7.419   6.018
13111TIP3    H139290   5.807   7.384   5.949
13111TIP3    H239291   5.789   7.388   6.100
13112TIP3   OH239292   6.763   2.840   6.359
13112TIP3    H139293   6.715   2.895   6.296
13112TIP3    H239294   6.695   2.810   6.420
13113TIP3   OH239295   7.984   3.382   6.511
13113TIP3    H139296   7.890   3.392   6.500
13113TIP3    H239297   8.005   3.435   6.588
13114TIP3   OH239298   2.215   7.609   5.524
13114TIP3    H139299   2.188   7.697   5.501
13114TIP3    H239300   2.311   7.612   5.524
13115TIP3   OH239301   0.865   5.917   0.937
13115TIP3    H139302   0.927   5.883   0.874
13115TIP3    H239303   0.909   5.909   1.022
13116TIP3   OH239304   5.772   4.053   0.472
13116TIP3    H139305   5.808   4.075   0.385
13116TIP3    H239306   5.828   4.101   0.533
13117TIP3   OH239307   7.564   3.090   2.528
13117TIP3    H139308   7.590   3.123   2.442
13117TIP3    H239309   7.628   3.021   2.548
13118TIP3   OH239310   7.465   1.465   4.754
13118TIP3    H139311   7.459   1.471   4.849
13118TIP3    H239312   7.395   1.523   4.722
13119TIP3   OH239313   1.298   1.580   0.964
13119TIP3    H139314   1.315   1.610   0.875
13119TIP3    H239315   1.251   1.498   0.954
13120TIP3   OH239316   3.337   7.005   2.742
13120TIP3    H139317   3.359   6.972   2.655
13120TIP3    H239318   3.398   7.077   2.756
13121TIP3   OH239319   1.591   7.540   2.558
13121TIP3    H139320   1.669   7.590   2.536
13121TIP3    H239321   1.531   7.605   2.596
13122TIP3   OH239322   0.067   1.147   2.539
13122TIP3    H139323   0.158   1.116   2.537
13122TIP3    H239324   0.015   1.072   2.510
13123TIP3   OH239325   2.298   2.881   6.268
13123TIP3    H139326   2.352   2.958   6.247
13123TIP3    H239327   2.253   2.905   6.349
13124TIP3   OH239328   2.453   0.725   6.253
13124TIP3    H139329   2.368   0.681   6.252
13124TIP3    H239330   2.510   0.668   6.304
13125TIP3   OH239331   7.927   4.956   1.092
13125TIP3    H139332   7.856   5.010   1.126
13125TIP3    H239333   8.001   4.974   1.149
13126TIP3   OH239334   7.658   4.106   2.323
13126TIP3    H139335   7.707   4.185   2.302
13126TIP3    H239336   7.717   4.034   2.301
13127TIP3   OH239337   7.034   3.545   3.215
13127TIP3    H139338   6.966   3.537   3.149
13127TIP3    H239339   7.116   3.546   3.165
13128TIP3   OH239340   0.841   4.747   4.491
13128TIP3    H139341   0.813   4.831   4.453
13128TIP3    H239342   0.848   4.764   4.585
13129TIP3   OH239343   5.868   6.662   1.375
13129TIP3    H139344   5.895   6.642   1.286
13129TIP3    H239345   5.780   6.700   1.366
13130TIP3   OH239346   5.282   2.286   5.749
13130TIP3    H139347   5.270   2.352   5.680
13130TIP3    H239348   5.377   2.279   5.759
13131TIP3   OH239349   5.585   3.398   5.878
13131TIP3    H139350   5.556   3.309   5.900
13131TIP3    H239351   5.614   3.435   5.961
13132TIP3   OH239352   3.239   7.804   4.393
13132TIP3    H139353   3.208   7.813   4.303
13132TIP3    H239354   3.324   7.761   4.384
13133TIP3   OH239355   2.034   5.435   6.706
13133TIP3    H139356   2.091   5.360   6.687
13133TIP3    H239357   2.020   5.431   6.800
13134TIP3   OH239358   2.672   1.256   5.145
13134TIP3    H139359   2.677   1.306   5.063
13134TIP3    H239360   2.600   1.194   5.130
13135TIP3   OH239361   3.569   2.685   1.321
13135TIP3    H139362   3.516   2.746   1.269
13135TIP3    H239363   3.628   2.645   1.257
13136TIP3   OH239364   6.978   3.254   6.655
13136TIP3    H139365   6.883   3.258   6.671
13136TIP3    H239366   6.986   3.220   6.566
13137TIP3   OH239367   1.183   4.213   0.542
13137TIP3    H139368   1.233   4.224   0.461
13137TIP3    H239369   1.094   4.239   0.519
13138TIP3   OH239370   5.976   2.072   0.145
13138TIP3    H139371   6.021   2.130   0.084
13138TIP3    H239372   6.044   2.040   0.204
13139TIP3   OH239373   6.797   7.724   3.124
13139TIP3    H139374   6.715   7.699   3.081
13139TIP3    H239375   6.829   7.642   3.163
13140TIP3   OH239376   8.140   2.989   2.398
13140TIP3    H139377   8.150   2.948   2.311
13140TIP3    H239378   8.055   3.031   2.394
13141TIP3   OH239379   6.491   0.242   6.217
13141TIP3    H139380   6.558   0.176   6.199
13141TIP3    H239381   6.420   0.193   6.259
13142TIP3   OH239382   2.945   7.639   0.596
13142TIP3    H139383   2.931   7.545   0.609
13142TIP3    H239384   3.029   7.645   0.552
13143TIP3   OH239385   1.556   1.444   0.617
13143TIP3    H139386   1.555   1.350   0.635
13143TIP3    H239387   1.610   1.453   0.537
13144TIP3   OH239388   7.033   1.308   1.436
13144TIP3    H139389   6.994   1.244   1.376
13144TIP3    H239390   7.079   1.254   1.501
13145TIP3   OH239391   5.938   1.491   2.817
13145TIP3    H139392   5.923   1.478   2.910
13145TIP3    H239393   5.900   1.577   2.798
13146TIP3   OH239394   6.808   7.039   6.695
13146TIP3    H139395   6.726   6.999   6.666
13146TIP3    H239396   6.782   7.098   6.766
13147TIP3   OH239397   0.632   3.224   2.303
13147TIP3    H139398   0.726   3.209   2.314
13147TIP3    H239399   0.594   3.136   2.299
13148TIP3   OH239400   0.747   7.369   2.854
13148TIP3    H139401   0.696   7.417   2.919
13148TIP3    H239402   0.690   7.298   2.825
13149TIP3   OH239403   4.007   6.183   5.231
13149TIP3    H139404   3.996   6.093   5.201
13149TIP3    H239405   3.941   6.195   5.299
13150TIP3   OH239406   5.250   6.424   3.743
13150TIP3    H139407   5.174   6.474   3.773
13150TIP3    H239408   5.220   6.333   3.745
13151TIP3   OH239409   2.251   4.094   6.027
13151TIP3    H139410   2.304   4.171   6.005
13151TIP3    H239411   2.233   4.053   5.942
13152TIP3   OH239412   7.268   1.678   5.137
13152TIP3    H139413   7.212   1.666   5.060
13152TIP3    H239414   7.345   1.725   5.104
13153TIP3   OH239415   3.385   3.114   4.347
13153TIP3    H139416   3.329   3.085   4.419
13153TIP3    H239417   3.445   3.177   4.386
13154TIP3   OH239418   0.220   4.224   1.273
13154TIP3    H139419   0.300   4.185   1.307
13154TIP3    H239420   0.157   4.216   1.345
13155TIP3   OH239421   0.686   3.261   5.307
13155TIP3    H139422   0.674   3.182   5.360
13155TIP3    H239423   0.779   3.282   5.315
13156TIP3   OH239424   7.509   5.048   3.189
13156TIP3    H139425   7.594   5.032   3.150
13156TIP3    H239426   7.446   5.031   3.119
13157TIP3   OH239427   5.321   1.192   6.470
13157TIP3    H139428   5.378   1.248   6.417
13157TIP3    H239429   5.313   1.239   6.553
13158TIP3   OH239430   5.779   4.685   2.776
13158TIP3    H139431   5.808   4.594   2.773
13158TIP3    H239432   5.835   4.730   2.713
13159TIP3   OH239433   1.301   4.995   3.595
13159TIP3    H139434   1.266   4.942   3.523
13159TIP3    H239435   1.233   4.992   3.662
13160TIP3   OH239436   7.269   3.252   4.186
13160TIP3    H139437   7.342   3.208   4.143
13160TIP3    H239438   7.191   3.204   4.157
13161TIP3   OH239439   7.105   4.806   2.077
13161TIP3    H139440   7.051   4.734   2.108
13161TIP3    H239441   7.102   4.871   2.147
13162TIP3   OH239442   0.950   5.453   4.166
13162TIP3    H139443   0.900   5.376   4.139
13162TIP3    H239444   0.892   5.527   4.144
13163TIP3   OH239445   8.007   7.029   1.000
13163TIP3    H139446   7.941   7.008   0.933
13163TIP3    H239447   7.969   6.998   1.082
13164TIP3   OH239448   2.125   6.316   2.811
13164TIP3    H139449   2.212   6.351   2.828
13164TIP3    H239450   2.141   6.227   2.779
13165TIP3   OH239451   3.291   4.694   1.145
13165TIP3    H139452   3.293   4.663   1.236
13165TIP3    H239453   3.234   4.631   1.101
13166TIP3   OH239454   3.323   6.221   3.675
13166TIP3    H139455   3.372   6.237   3.755
13166TIP3    H239456   3.372   6.265   3.606
13167TIP3   OH239457   0.436   6.719   3.683
13167TIP3    H139458   0.527   6.749   3.676
13167TIP3    H239459   0.390   6.793   3.722
13168TIP3   OH239460   4.654   1.255   3.264
13168TIP3    H139461   4.640   1.226   3.174
13168TIP3    H239462   4.686   1.345   3.256
13169TIP3   OH239463   6.216   4.584   4.472
13169TIP3    H139464   6.218   4.652   4.405
13169TIP3    H239465   6.308   4.556   4.481
13170TIP3   OH239466   3.585   7.780   2.998
13170TIP3    H139467   3.641   7.778   2.921
13170TIP3    H239468   3.602   7.866   3.037
13171TIP3   OH239469   0.480   6.349   0.736
13171TIP3    H139470   0.387   6.370   0.726
13171TIP3    H239471   0.491   6.270   0.683
13172TIP3   OH239472   0.065   0.757   5.885
13172TIP3    H139473   0.029   0.806   5.811
13172TIP3    H239474   0.151   0.796   5.899
13173TIP3   OH239475   2.570   7.477   1.980
13173TIP3    H139476   2.543   7.488   2.071
13173TIP3    H239477   2.544   7.387   1.958
13174TIP3   OH239478   2.152   1.627   6.557
13174TIP3    H139479   2.091   1.573   6.507
13174TIP3    H239480   2.115   1.629   6.645
13175TIP3   OH239481   2.030   6.748   3.562
13175TIP3    H139482   2.116   6.788   3.555
13175TIP3    H239483   1.974   6.803   3.507
13176TIP3   OH239484   5.851   0.114   0.875
13176TIP3    H139485   5.758   0.116   0.849
13176TIP3    H239486   5.874   0.021   0.874
13177TIP3   OH239487   1.079   0.204   0.282
13177TIP3    H139488   1.169   0.194   0.312
13177TIP3    H239489   1.030   0.137   0.330
13178TIP3   OH239490   1.739   3.684   2.969
13178TIP3    H139491   1.765   3.708   3.058
13178TIP3    H239492   1.745   3.588   2.967
13179TIP3   OH239493   2.051   5.839   0.559
13179TIP3    H139494   1.963   5.838   0.524
13179TIP3    H239495   2.047   5.902   0.631
13180TIP3   OH239496   3.779   5.861   4.597
13180TIP3    H139497   3.757   5.776   4.559
13180TIP3    H239498   3.723   5.923   4.551
13181TIP3   OH239499   0.441   4.645   1.167
13181TIP3    H139500   0.502   4.710   1.131
13181TIP3    H239501   0.407   4.600   1.090
13182TIP3   OH239502   2.738   0.171   5.682
13182TIP3    H139503   2.783   0.219   5.611
13182TIP3    H239504   2.645   0.185   5.664
13183TIP3   OH239505   7.650   5.193   4.537
13183TIP3    H139506   7.637   5.284   4.509
13183TIP3    H239507   7.604   5.141   4.470
13184TIP3   OH239508   1.182   1.234   1.781
13184TIP3    H139509   1.121   1.161   1.795
13184TIP3    H239510   1.269   1.195   1.791
13185TIP3   OH239511   5.611   7.699   1.274
13185TIP3    H139512   5.642   7.663   1.191
13185TIP3    H239513   5.689   7.703   1.329
13186TIP3   OH239514   6.473   4.285   5.446
13186TIP3    H139515   6.480   4.286   5.350
13186TIP3    H239516   6.563   4.289   5.477
13187TIP3   OH239517   3.392   1.228   5.048
13187TIP3    H139518   3.334   1.304   5.042
13187TIP3    H239519   3.435   1.224   4.962
13188TIP3   OH239520   2.914   5.369   1.232
13188TIP3    H139521   2.966   5.336   1.306
13188TIP3    H239522   2.861   5.440   1.270
13189TIP3   OH239523   6.124   5.001   1.684
13189TIP3    H139524   6.108   5.060   1.758
13189TIP3    H239525   6.087   5.046   1.609
13190TIP3   OH239526   0.597   7.770   0.115
13190TIP3    H139527   0.580   7.717   0.037
13190TIP3    H239528   0.556   7.854   0.096
13191TIP3   OH239529   8.066   3.293   1.284
13191TIP3    H139530   8.103   3.206   1.266
13191TIP3    H239531   8.002   3.278   1.353
13192TIP3   OH239532   0.719   0.115   1.625
13192TIP3    H139533   0.771   0.183   1.668
13192TIP3    H239534   0.702   0.150   1.537
13193TIP3   OH239535   2.267   2.987   1.441
13193TIP3    H139536   2.182   3.012   1.406
13193TIP3    H239537   2.248   2.915   1.501
13194TIP3   OH239538   7.848   5.840   1.494
13194TIP3    H139539   7.810   5.914   1.446
13194TIP3    H239540   7.936   5.831   1.457
13195TIP3   OH239541   6.283   4.791   0.046
13195TIP3    H139542   6.242   4.819  -0.036
13195TIP3    H239543   6.373   4.824   0.041
13196TIP3   OH239544   3.026   7.509   6.131
13196TIP3    H139545   2.959   7.569   6.098
13196TIP3    H239546   3.109   7.544   6.098
13197TIP3   OH239547   1.208   3.718   5.411
13197TIP3    H139548   1.272   3.659   5.371
13197TIP3    H239549   1.127   3.668   5.410
13198TIP3   OH239550   5.161   2.382   6.450
13198TIP3    H139551   5.067   2.400   6.456
13198TIP3    H239552   5.193   2.397   6.539
13199TIP3   OH239553   7.203   2.874   4.159
13199TIP3    H139554   7.286   2.909   4.126
13199TIP3    H239555   7.138   2.941   4.137
13200TIP3   OH239556   4.632   6.072   1.549
13200TIP3    H139557   4.642   5.978   1.540
13200TIP3    H239558   4.652   6.091   1.640
13201TIP3   OH239559   4.103   3.832   4.581
13201TIP3    H139560   4.098   3.921   4.614
13201TIP3    H239561   4.191   3.824   4.545
13202TIP3   OH239562   4.394   3.819   5.531
13202TIP3    H139563   4.364   3.908   5.515
13202TIP3    H239564   4.315   3.765   5.522
13203TIP3   OH239565   0.233   6.401   4.467
13203TIP3    H139566   0.255   6.318   4.424
13203TIP3    H239567   0.183   6.449   4.400
13204TIP3   OH239568   0.815   6.918   2.121
13204TIP3    H139569   0.853   7.001   2.148
13204TIP3    H239570   0.833   6.913   2.027
13205TIP3   OH239571   4.019   1.976   2.910
13205TIP3    H139572   4.005   2.062   2.869
13205TIP3    H239573   3.958   1.918   2.864
13206TIP3   OH239574   0.875   5.798   0.309
13206TIP3    H139575   0.905   5.714   0.344
13206TIP3    H239576   0.814   5.775   0.239
13207TIP3   OH239577   3.215   4.816   6.535
13207TIP3    H139578   3.227   4.808   6.630
13207TIP3    H239579   3.121   4.807   6.522
13208TIP3   OH239580   1.591   5.911   0.483
13208TIP3    H139581   1.573   5.857   0.561
13208TIP3    H239582   1.507   5.916   0.438
13209TIP3   OH239583   1.569   5.858   5.387
13209TIP3    H139584   1.634   5.925   5.407
13209TIP3    H239585   1.552   5.868   5.293
13210TIP3   OH239586   4.798   1.432   1.595
13210TIP3    H139587   4.857   1.418   1.521
13210TIP3    H239588   4.732   1.363   1.586
13211TIP3   OH239589   7.010   0.438   3.774
13211TIP3    H139590   7.091   0.451   3.724
13211TIP3    H239591   6.977   0.353   3.746
13212TIP3   OH239592   7.014   1.829   5.308
13212TIP3    H139593   7.105   1.821   5.336
13212TIP3    H239594   7.012   1.908   5.255
13213TIP3   OH239595   0.297   4.135   5.225
13213TIP3    H139596   0.289   4.227   5.249
13213TIP3    H239597   0.218   4.093   5.261
13214TIP3   OH239598   7.692   2.099   1.567
13214TIP3    H139599   7.638   2.027   1.535
13214TIP3    H239600   7.644   2.178   1.543
13215TIP3   OH239601   7.285   2.756   0.598
13215TIP3    H139602   7.224   2.709   0.541
13215TIP3    H239603   7.253   2.846   0.598
13216TIP3   OH239604   6.866   3.579   2.976
13216TIP3    H139605   6.825   3.600   2.892
13216TIP3    H239606   6.800   3.603   3.041
13217TIP3   OH239607   2.465   3.731   0.311
13217TIP3    H139608   2.372   3.723   0.288
13217TIP3    H239609   2.486   3.823   0.295
13218TIP3   OH239610   5.658   2.057   6.427
13218TIP3    H139611   5.581   2.086   6.476
13218TIP3    H239612   5.656   1.961   6.434
13219TIP3   OH239613   0.279   0.974   2.409
13219TIP3    H139614   0.265   0.886   2.444
13219TIP3    H239615   0.356   1.006   2.456
13220TIP3   OH239616   5.862   1.568   6.161
13220TIP3    H139617   5.927   1.502   6.137
13220TIP3    H239618   5.892   1.649   6.120
13221TIP3   OH239619   6.133   6.335   2.322
13221TIP3    H139620   6.149   6.427   2.299
13221TIP3    H239621   6.053   6.338   2.375
13222TIP3   OH239622   2.500   4.409   5.556
13222TIP3    H139623   2.479   4.423   5.463
13222TIP3    H239624   2.586   4.450   5.567
13223TIP3   OH239625   4.162   1.155   0.635
13223TIP3    H139626   4.231   1.202   0.681
13223TIP3    H239627   4.205   1.120   0.557
13224TIP3   OH239628   6.243   4.240   5.590
13224TIP3    H139629   6.319   4.267   5.539
13224TIP3    H239630   6.175   4.304   5.569
13225TIP3   OH239631   0.448   4.280   3.643
13225TIP3    H139632   0.441   4.274   3.738
13225TIP3    H239633   0.472   4.371   3.627
13226TIP3   OH239634   3.291   7.519   1.134
13226TIP3    H139635   3.334   7.520   1.219
13226TIP3    H239636   3.273   7.612   1.115
13227TIP3   OH239637   2.742   3.272   5.744
13227TIP3    H139638   2.832   3.283   5.776
13227TIP3    H239639   2.695   3.232   5.817
13228TIP3   OH239640   7.674   4.307   4.633
13228TIP3    H139641   7.665   4.382   4.574
13228TIP3    H239642   7.650   4.341   4.719
13229TIP3   OH239643   3.310   7.525   5.044
13229TIP3    H139644   3.260   7.512   4.963
13229TIP3    H239645   3.401   7.536   5.015
13230TIP3   OH239646   0.696   3.779   2.957
13230TIP3    H139647   0.731   3.846   2.899
13230TIP3    H239648   0.631   3.825   3.010
13231TIP3   OH239649   1.144   3.099   1.523
13231TIP3    H139650   1.094   3.151   1.585
13231TIP3    H239651   1.097   3.109   1.440
13232TIP3   OH239652   0.804   2.293   0.460
13232TIP3    H139653   0.853   2.375   0.461
13232TIP3    H239654   0.868   2.226   0.483
13233TIP3   OH239655   6.685   4.152   1.796
13233TIP3    H139656   6.606   4.205   1.803
13233TIP3    H239657   6.724   4.180   1.713
13234TIP3   OH239658   3.340   1.815   5.427
13234TIP3    H139659   3.374   1.791   5.513
13234TIP3    H239660   3.360   1.908   5.418
13235TIP3   OH239661   7.478   5.045   0.291
13235TIP3    H139662   7.504   4.997   0.370
13235TIP3    H239663   7.436   5.124   0.325
13236TIP3   OH239664   2.093   5.225   0.056
13236TIP3    H139665   2.108   5.245  -0.036
13236TIP3    H239666   2.180   5.229   0.096
13237TIP3   OH239667   1.667   3.716   6.331
13237TIP3    H139668   1.714   3.676   6.404
13237TIP3    H239669   1.736   3.742   6.270
13238TIP3   OH239670   2.412   1.758   4.811
13238TIP3    H139671   2.456   1.708   4.742
13238TIP3    H239672   2.444   1.720   4.893
13239TIP3   OH239673   0.654   3.436   5.008
13239TIP3    H139674   0.584   3.494   4.978
13239TIP3    H239675   0.694   3.403   4.928
13240TIP3   OH239676   5.613   6.743   4.235
13240TIP3    H139677   5.526   6.762   4.270
13240TIP3    H239678   5.672   6.788   4.296
13241TIP3   OH239679   4.087   5.667   6.592
13241TIP3    H139680   4.135   5.586   6.576
13241TIP3    H239681   4.154   5.730   6.619
13242TIP3   OH239682   3.545   5.247   4.508
13242TIP3    H139683   3.565   5.322   4.565
13242TIP3    H239684   3.468   5.207   4.548
13243TIP3   OH239685   2.009   5.319   4.723
13243TIP3    H139686   2.093   5.347   4.761
13243TIP3    H239687   1.956   5.398   4.722
13244TIP3   OH239688   2.333   0.442   3.856
13244TIP3    H139689   2.384   0.503   3.804
13244TIP3    H239690   2.393   0.412   3.924
13245TIP3   OH239691   2.441   5.809   0.863
13245TIP3    H139692   2.475   5.824   0.951
13245TIP3    H239693   2.349   5.836   0.869
13246TIP3   OH239694   4.559   6.018   4.414
13246TIP3    H139695   4.483   6.030   4.357
13246TIP3    H239696   4.590   6.106   4.433
13247TIP3   OH239697   1.513   6.277   5.271
13247TIP3    H139698   1.447   6.346   5.277
13247TIP3    H239699   1.463   6.197   5.256
13248TIP3   OH239700   7.453   5.072   1.920
13248TIP3    H139701   7.495   4.987   1.937
13248TIP3    H239702   7.522   5.136   1.939
13249TIP3   OH239703   2.451   5.327   5.612
13249TIP3    H139704   2.482   5.279   5.688
13249TIP3    H239705   2.460   5.266   5.539
13250TIP3   OH239706   1.644   3.191   4.226
13250TIP3    H139707   1.686   3.176   4.141
13250TIP3    H239708   1.659   3.110   4.274
13251TIP3   OH239709   3.748   5.140   4.350
13251TIP3    H139710   3.794   5.077   4.405
13251TIP3    H239711   3.683   5.179   4.409
13252TIP3   OH239712   7.683   1.883   3.594
13252TIP3    H139713   7.682   1.791   3.621
13252TIP3    H239714   7.625   1.886   3.518
13253TIP3   OH239715   1.818   1.781   4.439
13253TIP3    H139716   1.756   1.787   4.367
13253TIP3    H239717   1.903   1.773   4.397
13254TIP3   OH239718   2.582   2.181   2.520
13254TIP3    H139719   2.663   2.229   2.504
13254TIP3    H239720   2.529   2.194   2.441
13255TIP3   OH239721   1.996   1.990   5.718
13255TIP3    H139722   2.081   1.951   5.738
13255TIP3    H239723   1.952   1.925   5.663
13256TIP3   OH239724   7.285   5.542   0.199
13256TIP3    H139725   7.247   5.485   0.133
13256TIP3    H239726   7.214   5.559   0.261
13257TIP3   OH239727   0.124   3.006   0.190
13257TIP3    H139728   0.033   2.995   0.163
13257TIP3    H239729   0.137   2.941   0.259
13258TIP3   OH239730   3.594   6.589   1.094
13258TIP3    H139731   3.516   6.642   1.077
13258TIP3    H239732   3.641   6.637   1.163
13259TIP3   OH239733   6.981   3.377   3.406
13259TIP3    H139734   6.999   3.455   3.353
13259TIP3    H239735   6.886   3.365   3.401
13260TIP3   OH239736   7.768   1.815   6.583
13260TIP3    H139737   7.711   1.878   6.538
13260TIP3    H239738   7.847   1.865   6.603
13261TIP3   OH239739   6.242   1.254   5.368
13261TIP3    H139740   6.323   1.204   5.374
13261TIP3    H239741   6.189   1.223   5.441
13262TIP3   OH239742   7.526   4.994   6.594
13262TIP3    H139743   7.565   4.907   6.586
13262TIP3    H239744   7.597   5.049   6.627
13263TIP3   OH239745   1.983   1.612   3.519
13263TIP3    H139746   1.935   1.684   3.476
13263TIP3    H239747   2.024   1.654   3.595
13264TIP3   OH239748   1.314   3.541   0.154
13264TIP3    H139749   1.227   3.581   0.152
13264TIP3    H239750   1.363   3.594   0.217
13265TIP3   OH239751   0.081   3.351   1.734
13265TIP3    H139752   0.060   3.258   1.725
13265TIP3    H239753   0.168   3.352   1.776
13266TIP3   OH239754   4.535   5.506   0.415
13266TIP3    H139755   4.489   5.586   0.440
13266TIP3    H239756   4.483   5.435   0.453
13267TIP3   OH239757   4.456   4.443   4.418
13267TIP3    H139758   4.366   4.416   4.438
13267TIP3    H239759   4.467   4.525   4.465
13268TIP3   OH239760   3.268   5.429   6.262
13268TIP3    H139761   3.195   5.486   6.287
13268TIP3    H239762   3.326   5.485   6.211
13269TIP3   OH239763   4.206   5.918   3.210
13269TIP3    H139764   4.227   5.854   3.143
13269TIP3    H239765   4.122   5.954   3.184
13270TIP3   OH239766   4.478   4.294   5.120
13270TIP3    H139767   4.490   4.329   5.208
13270TIP3    H239768   4.410   4.228   5.129
13271TIP3   OH239769   2.857   4.271   2.266
13271TIP3    H139770   2.919   4.203   2.240
13271TIP3    H239771   2.778   4.251   2.216
13272TIP3   OH239772   0.267   0.033   3.217
13272TIP3    H139773   0.293  -0.003   3.132
13272TIP3    H239774   0.348   0.038   3.268
13273TIP3   OH239775   6.691   0.665   2.108
13273TIP3    H139776   6.653   0.753   2.102
13273TIP3    H239777   6.627   0.615   2.158
13274TIP3   OH239778   5.162   2.906   0.437
13274TIP3    H139779   5.211   2.892   0.518
13274TIP3    H239780   5.149   3.001   0.432
13275TIP3   OH239781   3.864   5.446   3.706
13275TIP3    H139782   3.791   5.497   3.671
13275TIP3    H239783   3.822   5.378   3.758
13276TIP3   OH239784   2.175   1.752   3.682
13276TIP3    H139785   2.268   1.733   3.669
13276TIP3    H239786   2.167   1.769   3.775
13277TIP3   OH239787   5.308   1.809   0.390
13277TIP3    H139788   5.213   1.800   0.388
13277TIP3    H239789   5.340   1.729   0.431
13278TIP3   OH239790   0.615   0.704   3.803
13278TIP3    H139791   0.556   0.779   3.800
13278TIP3    H239792   0.601   0.666   3.890
13279TIP3   OH239793   1.358   1.332   0.220
13279TIP3    H139794   1.352   1.424   0.196
13279TIP3    H239795   1.279   1.315   0.272
13280TIP3   OH239796   1.429   0.437   1.937
13280TIP3    H139797   1.510   0.448   1.887
13280TIP3    H239798   1.455   0.448   2.028
13281TIP3   OH239799   7.227   4.801   5.621
13281TIP3    H139800   7.215   4.804   5.716
13281TIP3    H239801   7.174   4.873   5.588
13282TIP3   OH239802   3.801   2.153   1.639
13282TIP3    H139803   3.853   2.089   1.589
13282TIP3    H239804   3.722   2.167   1.587
13283TIP3   OH239805   6.564   4.414   4.716
13283TIP3    H139806   6.545   4.326   4.748
13283TIP3    H239807   6.659   4.424   4.724
13284TIP3   OH239808   1.846   6.428   2.289
13284TIP3    H139809   1.825   6.373   2.364
13284TIP3    H239810   1.761   6.451   2.252
13285TIP3   OH239811   6.827   6.811   6.315
13285TIP3    H139812   6.758   6.869   6.346
13285TIP3    H239813   6.796   6.779   6.231
13286TIP3   OH239814   0.203   1.355   0.220
13286TIP3    H139815   0.259   1.281   0.244
13286TIP3    H239816   0.154   1.324   0.144
13287TIP3   OH239817   5.591   2.312   2.905
13287TIP3    H139818   5.666   2.354   2.863
13287TIP3    H239819   5.515   2.360   2.873
13288TIP3   OH239820   4.010   7.047   3.520
13288TIP3    H139821   3.983   6.992   3.593
13288TIP3    H239822   3.991   6.994   3.442
13289TIP3   OH239823   6.156   5.462   4.743
13289TIP3    H139824   6.155   5.368   4.722
13289TIP3    H239825   6.078   5.476   4.796
13290TIP3   OH239826   4.820   3.768   4.100
13290TIP3    H139827   4.753   3.700   4.095
13290TIP3    H239828   4.826   3.802   4.011
13291TIP3   OH239829   5.644   2.471   3.234
13291TIP3    H139830   5.702   2.527   3.284
13291TIP3    H239831   5.702   2.416   3.181
13292TIP3   OH239832   0.844   0.867   3.471
13292TIP3    H139833   0.766   0.922   3.479
13292TIP3    H239834   0.917   0.925   3.495
13293TIP3   OH239835   5.869   5.588   2.748
13293TIP3    H139836   5.783   5.568   2.709
13293TIP3    H239837   5.928   5.524   2.708
13294TIP3   OH239838   3.788   5.637   5.917
13294TIP3    H139839   3.774   5.672   6.005
13294TIP3    H239840   3.866   5.683   5.886
13295TIP3   OH239841   4.459   3.214   2.566
13295TIP3    H139842   4.506   3.153   2.623
13295TIP3    H239843   4.529   3.259   2.517
13296TIP3   OH239844   7.602   7.558   2.586
13296TIP3    H139845   7.648   7.494   2.641
13296TIP3    H239846   7.668   7.623   2.563
13297TIP3   OH239847   4.737   2.039   6.521
13297TIP3    H139848   4.824   2.019   6.487
13297TIP3    H239849   4.752   2.103   6.590
13298TIP3   OH239850   1.771   3.910   1.660
13298TIP3    H139851   1.739   3.936   1.574
13298TIP3    H239852   1.862   3.941   1.663
13299TIP3   OH239853   4.810   1.089   4.463
13299TIP3    H139854   4.882   1.027   4.448
13299TIP3    H239855   4.853   1.170   4.491
13300TIP3   OH239856   5.089   7.230   2.395
13300TIP3    H139857   5.082   7.294   2.324
13300TIP3    H239858   5.142   7.159   2.357
13301TIP3   OH239859   4.339   3.162   5.978
13301TIP3    H139860   4.411   3.130   6.033
13301TIP3    H239861   4.364   3.251   5.954
13302TIP3   OH239862   1.248   0.605   4.078
13302TIP3    H139863   1.306   0.612   4.154
13302TIP3    H239864   1.163   0.581   4.115
13303TIP3   OH239865   5.895   1.291   4.929
13303TIP3    H139866   5.861   1.201   4.936
13303TIP3    H239867   5.934   1.309   5.014
13304TIP3   OH239868   0.759   2.433   3.058
13304TIP3    H139869   0.847   2.471   3.052
13304TIP3    H239870   0.718   2.479   3.131
13305TIP3   OH239871   6.137   6.668   5.682
13305TIP3    H139872   6.070   6.603   5.659
13305TIP3    H239873   6.145   6.723   5.604
13306TIP3   OH239874   0.906   2.465   5.532
13306TIP3    H139875   0.922   2.536   5.595
13306TIP3    H239876   0.816   2.438   5.549
13307TIP3   OH239877   6.631   1.590   2.157
13307TIP3    H139878   6.588   1.510   2.187
13307TIP3    H239879   6.616   1.654   2.227
13308TIP3   OH239880   3.602   0.899   0.206
13308TIP3    H139881   3.643   0.943   0.281
13308TIP3    H239882   3.547   0.966   0.166
13309TIP3   OH239883   4.282   2.388   5.201
13309TIP3    H139884   4.262   2.424   5.287
13309TIP3    H239885   4.250   2.453   5.139
13310TIP3   OH239886   5.527   6.428   2.159
13310TIP3    H139887   5.452   6.480   2.129
13310TIP3    H239888   5.533   6.356   2.098
13311TIP3   OH239889   8.157   0.487   4.173
13311TIP3    H139890   8.135   0.507   4.082
13311TIP3    H239891   8.213   0.410   4.167
13312TIP3   OH239892   2.089   3.973   6.217
13312TIP3    H139893   2.066   4.023   6.295
13312TIP3    H239894   2.143   4.033   6.165
13313TIP3   OH239895   2.847   1.019   0.105
13313TIP3    H139896   2.919   1.038   0.045
13313TIP3    H239897   2.768   1.034   0.054
13314TIP3   OH239898   4.894   0.245   5.638
13314TIP3    H139899   4.980   0.270   5.604
13314TIP3    H239900   4.914   0.184   5.709
13315TIP3   OH239901   7.855   4.428   4.404
13315TIP3    H139902   7.890   4.488   4.469
13315TIP3    H239903   7.787   4.478   4.358
13316TIP3   OH239904   2.193   1.377   6.717
13316TIP3    H139905   2.245   1.370   6.636
13316TIP3    H239906   2.258   1.396   6.785
13317TIP3   OH239907   7.996   3.125   5.824
13317TIP3    H139908   8.055   3.067   5.870
13317TIP3    H239909   7.999   3.207   5.873
13318TIP3   OH239910   3.044   5.040   3.964
13318TIP3    H139911   3.087   4.975   4.020
13318TIP3    H239912   2.951   5.034   3.988
13319TIP3   OH239913   4.795   5.497   5.979
13319TIP3    H139914   4.845   5.421   6.009
13319TIP3    H239915   4.777   5.546   6.059
13320TIP3   OH239916   4.473   2.346   5.445
13320TIP3    H139917   4.528   2.341   5.366
13320TIP3    H239918   4.533   2.327   5.517
13321TIP3   OH239919   4.944   6.604   1.586
13321TIP3    H139920   4.936   6.509   1.578
13321TIP3    H239921   4.864   6.638   1.546
13322TIP3   OH239922   0.147   1.966   5.282
13322TIP3    H139923   0.179   2.016   5.207
13322TIP3    H239924   0.168   1.875   5.262
13323TIP3   OH239925   5.403   0.107   1.522
13323TIP3    H139926   5.405   0.066   1.435
13323TIP3    H239927   5.460   0.184   1.514
13324TIP3   OH239928   7.506   6.319   2.917
13324TIP3    H139929   7.587   6.348   2.873
13324TIP3    H239930   7.437   6.374   2.879
13325TIP3   OH239931   0.118   6.325   6.454
13325TIP3    H139932   0.212   6.307   6.442
13325TIP3    H239933   0.104   6.313   6.548
13326TIP3   OH239934   3.525   1.706   1.726
13326TIP3    H139935   3.505   1.727   1.818
13326TIP3    H239936   3.531   1.611   1.724
13327TIP3   OH239937   4.490   5.502   3.124
13327TIP3    H139938   4.515   5.586   3.161
13327TIP3    H239939   4.432   5.463   3.189
13328TIP3   OH239940   5.186   5.628   4.201
13328TIP3    H139941   5.236   5.690   4.147
13328TIP3    H239942   5.164   5.557   4.141
13329TIP3   OH239943   1.924   2.219   3.694
13329TIP3    H139944   1.856   2.182   3.639
13329TIP3    H239945   2.006   2.181   3.662
13330TIP3   OH239946   5.155   1.164   2.013
13330TIP3    H139947   5.076   1.113   1.994
13330TIP3    H239948   5.220   1.132   1.952
13331TIP3   OH239949   5.793   5.402   1.013
13331TIP3    H139950   5.787   5.351   0.932
13331TIP3    H239951   5.710   5.448   1.019
13332TIP3   OH239952   0.503   5.100   3.570
13332TIP3    H139953   0.548   5.085   3.653
13332TIP3    H239954   0.430   5.038   3.571
13333TIP3   OH239955   0.664   5.903   5.016
13333TIP3    H139956   0.618   5.917   4.933
13333TIP3    H239957   0.756   5.917   4.994
13334TIP3   OH239958   6.735   3.214   1.334
13334TIP3    H139959   6.700   3.270   1.404
13334TIP3    H239960   6.682   3.236   1.257
13335TIP3   OH239961   6.834   3.703   3.904
13335TIP3    H139962   6.880   3.635   3.856
13335TIP3    H239963   6.861   3.785   3.862
13336TIP3   OH239964   2.875   2.076   5.830
13336TIP3    H139965   2.947   2.070   5.768
13336TIP3    H239966   2.823   2.151   5.800
13337TIP3   OH239967   5.022   6.737   3.561
13337TIP3    H139968   4.960   6.676   3.598
13337TIP3    H239969   4.986   6.823   3.580
13338TIP3   OH239970   3.700   3.636   3.357
13338TIP3    H139971   3.716   3.652   3.450
13338TIP3    H239972   3.758   3.698   3.312
13339TIP3   OH239973   6.792   6.253   2.984
13339TIP3    H139974   6.835   6.236   2.901
13339TIP3    H239975   6.760   6.343   2.977
13340TIP3   OH239976   7.499   6.188   4.614
13340TIP3    H139977   7.463   6.234   4.689
13340TIP3    H239978   7.462   6.100   4.618
13341TIP3   OH239979   6.114   6.307   3.793
13341TIP3    H139980   6.033   6.268   3.759
13341TIP3    H239981   6.134   6.377   3.731
13342TIP3   OH239982   1.541   6.330   1.309
13342TIP3    H139983   1.546   6.369   1.222
13342TIP3    H239984   1.471   6.265   1.302
13343TIP3   OH239985   6.831   6.549   3.537
13343TIP3    H139986   6.904   6.579   3.591
13343TIP3    H239987   6.864   6.554   3.447
13344TIP3   OH239988   0.537   5.005   5.198
13344TIP3    H139989   0.545   5.037   5.288
13344TIP3    H239990   0.445   5.020   5.175
13345TIP3   OH239991   6.892   2.163   3.492
13345TIP3    H139992   6.918   2.201   3.408
13345TIP3    H239993   6.969   2.113   3.520
13346TIP3   OH239994   6.386   5.129   6.372
13346TIP3    H139995   6.387   5.179   6.290
13346TIP3    H239996   6.446   5.175   6.430
13347TIP3   OH239997   5.852   2.810   4.834
13347TIP3    H139998   5.792   2.737   4.816
13347TIP3    H239999   5.795   2.883   4.858
13348TIP3   OH240000   5.039   0.819   4.086
13348TIP3    H140001   5.134   0.813   4.081
13348TIP3    H240002   5.018   0.788   4.174
13349TIP3   OH240003   2.759   2.886   2.847
13349TIP3    H140004   2.682   2.843   2.884
13349TIP3    H240005   2.818   2.899   2.922
13350TIP3   OH240006   3.901   3.647   2.824
13350TIP3    H140007   3.951   3.579   2.868
13350TIP3    H240008   3.939   3.653   2.737
13351TIP3   OH240009   5.007   5.742   1.728
13351TIP3    H140010   5.049   5.700   1.802
13351TIP3    H240011   4.924   5.696   1.717
13352TIP3   OH240012   5.630   1.813   4.732
13352TIP3    H140013   5.659   1.727   4.764
13352TIP3    H240014   5.625   1.803   4.637
13353TIP3   OH240015   2.778   4.276   0.641
13353TIP3    H140016   2.829   4.358   0.643
13353TIP3    H240017   2.844   4.207   0.647
13354TIP3   OH240018   5.540   6.525   1.317
13354TIP3    H140019   5.497   6.478   1.246
13354TIP3    H240020   5.619   6.474   1.336
13355TIP3   OH240021   1.862   1.496   2.012
13355TIP3    H140022   1.916   1.480   1.934
13355TIP3    H240023   1.772   1.490   1.980
13356TIP3   OH240024   3.093   1.467   3.679
13356TIP3    H140025   3.156   1.538   3.686
13356TIP3    H240026   3.097   1.439   3.588
13357TIP3   OH240027   4.549   2.852   3.825
13357TIP3    H140028   4.506   2.840   3.910
13357TIP3    H240029   4.588   2.767   3.805
13358TIP3   OH240030   3.105   4.839   4.141
13358TIP3    H140031   3.185   4.787   4.152
13358TIP3    H240032   3.079   4.861   4.231
13359TIP3   OH240033   4.885   7.449   2.353
13359TIP3    H140034   4.821   7.433   2.284
13359TIP3    H240035   4.898   7.363   2.395
13360TIP3   OH240036   5.808   5.684   0.799
13360TIP3    H140037   5.720   5.663   0.829
13360TIP3    H240038   5.796   5.718   0.711
13361TIP3   OH240039   0.515   1.868   6.131
13361TIP3    H140040   0.573   1.937   6.098
13361TIP3    H240041   0.482   1.902   6.214
13362TIP3   OH240042   7.867   4.425   1.824
13362TIP3    H140043   7.913   4.342   1.841
13362TIP3    H240044   7.783   4.399   1.788
13363TIP3   OH240045   7.955   6.966   0.089
13363TIP3    H140046   7.960   6.898   0.156
13363TIP3    H240047   7.868   6.955   0.050
13364TIP3   OH240048   6.338   1.533   3.009
13364TIP3    H140049   6.250   1.497   3.015
13364TIP3    H240050   6.359   1.531   2.916
13365TIP3   OH240051   5.627   7.724   4.657
13365TIP3    H140052   5.693   7.789   4.636
13365TIP3    H240053   5.584   7.704   4.574
13366TIP3   OH240054   8.022   4.303   3.571
13366TIP3    H140055   7.958   4.248   3.617
13366TIP3    H240056   8.089   4.322   3.636
13367TIP3   OH240057   5.824   1.546   5.177
13367TIP3    H140058   5.813   1.603   5.253
13367TIP3    H240059   5.904   1.497   5.195
13368TIP3   OH240060   2.073   4.650   2.383
13368TIP3    H140061   2.156   4.692   2.403
13368TIP3    H240062   2.013   4.723   2.365
13369TIP3   OH240063   7.903   3.870   4.572
13369TIP3    H140064   7.846   3.921   4.516
13369TIP3    H240065   7.879   3.896   4.661
13370TIP3   OH240066   4.785   1.304   0.490
13370TIP3    H140067   4.824   1.368   0.431
13370TIP3    H240068   4.837   1.309   0.570
13371TIP3   OH240069   6.694   2.528   4.959
13371TIP3    H140070   6.738   2.538   5.043
13371TIP3    H240071   6.761   2.491   4.901
13372TIP3   OH240072   0.156   2.429   4.723
13372TIP3    H140073   0.123   2.435   4.633
13372TIP3    H240074   0.248   2.456   4.716
13373TIP3   OH240075   2.576   1.636   1.537
13373TIP3    H140076   2.559   1.568   1.602
13373TIP3    H240077   2.578   1.589   1.453
13374TIP3   OH240078   2.838   1.901   0.678
13374TIP3    H140079   2.882   1.985   0.665
13374TIP3    H240080   2.829   1.894   0.773
13375TIP3   OH240081   4.526   7.522   0.294
13375TIP3    H140082   4.560   7.546   0.380
13375TIP3    H240083   4.498   7.605   0.255
13376TIP3   OH240084   6.200   0.714   0.052
13376TIP3    H140085   6.113   0.680   0.034
13376TIP3    H240086   6.197   0.805   0.025
13377TIP3   OH240087   2.604   2.306   0.717
13377TIP3    H140088   2.609   2.370   0.788
13377TIP3    H240089   2.680   2.250   0.730
13378TIP3   OH240090   0.172   2.143   5.084
13378TIP3    H140091   0.080   2.168   5.093
13378TIP3    H240092   0.189   2.147   4.989
13379TIP3   OH240093   7.983   7.089   4.688
13379TIP3    H140094   7.981   6.995   4.708
13379TIP3    H240095   8.059   7.123   4.734
13380TIP3   OH240096   2.405   2.903   4.820
13380TIP3    H140097   2.363   2.958   4.886
13380TIP3    H240098   2.485   2.950   4.797
13381TIP3   OH240099   5.661   1.705   1.060
13381TIP3    H140100   5.698   1.620   1.086
13381TIP3    H240101   5.734   1.766   1.066
13382TIP3   OH240102   3.043   5.759   3.649
13382TIP3    H140103   2.976   5.757   3.580
13382TIP3    H240104   3.008   5.703   3.718
13383TIP3   OH240105   6.825   2.965   0.063
13383TIP3    H140106   6.747   3.017   0.086
13383TIP3    H240107   6.825   2.964  -0.032
13384TIP3   OH240108   3.671   2.553   1.797
13384TIP3    H140109   3.748   2.515   1.839
13384TIP3    H240110   3.654   2.633   1.846
13385TIP3   OH240111   1.247   4.535   0.255
13385TIP3    H140112   1.158   4.543   0.222
13385TIP3    H240113   1.260   4.613   0.309
13386TIP3   OH240114   3.498   5.258   4.224
13386TIP3    H140115   3.484   5.173   4.182
13386TIP3    H240116   3.504   5.239   4.317
13387TIP3   OH240117   1.388   6.627   3.192
13387TIP3    H140118   1.374   6.610   3.099
13387TIP3    H240119   1.470   6.678   3.195
13388TIP3   OH240120   1.375   3.570   5.238
13388TIP3    H140121   1.439   3.608   5.177
13388TIP3    H240122   1.359   3.482   5.205
13389TIP3   OH240123   4.571   1.851   0.963
13389TIP3    H140124   4.569   1.822   0.872
13389TIP3    H240125   4.548   1.773   1.014
13390TIP3   OH240126   7.641   3.221   5.533
13390TIP3    H140127   7.636   3.271   5.614
13390TIP3    H240128   7.735   3.215   5.515
13391TIP3   OH240129   2.191   0.134   3.874
13391TIP3    H140130   2.233   0.135   3.788
13391TIP3    H240131   2.154   0.046   3.881
13392TIP3   OH240132   2.199   4.019   4.025
13392TIP3    H140133   2.232   3.934   4.056
13392TIP3    H240134   2.119   3.998   3.978
13393TIP3   OH240135   1.634   4.648   0.976
13393TIP3    H140136   1.618   4.645   0.882
13393TIP3    H240137   1.654   4.740   0.995
13394TIP3   OH240138   6.908   0.387   4.362
13394TIP3    H140139   6.916   0.297   4.395
13394TIP3    H240140   6.999   0.415   4.350
13395TIP3   OH240141   7.235   2.997   5.691
13395TIP3    H140142   7.290   2.996   5.612
13395TIP3    H240143   7.211   2.905   5.704
13396TIP3   OH240144   6.142   0.640   6.137
13396TIP3    H140145   6.201   0.574   6.100
13396TIP3    H240146   6.076   0.653   6.070
13397TIP3   OH240147   7.427   4.348   0.022
13397TIP3    H140148   7.345   4.326   0.066
13397TIP3    H240149   7.427   4.295  -0.058
13398TIP3   OH240150   4.554   5.129   5.903
13398TIP3    H140151   4.487   5.081   5.853
13398TIP3    H240152   4.571   5.074   5.979
13399TIP3   OH240153   7.140   2.512   1.877
13399TIP3    H140154   7.159   2.491   1.785
13399TIP3    H240155   7.061   2.565   1.874
13400TIP3   OH240156   3.130   0.956   3.786
13400TIP3    H140157   3.123   0.892   3.858
13400TIP3    H240158   3.079   1.031   3.816
13401TIP3   OH240159   3.083   0.426   3.512
13401TIP3    H140160   3.085   0.336   3.542
13401TIP3    H240161   3.070   0.478   3.591
13402TIP3   OH240162   1.567   0.709   3.263
13402TIP3    H140163   1.481   0.729   3.225
13402TIP3    H240164   1.547   0.681   3.353
13403TIP3   OH240165   4.851   0.852   5.428
13403TIP3    H140166   4.801   0.804   5.361
13403TIP3    H240167   4.942   0.845   5.399
13404TIP3   OH240168   4.463   5.866   5.107
13404TIP3    H140169   4.488   5.863   5.199
13404TIP3    H240170   4.379   5.912   5.106
13405TIP3   OH240171   7.676   1.895   5.815
13405TIP3    H140172   7.631   1.841   5.879
13405TIP3    H240173   7.726   1.833   5.761
13406TIP3   OH240174   4.976   7.332   0.717
13406TIP3    H140175   5.039   7.278   0.764
13406TIP3    H240176   4.912   7.359   0.783
13407TIP3   OH240177   4.577   7.503   5.174
13407TIP3    H140178   4.530   7.440   5.119
13407TIP3    H240179   4.658   7.521   5.127
13408TIP3   OH240180   6.172   5.569   6.696
13408TIP3    H140181   6.238   5.503   6.717
13408TIP3    H240182   6.155   5.614   6.780
13409TIP3   OH240183   4.984   2.569   6.097
13409TIP3    H140184   5.079   2.563   6.099
13409TIP3    H240185   4.964   2.618   6.017
13410TIP3   OH240186   5.552   0.808   4.184
13410TIP3    H140187   5.483   0.742   4.188
13410TIP3    H240188   5.633   0.759   4.189
13411TIP3   OH240189   3.607   6.057   4.467
13411TIP3    H140190   3.625   6.097   4.381
13411TIP3    H240191   3.522   6.015   4.456
13412TIP3   OH240192   4.817   5.667   0.433
13412TIP3    H140193   4.808   5.572   0.445
13412TIP3    H240194   4.782   5.705   0.513
13413TIP3   OH240195   1.789   0.733   2.602
13413TIP3    H140196   1.734   0.656   2.612
13413TIP3    H240197   1.739   0.805   2.640
13414TIP3   OH240198   0.443   6.260   3.324
13414TIP3    H140199   0.530   6.221   3.315
13414TIP3    H240200   0.448   6.313   3.404
13415TIP3   OH240201   2.183   5.328   2.620
13415TIP3    H140202   2.202   5.234   2.612
13415TIP3    H240203   2.088   5.334   2.617
13416TIP3   OH240204   6.957   6.199   5.839
13416TIP3    H140205   6.917   6.235   5.760
13416TIP3    H240206   7.012   6.269   5.873
13417TIP3   OH240207   5.760   6.176   2.305
13417TIP3    H140208   5.759   6.131   2.221
13417TIP3    H240209   5.832   6.136   2.353
13418TIP3   OH240210   4.208   6.027   0.851
13418TIP3    H140211   4.273   6.002   0.917
13418TIP3    H240212   4.127   6.038   0.900
13419TIP3   OH240213   5.241   4.937   6.537
13419TIP3    H140214   5.214   4.886   6.613
13419TIP3    H240215   5.160   4.979   6.506
13420TIP3   OH240216   6.775   2.195   6.309
13420TIP3    H140217   6.775   2.261   6.379
13420TIP3    H240218   6.821   2.237   6.236
13421TIP3   OH240219   8.132   5.680   6.240
13421TIP3    H140220   8.194   5.686   6.313
13421TIP3    H240221   8.085   5.763   6.241
13422TIP3   OH240222   5.731   1.417   5.477
13422TIP3    H140223   5.814   1.413   5.523
13422TIP3    H240224   5.710   1.510   5.474
13423TIP3   OH240225   0.151   2.095   2.587
13423TIP3    H140226   0.161   2.014   2.635
13423TIP3    H240227   0.223   2.095   2.523
13424TIP3   OH240228   2.920   2.407   0.886
13424TIP3    H140229   2.903   2.479   0.825
13424TIP3    H240230   2.868   2.429   0.964
13425TIP3   OH240231   1.044   4.682   5.030
13425TIP3    H140232   0.971   4.620   5.042
13425TIP3    H240233   1.015   4.740   4.960
13426TIP3   OH240234   5.809   5.510   3.208
13426TIP3    H140235   5.850   5.595   3.196
13426TIP3    H240236   5.844   5.476   3.290
13427TIP3   OH240237   7.087   2.788   3.422
13427TIP3    H140238   7.181   2.800   3.431
13427TIP3    H240239   7.062   2.844   3.348
13428TIP3   OH240240   3.038   4.252   5.604
13428TIP3    H140241   3.109   4.188   5.605
13428TIP3    H240242   2.959   4.201   5.623
13429TIP3   OH240243   7.294   1.639   6.667
13429TIP3    H140244   7.384   1.669   6.656
13429TIP3    H240245   7.279   1.641   6.761
13430TIP3   OH240246   3.302   4.622   6.188
13430TIP3    H140247   3.341   4.621   6.276
13430TIP3    H240248   3.322   4.709   6.154
13431TIP3   OH240249   1.843   1.440   0.572
13431TIP3    H140250   1.915   1.402   0.522
13431TIP3    H240251   1.854   1.404   0.660
13432TIP3   OH240252   5.348   4.951   0.730
13432TIP3    H140253   5.362   4.897   0.808
13432TIP3    H240254   5.260   4.926   0.699
13433TIP3   OH240255   7.729   2.777   0.119
13433TIP3    H140256   7.661   2.725   0.161
13433TIP3    H240257   7.721   2.864   0.159
13434TIP3   OH240258   0.398   6.050   4.149
13434TIP3    H140259   0.458   6.005   4.089
13434TIP3    H240260   0.348   5.979   4.190
13435TIP3   OH240261   4.506   4.706   0.329
13435TIP3    H140262   4.456   4.764   0.387
13435TIP3    H240263   4.552   4.647   0.389
13436TIP3   OH240264   6.987   4.174   0.558
13436TIP3    H140265   6.924   4.105   0.580
13436TIP3    H240266   6.992   4.171   0.463
13437TIP3   OH240267   8.190   5.600   2.125
13437TIP3    H140268   8.203   5.675   2.067
13437TIP3    H240269   8.253   5.613   2.196
13438TIP3   OH240270   7.371   3.494   4.185
13438TIP3    H140271   7.461   3.462   4.179
13438TIP3    H240272   7.317   3.416   4.177
13439TIP3   OH240273   5.592   4.610   3.694
13439TIP3    H140274   5.553   4.606   3.607
13439TIP3    H240275   5.536   4.556   3.749
13440TIP3   OH240276   5.879   2.573   3.811
13440TIP3    H140277   5.794   2.530   3.804
13440TIP3    H240278   5.865   2.644   3.874
13441TIP3   OH240279   6.524   0.517   3.720
13441TIP3    H140280   6.594   0.564   3.675
13441TIP3    H240281   6.570   0.466   3.788
13442TIP3   OH240282   6.658   5.909   5.985
13442TIP3    H140283   6.747   5.899   6.020
13442TIP3    H240284   6.604   5.928   6.062
13443TIP3   OH240285   5.216   3.961   0.858
13443TIP3    H140286   5.189   4.018   0.786
13443TIP3    H240287   5.226   3.874   0.818
13444TIP3   OH240288   2.312   5.830   0.465
13444TIP3    H140289   2.369   5.881   0.523
13444TIP3    H240290   2.224   5.840   0.502
13445TIP3   OH240291   0.378   4.602   2.900
13445TIP3    H140292   0.300   4.633   2.854
13445TIP3    H240293   0.347   4.584   2.989
13446TIP3   OH240294   6.316   4.264   4.570
13446TIP3    H140295   6.309   4.250   4.664
13446TIP3    H240296   6.228   4.290   4.542
13447TIP3   OH240297   3.571   6.553   2.420
13447TIP3    H140298   3.591   6.558   2.326
13447TIP3    H240299   3.489   6.601   2.430
13448TIP3   OH240300   4.070   0.776   4.741
13448TIP3    H140301   4.033   0.850   4.788
13448TIP3    H240302   4.143   0.813   4.691
13449TIP3   OH240303   1.587   5.613   5.970
13449TIP3    H140304   1.578   5.542   5.907
13449TIP3    H240305   1.505   5.614   6.018
13450TIP3   OH240306   1.988  -0.035   3.392
13450TIP3    H140307   1.977  -0.046   3.297
13450TIP3    H240308   2.026   0.052   3.402
13451TIP3   OH240309   6.667   2.692   1.869
13451TIP3    H140310   6.588   2.669   1.820
13451TIP3    H240311   6.634   2.728   1.952
13452TIP3   OH240312   1.985   3.878   3.438
13452TIP3    H140313   1.958   3.852   3.350
13452TIP3    H240314   1.952   3.808   3.495
13453TIP3   OH240315   1.083   6.717   0.052
13453TIP3    H140316   1.177   6.737   0.047
13453TIP3    H240317   1.050   6.774   0.121
13454TIP3   OH240318   4.340   5.470   6.167
13454TIP3    H140319   4.355   5.552   6.121
13454TIP3    H240320   4.411   5.412   6.137
13455TIP3   OH240321   1.782   4.544   1.939
13455TIP3    H140322   1.801   4.478   1.873
13455TIP3    H240323   1.863   4.555   1.988
13456TIP3   OH240324   2.472   3.028   0.443
13456TIP3    H140325   2.395   3.081   0.419
13456TIP3    H240326   2.495   2.983   0.362
13457TIP3   OH240327   4.042   4.116   4.021
13457TIP3    H140328   4.046   4.021   4.010
13457TIP3    H240329   3.951   4.138   4.002
13458TIP3   OH240330   4.902   6.292   5.232
13458TIP3    H140331   4.820   6.315   5.276
13458TIP3    H240332   4.880   6.288   5.139
13459TIP3   OH240333   6.197   5.313   3.042
13459TIP3    H140334   6.198   5.289   3.135
13459TIP3    H240335   6.105   5.307   3.017
13460TIP3   OH240336   6.887   4.039   5.902
13460TIP3    H140337   6.965   3.983   5.897
13460TIP3    H240338   6.845   4.029   5.816
13461TIP3   OH240339   0.161   5.904   4.131
13461TIP3    H140340   0.090   5.846   4.158
13461TIP3    H240341   0.152   5.910   4.036
13462TIP3   OH240342   8.186   5.156   5.740
13462TIP3    H140343   8.266   5.116   5.773
13462TIP3    H240344   8.115   5.104   5.778
13463TIP3   OH240345   3.983   3.254   4.839
13463TIP3    H140346   3.984   3.306   4.759
13463TIP3    H240347   3.978   3.318   4.909
13464TIP3   OH240348   0.030   3.168   1.068
13464TIP3    H140349   0.001   3.106   1.135
13464TIP3    H240350   0.115   3.135   1.039
13465TIP3   OH240351   1.449   7.464   1.848
13465TIP3    H140352   1.434   7.459   1.942
13465TIP3    H240353   1.414   7.381   1.814
13466TIP3   OH240354   3.947   3.643   6.263
13466TIP3    H140355   4.015   3.585   6.228
13466TIP3    H240356   3.921   3.697   6.188
13467TIP3   OH240357   7.068   5.592   0.354
13467TIP3    H140358   7.027   5.599   0.268
13467TIP3    H240359   7.012   5.533   0.403
13468TIP3   OH240360   2.147   5.303   1.425
13468TIP3    H140361   2.123   5.372   1.363
13468TIP3    H240362   2.065   5.283   1.471
13469TIP3   OH240363   3.316   6.082   0.693
13469TIP3    H140364   3.241   6.131   0.727
13469TIP3    H240365   3.322   6.006   0.750
13470TIP3   OH240366   7.366   2.217   5.521
13470TIP3    H140367   7.277   2.193   5.545
13470TIP3    H240368   7.396   2.272   5.593
13471TIP3   OH240369   6.310   1.452   0.993
13471TIP3    H140370   6.242   1.502   1.038
13471TIP3    H240371   6.296   1.362   1.020
13472TIP3   OH240372   2.108   4.256   1.483
13472TIP3    H140373   2.149   4.335   1.517
13472TIP3    H240374   2.182   4.201   1.456
13473TIP3   OH240375   8.161   1.057   4.853
13473TIP3    H140376   8.212   1.108   4.915
13473TIP3    H240377   8.226   1.025   4.789
13474TIP3   OH240378   3.224   3.513   1.192
13474TIP3    H140379   3.286   3.514   1.119
13474TIP3    H240380   3.242   3.430   1.237
13475TIP3   OH240381   2.755   0.667   1.284
13475TIP3    H140382   2.737   0.684   1.376
13475TIP3    H240383   2.813   0.738   1.257
13476TIP3   OH240384   3.619   1.011   5.036
13476TIP3    H140385   3.590   1.050   4.954
13476TIP3    H240386   3.540   0.971   5.072
13477TIP3   OH240387   4.949   2.382   0.570
13477TIP3    H140388   4.997   2.345   0.496
13477TIP3    H240389   4.914   2.465   0.537
13478TIP3   OH240390   6.991   7.681   5.481
13478TIP3    H140391   6.944   7.636   5.551
13478TIP3    H240392   7.027   7.760   5.522
13479TIP3   OH240393   6.200   3.985   3.813
13479TIP3    H140394   6.117   4.024   3.841
13479TIP3    H240395   6.218   4.026   3.728
13480TIP3   OH240396   5.748   7.399   1.966
13480TIP3    H140397   5.828   7.439   1.999
13480TIP3    H240398   5.771   7.307   1.952
13481TIP3   OH240399   3.501   5.067   1.015
13481TIP3    H140400   3.455   5.079   1.098
13481TIP3    H240401   3.456   5.125   0.954
13482TIP3   OH240402   3.013   4.581   1.295
13482TIP3    H140403   2.976   4.501   1.332
13482TIP3    H240404   3.106   4.561   1.284
13483TIP3   OH240405   5.228   0.976   0.467
13483TIP3    H140406   5.215   0.889   0.429
13483TIP3    H240407   5.321   0.979   0.490
13484TIP3   OH240408   6.301   2.614   2.929
13484TIP3    H140409   6.320   2.521   2.942
13484TIP3    H240410   6.350   2.638   2.851
13485TIP3   OH240411   5.878   3.547   2.480
13485TIP3    H140412   5.823   3.566   2.404
13485TIP3    H240413   5.819   3.551   2.554
13486TIP3   OH240414   7.437   1.175   4.770
13486TIP3    H140415   7.469   1.255   4.727
13486TIP3    H240416   7.394   1.126   4.700
13487TIP3   OH240417   2.783   0.005   2.767
13487TIP3    H140418   2.793   0.100   2.759
13487TIP3    H240419   2.809  -0.015   2.857
13488TIP3   OH240420   3.686   4.543   5.713
13488TIP3    H140421   3.748   4.599   5.760
13488TIP3    H240422   3.606   4.546   5.765
13489TIP3   OH240423   6.447   4.617   0.447
13489TIP3    H140424   6.496   4.614   0.529
13489TIP3    H240425   6.381   4.685   0.461
13490TIP3   OH240426   4.994   1.934   0.957
13490TIP3    H140427   4.996   1.933   0.862
13490TIP3    H240428   5.010   1.843   0.982
13491TIP3   OH240429   6.742   4.363   0.136
13491TIP3    H140430   6.656   4.390   0.167
13491TIP3    H240431   6.724   4.308   0.059
13492TIP3   OH240432   0.762   2.340   1.937
13492TIP3    H140433   0.726   2.380   1.858
13492TIP3    H240434   0.817   2.408   1.976
13493TIP3   OH240435   5.366   3.332   3.253
13493TIP3    H140436   5.402   3.253   3.212
13493TIP3    H240437   5.285   3.303   3.295
13494TIP3   OH240438   0.709   5.963   5.929
13494TIP3    H140439   0.685   6.024   5.998
13494TIP3    H240440   0.644   5.892   5.935
13495TIP3   OH240441   2.863   6.226   5.745
13495TIP3    H140442   2.951   6.237   5.711
13495TIP3    H240443   2.849   6.131   5.745
13496TIP3   OH240444   3.712   7.621   1.340
13496TIP3    H140445   3.803   7.630   1.367
13496TIP3    H240446   3.710   7.655   1.250
13497TIP3   OH240447   3.789   6.112   5.419
13497TIP3    H140448   3.761   6.023   5.440
13497TIP3    H240449   3.802   6.155   5.503
13498TIP3   OH240450   4.897   4.744   4.562
13498TIP3    H140451   4.874   4.711   4.649
13498TIP3    H240452   4.863   4.833   4.560
13499TIP3   OH240453   0.653   5.423   4.409
13499TIP3    H140454   0.601   5.342   4.411
13499TIP3    H240455   0.626   5.467   4.329
13500TIP3   OH240456   0.281   3.519   5.167
13500TIP3    H140457   0.203   3.508   5.222
13500TIP3    H240458   0.254   3.581   5.099
13501TIP3   OH240459   3.075   4.466   1.000
13501TIP3    H140460   3.123   4.468   0.917
13501TIP3    H240461   3.000   4.409   0.983
13502TIP3   OH240462   0.973   6.133   1.115
13502TIP3    H140463   1.015   6.157   1.198
13502TIP3    H240464   1.045   6.118   1.054
13503TIP3   OH240465   4.546   5.283   6.615
13503TIP3    H140466   4.550   5.360   6.559
13503TIP3    H240467   4.461   5.244   6.595
13504TIP3   OH240468   0.045   2.891   4.687
13504TIP3    H140469   0.029   2.985   4.677
13504TIP3    H240470  -0.042   2.853   4.697
13505TIP3   OH240471   6.151   1.598   3.857
13505TIP3    H140472   6.058   1.575   3.861
13505TIP3    H240473   6.190   1.532   3.800
13506TIP3   OH240474   4.852   0.944   3.151
13506TIP3    H140475   4.863   0.974   3.241
13506TIP3    H240476   4.760   0.963   3.130
13507TIP3   OH240477   3.171   2.382   2.845
13507TIP3    H140478   3.145   2.451   2.905
13507TIP3    H240479   3.189   2.307   2.901
13508TIP3   OH240480   2.786   0.561   2.464
13508TIP3    H140481   2.768   0.575   2.557
13508TIP3    H240482   2.702   0.576   2.422
13509TIP3   OH240483   2.255   3.293   5.056
13509TIP3    H140484   2.260   3.290   4.960
13509TIP3    H240485   2.303   3.372   5.079
13510TIP3   OH240486   7.006   0.912   0.698
13510TIP3    H140487   6.967   0.840   0.746
13510TIP3    H240488   7.100   0.904   0.714
13511TIP3   OH240489   6.900   0.741   6.653
13511TIP3    H140490   6.958   0.702   6.586
13511TIP3    H240491   6.827   0.680   6.660
13512TIP3   OH240492   1.918   0.143   3.806
13512TIP3    H140493   1.921   0.231   3.768
13512TIP3    H240494   2.009   0.124   3.829
13513TIP3   OH240495   2.825   7.440   3.677
13513TIP3    H140496   2.858   7.368   3.731
13513TIP3    H240497   2.903   7.491   3.656
13514TIP3   OH240498   5.806   0.081   3.523
13514TIP3    H140499   5.894   0.114   3.504
13514TIP3    H240500   5.748   0.150   3.493
13515TIP3   OH240501   1.604   2.988   2.093
13515TIP3    H140502   1.629   2.910   2.141
13515TIP3    H240503   1.516   2.969   2.060
13516TIP3   OH240504   0.601   1.210   5.387
13516TIP3    H140505   0.567   1.123   5.409
13516TIP3    H240506   0.623   1.203   5.294
13517TIP3   OH240507   3.174   0.133   0.291
13517TIP3    H140508   3.262   0.166   0.309
13517TIP3    H240509   3.187   0.045   0.256
13518TIP3   OH240510   5.985   4.675   4.173
13518TIP3    H140511   6.070   4.632   4.161
13518TIP3    H240512   5.922   4.603   4.178
13519TIP3   OH240513   1.707   1.677   5.357
13519TIP3    H140514   1.721   1.742   5.289
13519TIP3    H240515   1.632   1.710   5.406
13520TIP3   OH240516   6.415   2.193   1.619
13520TIP3    H140517   6.328   2.185   1.580
13520TIP3    H240518   6.471   2.221   1.546
13521TIP3   OH240519   4.250   4.048   5.457
13521TIP3    H140520   4.167   4.075   5.495
13521TIP3    H240521   4.316   4.101   5.504
13522TIP3   OH240522   5.933   0.891   6.407
13522TIP3    H140523   5.934   0.835   6.485
13522TIP3    H240524   5.876   0.964   6.431
13523TIP3   OH240525   0.463   2.461   1.866
13523TIP3    H140526   0.460   2.369   1.890
13523TIP3    H240527   0.382   2.498   1.902
13524TIP3   OH240528   7.719   7.295   4.511
13524TIP3    H140529   7.728   7.214   4.561
13524TIP3    H240530   7.703   7.363   4.577
13525TIP3   OH240531   5.694   6.225   4.749
13525TIP3    H140532   5.711   6.282   4.673
13525TIP3    H240533   5.599   6.231   4.762
13526TIP3   OH240534   3.793   6.196   2.593
13526TIP3    H140535   3.704   6.169   2.569
13526TIP3    H240536   3.850   6.149   2.531
13527TIP3   OH240537   4.547   4.758   3.620
13527TIP3    H140538   4.596   4.690   3.667
13527TIP3    H240539   4.464   4.716   3.599
13528TIP3   OH240540   7.152   2.363   1.587
13528TIP3    H140541   7.109   2.285   1.551
13528TIP3    H240542   7.177   2.415   1.510
13529TIP3   OH240543   7.267   2.524   3.217
13529TIP3    H140544   7.308   2.569   3.143
13529TIP3    H240545   7.324   2.543   3.291
13530TIP3   OH240546   5.363   3.489   3.704
13530TIP3    H140547   5.448   3.447   3.717
13530TIP3    H240548   5.334   3.513   3.792
13531TIP3   OH240549   4.673   7.115   5.752
13531TIP3    H140550   4.708   7.039   5.797
13531TIP3    H240551   4.685   7.095   5.659
13532TIP3   OH240552   8.157   3.085   5.391
13532TIP3    H140553   8.222   3.134   5.441
13532TIP3    H240554   8.200   3.003   5.369
13533TIP3   OH240555   1.730   1.327   2.203
13533TIP3    H140556   1.714   1.387   2.276
13533TIP3    H240557   1.797   1.371   2.151
13534TIP3   OH240558   2.780   7.088   1.099
13534TIP3    H140559   2.757   6.996   1.090
13534TIP3    H240560   2.869   7.087   1.136
13535TIP3   OH240561   2.600   4.360   6.158
13535TIP3    H140562   2.617   4.425   6.089
13535TIP3    H240563   2.642   4.280   6.127
13536TIP3   OH240564   6.676   4.935   3.751
13536TIP3    H140565   6.671   4.898   3.662
13536TIP3    H240566   6.584   4.939   3.779
13537TIP3   OH240567   1.162   6.211   3.484
13537TIP3    H140568   1.166   6.123   3.447
13537TIP3    H240569   1.253   6.242   3.481
13538TIP3   OH240570   5.741   3.425   4.420
13538TIP3    H140571   5.765   3.515   4.440
13538TIP3    H240572   5.801   3.372   4.472
13539TIP3   OH240573   6.007   3.045   4.371
13539TIP3    H140574   5.971   2.983   4.435
13539TIP3    H240575   6.102   3.031   4.377
13540TIP3   OH240576   6.723   6.216   2.063
13540TIP3    H140577   6.767   6.235   2.146
13540TIP3    H240578   6.729   6.121   2.054
13541TIP3   OH240579   0.810   0.203   2.897
13541TIP3    H140580   0.774   0.116   2.914
13541TIP3    H240581   0.736   0.263   2.906
13542TIP3   OH240582   4.186   1.335   4.683
13542TIP3    H140583   4.198   1.399   4.613
13542TIP3    H240584   4.206   1.250   4.642
13543TIP3   OH240585   7.407   6.678   0.218
13543TIP3    H140586   7.345   6.628   0.272
13543TIP3    H240587   7.353   6.743   0.173
13544TIP3   OH240588   1.546   2.589   4.699
13544TIP3    H140589   1.532   2.667   4.752
13544TIP3    H240590   1.640   2.569   4.710
13545TIP3   OH240591   5.309   4.482   5.859
13545TIP3    H140592   5.272   4.556   5.908
13545TIP3    H240593   5.285   4.500   5.768
13546TIP3   OH240594   3.187   2.783   0.096
13546TIP3    H140595   3.193   2.770   0.191
13546TIP3    H240596   3.265   2.740   0.061
13547TIP3   OH240597   3.381   7.132   1.458
13547TIP3    H140598   3.397   7.081   1.378
13547TIP3    H240599   3.461   7.123   1.509
13548TIP3   OH240600   6.634   4.237   4.044
13548TIP3    H140601   6.710   4.182   4.061
13548TIP3    H240602   6.560   4.176   4.043
13549TIP3   OH240603   1.024   2.870   4.217
13549TIP3    H140604   1.115   2.858   4.247
13549TIP3    H240605   0.997   2.953   4.256
13550TIP3   OH240606   7.701   7.691   6.575
13550TIP3    H140607   7.682   7.785   6.577
13550TIP3    H240608   7.619   7.650   6.601
13551TIP3   OH240609   3.082   0.903   2.969
13551TIP3    H140610   3.017   0.842   3.002
13551TIP3    H240611   3.063   0.986   3.013
13552TIP3   OH240612   7.397   3.728   0.751
13552TIP3    H140613   7.344   3.730   0.672
13552TIP3    H240614   7.408   3.820   0.774
13553TIP3   OH240615   7.184   1.303   5.248
13553TIP3    H140616   7.107   1.246   5.252
13553TIP3    H240617   7.240   1.262   5.183
13554TIP3   OH240618   5.237   2.239   0.188
13554TIP3    H140619   5.174   2.251   0.117
13554TIP3    H240620   5.272   2.327   0.203
13555TIP3   OH240621   5.393   7.648   6.073
13555TIP3    H140622   5.475   7.618   6.112
13555TIP3    H240623   5.347   7.693   6.144
13556TIP3   OH240624   6.542   0.427   1.741
13556TIP3    H140625   6.511   0.497   1.682
13556TIP3    H240626   6.498   0.349   1.709
13557TIP3   OH240627   5.753   6.679   3.189
13557TIP3    H140628   5.799   6.680   3.106
13557TIP3    H240629   5.665   6.710   3.169
13558TIP3   OH240630   7.925   0.333   3.894
13558TIP3    H140631   7.966   0.333   3.808
13558TIP3    H240632   7.925   0.425   3.921
13559TIP3   OH240633   6.192   1.225   1.862
13559TIP3    H140634   6.142   1.305   1.879
13559TIP3    H240635   6.278   1.243   1.900
13560TIP3   OH240636   7.789   6.493   5.242
13560TIP3    H140637   7.873   6.465   5.279
13560TIP3    H240638   7.724   6.461   5.305
13561TIP3   OH240639   5.970   1.802   5.221
13561TIP3    H140640   5.952   1.860   5.147
13561TIP3    H240641   6.023   1.731   5.184
13562TIP3   OH240642   2.991   6.958   1.201
13562TIP3    H140643   2.978   6.879   1.148
13562TIP3    H240644   2.984   6.927   1.292
13563TIP3   OH240645   3.305   2.311   3.135
13563TIP3    H140646   3.330   2.335   3.224
13563TIP3    H240647   3.213   2.338   3.128
13564TIP3   OH240648   1.688   1.940   6.309
13564TIP3    H140649   1.609   1.944   6.254
13564TIP3    H240650   1.687   2.022   6.358
13565TIP3   OH240651   2.345   0.571   4.533
13565TIP3    H140652   2.305   0.542   4.451
13565TIP3    H240653   2.406   0.501   4.556
13566TIP3   OH240654   5.858   2.737   5.223
13566TIP3    H140655   5.769   2.735   5.188
13566TIP3    H240656   5.863   2.821   5.270
13567TIP3   OH240657   4.399   1.387   4.351
13567TIP3    H140658   4.494   1.383   4.343
13567TIP3    H240659   4.366   1.348   4.270
13568TIP3   OH240660   4.090   2.277   1.479
13568TIP3    H140661   4.016   2.287   1.538
13568TIP3    H240662   4.082   2.351   1.418
13569TIP3   OH240663   8.015   2.670   5.828
13569TIP3    H140664   8.033   2.709   5.913
13569TIP3    H240665   8.094   2.687   5.777
13570TIP3   OH240666   0.127   3.649   6.556
13570TIP3    H140667   0.109   3.588   6.627
13570TIP3    H240668   0.084   3.611   6.480
13571TIP3   OH240669   0.734   1.789   0.333
13571TIP3    H140670   0.674   1.863   0.330
13571TIP3    H240671   0.744   1.761   0.242
13572TIP3   OH240672   3.251   0.857   6.093
13572TIP3    H140673   3.340   0.831   6.115
13572TIP3    H240674   3.213   0.781   6.051
13573TIP3   OH240675   0.580   7.609   1.415
13573TIP3    H140676   0.616   7.521   1.421
13573TIP3    H240677   0.532   7.621   1.498
13574TIP3   OH240678   5.471   0.235   4.361
13574TIP3    H140679   5.453   0.213   4.452
13574TIP3    H240680   5.517   0.158   4.326
13575TIP3   OH240681   7.996   1.025   5.628
13575TIP3    H140682   7.979   1.117   5.610
13575TIP3    H240683   7.943   0.977   5.564
13576TIP3   OH240684   5.889   3.709   6.124
13576TIP3    H140685   5.869   3.741   6.212
13576TIP3    H240686   5.948   3.635   6.138
13577TIP3   OH240687   6.640   3.450   3.900
13577TIP3    H140688   6.712   3.480   3.846
13577TIP3    H240689   6.589   3.528   3.920
13578TIP3   OH240690   1.286   1.853   2.094
13578TIP3    H140691   1.207   1.899   2.120
13578TIP3    H240692   1.347   1.923   2.069
13579TIP3   OH240693   7.240   2.940   4.727
13579TIP3    H140694   7.149   2.915   4.744
13579TIP3    H240695   7.291   2.863   4.751
13580TIP3   OH240696   7.925   0.544   5.973
13580TIP3    H140697   7.964   0.611   5.917
13580TIP3    H240698   7.911   0.469   5.915
13581TIP3   OH240699   5.053   1.646   4.382
13581TIP3    H140700   4.998   1.700   4.439
13581TIP3    H240701   4.990   1.603   4.324
13582TIP3   OH240702   2.140   7.336   6.710
13582TIP3    H140703   2.158   7.257   6.659
13582TIP3    H240704   2.079   7.386   6.657
13583TIP3   OH240705   4.290   2.016   5.498
13583TIP3    H140706   4.333   1.960   5.433
13583TIP3    H240707   4.361   2.042   5.557
13584TIP3   OH240708   4.959   5.812   6.669
13584TIP3    H140709   4.926   5.868   6.740
13584TIP3    H240710   4.900   5.737   6.668
13585TIP3   OH240711   2.739   1.749   5.855
13585TIP3    H140712   2.768   1.834   5.819
13585TIP3    H240713   2.644   1.754   5.852
13586TIP3   OH240714   4.862   4.234   6.602
13586TIP3    H140715   4.930   4.278   6.550
13586TIP3    H240716   4.906   4.158   6.639
13587TIP3   OH240717   5.672   5.012   3.057
13587TIP3    H140718   5.668   5.084   3.121
13587TIP3    H240719   5.605   5.034   2.992
13588TIP3   OH240720   7.759   4.076   2.746
13588TIP3    H140721   7.839   4.127   2.757
13588TIP3    H240722   7.713   4.084   2.830
13589TIP3   OH240723   3.787   3.064   4.663
13589TIP3    H140724   3.727   3.033   4.731
13589TIP3    H240725   3.805   3.155   4.687
13590TIP3   OH240726   7.336   0.432   3.758
13590TIP3    H140727   7.300   0.401   3.674
13590TIP3    H240728   7.367   0.352   3.801
13591TIP3   OH240729   3.770   1.845   2.826
13591TIP3    H140730   3.748   1.768   2.774
13591TIP3    H240731   3.708   1.844   2.899
13592TIP3   OH240732   0.064   2.040   0.374
13592TIP3    H140733   0.100   1.951   0.373
13592TIP3    H240734   0.126   2.091   0.322
13593TIP3   OH240735   5.689   4.314   6.448
13593TIP3    H140736   5.777   4.323   6.412
13593TIP3    H240737   5.702   4.316   6.543
13594TIP3   OH240738   6.993   6.077   0.467
13594TIP3    H140739   7.044   6.018   0.522
13594TIP3    H240740   6.972   6.151   0.523
13595TIP3   OH240741   1.589   0.506   0.743
13595TIP3    H140742   1.544   0.582   0.706
13595TIP3    H240743   1.580   0.517   0.838
13596TIP3   OH240744   7.822   5.174   6.701
13596TIP3    H140745   7.907   5.211   6.724
13596TIP3    H240746   7.809   5.102   6.763
13597TIP3   OH240747   5.852   2.940   4.580
13597TIP3    H140748   5.787   3.003   4.612
13597TIP3    H240749   5.869   2.883   4.655
13598TIP3   OH240750   7.927   7.362   0.548
13598TIP3    H140751   7.838   7.376   0.516
13598TIP3    H240752   7.971   7.446   0.537
13599TIP3   OH240753   2.045   5.414   3.705
13599TIP3    H140754   2.071   5.322   3.713
13599TIP3    H240755   2.083   5.457   3.782
13600TIP3   OH240756   5.929   5.357   3.015
13600TIP3    H140757   5.893   5.417   3.080
13600TIP3    H240758   5.896   5.390   2.931
13601TIP3   OH240759  -0.010   5.450   5.420
13601TIP3    H140760  -0.012   5.420   5.510
13601TIP3    H240761   0.047   5.527   5.422
13602TIP3   OH240762   7.580   6.812   4.149
13602TIP3    H140763   7.621   6.765   4.076
13602TIP3    H240764   7.530   6.881   4.107
13603TIP3   OH240765   3.842   1.945   4.417
13603TIP3    H140766   3.837   2.036   4.387
13603TIP3    H240767   3.920   1.910   4.374
13604TIP3   OH240768   6.214   2.080   6.527
13604TIP3    H140769   6.180   1.993   6.548
13604TIP3    H240770   6.136   2.131   6.504
13605TIP3   OH240771   1.510   6.794   4.587
13605TIP3    H140772   1.577   6.742   4.543
13605TIP3    H240773   1.453   6.825   4.517
13606TIP3   OH240774   5.689   3.321   0.356
13606TIP3    H140775   5.751   3.249   0.345
13606TIP3    H240776   5.603   3.279   0.356
13607TIP3   OH240777   0.495   5.128   5.445
13607TIP3    H140778   0.569   5.127   5.506
13607TIP3    H240779   0.467   5.220   5.443
13608TIP3   OH240780   1.835   1.459   3.077
13608TIP3    H140781   1.822   1.372   3.116
13608TIP3    H240782   1.888   1.442   2.999
13609TIP3   OH240783   0.052   1.471   5.678
13609TIP3    H140784   0.119   1.526   5.718
13609TIP3    H240785   0.025   1.518   5.600
13610TIP3   OH240786   5.056   5.414   3.429
13610TIP3    H140787   5.038   5.491   3.374
13610TIP3    H240788   5.040   5.445   3.518
13611TIP3   OH240789   1.715   6.012   0.746
13611TIP3    H140790   1.698   6.028   0.653
13611TIP3    H240791   1.644   6.056   0.792
13612TIP3   OH240792   6.010   7.238   0.130
13612TIP3    H140793   6.085   7.197   0.172
13612TIP3    H240794   5.941   7.235   0.196
13613TIP3   OH240795   2.254   3.298   4.774
13613TIP3    H140796   2.218   3.369   4.722
13613TIP3    H240797   2.238   3.219   4.722
13614TIP3   OH240798   4.974   6.264   4.908
13614TIP3    H140799   4.970   6.169   4.895
13614TIP3    H240800   4.883   6.291   4.919
13615TIP3   OH240801   6.147   4.000   5.336
13615TIP3    H140802   6.087   3.995   5.411
13615TIP3    H240803   6.099   3.956   5.266
13616TIP3   OH240804   6.237   4.404   0.550
13616TIP3    H140805   6.187   4.447   0.481
13616TIP3    H240806   6.216   4.311   0.540
13617TIP3   OH240807   2.638   0.007   5.892
13617TIP3    H140808   2.545   0.030   5.897
13617TIP3    H240809   2.679   0.082   5.850
13618TIP3   OH240810   2.368   7.715   4.419
13618TIP3    H140811   2.438   7.650   4.416
13618TIP3    H240812   2.394   7.782   4.355
13619TIP3   OH240813   7.790   6.953   1.751
13619TIP3    H140814   7.877   6.942   1.715
13619TIP3    H240815   7.787   6.892   1.825
13620TIP3   OH240816   4.653   3.711   1.429
13620TIP3    H140817   4.627   3.739   1.517
13620TIP3    H240818   4.607   3.629   1.415
13621TIP3   OH240819   6.834   0.370   4.925
13621TIP3    H140820   6.766   0.435   4.940
13621TIP3    H240821   6.787   0.289   4.904
13622TIP3   OH240822   7.703   1.016   2.853
13622TIP3    H140823   7.668   1.072   2.784
13622TIP3    H240824   7.784   0.980   2.816
13623TIP3   OH240825   0.546   3.333   6.013
13623TIP3    H140826   0.549   3.340   5.918
13623TIP3    H240827   0.633   3.360   6.042
13624TIP3   OH240828   2.531   1.181   4.148
13624TIP3    H140829   2.487   1.142   4.074
13624TIP3    H240830   2.493   1.269   4.156
13625TIP3   OH240831   4.360   3.863   4.537
13625TIP3    H140832   4.400   3.817   4.462
13625TIP3    H240833   4.385   3.954   4.524
13626TIP3   OH240834   3.378   1.714   4.506
13626TIP3    H140835   3.370   1.710   4.411
13626TIP3    H240836   3.356   1.804   4.529
13627TIP3   OH240837   3.895   5.061   0.545
13627TIP3    H140838   3.980   5.061   0.589
13627TIP3    H240839   3.831   5.041   0.614
13628TIP3   OH240840   7.477   4.687   6.563
13628TIP3    H140841   7.424   4.661   6.487
13628TIP3    H240842   7.414   4.694   6.634
13629TIP3   OH240843   3.894   6.782   0.402
13629TIP3    H140844   3.879   6.799   0.495
13629TIP3    H240845   3.808   6.758   0.368
13630TIP3   OH240846   8.285   4.017   5.681
13630TIP3    H140847   8.252   3.977   5.762
13630TIP3    H240848   8.227   4.092   5.667
13631TIP3   OH240849   1.438   0.223   1.485
13631TIP3    H140850   1.501   0.206   1.415
13631TIP3    H240851   1.363   0.166   1.464
13632TIP3   OH240852   7.340   7.078   4.435
13632TIP3    H140853   7.372   7.128   4.510
13632TIP3    H240854   7.314   7.145   4.372
13633TIP3   OH240855   5.091   1.854   5.028
13633TIP3    H140856   4.997   1.864   5.041
13633TIP3    H240857   5.102   1.762   5.001
13634TIP3   OH240858   5.532   7.778   0.783
13634TIP3    H140859   5.449   7.824   0.767
13634TIP3    H240860   5.549   7.791   0.877
13635TIP3   OH240861   3.277   3.003   5.202
13635TIP3    H140862   3.352   3.009   5.260
13635TIP3    H240863   3.203   2.984   5.259
13636TIP3   OH240864   4.440   4.269   2.969
13636TIP3    H140865   4.473   4.315   3.046
13636TIP3    H240866   4.519   4.238   2.924
13637TIP3   OH240867   7.733   5.732   3.377
13637TIP3    H140868   7.717   5.706   3.468
13637TIP3    H240869   7.733   5.650   3.328
13638TIP3   OH240870   1.229   1.112   1.002
13638TIP3    H140871   1.213   1.100   1.096
13638TIP3    H240872   1.284   1.190   0.996
13639TIP3   OH240873   5.340   4.376   6.121
13639TIP3    H140874   5.390   4.346   6.197
13639TIP3    H240875   5.341   4.471   6.127
13640TIP3   OH240876   6.579   3.723   2.476
13640TIP3    H140877   6.561   3.790   2.410
13640TIP3    H240878   6.532   3.645   2.444
13641TIP3   OH240879   3.974   1.949   1.518
13641TIP3    H140880   3.953   1.855   1.517
13641TIP3    H240881   4.046   1.957   1.580
13642TIP3   OH240882   4.501   0.589   1.710
13642TIP3    H140883   4.455   0.652   1.655
13642TIP3    H240884   4.585   0.576   1.666
13643TIP3   OH240885   0.798   5.517   0.081
13643TIP3    H140886   0.704   5.535   0.081
13643TIP3    H240887   0.835   5.586   0.025
13644TIP3   OH240888   3.494   4.698   2.090
13644TIP3    H140889   3.412   4.671   2.048
13644TIP3    H240890   3.562   4.666   2.031
13645TIP3   OH240891   1.274   4.428   6.697
13645TIP3    H140892   1.349   4.469   6.656
13645TIP3    H240893   1.214   4.409   6.625
13646TIP3   OH240894   2.927   0.011   0.852
13646TIP3    H140895   2.921   0.093   0.902
13646TIP3    H240896   2.908   0.037   0.762
13647TIP3   OH240897   8.181   1.867   2.493
13647TIP3    H140898   8.179   1.961   2.512
13647TIP3    H240899   8.190   1.826   2.579
13648TIP3   OH240900   4.221   1.340   6.362
13648TIP3    H140901   4.232   1.393   6.283
13648TIP3    H240902   4.290   1.370   6.421
13649TIP3   OH240903   2.893   0.871   5.386
13649TIP3    H140904   2.900   0.927   5.463
13649TIP3    H240905   2.871   0.930   5.314
13650TIP3   OH240906   4.868   3.202   1.458
13650TIP3    H140907   4.898   3.112   1.448
13650TIP3    H240908   4.904   3.248   1.382
13651TIP3   OH240909   1.599   2.501   0.929
13651TIP3    H140910   1.534   2.504   0.859
13651TIP3    H240911   1.680   2.531   0.889
13652TIP3   OH240912   4.568   0.825   3.110
13652TIP3    H140913   4.476   0.845   3.095
13652TIP3    H240914   4.610   0.842   3.026
13653TIP3   OH240915   7.334   6.044   4.995
13653TIP3    H140916   7.306   6.050   4.903
13653TIP3    H240917   7.327   6.133   5.028
13654TIP3   OH240918   0.587   2.643   5.530
13654TIP3    H140919   0.637   2.623   5.451
13654TIP3    H240920   0.506   2.594   5.520
13655TIP3   OH240921   1.624   2.050   0.453
13655TIP3    H140922   1.583   2.136   0.443
13655TIP3    H240923   1.572   1.991   0.399
13656TIP3   OH240924   5.760   0.384   6.604
13656TIP3    H140925   5.844   0.430   6.610
13656TIP3    H240926   5.698   0.443   6.646
13657TIP3   OH240927   1.201   3.387   1.805
13657TIP3    H140928   1.118   3.390   1.758
13657TIP3    H240929   1.262   3.342   1.746
13658TIP3   OH240930   2.044   0.061   1.461
13658TIP3    H140931   1.954   0.076   1.492
13658TIP3    H240932   2.074   0.148   1.435
13659TIP3   OH240933   2.273   5.146   6.442
13659TIP3    H140934   2.245   5.097   6.364
13659TIP3    H240935   2.273   5.237   6.413
13660TIP3   OH240936   3.451   6.269   5.814
13660TIP3    H140937   3.360   6.276   5.843
13660TIP3    H240938   3.502   6.286   5.893
13661TIP3   OH240939   2.207   4.016   3.443
13661TIP3    H140940   2.185   4.066   3.364
13661TIP3    H240941   2.135   3.954   3.452
13662TIP3   OH240942   0.891   0.597   2.542
13662TIP3    H140943   0.835   0.674   2.556
13662TIP3    H240944   0.842   0.524   2.581
13663TIP3   OH240945   4.079   4.813   2.553
13663TIP3    H140946   4.159   4.847   2.513
13663TIP3    H240947   4.102   4.726   2.584
13664TIP3   OH240948   0.957   4.283   4.844
13664TIP3    H140949   1.044   4.244   4.852
13664TIP3    H240950   0.916   4.265   4.929
13665TIP3   OH240951   7.477   0.096   2.870
13665TIP3    H140952   7.416   0.136   2.808
13665TIP3    H240953   7.479   0.003   2.845
13666TIP3   OH240954   5.571   7.633   4.417
13666TIP3    H140955   5.511   7.666   4.350
13666TIP3    H240956   5.655   7.625   4.372
13667TIP3   OH240957   0.510   5.326   5.918
13667TIP3    H140958   0.422   5.336   5.954
13667TIP3    H240959   0.552   5.262   5.976
13668TIP3   OH240960   5.673   7.137   2.453
13668TIP3    H140961   5.578   7.134   2.442
13668TIP3    H240962   5.688   7.213   2.510
13669TIP3   OH240963   4.668   3.915   6.354
13669TIP3    H140964   4.658   3.819   6.351
13669TIP3    H240965   4.756   3.928   6.389
13670TIP3   OH240966   2.667   2.178   4.826
13670TIP3    H140967   2.648   2.255   4.880
13670TIP3    H240968   2.667   2.105   4.887
13671TIP3   OH240969   4.388   1.304   0.307
13671TIP3    H140970   4.366   1.394   0.286
13671TIP3    H240971   4.304   1.260   0.319
13672TIP3   OH240972   7.849   0.744   1.600
13672TIP3    H140973   7.848   0.839   1.590
13672TIP3    H240974   7.931   0.725   1.646
13673TIP3   OH240975   5.873   5.461   3.458
13673TIP3    H140976   5.952   5.514   3.463
13673TIP3    H240977   5.868   5.416   3.542
13674TIP3   OH240978   1.077   2.890   5.463
13674TIP3    H140979   1.144   2.924   5.403
13674TIP3    H240980   0.995   2.902   5.416
13675TIP3   OH240981   6.279   4.127   3.587
13675TIP3    H140982   6.372   4.120   3.565
13675TIP3    H240983   6.252   4.211   3.551
13676TIP3   OH240984   6.592   6.906   4.650
13676TIP3    H140985   6.659   6.956   4.602
13676TIP3    H240986   6.509   6.932   4.610
13677TIP3   OH240987   1.221   7.553   6.047
13677TIP3    H140988   1.126   7.563   6.054
13677TIP3    H240989   1.233   7.496   5.971
13678TIP3   OH240990   0.960   4.302   0.399
13678TIP3    H140991   0.985   4.251   0.322
13678TIP3    H240992   0.950   4.392   0.366
13679TIP3   OH240993   3.343   6.709   1.083
13679TIP3    H140994   3.277   6.692   1.151
13679TIP3    H240995   3.307   6.781   1.032
13680TIP3   OH240996   8.237   0.842   0.184
13680TIP3    H140997   8.261   0.817   0.095
13680TIP3    H240998   8.237   0.938   0.183
13681TIP3   OH240999   6.228   2.094   2.878
13681TIP3    H141000   6.245   2.035   2.804
13681TIP3    H241001   6.235   2.038   2.955
13682TIP3   OH241002   7.676   2.810   1.592
13682TIP3    H141003   7.634   2.802   1.506
13682TIP3    H241004   7.699   2.721   1.615
13683TIP3   OH241005   6.414   4.600   1.370
13683TIP3    H141006   6.493   4.600   1.315
13683TIP3    H241007   6.399   4.692   1.391
13684TIP3   OH241008   0.589   4.229   6.369
13684TIP3    H141009   0.637   4.289   6.310
13684TIP3    H241010   0.657   4.173   6.406
13685TIP3   OH241011   4.918   0.532   2.329
13685TIP3    H141012   4.899   0.624   2.350
13685TIP3    H241013   4.841   0.502   2.283
13686TIP3   OH241014   4.835   0.482   0.643
13686TIP3    H141015   4.763   0.545   0.633
13686TIP3    H241016   4.841   0.467   0.738
13687TIP3   OH241017   0.773   0.010   1.238
13687TIP3    H141018   0.812   0.043   1.157
13687TIP3    H241019   0.845   0.013   1.301
13688TIP3   OH241020   0.220   3.591   4.847
13688TIP3    H141021   0.197   3.503   4.818
13688TIP3    H241022   0.138   3.641   4.841
13689TIP3   OH241023   2.951   4.429   5.832
13689TIP3    H141024   2.974   4.336   5.820
13689TIP3    H241025   3.031   4.469   5.865
13690TIP3   OH241026   6.429   4.196   3.274
13690TIP3    H141027   6.475   4.218   3.355
13690TIP3    H241028   6.376   4.274   3.256
13691TIP3   OH241029   4.780   1.612   6.504
13691TIP3    H141030   4.741   1.530   6.475
13691TIP3    H241031   4.768   1.671   6.430
13692TIP3   OH241032   6.023   0.863   3.215
13692TIP3    H141033   6.014   0.935   3.278
13692TIP3    H241034   5.984   0.897   3.134
13693TIP3   OH241035   8.222   6.384   3.557
13693TIP3    H141036   8.278   6.431   3.620
13693TIP3    H241037   8.138   6.375   3.603
13694TIP3   OH241038   7.629   4.265   5.761
13694TIP3    H141039   7.641   4.332   5.693
13694TIP3    H241040   7.602   4.315   5.838
13695TIP3   OH241041   0.892   4.526   2.477
13695TIP3    H141042   0.878   4.577   2.557
13695TIP3    H241043   0.805   4.492   2.455
13696TIP3   OH241044   2.688   5.966   2.057
13696TIP3    H141045   2.725   6.039   2.007
13696TIP3    H241046   2.757   5.900   2.056
13697TIP3   OH241047   1.347   0.913   4.193
13697TIP3    H141048   1.416   0.920   4.127
13697TIP3    H241049   1.362   0.828   4.234
13698TIP3   OH241050   1.876   1.265   6.285
13698TIP3    H141051   1.801   1.208   6.270
13698TIP3    H241052   1.944   1.231   6.227
13699TIP3   OH241053   6.822   4.361   5.800
13699TIP3    H141054   6.741   4.318   5.774
13699TIP3    H241055   6.827   4.346   5.895
13700TIP3   OH241056   3.611   0.900   2.208
13700TIP3    H141057   3.589   0.842   2.135
13700TIP3    H241058   3.579   0.854   2.286
13701TIP3   OH241059   3.370   5.922   4.410
13701TIP3    H141060   3.346   5.920   4.318
13701TIP3    H241061   3.430   5.848   4.420
13702TIP3   OH241062   1.660   4.723   4.073
13702TIP3    H141063   1.705   4.807   4.079
13702TIP3    H241064   1.620   4.711   4.159
13703TIP3   OH241065   3.104   6.457   6.332
13703TIP3    H141066   3.199   6.447   6.321
13703TIP3    H241067   3.072   6.485   6.247
13704TIP3   OH241068   5.715   2.919   1.676
13704TIP3    H141069   5.673   2.978   1.739
13704TIP3    H241070   5.780   2.871   1.727
13705TIP3   OH241071   0.544   4.824   1.574
13705TIP3    H141072   0.525   4.733   1.554
13705TIP3    H241073   0.580   4.860   1.493
13706TIP3   OH241074   4.120   4.337   5.149
13706TIP3    H141075   4.062   4.393   5.201
13706TIP3    H241076   4.159   4.397   5.085
13707TIP3   OH241077   0.629   5.457   2.333
13707TIP3    H141078   0.710   5.407   2.331
13707TIP3    H241079   0.656   5.548   2.346
13708TIP3   OH241080   3.919   3.481   0.409
13708TIP3    H141081   4.004   3.462   0.448
13708TIP3    H241082   3.866   3.515   0.482
13709TIP3   OH241083   4.763   0.654   3.253
13709TIP3    H141084   4.786   0.587   3.188
13709TIP3    H241085   4.680   0.690   3.221
13710TIP3   OH241086   7.768   1.405   2.847
13710TIP3    H141087   7.828   1.459   2.795
13710TIP3    H241088   7.703   1.374   2.784
13711TIP3   OH241089   7.361   2.924   1.923
13711TIP3    H141090   7.340   2.999   1.978
13711TIP3    H241091   7.300   2.855   1.950
13712TIP3   OH241092   3.806   5.557   5.529
13712TIP3    H141093   3.883   5.502   5.545
13712TIP3    H241094   3.735   5.514   5.577
13713TIP3   OH241095   3.550   6.267   1.619
13713TIP3    H141096   3.553   6.268   1.715
13713TIP3    H241097   3.637   6.238   1.593
13714TIP3   OH241098   6.011   3.909   5.128
13714TIP3    H141099   5.919   3.912   5.155
13714TIP3    H241100   6.036   3.818   5.138
13715TIP3   OH241101   1.788   6.899   4.935
13715TIP3    H141102   1.816   6.844   4.862
13715TIP3    H241103   1.732   6.966   4.895
13716TIP3   OH241104   3.864   5.491   6.509
13716TIP3    H141105   3.929   5.467   6.443
13716TIP3    H241106   3.819   5.409   6.530
13717TIP3   OH241107   1.502   7.311   5.394
13717TIP3    H141108   1.478   7.354   5.476
13717TIP3    H241109   1.536   7.382   5.339
13718TIP3   OH241110   0.665   4.876   2.903
13718TIP3    H141111   0.654   4.967   2.929
13718TIP3    H241112   0.606   4.865   2.828
13719TIP3   OH241113   6.455   2.465   1.020
13719TIP3    H141114   6.367   2.491   0.995
13719TIP3    H241115   6.454   2.369   1.018
13720TIP3   OH241116   3.485   0.037   3.842
13720TIP3    H141117   3.528   0.119   3.819
13720TIP3    H241118   3.495  -0.018   3.764
13721TIP3   OH241119   7.798   3.711   5.858
13721TIP3    H141120   7.703   3.700   5.852
13721TIP3    H241121   7.810   3.775   5.928
13722TIP3   OH241122   6.558   4.157   5.707
13722TIP3    H141123   6.631   4.110   5.667
13722TIP3    H241124   6.488   4.153   5.641
13723TIP3   OH241125   6.162   3.071   6.413
13723TIP3    H141126   6.193   3.113   6.333
13723TIP3    H241127   6.082   3.119   6.435
13724TIP3   OH241128   6.773   1.858   3.580
13724TIP3    H141129   6.840   1.896   3.523
13724TIP3    H241130   6.692   1.901   3.553
13725TIP3   OH241131   0.462   0.602   4.052
13725TIP3    H141132   0.493   0.680   4.098
13725TIP3    H241133   0.375   0.586   4.087
13726TIP3   OH241134   4.449   4.116   4.495
13726TIP3    H141135   4.525   4.086   4.445
13726TIP3    H241136   4.486   4.157   4.573
13727TIP3   OH241137   3.242   3.344   5.446
13727TIP3    H141138   3.224   3.250   5.450
13727TIP3    H241139   3.203   3.373   5.364
13728TIP3   OH241140   2.276   4.939   2.237
13728TIP3    H141141   2.187   4.916   2.211
13728TIP3    H241142   2.305   4.864   2.289
13729TIP3   OH241143   5.557   1.212   3.973
13729TIP3    H141144   5.497   1.161   3.919
13729TIP3    H241145   5.519   1.300   3.975
13730TIP3   OH241146   1.852   7.110   2.776
13730TIP3    H141147   1.882   7.186   2.726
13730TIP3    H241148   1.815   7.052   2.711
13731TIP3   OH241149   2.184   1.969   3.158
13731TIP3    H141150   2.187   1.962   3.063
13731TIP3    H241151   2.155   1.882   3.188
13732TIP3   OH241152   3.984   7.555   3.963
13732TIP3    H141153   3.943   7.628   4.010
13732TIP3    H241154   4.078   7.576   3.964
13733TIP3   OH241155   3.579   3.798   6.643
13733TIP3    H141156   3.559   3.891   6.634
13733TIP3    H241157   3.667   3.788   6.605
13734TIP3   OH241158   3.915   4.586   3.840
13734TIP3    H141159   3.945   4.501   3.808
13734TIP3    H241160   3.989   4.621   3.890
13735TIP3   OH241161   5.267   5.255   4.276
13735TIP3    H141162   5.208   5.266   4.351
13735TIP3    H241163   5.332   5.324   4.286
13736TIP3   OH241164   7.340   5.588   0.726
13736TIP3    H141165   7.397   5.637   0.786
13736TIP3    H241166   7.318   5.508   0.775
13737TIP3   OH241167   7.324   6.026   5.351
13737TIP3    H141168   7.254   6.012   5.288
13737TIP3    H241169   7.404   6.020   5.298
13738TIP3   OH241170   2.627   6.700   5.627
13738TIP3    H141171   2.637   6.606   5.644
13738TIP3    H241172   2.586   6.705   5.541
13739TIP3   OH241173   3.788   1.162   4.702
13739TIP3    H141174   3.866   1.176   4.647
13739TIP3    H241175   3.714   1.183   4.645
13740TIP3   OH241176   0.614   3.718   5.904
13740TIP3    H141177   0.613   3.813   5.896
13740TIP3    H241178   0.546   3.688   5.843
13741TIP3   OH241179   6.163   7.092   0.585
13741TIP3    H141180   6.124   7.179   0.573
13741TIP3    H241181   6.153   7.075   0.679
13742TIP3   OH241182   6.734   1.220   2.095
13742TIP3    H141183   6.798   1.174   2.149
13742TIP3    H241184   6.780   1.299   2.067
13743TIP3   OH241185   1.654   6.054   6.459
13743TIP3    H141186   1.741   6.091   6.472
13743TIP3    H241187   1.613   6.111   6.394
13744TIP3   OH241188   8.053   0.424   0.737
13744TIP3    H141189   8.017   0.512   0.734
13744TIP3    H241190   8.010   0.378   0.665
13745TIP3   OH241191   8.121   5.271   3.434
13745TIP3    H141192   8.150   5.353   3.395
13745TIP3    H241193   8.069   5.297   3.510
13746TIP3   OH241194   1.457   0.313   3.242
13746TIP3    H141195   1.438   0.308   3.148
13746TIP3    H241196   1.420   0.232   3.278
13747TIP3   OH241197   6.371   6.792   2.174
13747TIP3    H141198   6.457   6.754   2.154
13747TIP3    H241199   6.387   6.886   2.179
13748TIP3   OH241200   1.142   3.897   1.207
13748TIP3    H141201   1.221   3.845   1.189
13748TIP3    H241202   1.176   3.981   1.237
13749TIP3   OH241203   0.172   3.731   2.247
13749TIP3    H141204   0.147   3.647   2.285
13749TIP3    H241205   0.132   3.730   2.159
13750TIP3   OH241206   7.531   5.594   6.220
13750TIP3    H141207   7.567   5.612   6.133
13750TIP3    H241208   7.437   5.611   6.210
13751TIP3   OH241209   4.933   2.244   1.055
13751TIP3    H141210   4.887   2.164   1.082
13751TIP3    H241211   4.881   2.278   0.982
13752TIP3   OH241212   5.644   5.626   0.032
13752TIP3    H141213   5.613   5.712   0.005
13752TIP3    H241214   5.731   5.642   0.068
13753TIP3   OH241215   4.073   3.499   1.376
13753TIP3    H141216   4.154   3.458   1.405
13753TIP3    H241217   4.011   3.426   1.367
13754TIP3   OH241218   3.299   4.313   3.952
13754TIP3    H141219   3.273   4.403   3.933
13754TIP3    H241220   3.278   4.301   4.044
13755TIP3   OH241221   3.644   4.655   6.088
13755TIP3    H141222   3.594   4.575   6.108
13755TIP3    H241223   3.624   4.714   6.160
13756TIP3   OH241224   6.505   2.086   3.001
13756TIP3    H141225   6.542   1.998   2.997
13756TIP3    H241226   6.540   2.131   2.924
13757TIP3   OH241227   7.325   6.572   5.568
13757TIP3    H141228   7.307   6.500   5.509
13757TIP3    H241229   7.238   6.607   5.591
13758TIP3   OH241230   2.433   3.452   2.340
13758TIP3    H141231   2.367   3.398   2.384
13758TIP3    H241232   2.463   3.513   2.408
13759TIP3   OH241233   5.467   2.820   3.955
13759TIP3    H141234   5.378   2.805   3.987
13759TIP3    H241235   5.463   2.902   3.907
13760TIP3   OH241236   3.521   6.145   2.478
13760TIP3    H141237   3.450   6.081   2.490
13760TIP3    H241238   3.500   6.215   2.539
13761TIP3   OH241239   0.496   1.444   2.938
13761TIP3    H141240   0.567   1.385   2.913
13761TIP3    H241241   0.539   1.511   2.992
13762TIP3   OH241242   3.537   4.947   3.172
13762TIP3    H141243   3.520   4.859   3.206
13762TIP3    H241244   3.598   4.933   3.099
13763TIP3   OH241245   3.302   6.721   4.955
13763TIP3    H141246   3.301   6.635   4.915
13763TIP3    H241247   3.254   6.711   5.037
13764TIP3   OH241248   5.838   6.362   5.990
13764TIP3    H141249   5.904   6.295   6.002
13764TIP3    H241250   5.834   6.376   5.895
13765TIP3   OH241251   7.902   5.055   2.346
13765TIP3    H141252   7.829   5.010   2.389
13765TIP3    H241253   7.878   5.057   2.253
13766TIP3   OH241254   8.224   4.552   0.249
13766TIP3    H141255   8.271   4.477   0.285
13766TIP3    H241256   8.260   4.628   0.295
13767TIP3   OH241257   7.123   6.828   5.224
13767TIP3    H141258   7.173   6.856   5.148
13767TIP3    H241259   7.145   6.892   5.292
13768TIP3   OH241260   7.686   1.976   4.882
13768TIP3    H141261   7.665   2.068   4.896
13768TIP3    H241262   7.758   1.958   4.943
13769TIP3   OH241263   0.902   5.842   1.421
13769TIP3    H141264   0.933   5.931   1.439
13769TIP3    H241265   0.958   5.811   1.349
13770TIP3   OH241266   4.962   3.702   0.107
13770TIP3    H141267   4.898   3.739   0.046
13770TIP3    H241268   5.044   3.747   0.086
13771TIP3   OH241269   7.988   1.456   4.745
13771TIP3    H141270   8.001   1.539   4.699
13771TIP3    H241271   7.939   1.479   4.824
13772TIP3   OH241272   5.101   4.825   5.705
13772TIP3    H141273   5.099   4.862   5.617
13772TIP3    H241274   5.009   4.825   5.733
13773TIP3   OH241275   3.880   4.478   2.656
13773TIP3    H141276   3.923   4.521   2.582
13773TIP3    H241277   3.908   4.528   2.733
13774TIP3   OH241278   4.578   1.713   0.713
13774TIP3    H141279   4.633   1.754   0.647
13774TIP3    H241280   4.498   1.688   0.667
13775TIP3   OH241281   2.500   0.635   2.447
13775TIP3    H141282   2.436   0.589   2.501
13775TIP3    H241283   2.481   0.728   2.462
13776TIP3   OH241284   5.950   6.883   0.736
13776TIP3    H141285   6.031   6.930   0.717
13776TIP3    H241286   5.881   6.944   0.709
13777TIP3   OH241287   0.827   5.209   4.621
13777TIP3    H141288   0.869   5.255   4.694
13777TIP3    H241289   0.759   5.155   4.663
13778TIP3   OH241290   2.287   1.787   0.777
13778TIP3    H141291   2.276   1.842   0.855
13778TIP3    H241292   2.362   1.825   0.732
13779TIP3   OH241293   7.846   2.424   2.800
13779TIP3    H141294   7.811   2.391   2.717
13779TIP3    H241295   7.786   2.494   2.825
13780TIP3   OH241296   7.529   1.537   5.308
13780TIP3    H141297   7.479   1.528   5.389
13780TIP3    H241298   7.538   1.631   5.294
13781TIP3   OH241299   7.864   2.380   0.751
13781TIP3    H141300   7.943   2.360   0.701
13781TIP3    H241301   7.848   2.300   0.802
13782TIP3   OH241302   3.027   7.028   4.235
13782TIP3    H141303   2.948   7.033   4.289
13782TIP3    H241304   2.998   7.055   4.148
13783TIP3   OH241305   8.036   3.691   0.697
13783TIP3    H141306   8.101   3.622   0.683
13783TIP3    H241307   7.991   3.666   0.777
13784TIP3   OH241308   2.570   4.356   2.073
13784TIP3    H141309   2.566   4.407   1.993
13784TIP3    H241310   2.481   4.359   2.108
13785TIP3   OH241311   5.824   1.950   3.973
13785TIP3    H141312   5.826   2.025   4.032
13785TIP3    H241313   5.914   1.917   3.972
13786TIP3   OH241314   3.883   2.488   1.932
13786TIP3    H141315   3.967   2.442   1.932
13786TIP3    H241316   3.876   2.526   2.020
13787TIP3   OH241317   3.911   3.163   0.429
13787TIP3    H141318   3.891   3.098   0.496
13787TIP3    H241319   3.963   3.229   0.474
13788TIP3   OH241320   0.249   1.675   1.732
13788TIP3    H141321   0.166   1.719   1.712
13788TIP3    H241322   0.311   1.746   1.746
13789TIP3   OH241323   7.506   4.013   1.017
13789TIP3    H141324   7.470   3.999   0.929
13789TIP3    H241325   7.430   4.028   1.072
13790TIP3   OH241326   8.014   7.078   1.372
13790TIP3    H141327   7.947   7.011   1.377
13790TIP3    H241328   8.038   7.096   1.464
13791TIP3   OH241329   7.882   5.431   4.440
13791TIP3    H141330   7.851   5.385   4.518
13791TIP3    H241331   7.952   5.488   4.473
13792TIP3   OH241332   4.863   2.475   2.017
13792TIP3    H141333   4.857   2.379   2.016
13792TIP3    H241334   4.920   2.494   2.092
13793TIP3   OH241335   0.121   1.821   4.818
13793TIP3    H141336   0.128   1.833   4.723
13793TIP3    H241337   0.051   1.880   4.845
13794TIP3   OH241338   2.084   5.067   3.253
13794TIP3    H141339   2.105   5.070   3.346
13794TIP3    H241340   2.166   5.092   3.210
13795TIP3   OH241341   1.191   0.746   3.853
13795TIP3    H141342   1.183   0.838   3.881
13795TIP3    H241343   1.211   0.699   3.934
13796TIP3   OH241344   2.576   6.572   6.668
13796TIP3    H141345   2.521   6.650   6.669
13796TIP3    H241346   2.656   6.600   6.624
13797TIP3   OH241347   6.972   1.082   1.272
13797TIP3    H141348   6.877   1.087   1.262
13797TIP3    H241349   7.007   1.092   1.183
13798TIP3   OH241350   3.116   7.158   6.181
13798TIP3    H141351   3.098   7.127   6.092
13798TIP3    H241352   3.157   7.084   6.224
13799TIP3   OH241353   5.169   5.939   3.182
13799TIP3    H141354   5.218   5.982   3.113
13799TIP3    H241355   5.153   5.851   3.148
13800TIP3   OH241356   1.595   6.057   0.219
13800TIP3    H141357   1.524   5.997   0.239
13800TIP3    H241358   1.611   6.045   0.125
13801TIP3   OH241359   0.629   1.152   4.840
13801TIP3    H141360   0.683   1.221   4.802
13801TIP3    H241361   0.591   1.106   4.765
13802TIP3   OH241362   1.108   0.857   5.474
13802TIP3    H141363   1.153   0.786   5.428
13802TIP3    H241364   1.068   0.910   5.405
13803TIP3   OH241365   3.788   6.159   3.118
13803TIP3    H141366   3.883   6.152   3.127
13803TIP3    H241367   3.753   6.110   3.191
13804TIP3   OH241368   2.889   0.692   0.203
13804TIP3    H141369   2.945   0.770   0.201
13804TIP3    H241370   2.867   0.676   0.111
13805TIP3   OH241371   1.715   6.325   5.109
13805TIP3    H141372   1.651   6.334   5.180
13805TIP3    H241373   1.773   6.400   5.120
13806TIP3   OH241374   4.850   0.449   0.125
13806TIP3    H141375   4.824   0.415   0.210
13806TIP3    H241376   4.806   0.392   0.062
13807TIP3   OH241377   6.382   3.412   1.694
13807TIP3    H141378   6.313   3.389   1.756
13807TIP3    H241379   6.435   3.477   1.741
13808TIP3   OH241380   7.366   5.696   3.051
13808TIP3    H141381   7.316   5.621   3.084
13808TIP3    H241382   7.451   5.659   3.026
13809TIP3   OH241383   2.409   1.666   6.513
13809TIP3    H141384   2.397   1.723   6.437
13809TIP3    H241385   2.322   1.630   6.530
13810TIP3   OH241386   7.879   4.309   5.384
13810TIP3    H141387   7.877   4.226   5.432
13810TIP3    H241388   7.878   4.283   5.292
13811TIP3   OH241389   6.661   5.714   4.208
13811TIP3    H141390   6.586   5.704   4.266
13811TIP3    H241391   6.675   5.809   4.202
13812TIP3   OH241392   7.520   5.298   0.399
13812TIP3    H141393   7.536   5.384   0.438
13812TIP3    H241394   7.595   5.245   0.426
13813TIP3   OH241395   4.438   0.445   0.358
13813TIP3    H141396   4.371   0.398   0.307
13813TIP3    H241397   4.461   0.384   0.428
13814TIP3   OH241398   2.102   5.949   0.031
13814TIP3    H141399   2.089   5.943  -0.064
13814TIP3    H241400   2.085   5.860   0.063
13815TIP3   OH241401   2.276   4.794   4.981
13815TIP3    H141402   2.356   4.789   4.930
13815TIP3    H241403   2.260   4.705   5.010
13816TIP3   OH241404   6.303   7.401   3.412
13816TIP3    H141405   6.257   7.320   3.434
13816TIP3    H241406   6.239   7.470   3.429
13817TIP3   OH241407   2.768   1.942   4.518
13817TIP3    H141408   2.732   2.000   4.585
13817TIP3    H241409   2.704   1.944   4.447
13818TIP3   OH241410   2.266   0.963   6.745
13818TIP3    H141411   2.265   0.890   6.806
13818TIP3    H241412   2.347   1.010   6.764
13819TIP3   OH241413   7.908   3.912   5.095
13819TIP3    H141414   7.974   3.876   5.036
13819TIP3    H241415   7.946   3.903   5.183
13820TIP3   OH241416   4.280   0.598   5.113
13820TIP3    H141417   4.241   0.675   5.153
13820TIP3    H241418   4.373   0.603   5.136
13821TIP3   OH241419   3.731   2.109   6.208
13821TIP3    H141420   3.788   2.079   6.138
13821TIP3    H241421   3.788   2.110   6.286
13822TIP3   OH241422   0.391   4.263   6.581
13822TIP3    H141423   0.411   4.189   6.638
13822TIP3    H241424   0.462   4.263   6.516
13823TIP3   OH241425   5.358   1.765   5.801
13823TIP3    H141426   5.354   1.753   5.707
13823TIP3    H241427   5.324   1.854   5.816
13824TIP3   OH241428   2.272   0.465   3.069
13824TIP3    H141429   2.213   0.497   3.001
13824TIP3    H241430   2.340   0.532   3.077
13825TIP3   OH241431   1.418   7.793   2.596
13825TIP3    H141432   1.360   7.869   2.586
13825TIP3    H241433   1.491   7.811   2.537
13826TIP3   OH241434   2.472   5.572   0.427
13826TIP3    H141435   2.491   5.562   0.520
13826TIP3    H241436   2.487   5.665   0.410
13827TIP3   OH241437   1.420   3.022   5.609
13827TIP3    H141438   1.383   3.038   5.522
13827TIP3    H241439   1.358   2.962   5.651
13828TIP3   OH241440   5.262   1.333   4.162
13828TIP3    H141441   5.336   1.380   4.200
13828TIP3    H241442   5.204   1.315   4.236
13829TIP3   OH241443   1.782   5.932   1.719
13829TIP3    H141444   1.707   5.873   1.730
13829TIP3    H241445   1.752   6.016   1.754
13830TIP3   OH241446   7.492   3.829   5.000
13830TIP3    H141447   7.471   3.899   4.939
13830TIP3    H241448   7.577   3.796   4.970
13831TIP3   OH241449   1.813   6.053   5.050
13831TIP3    H141450   1.836   6.019   5.137
13831TIP3    H241451   1.815   6.148   5.060
13832TIP3   OH241452   3.635   4.051   5.918
13832TIP3    H141453   3.582   4.117   5.963
13832TIP3    H241454   3.720   4.055   5.961
13833TIP3   OH241455   7.282   6.397   3.851
13833TIP3    H141456   7.207   6.439   3.893
13833TIP3    H241457   7.249   6.310   3.826
13834TIP3   OH241458   2.652   3.367   2.622
13834TIP3    H141459   2.743   3.368   2.592
13834TIP3    H241460   2.614   3.448   2.587
13835TIP3   OH241461   7.840   7.294   1.972
13835TIP3    H141462   7.864   7.386   1.980
13835TIP3    H241463   7.897   7.249   2.034
13836TIP3   OH241464   4.870   6.337   1.583
13836TIP3    H141465   4.864   6.258   1.529
13836TIP3    H241466   4.919   6.309   1.661
13837TIP3   OH241467   7.221   3.214   4.763
13837TIP3    H141468   7.315   3.215   4.779
13837TIP3    H241469   7.204   3.130   4.721
13838TIP3   OH241470   1.213   3.832   5.732
13838TIP3    H141471   1.287   3.803   5.678
13838TIP3    H241472   1.238   3.920   5.761
13839TIP3   OH241473   0.096   1.197   2.836
13839TIP3    H141474   0.101   1.105   2.810
13839TIP3    H241475   0.023   1.232   2.785
13840TIP3   OH241476   2.761   5.011   6.479
13840TIP3    H141477   2.687   5.072   6.479
13840TIP3    H241478   2.735   4.942   6.417
13841TIP3   OH241479   5.299   7.441   1.253
13841TIP3    H141480   5.350   7.503   1.202
13841TIP3    H241481   5.331   7.355   1.227
13842TIP3   OH241482   5.139   3.876   4.364
13842TIP3    H141483   5.147   3.941   4.295
13842TIP3    H241484   5.094   3.922   4.435
13843TIP3   OH241485   3.000   5.816   6.705
13843TIP3    H141486   3.017   5.783   6.793
13843TIP3    H241487   2.912   5.854   6.710
13844TIP3   OH241488   0.840   5.299   6.146
13844TIP3    H141489   0.890   5.231   6.101
13844TIP3    H241490   0.779   5.252   6.202
13845TIP3   OH241491   2.565   1.583   4.623
13845TIP3    H141492   2.529   1.495   4.613
13845TIP3    H241493   2.546   1.626   4.540
13846TIP3   OH241494   0.719   3.642   0.910
13846TIP3    H141495   0.728   3.648   1.005
13846TIP3    H241496   0.627   3.621   0.896
13847TIP3   OH241497   7.460   6.338   1.021
13847TIP3    H141498   7.372   6.374   1.033
13847TIP3    H241499   7.449   6.269   0.955
13848TIP3   OH241500   3.207   5.664   0.126
13848TIP3    H141501   3.269   5.718   0.174
13848TIP3    H241502   3.262   5.609   0.069
13849TIP3   OH241503   0.959   5.566   6.204
13849TIP3    H141504   0.890   5.572   6.270
13849TIP3    H241505   0.956   5.476   6.174
13850TIP3   OH241506   1.880   2.984   6.040
13850TIP3    H141507   1.889   3.032   6.122
13850TIP3    H241508   1.799   3.019   6.002
13851TIP3   OH241509   0.576   3.356   4.208
13851TIP3    H141510   0.597   3.308   4.288
13851TIP3    H241511   0.628   3.312   4.140
13852TIP3   OH241512   0.680   1.157   3.654
13852TIP3    H141513   0.632   1.179   3.574
13852TIP3    H241514   0.613   1.156   3.723
13853TIP3   OH241515   1.427   6.041   4.779
13853TIP3    H141516   1.469   5.969   4.732
13853TIP3    H241517   1.495   6.074   4.838
13854TIP3   OH241518   7.545   4.536   2.185
13854TIP3    H141519   7.466   4.505   2.229
13854TIP3    H241520   7.548   4.630   2.206
13855TIP3   OH241521   8.021   3.480   0.300
13855TIP3    H141522   7.939   3.505   0.343
13855TIP3    H241523   8.011   3.513   0.210
13856TIP3   OH241524   5.427   5.756   2.518
13856TIP3    H141525   5.348   5.757   2.465
13856TIP3    H241526   5.490   5.807   2.467
13857TIP3   OH241527   5.138   3.169   3.350
13857TIP3    H141528   5.085   3.219   3.413
13857TIP3    H241529   5.074   3.128   3.292
13858TIP3   OH241530   1.119   4.863   1.051
13858TIP3    H141531   1.154   4.775   1.045
13858TIP3    H241532   1.167   4.913   0.984
13859TIP3   OH241533   7.418   3.836   3.319
13859TIP3    H141534   7.337   3.798   3.351
13859TIP3    H241535   7.462   3.765   3.272
13860TIP3   OH241536   2.549   1.981   2.205
13860TIP3    H141537   2.637   2.018   2.203
13860TIP3    H241538   2.492   2.055   2.226
13861TIP3   OH241539   5.984   0.468   2.023
13861TIP3    H141540   6.045   0.482   1.951
13861TIP3    H241541   5.995   0.376   2.046
13862TIP3   OH241542   3.380   2.936   6.159
13862TIP3    H141543   3.298   2.975   6.128
13862TIP3    H241544   3.405   2.875   6.090
13863TIP3   OH241545   8.064   3.772   2.260
13863TIP3    H141546   8.132   3.788   2.195
13863TIP3    H241547   8.109   3.774   2.344
13864TIP3   OH241548   1.016   5.806   0.741
13864TIP3    H141549   1.095   5.860   0.737
13864TIP3    H241550   0.964   5.835   0.666
13865TIP3   OH241551   3.746   3.534   4.975
13865TIP3    H141552   3.703   3.449   4.986
13865TIP3    H241553   3.839   3.514   4.975
13866TIP3   OH241554   1.321   5.874   2.792
13866TIP3    H141555   1.247   5.909   2.742
13866TIP3    H241556   1.324   5.781   2.769
13867TIP3   OH241557   1.187   3.490   0.866
13867TIP3    H141558   1.205   3.460   0.955
13867TIP3    H241559   1.250   3.559   0.850
13868TIP3   OH241560   3.418   5.172   3.094
13868TIP3    H141561   3.367   5.194   3.172
13868TIP3    H241562   3.478   5.104   3.125
13869TIP3   OH241563   0.527   1.538   4.949
13869TIP3    H141564   0.557   1.548   4.859
13869TIP3    H241565   0.567   1.456   4.979
13870TIP3   OH241566   6.759   3.697   2.170
13870TIP3    H141567   6.846   3.718   2.136
13870TIP3    H241568   6.758   3.601   2.174
13871TIP3   OH241569   4.591   5.340   5.037
13871TIP3    H141570   4.599   5.262   4.982
13871TIP3    H241571   4.544   5.403   4.983
13872TIP3   OH241572   7.490   6.129   2.063
13872TIP3    H141573   7.539   6.049   2.045
13872TIP3    H241574   7.471   6.166   1.977
13873TIP3   OH241575   8.250   5.009   0.985
13873TIP3    H141576   8.171   4.959   0.963
13873TIP3    H241577   8.242   5.024   1.080
13874TIP3   OH241578   1.144   1.712   1.898
13874TIP3    H141579   1.074   1.686   1.958
13874TIP3    H241580   1.202   1.767   1.952
13875TIP3   OH241581   7.608   6.234   3.503
13875TIP3    H141582   7.703   6.237   3.509
13875TIP3    H241583   7.591   6.186   3.422
13876TIP3   OH241584   5.276   6.383   3.290
13876TIP3    H141585   5.302   6.356   3.378
13876TIP3    H241586   5.216   6.315   3.261
13877TIP3   OH241587   2.706   6.760   5.968
13877TIP3    H141588   2.690   6.702   5.894
13877TIP3    H241589   2.623   6.807   5.980
13878TIP3   OH241590   5.787   2.959   1.213
13878TIP3    H141591   5.804   3.050   1.236
13878TIP3    H241592   5.843   2.942   1.138
13879TIP3   OH241593   4.818   0.255   3.325
13879TIP3    H141594   4.788   0.230   3.237
13879TIP3    H241595   4.897   0.307   3.309
13880TIP3   OH241596   2.440   0.637   4.906
13880TIP3    H141597   2.354   0.653   4.867
13880TIP3    H241598   2.464   0.549   4.877
13881TIP3   OH241599   0.097   3.414   1.212
13881TIP3    H141600   0.079   3.394   1.304
13881TIP3    H241601   0.076   3.333   1.166
13882TIP3   OH241602   5.032   7.006   5.208
13882TIP3    H141603   5.077   6.955   5.275
13882TIP3    H241604   5.090   7.002   5.132
13883TIP3   OH241605   1.523   7.467   3.248
13883TIP3    H141606   1.589   7.491   3.182
13883TIP3    H241607   1.480   7.550   3.268
13884TIP3   OH241608   3.009   6.015   4.262
13884TIP3    H141609   2.957   6.031   4.183
13884TIP3    H241610   3.067   5.943   4.238
13885TIP3   OH241611   6.241   5.272   5.384
13885TIP3    H141612   6.335   5.290   5.392
13885TIP3    H241613   6.206   5.348   5.338
13886TIP3   OH241614   3.366   2.619   3.047
13886TIP3    H141615   3.421   2.647   2.974
13886TIP3    H241616   3.404   2.662   3.123
13887TIP3   OH241617   6.124   1.289   2.824
13887TIP3    H141618   6.044   1.340   2.813
13887TIP3    H241619   6.191   1.339   2.778
13888TIP3   OH241620   5.490   6.325   5.262
13888TIP3    H141621   5.471   6.316   5.355
13888TIP3    H241622   5.440   6.256   5.220
13889TIP3   OH241623   6.868   4.933   3.082
13889TIP3    H141624   6.894   4.963   2.995
13889TIP3    H241625   6.808   4.861   3.066
13890TIP3   OH241626   5.863   4.510   4.736
13890TIP3    H141627   5.889   4.520   4.645
13890TIP3    H241628   5.887   4.420   4.758
13891TIP3   OH241629   2.539   0.737   2.042
13891TIP3    H141630   2.452   0.746   2.081
13891TIP3    H241631   2.581   0.667   2.093
13892TIP3   OH241632   0.327   6.033   4.812
13892TIP3    H141633   0.358   6.005   4.898
13892TIP3    H241634   0.271   6.108   4.829
13893TIP3   OH241635   2.237   5.085   3.498
13893TIP3    H141636   2.225   5.143   3.573
13893TIP3    H241637   2.258   5.000   3.536
13894TIP3   OH241638   5.477   1.249   1.089
13894TIP3    H141639   5.556   1.297   1.064
13894TIP3    H241640   5.503   1.200   1.167
13895TIP3   OH241641   5.994   4.767   5.108
13895TIP3    H141642   6.013   4.856   5.137
13895TIP3    H241643   5.905   4.771   5.074
13896TIP3   OH241644   3.783   0.705   0.111
13896TIP3    H141645   3.710   0.742   0.160
13896TIP3    H241646   3.831   0.653   0.175
13897TIP3   OH241647   2.575   7.417   3.848
13897TIP3    H141648   2.575   7.508   3.877
13897TIP3    H241649   2.633   7.416   3.772
13898TIP3   OH241650   4.993   5.531   4.580
13898TIP3    H141651   4.905   5.519   4.545
13898TIP3    H241652   5.042   5.454   4.550
13899TIP3   OH241653   6.272   5.754   5.327
13899TIP3    H141654   6.211   5.722   5.392
13899TIP3    H241655   6.231   5.833   5.292
13900TIP3   OH241656   8.031   3.818   2.797
13900TIP3    H141657   8.075   3.881   2.740
13900TIP3    H241658   8.059   3.843   2.885
13901TIP3   OH241659   3.327   3.283   5.841
13901TIP3    H141660   3.353   3.299   5.932
13901TIP3    H241661   3.254   3.221   5.847
13902TIP3   OH241662   1.632   7.533   6.708
13902TIP3    H141663   1.576   7.501   6.637
13902TIP3    H241664   1.576   7.592   6.758
13903TIP3   OH241665   0.603   4.619   4.492
13903TIP3    H141666   0.687   4.659   4.512
13903TIP3    H241667   0.538   4.688   4.508
13904TIP3   OH241668   3.953   2.200   2.753
13904TIP3    H141669   3.900   2.280   2.760
13904TIP3    H241670   3.981   2.198   2.661
13905TIP3   OH241671   3.204   1.374   2.597
13905TIP3    H141672   3.167   1.458   2.572
13905TIP3    H241673   3.187   1.317   2.522
13906TIP3   OH241674   4.570   4.944   6.357
13906TIP3    H141675   4.520   5.026   6.362
13906TIP3    H241676   4.548   4.898   6.438
13907TIP3   OH241677   5.159   4.534   0.505
13907TIP3    H141678   5.065   4.518   0.496
13907TIP3    H241679   5.179   4.511   0.596
13908TIP3   OH241680   1.830   1.800   5.584
13908TIP3    H141681   1.801   1.786   5.493
13908TIP3    H241682   1.808   1.718   5.629
13909TIP3   OH241683   3.393   3.953   0.887
13909TIP3    H141684   3.435   4.027   0.930
13909TIP3    H241685   3.459   3.883   0.890
13910TIP3   OH241686   0.183   4.295   2.304
13910TIP3    H141687   0.246   4.354   2.262
13910TIP3    H241688   0.100   4.341   2.298
13911TIP3   OH241689   1.620   3.202   1.162
13911TIP3    H141690   1.544   3.258   1.145
13911TIP3    H241691   1.642   3.219   1.254
13912TIP3   OH241692   0.562   6.703   4.145
13912TIP3    H141693   0.630   6.724   4.210
13912TIP3    H241694   0.605   6.718   4.061
13913TIP3   OH241695   7.085   3.627   0.933
13913TIP3    H141696   7.145   3.582   0.874
13913TIP3    H241697   7.051   3.700   0.882
13914TIP3   OH241698   2.221   0.876   0.649
13914TIP3    H141699   2.263   0.810   0.703
13914TIP3    H241700   2.263   0.868   0.564
13915TIP3   OH241701   7.295   4.587   6.388
13915TIP3    H141702   7.214   4.595   6.438
13915TIP3    H241703   7.319   4.494   6.396
13916TIP3   OH241704   4.127   0.632   2.315
13916TIP3    H141705   4.124   0.537   2.322
13916TIP3    H241706   4.060   0.663   2.376
13917TIP3   OH241707   2.444   7.121   2.612
13917TIP3    H141708   2.521   7.097   2.662
13917TIP3    H241709   2.381   7.153   2.677
13918TIP3   OH241710   0.954   7.308   6.430
13918TIP3    H141711   1.003   7.277   6.506
13918TIP3    H241712   1.009   7.287   6.355
13919TIP3   OH241713   4.489   0.125   4.320
13919TIP3    H141714   4.397   0.104   4.304
13919TIP3    H241715   4.537   0.061   4.268
13920TIP3   OH241716   7.878   4.795   0.133
13920TIP3    H141717   7.814   4.858   0.166
13920TIP3    H241718   7.878   4.724   0.198
13921TIP3   OH241719   5.181   3.101   4.078
13921TIP3    H141720   5.085   3.109   4.076
13921TIP3    H241721   5.199   3.024   4.023
13922TIP3   OH241722   0.279   3.075   4.843
13922TIP3    H141723   0.252   2.984   4.860
13922TIP3    H241724   0.203   3.127   4.870
13923TIP3   OH241725   1.352   6.794   3.637
13923TIP3    H141726   1.259   6.811   3.622
13923TIP3    H241727   1.355   6.708   3.678
13924TIP3   OH241728   2.818   2.961   4.196
13924TIP3    H141729   2.798   3.054   4.185
13924TIP3    H241730   2.885   2.943   4.130
13925TIP3   OH241731   3.337   7.793   6.530
13925TIP3    H141732   3.292   7.868   6.569
13925TIP3    H241733   3.266   7.733   6.506
13926TIP3   OH241734   2.811   4.274   4.747
13926TIP3    H141735   2.718   4.265   4.769
13926TIP3    H241736   2.853   4.295   4.831
13927TIP3   OH241737   4.685   3.235   4.756
13927TIP3    H141738   4.668   3.280   4.839
13927TIP3    H241739   4.678   3.142   4.777
13928TIP3   OH241740   5.271   3.327   1.359
13928TIP3    H141741   5.246   3.246   1.404
13928TIP3    H241742   5.209   3.392   1.391
13929TIP3   OH241743   0.862   6.386   5.510
13929TIP3    H141744   0.802   6.323   5.550
13929TIP3    H241745   0.825   6.403   5.423
13930TIP3   OH241746   1.825   7.052   4.624
13930TIP3    H141747   1.835   7.001   4.544
13930TIP3    H241748   1.884   7.010   4.686
13931TIP3   OH241749   5.132   0.445   5.856
13931TIP3    H141750   5.137   0.365   5.908
13931TIP3    H241751   5.064   0.497   5.898
13932TIP3   OH241752   8.030   4.187   4.302
13932TIP3    H141753   8.114   4.195   4.255
13932TIP3    H241754   8.006   4.277   4.324
13933TIP3   OH241755   1.338   5.288   2.909
13933TIP3    H141756   1.337   5.274   3.004
13933TIP3    H241757   1.422   5.252   2.881
13934TIP3   OH241758   1.706   7.720   1.608
13934TIP3    H141759   1.674   7.651   1.665
13934TIP3    H241760   1.627   7.768   1.581
13935TIP3   OH241761   1.092   1.803   2.709
13935TIP3    H141762   0.999   1.789   2.689
13935TIP3    H241763   1.109   1.746   2.784
13936TIP3   OH241764   1.961   6.602   1.917
13936TIP3    H141765   1.874   6.607   1.955
13936TIP3    H241766   2.014   6.556   1.983
13937TIP3   OH241767   7.634   2.670   6.028
13937TIP3    H141768   7.692   2.707   6.094
13937TIP3    H241769   7.560   2.636   6.078
13938TIP3   OH241770   2.743   4.059   3.957
13938TIP3    H141771   2.771   4.138   3.910
13938TIP3    H241772   2.811   4.044   4.022
13939TIP3   OH241773   1.857   7.146   4.126
13939TIP3    H141774   1.852   7.085   4.053
13939TIP3    H241775   1.943   7.187   4.116
13940TIP3   OH241776   2.304   0.525   5.815
13940TIP3    H141777   2.224   0.549   5.768
13940TIP3    H241778   2.363   0.492   5.747
13941TIP3   OH241779   8.179   3.688   0.070
13941TIP3    H141780   8.085   3.671   0.066
13941TIP3    H241781   8.192   3.733   0.153
13942TIP3   OH241782   3.879   2.650   5.073
13942TIP3    H141783   3.842   2.673   5.158
13942TIP3    H241784   3.971   2.630   5.092
13943TIP3   OH241785   0.083   6.777   0.202
13943TIP3    H141786   0.043   6.852   0.160
13943TIP3    H241787   0.152   6.814   0.257
13944TIP3   OH241788   0.461   2.755   0.068
13944TIP3    H141789   0.383   2.794   0.029
13944TIP3    H241790   0.460   2.786   0.159
13945TIP3   OH241791   1.775   3.324   2.089
13945TIP3    H141792   1.864   3.311   2.122
13945TIP3    H241793   1.725   3.351   2.166
13946TIP3   OH241794   5.727   0.798   2.205
13946TIP3    H141795   5.767   0.831   2.125
13946TIP3    H241796   5.727   0.703   2.194
13947TIP3   OH241797   4.490   2.400   0.982
13947TIP3    H141798   4.521   2.480   1.024
13947TIP3    H241799   4.568   2.345   0.975
13948TIP3   OH241800   1.787   0.117   1.553
13948TIP3    H141801   1.733   0.133   1.476
13948TIP3    H241802   1.765   0.188   1.614
13949TIP3   OH241803   3.282   1.716   3.454
13949TIP3    H141804   3.256   1.627   3.431
13949TIP3    H241805   3.248   1.730   3.542
13950TIP3   OH241806   7.597   3.604   3.542
13950TIP3    H141807   7.550   3.541   3.487
13950TIP3    H241808   7.681   3.561   3.560
13951TIP3   OH241809   4.133   1.174   3.942
13951TIP3    H141810   4.051   1.177   3.992
13951TIP3    H241811   4.107   1.183   3.851
13952TIP3   OH241812   2.905   5.382   5.302
13952TIP3    H141813   2.954   5.430   5.369
13952TIP3    H241814   2.933   5.291   5.313
13953TIP3   OH241815   7.818   7.819   3.376
13953TIP3    H141816   7.846   7.747   3.320
13953TIP3    H241817   7.749   7.863   3.326
13954TIP3   OH241818   3.646   3.299   3.936
13954TIP3    H141819   3.696   3.377   3.912
13954TIP3    H241820   3.706   3.248   3.991
13955TIP3   OH241821   3.575   3.188   5.986
13955TIP3    H141822   3.521   3.174   6.064
13955TIP3    H241823   3.540   3.268   5.946
13956TIP3   OH241824   4.934   4.349   5.574
13956TIP3    H141825   4.982   4.301   5.506
13956TIP3    H241826   4.927   4.438   5.540
13957TIP3   OH241827   7.045   2.914   6.530
13957TIP3    H141828   7.015   2.990   6.480
13957TIP3    H241829   7.067   2.849   6.463
13958TIP3   OH241830   7.564   5.463   4.547
13958TIP3    H141831   7.596   5.546   4.582
13958TIP3    H241832   7.488   5.441   4.601
13959TIP3   OH241833   0.245   1.958   2.361
13959TIP3    H141834   0.335   1.927   2.359
13959TIP3    H241835   0.210   1.926   2.444
13960TIP3   OH241836   7.563   7.391   1.443
13960TIP3    H141837   7.582   7.316   1.499
13960TIP3    H241838   7.479   7.424   1.474
13961TIP3   OH241839   4.803   7.694   2.677
13961TIP3    H141840   4.834   7.618   2.726
13961TIP3    H241841   4.728   7.661   2.626
13962TIP3   OH241842   0.089   4.227   6.555
13962TIP3    H141843   0.184   4.233   6.547
13962TIP3    H241844   0.070   4.134   6.542
13963TIP3   OH241845   0.976   2.125   0.588
13963TIP3    H141846   0.954   2.147   0.679
13963TIP3    H241847   0.950   2.034   0.578
13964TIP3   OH241848   0.659   5.831   5.291
13964TIP3    H141849   0.621   5.840   5.204
13964TIP3    H241850   0.588   5.793   5.344
13965TIP3   OH241851   5.585   4.986   4.946
13965TIP3    H141852   5.491   4.977   4.932
13965TIP3    H241853   5.613   5.051   4.882
13966TIP3   OH241854   7.280   5.034   6.475
13966TIP3    H141855   7.364   5.006   6.510
13966TIP3    H241856   7.290   5.029   6.380
13967TIP3   OH241857   6.485   7.483   1.483
13967TIP3    H141858   6.495   7.494   1.389
13967TIP3    H241859   6.422   7.413   1.493
13968TIP3   OH241860   5.422   6.396   4.407
13968TIP3    H141861   5.410   6.349   4.490
13968TIP3    H241862   5.333   6.422   4.382
13969TIP3   OH241863   1.046   3.925   6.276
13969TIP3    H141864   1.009   3.840   6.298
13969TIP3    H241865   1.140   3.912   6.275
13970TIP3   OH241866   6.445   3.968   2.070
13970TIP3    H141867   6.538   3.990   2.075
13970TIP3    H241868   6.404   4.025   2.135
13971TIP3   OH241869   1.075   1.903   1.187
13971TIP3    H141870   1.109   1.885   1.274
13971TIP3    H241871   1.149   1.890   1.128
13972TIP3   OH241872   3.845   7.527   6.672
13972TIP3    H141873   3.815   7.496   6.587
13972TIP3    H241874   3.941   7.524   6.666
13973TIP3   OH241875   3.844   0.678   2.136
13973TIP3    H141876   3.824   0.723   2.219
13973TIP3    H241877   3.774   0.614   2.127
13974TIP3   OH241878   1.068   2.476   0.774
13974TIP3    H141879   1.123   2.418   0.827
13974TIP3    H241880   1.106   2.470   0.686
13975TIP3   OH241881   2.467   5.772   2.661
13975TIP3    H141882   2.469   5.852   2.609
13975TIP3    H241883   2.396   5.720   2.622
13976TIP3   OH241884   3.539   0.529   5.301
13976TIP3    H141885   3.560   0.438   5.280
13976TIP3    H241886   3.503   0.525   5.390
13977TIP3   OH241887   5.967   1.028   2.250
13977TIP3    H141888   5.919   0.989   2.176
13977TIP3    H241889   5.900   1.079   2.296
13978TIP3   OH241890   1.712   0.588   0.060
13978TIP3    H141891   1.676   0.500   0.047
13978TIP3    H241892   1.637   0.641   0.087
13979TIP3   OH241893   1.603   0.913   5.913
13979TIP3    H141894   1.526   0.892   5.967
13979TIP3    H241895   1.568   0.917   5.824
13980TIP3   OH241896   7.265   7.181   1.421
13980TIP3    H141897   7.297   7.244   1.486
13980TIP3    H241898   7.200   7.230   1.371
13981TIP3   OH241899   6.335   2.235   3.483
13981TIP3    H141900   6.358   2.163   3.542
13981TIP3    H241901   6.402   2.232   3.415
13982TIP3   OH241902   3.060   5.522   2.302
13982TIP3    H141903   3.051   5.481   2.389
13982TIP3    H241904   2.972   5.555   2.282
13983TIP3   OH241905   1.795   1.093   5.977
13983TIP3    H141906   1.812   1.085   6.070
13983TIP3    H241907   1.739   1.018   5.956
13984TIP3   OH241908   6.685   5.527   0.699
13984TIP3    H141909   6.743   5.537   0.775
13984TIP3    H241910   6.629   5.605   0.702
13985TIP3   OH241911   4.752   4.532   6.220
13985TIP3    H141912   4.803   4.606   6.251
13985TIP3    H241913   4.745   4.474   6.296
13986TIP3   OH241914   7.816   4.595   4.801
13986TIP3    H141915   7.834   4.593   4.707
13986TIP3    H241916   7.786   4.684   4.818
13987TIP3   OH241917   7.982   2.740   0.852
13987TIP3    H141918   7.903   2.763   0.901
13987TIP3    H241919   7.951   2.683   0.781
13988TIP3   OH241920   0.092   0.804   1.769
13988TIP3    H141921   0.174   0.778   1.726
13988TIP3    H241922   0.120   0.861   1.841
13989TIP3   OH241923   3.206   6.051   6.622
13989TIP3    H141924   3.157   5.973   6.650
13989TIP3    H241925   3.154   6.086   6.550
13990TIP3   OH241926   1.833   3.111   3.749
13990TIP3    H141927   1.893   3.038   3.733
13990TIP3    H241928   1.764   3.099   3.684
13991TIP3   OH241929   8.181   0.516   3.394
13991TIP3    H141930   8.184   0.571   3.472
13991TIP3    H241931   8.094   0.477   3.395
13992TIP3   OH241932   1.522   2.473   5.889
13992TIP3    H141933   1.451   2.439   5.944
13992TIP3    H241934   1.505   2.435   5.803
13993TIP3   OH241935   6.306   6.384   0.063
13993TIP3    H141936   6.369   6.312   0.066
13993TIP3    H241937   6.342   6.445  -0.001
13994TIP3   OH241938   3.456   6.971   0.924
13994TIP3    H141939   3.500   6.918   0.858
13994TIP3    H241940   3.387   7.017   0.877
13995TIP3   OH241941   0.258   5.317   5.713
13995TIP3    H141942   0.208   5.251   5.664
13995TIP3    H241943   0.325   5.346   5.651
13996TIP3   OH241944   1.585   5.911   2.379
13996TIP3    H141945   1.612   5.919   2.287
13996TIP3    H241946   1.510   5.970   2.387
13997TIP3   OH241947   5.229   5.749   2.888
13997TIP3    H141948   5.193   5.832   2.858
13997TIP3    H241949   5.155   5.688   2.886
13998TIP3   OH241950   2.463   2.846   2.838
13998TIP3    H141951   2.488   2.882   2.924
13998TIP3    H241952   2.401   2.909   2.803
13999TIP3   OH241953   7.253   5.891   6.180
13999TIP3    H141954   7.305   5.944   6.119
13999TIP3    H241955   7.247   5.945   6.259
14000TIP3   OH241956   2.832   0.926   1.249
14000TIP3    H141957   2.817   0.929   1.154
14000TIP3    H241958   2.804   1.012   1.280
14001TIP3   OH241959   3.075   6.479   3.151
14001TIP3    H141960   2.997   6.509   3.104
14001TIP3    H241961   3.041   6.419   3.217
14002TIP3   OH241962   2.979   2.669   2.258
14002TIP3    H141963   3.033   2.591   2.268
14002TIP3    H241964   3.005   2.706   2.174
14003TIP3   OH241965   0.636   0.483   0.500
14003TIP3    H141966   0.682   0.521   0.575
14003TIP3    H241967   0.705   0.439   0.449
14004TIP3   OH241968   8.095   5.267   5.323
14004TIP3    H141969   8.159   5.339   5.328
14004TIP3    H241970   8.018   5.307   5.281
14005TIP3   OH241971   4.936   4.629   3.692
14005TIP3    H141972   4.988   4.558   3.731
14005TIP3    H241973   4.845   4.600   3.701
14006TIP3   OH241974   1.945   6.772   5.253
14006TIP3    H141975   1.954   6.705   5.321
14006TIP3    H241976   1.888   6.838   5.292
14007TIP3   OH241977   5.288   5.159   5.384
14007TIP3    H141978   5.361   5.122   5.434
14007TIP3    H241979   5.218   5.169   5.449
14008TIP3   OH241980   1.582   4.374   0.632
14008TIP3    H141981   1.547   4.287   0.653
14008TIP3    H241982   1.614   4.365   0.543
14009TIP3   OH241983   5.568   3.055   2.670
14009TIP3    H141984   5.531   3.143   2.681
14009TIP3    H241985   5.596   3.030   2.758
14010TIP3   OH241986   1.910   5.862   2.189
14010TIP3    H141987   1.979   5.898   2.133
14010TIP3    H241988   1.829   5.894   2.150
14011TIP3   OH241989   1.959   7.421   3.897
14011TIP3    H141990   1.940   7.378   3.813
14011TIP3    H241991   2.023   7.363   3.939
14012TIP3   OH241992   5.369   4.606   4.938
14012TIP3    H141993   5.306   4.594   4.867
14012TIP3    H241994   5.449   4.563   4.906
14013TIP3   OH241995   2.094   4.208   2.507
14013TIP3    H141996   2.095   4.225   2.413
14013TIP3    H241997   2.005   4.228   2.535
14014TIP3   OH241998   1.771   5.706   0.805
14014TIP3    H141999   1.769   5.802   0.803
14014TIP3    H242000   1.745   5.684   0.895
14015TIP3   OH242001   6.470   5.925   4.000
14015TIP3    H142002   6.413   5.917   3.924
14015TIP3    H242003   6.444   6.008   4.041
14016TIP3   OH242004   1.888   6.726   6.589
14016TIP3    H142005   1.846   6.660   6.644
14016TIP3    H242006   1.830   6.801   6.592
14017TIP3   OH242007   1.355   7.519   2.384
14017TIP3    H142008   1.423   7.520   2.451
14017TIP3    H242009   1.342   7.427   2.364
14018TIP3   OH242010   2.907   6.513   2.438
14018TIP3    H142011   2.988   6.464   2.418
14018TIP3    H242012   2.841   6.445   2.452
14019TIP3   OH242013   1.112   3.787   0.666
14019TIP3    H142014   1.175   3.788   0.594
14019TIP3    H242015   1.114   3.875   0.702
14020TIP3   OH242016   7.596   2.191   0.229
14020TIP3    H142017   7.640   2.117   0.272
14020TIP3    H242018   7.606   2.174   0.135
14021TIP3   OH242019   6.319   4.036   1.809
14021TIP3    H142020   6.359   4.107   1.860
14021TIP3    H242021   6.275   3.981   1.874
14022TIP3   OH242022   2.730   1.555   2.108
14022TIP3    H142023   2.782   1.489   2.060
14022TIP3    H242024   2.783   1.635   2.102
14023TIP3   OH242025   5.747   0.423   6.178
14023TIP3    H142026   5.702   0.393   6.257
14023TIP3    H242027   5.781   0.509   6.202
14024TIP3   OH242028   5.885   4.405   1.296
14024TIP3    H142029   5.925   4.397   1.209
14024TIP3    H242030   5.880   4.315   1.329
14025TIP3   OH242031   5.540   3.933   0.675
14025TIP3    H142032   5.598   3.917   0.600
14025TIP3    H242033   5.529   4.028   0.676
14026TIP3   OH242034   4.158   6.841   2.061
14026TIP3    H142035   4.214   6.810   1.989
14026TIP3    H242036   4.112   6.917   2.024
14027TIP3   OH242037   4.811   7.344   1.216
14027TIP3    H142038   4.893   7.296   1.222
14027TIP3    H242039   4.775   7.319   1.131
14028TIP3   OH242040   2.561   1.486   5.291
14028TIP3    H142041   2.584   1.523   5.376
14028TIP3    H242042   2.624   1.416   5.277
14029TIP3   OH242043   3.281   3.590   3.216
14029TIP3    H142044   3.366   3.548   3.202
14029TIP3    H242045   3.218   3.518   3.211
14030TIP3   OH242046   1.484   1.188   2.206
14030TIP3    H142047   1.545   1.262   2.202
14030TIP3    H242048   1.530   1.118   2.159
14031TIP3   OH242049   5.901   2.844   3.131
14031TIP3    H142050   5.959   2.825   3.205
14031TIP3    H242051   5.961   2.863   3.058
14032TIP3   OH242052   1.251   4.095   1.853
14032TIP3    H142053   1.194   4.062   1.923
14032TIP3    H242054   1.203   4.076   1.772
14033TIP3   OH242055   7.499   2.144   5.284
14033TIP3    H142056   7.454   2.166   5.365
14033TIP3    H242057   7.430   2.112   5.226
14034TIP3   OH242058   5.323   1.778   0.086
14034TIP3    H142059   5.257   1.721   0.047
14034TIP3    H242060   5.280   1.815   0.163
14035TIP3   OH242061   3.551   1.499   4.559
14035TIP3    H142062   3.519   1.587   4.536
14035TIP3    H242063   3.646   1.507   4.554
14036TIP3   OH242064   7.533   7.171   2.605
14036TIP3    H142065   7.606   7.225   2.635
14036TIP3    H242066   7.487   7.146   2.685
14037TIP3   OH242067   5.336   2.642   3.763
14037TIP3    H142068   5.371   2.726   3.731
14037TIP3    H242069   5.261   2.625   3.706
14038TIP3   OH242070   1.966   0.290   1.879
14038TIP3    H142071   1.873   0.288   1.856
14038TIP3    H242072   1.975   0.368   1.934
14039TIP3   OH242073   7.229   0.831   0.422
14039TIP3    H142074   7.268   0.746   0.403
14039TIP3    H242075   7.136   0.819   0.406
14040TIP3   OH242076   0.484   3.076   6.397
14040TIP3    H142077   0.391   3.061   6.376
14040TIP3    H242078   0.527   2.993   6.376
14041TIP3   OH242079   0.944   3.606   5.510
14041TIP3    H142080   0.954   3.656   5.590
14041TIP3    H242081   0.890   3.531   5.535
14042TIP3   OH242082   0.804   3.541   5.818
14042TIP3    H142083   0.739   3.604   5.849
14042TIP3    H242084   0.875   3.595   5.784
14043TIP3   OH242085   8.034   7.079   5.111
14043TIP3    H142086   8.081   7.007   5.069
14043TIP3    H242087   8.100   7.125   5.162
14044TIP3   OH242088   0.045   5.724   0.022
14044TIP3    H142089   0.074   5.700   0.110
14044TIP3    H242090  -0.025   5.662   0.003
14045TIP3   OH242091   6.517   6.156   1.120
14045TIP3    H142092   6.467   6.158   1.038
14045TIP3    H242093   6.450   6.152   1.189
14046TIP3   OH242094   1.133   7.290   6.644
14046TIP3    H142095   1.202   7.280   6.578
14046TIP3    H242096   1.104   7.381   6.635
14047TIP3   OH242097   6.562   6.710   4.815
14047TIP3    H142098   6.583   6.770   4.743
14047TIP3    H242099   6.588   6.758   4.894
14048TIP3   OH242100   6.263   7.583   1.886
14048TIP3    H142101   6.282   7.677   1.887
14048TIP3    H242102   6.336   7.544   1.837
14049TIP3   OH242103   5.852   1.313   3.572
14049TIP3    H142104   5.761   1.284   3.574
14049TIP3    H242105   5.901   1.242   3.613
14050TIP3   OH242106   1.439   4.087   3.736
14050TIP3    H142107   1.365   4.102   3.677
14050TIP3    H242108   1.399   4.062   3.819
14051TIP3   OH242109   6.214   3.864   2.954
14051TIP3    H142110   6.181   3.939   3.004
14051TIP3    H242111   6.258   3.904   2.879
14052TIP3   OH242112   0.928   5.579   4.445
14052TIP3    H142113   0.946   5.667   4.411
14052TIP3    H242114   0.962   5.520   4.377
14053TIP3   OH242115   3.822   0.051   0.705
14053TIP3    H142116   3.730   0.030   0.721
14053TIP3    H242117   3.871  -0.024   0.738
14054TIP3   OH242118   3.491   7.235   3.614
14054TIP3    H142119   3.583   7.211   3.606
14054TIP3    H242120   3.478   7.249   3.708
14055TIP3   OH242121   3.614   4.027   2.016
14055TIP3    H142122   3.574   4.047   2.100
14055TIP3    H242123   3.563   4.078   1.953
14056TIP3   OH242124   3.011   0.138   5.067
14056TIP3    H142125   2.964   0.129   4.984
14056TIP3    H242126   3.101   0.157   5.041
14057TIP3   OH242127   6.730   4.572   3.367
14057TIP3    H142128   6.662   4.577   3.433
14057TIP3    H242129   6.764   4.661   3.360
14058TIP3   OH242130   4.868   5.676   4.150
14058TIP3    H142131   4.957   5.671   4.185
14058TIP3    H242132   4.831   5.754   4.193
14059TIP3   OH242133   0.717   5.981   5.636
14059TIP3    H142134   0.792   5.933   5.602
14059TIP3    H242135   0.724   5.973   5.731
14060TIP3   OH242136   6.913   2.088   5.158
14060TIP3    H142137   6.950   2.174   5.176
14060TIP3    H242138   6.861   2.067   5.236
14061TIP3   OH242139   1.566   3.708   6.019
14061TIP3    H142140   1.594   3.795   6.049
14061TIP3    H242141   1.471   3.713   6.015
14062TIP3   OH242142   7.981   4.574   3.515
14062TIP3    H142143   7.970   4.479   3.515
14062TIP3    H242144   8.075   4.587   3.503
14063TIP3   OH242145   7.813   4.735   3.363
14063TIP3    H142146   7.869   4.675   3.413
14063TIP3    H242147   7.869   4.767   3.292
14064TIP3   OH242148   6.670   2.169   0.163
14064TIP3    H142149   6.695   2.124   0.243
14064TIP3    H242150   6.725   2.248   0.162
14065TIP3   OH242151   6.568   3.534   6.641
14065TIP3    H142152   6.556   3.567   6.730
14065TIP3    H242153   6.627   3.597   6.600
14066TIP3   OH242154   3.371   3.139   0.887
14066TIP3    H142155   3.279   3.166   0.883
14066TIP3    H242156   3.419   3.213   0.848
14067TIP3   OH242157   5.570   0.944   1.025
14067TIP3    H142158   5.519   0.884   1.079
14067TIP3    H242159   5.524   0.947   0.942
14068TIP3   OH242160   8.092   4.201   0.350
14068TIP3    H142161   8.121   4.219   0.439
14068TIP3    H242162   8.146   4.127   0.321
14069TIP3   OH242163   2.958   3.853   2.528
14069TIP3    H142164   3.014   3.924   2.496
14069TIP3    H242165   2.894   3.897   2.584
14070TIP3   OH242166   2.129   1.818   4.343
14070TIP3    H142167   2.156   1.904   4.309
14070TIP3    H242168   2.118   1.832   4.437
14071TIP3   OH242169   2.777   4.828   3.416
14071TIP3    H142170   2.832   4.886   3.363
14071TIP3    H242171   2.820   4.824   3.501
14072TIP3   OH242172   4.382   6.553   5.145
14072TIP3    H142173   4.298   6.511   5.163
14072TIP3    H242174   4.418   6.573   5.231
14073TIP3   OH242175   0.921   2.139   1.612
14073TIP3    H142176   0.935   2.073   1.681
14073TIP3    H242177   1.003   2.187   1.608
14074TIP3   OH242178   7.802   6.603   5.690
14074TIP3    H142179   7.866   6.673   5.702
14074TIP3    H242180   7.754   6.628   5.610
14075TIP3   OH242181   8.168   2.011   1.969
14075TIP3    H142182   8.102   2.080   1.975
14075TIP3    H242183   8.229   2.030   2.041
14076TIP3   OH242184   3.380   7.674   3.918
14076TIP3    H142185   3.422   7.619   3.853
14076TIP3    H242186   3.352   7.613   3.987
14077TIP3   OH242187   4.820   6.227   0.919
14077TIP3    H142188   4.842   6.283   0.845
14077TIP3    H242189   4.888   6.160   0.920
14078TIP3   OH242190   6.014   1.829   4.437
14078TIP3    H142191   5.934   1.879   4.427
14078TIP3    H242192   6.032   1.833   4.531
14079TIP3   OH242193   4.956   1.529   3.070
14079TIP3    H142194   4.932   1.621   3.079
14079TIP3    H242195   4.932   1.490   3.154
14080TIP3   OH242196   7.187   4.085   2.830
14080TIP3    H142197   7.102   4.055   2.797
14080TIP3    H242198   7.166   4.136   2.908
14081TIP3   OH242199   5.147   1.470   6.602
14081TIP3    H142200   5.065   1.505   6.635
14081TIP3    H242201   5.122   1.412   6.530
14082TIP3   OH242202   0.664   2.997   0.530
14082TIP3    H142203   0.729   2.937   0.492
14082TIP3    H242204   0.716   3.062   0.577
14083TIP3   OH242205   3.199   5.729   3.211
14083TIP3    H142206   3.177   5.720   3.119
14083TIP3    H242207   3.142   5.666   3.256
14084TIP3   OH242208   5.862   1.471   6.418
14084TIP3    H142209   5.835   1.536   6.483
14084TIP3    H242210   5.845   1.513   6.333
14085TIP3   OH242211   3.413   6.240   4.786
14085TIP3    H142212   3.474   6.185   4.836
14085TIP3    H242213   3.327   6.218   4.820
14086TIP3   OH242214   6.378   3.177   6.564
14086TIP3    H142215   6.345   3.088   6.576
14086TIP3    H242216   6.383   3.212   6.653
14087TIP3   OH242217  -0.007   1.566   5.376
14087TIP3    H142218  -0.052   1.550   5.293
14087TIP3    H242219   0.080   1.598   5.351
14088TIP3   OH242220   5.485   1.490   4.328
14088TIP3    H142221   5.522   1.440   4.401
14088TIP3    H242222   5.555   1.491   4.263
14089TIP3   OH242223   4.573   7.667   6.282
14089TIP3    H142224   4.604   7.609   6.352
14089TIP3    H242225   4.653   7.707   6.249
14090TIP3   OH242226   6.029   6.312   0.894
14090TIP3    H142227   6.009   6.219   0.884
14090TIP3    H242228   6.125   6.316   0.890
14091TIP3   OH242229   3.817   3.267   5.348
14091TIP3    H142230   3.742   3.298   5.296
14091TIP3    H242231   3.788   3.183   5.383
14092TIP3   OH242232   1.821   4.371   1.713
14092TIP3    H142233   1.778   4.337   1.634
14092TIP3    H242234   1.879   4.441   1.680
14093TIP3   OH242235   8.061   2.859   1.137
14093TIP3    H142236   7.977   2.885   1.174
14093TIP3    H242237   8.046   2.855   1.043
14094TIP3   OH242238   2.313   7.691   0.830
14094TIP3    H142239   2.396   7.730   0.855
14094TIP3    H242240   2.296   7.726   0.742
14095TIP3   OH242241   2.204   0.438   2.291
14095TIP3    H142242   2.159   0.440   2.375
14095TIP3    H242243   2.190   0.349   2.258
14096TIP3   OH242244   6.355   5.663   4.672
14096TIP3    H142245   6.282   5.602   4.664
14096TIP3    H242246   6.315   5.750   4.666
14097TIP3   OH242247   6.724   3.031   5.331
14097TIP3    H142248   6.796   3.011   5.271
14097TIP3    H242249   6.678   3.104   5.290
14098TIP3   OH242250   0.794   6.817   4.283
14098TIP3    H142251   0.825   6.876   4.352
14098TIP3    H242252   0.873   6.779   4.245
14099TIP3   OH242253   4.524   4.437   2.752
14099TIP3    H142254   4.571   4.357   2.775
14099TIP3    H242255   4.444   4.407   2.710
14100TIP3   OH242256   0.921   4.346   3.944
14100TIP3    H142257   0.948   4.275   3.886
14100TIP3    H242258   0.981   4.341   4.018
14101TIP3   OH242259   2.713   0.853   2.720
14101TIP3    H142260   2.691   0.887   2.634
14101TIP3    H242261   2.682   0.919   2.781
14102TIP3   OH242262   4.921   5.273   2.338
14102TIP3    H142263   4.863   5.290   2.264
14102TIP3    H242264   4.957   5.186   2.321
14103TIP3   OH242265   1.640   4.582   4.934
14103TIP3    H142266   1.635   4.586   4.839
14103TIP3    H242267   1.684   4.663   4.959
14104TIP3   OH242268   6.226   4.439   2.812
14104TIP3    H142269   6.242   4.398   2.897
14104TIP3    H242270   6.211   4.531   2.832
14105TIP3   OH242271   1.155   7.074   0.659
14105TIP3    H142272   1.206   7.149   0.689
14105TIP3    H242273   1.064   7.104   0.663
14106TIP3   OH242274   2.816   2.077   2.254
14106TIP3    H142275   2.866   2.106   2.177
14106TIP3    H242276   2.812   2.154   2.310
14107TIP3   OH242277   5.705   7.046   4.105
14107TIP3    H142278   5.733   7.049   4.196
14107TIP3    H242279   5.636   7.113   4.099
14108TIP3   OH242280   7.521   7.009   5.703
14108TIP3    H142281   7.531   6.961   5.786
14108TIP3    H242282   7.485   6.944   5.643
14109TIP3   OH242283   1.719   7.436   2.091
14109TIP3    H142284   1.654   7.505   2.102
14109TIP3    H242285   1.788   7.459   2.153
14110TIP3   OH242286   4.286   3.644   6.474
14110TIP3    H142287   4.212   3.606   6.519
14110TIP3    H242288   4.278   3.738   6.489
14111TIP3   OH242289   1.316   7.675   3.886
14111TIP3    H142290   1.398   7.678   3.934
14111TIP3    H242291   1.249   7.664   3.953
14112TIP3   OH242292   2.578   5.435   2.358
14112TIP3    H142293   2.503   5.493   2.372
14112TIP3    H242294   2.572   5.409   2.266
14113TIP3   OH242295   7.487   2.621   4.035
14113TIP3    H142296   7.462   2.544   3.984
14113TIP3    H242297   7.429   2.690   4.003
14114TIP3   OH242298   7.626   0.045   0.556
14114TIP3    H142299   7.627   0.048   0.651
14114TIP3    H242300   7.628  -0.049   0.535
14115TIP3   OH242301   5.169   5.213   2.206
14115TIP3    H142302   5.166   5.216   2.301
14115TIP3    H242303   5.230   5.142   2.186
14116TIP3   OH242304   5.400   7.217   0.040
14116TIP3    H142305   5.488   7.250   0.059
14116TIP3    H242306   5.349   7.294   0.016
14117TIP3   OH242307   0.318   7.396   0.165
14117TIP3    H142308   0.391   7.447   0.201
14117TIP3    H242309   0.314   7.422   0.072
14118TIP3   OH242310   7.603   3.424   2.405
14118TIP3    H142311   7.543   3.406   2.478
14118TIP3    H242312   7.655   3.498   2.435
14119TIP3   OH242313   5.190   2.023   5.843
14119TIP3    H142314   5.134   2.040   5.918
14119TIP3    H242315   5.210   2.109   5.807
14120TIP3   OH242316   8.253   3.349   2.297
14120TIP3    H142317   8.319   3.319   2.233
14120TIP3    H242318   8.209   3.422   2.253
14121TIP3   OH242319   2.065   7.139   1.370
14121TIP3    H142320   2.088   7.168   1.282
14121TIP3    H242321   2.082   7.216   1.425
14122TIP3   OH242322   0.689   2.257   4.527
14122TIP3    H142323   0.701   2.163   4.516
14122TIP3    H242324   0.724   2.276   4.614
14123TIP3   OH242325   0.513   1.533   5.300
14123TIP3    H142326   0.496   1.444   5.271
14123TIP3    H242327   0.608   1.536   5.314
14124TIP3   OH242328   1.154   3.701   4.542
14124TIP3    H142329   1.145   3.707   4.446
14124TIP3    H242330   1.087   3.761   4.575
14125TIP3   OH242331   1.622   5.560   5.208
14125TIP3    H142332   1.696   5.617   5.226
14125TIP3    H242333   1.620   5.499   5.283
14126TIP3   OH242334   4.099   1.747   0.523
14126TIP3    H142335   4.024   1.795   0.487
14126TIP3    H242336   4.171   1.809   0.520
14127TIP3   OH242337   6.314   2.945   2.344
14127TIP3    H142338   6.300   3.026   2.294
14127TIP3    H242339   6.395   2.909   2.309
14128TIP3   OH242340   0.222   2.151   5.674
14128TIP3    H142341   0.144   2.124   5.627
14128TIP3    H242342   0.278   2.073   5.675
14129TIP3   OH242343   3.808   5.841   5.477
14129TIP3    H142344   3.809   5.746   5.488
14129TIP3    H242345   3.900   5.867   5.485
14130TIP3   OH242346   7.156   1.203   6.183
14130TIP3    H142347   7.234   1.175   6.232
14130TIP3    H242348   7.145   1.295   6.205
14131TIP3   OH242349   6.388   7.296   0.598
14131TIP3    H142350   6.434   7.229   0.548
14131TIP3    H242351   6.397   7.376   0.546
14132TIP3   OH242352   1.975   0.639   5.416
14132TIP3    H142353   1.916   0.643   5.341
14132TIP3    H242354   2.049   0.586   5.385
14133TIP3   OH242355   4.134   5.102   3.750
14133TIP3    H142356   4.183   5.113   3.832
14133TIP3    H242357   4.057   5.051   3.775
14134TIP3   OH242358   4.097   6.399   2.062
14134TIP3    H142359   4.025   6.462   2.055
14134TIP3    H242360   4.083   6.338   1.990
14135TIP3   OH242361   4.980   1.032   0.567
14135TIP3    H142362   4.985   1.127   0.558
14135TIP3    H242363   5.062   1.000   0.529
14136TIP3   OH242364   5.690   1.279   6.215
14136TIP3    H142365   5.765   1.281   6.275
14136TIP3    H242366   5.655   1.190   6.223
14137TIP3   OH242367   1.430   4.358   2.731
14137TIP3    H142368   1.346   4.401   2.716
14137TIP3    H242369   1.408   4.269   2.759
14138TIP3   OH242370   1.543   5.762   3.599
14138TIP3    H142371   1.513   5.699   3.533
14138TIP3    H242372   1.501   5.733   3.680
14139TIP3   OH242373   1.826   0.798   1.461
14139TIP3    H142374   1.787   0.752   1.386
14139TIP3    H242375   1.764   0.868   1.481
14140TIP3   OH242376   4.642   4.734   4.964
14140TIP3    H142377   4.565   4.694   4.924
14140TIP3    H242378   4.619   4.827   4.973
14141TIP3   OH242379   1.796   4.099   3.486
14141TIP3    H142380   1.883   4.059   3.475
14141TIP3    H242381   1.797   4.175   3.428
14142TIP3   OH242382   3.103   4.616   2.166
14142TIP3    H142383   3.119   4.703   2.202
14142TIP3    H242384   3.173   4.603   2.102
14143TIP3   OH242385   6.823   2.398   3.229
14143TIP3    H142386   6.758   2.435   3.170
14143TIP3    H242387   6.866   2.329   3.179
14144TIP3   OH242388   0.296   7.625   2.037
14144TIP3    H142389   0.348   7.556   1.997
14144TIP3    H242390   0.210   7.618   1.996
14145TIP3   OH242391   8.238   1.065   1.804
14145TIP3    H142392   8.246   1.046   1.710
14145TIP3    H242393   8.317   1.114   1.826
14146TIP3   OH242394   8.010   6.897   1.587
14146TIP3    H142395   7.941   6.832   1.574
14146TIP3    H242396   8.091   6.846   1.590
14147TIP3   OH242397   4.738   4.581   2.842
14147TIP3    H142398   4.689   4.603   2.921
14147TIP3    H242399   4.673   4.541   2.784
14148TIP3   OH242400   5.660   2.213   0.325
14148TIP3    H142401   5.699   2.160   0.256
14148TIP3    H242402   5.579   2.167   0.347
14149TIP3   OH242403   0.162   1.797   0.507
14149TIP3    H142404   0.193   1.739   0.438
14149TIP3    H242405   0.231   1.793   0.575
14150TIP3   OH242406   1.067   5.278   6.376
14150TIP3    H142407   1.104   5.285   6.288
14150TIP3    H242408   1.072   5.184   6.397
14151TIP3   OH242409   1.711   3.704   2.231
14151TIP3    H142410   1.721   3.720   2.137
14151TIP3    H242411   1.800   3.713   2.266
14152TIP3   OH242412   1.872   3.696   0.276
14152TIP3    H142413   1.891   3.672   0.186
14152TIP3    H242414   1.872   3.612   0.323
14153TIP3   OH242415   4.971   5.398   2.612
14153TIP3    H142416   4.909   5.378   2.682
14153TIP3    H242417   4.942   5.345   2.538
14154TIP3   OH242418   3.028   4.026   0.207
14154TIP3    H142419   3.040   4.001   0.299
14154TIP3    H242420   2.963   3.965   0.173
14155TIP3   OH242421   6.804   5.252   3.176
14155TIP3    H142422   6.852   5.270   3.095
14155TIP3    H242423   6.732   5.194   3.149
14156TIP3   OH242424   1.288   0.108   0.500
14156TIP3    H142425   1.303   0.030   0.447
14156TIP3    H242426   1.349   0.100   0.573
14157TIP3   OH242427   5.992   6.765   2.039
14157TIP3    H142428   5.898   6.750   2.033
14157TIP3    H242429   6.028   6.724   1.961
14158TIP3   OH242430   6.718   3.365   3.544
14158TIP3    H142431   6.640   3.394   3.591
14158TIP3    H242432   6.684   3.336   3.459
14159TIP3   OH242433   3.122   6.095   6.369
14159TIP3    H142434   3.208   6.071   6.336
14159TIP3    H242435   3.073   6.122   6.291
14160TIP3   OH242436   0.383   5.501   6.280
14160TIP3    H142437   0.427   5.512   6.195
14160TIP3    H242438   0.434   5.435   6.325
14161TIP3   OH242439   4.763   6.426   6.135
14161TIP3    H142440   4.748   6.358   6.200
14161TIP3    H242441   4.804   6.381   6.061
14162TIP3   OH242442   3.517   6.419   3.553
14162TIP3    H142443   3.580   6.430   3.482
14162TIP3    H242444   3.482   6.507   3.567
14163TIP3   OH242445   0.480   4.245   5.049
14163TIP3    H142446   0.409   4.206   5.099
14163TIP3    H242447   0.534   4.289   5.114
14164TIP3   OH242448   5.174   2.744   3.262
14164TIP3    H142449   5.120   2.763   3.339
14164TIP3    H242450   5.119   2.685   3.209
14165TIP3   OH242451   1.804   6.593   3.628
14165TIP3    H142452   1.759   6.605   3.544
14165TIP3    H242453   1.887   6.639   3.617
14166TIP3   OH242454   1.558   1.648   1.814
14166TIP3    H142455   1.474   1.615   1.780
14166TIP3    H242456   1.552   1.637   1.909
14167TIP3   OH242457   6.129   3.087   5.736
14167TIP3    H142458   6.137   3.105   5.829
14167TIP3    H242459   6.186   3.012   5.721
14168TIP3   OH242460   4.051   3.379   5.367
14168TIP3    H142461   4.104   3.354   5.443
14168TIP3    H242462   3.971   3.326   5.375
14169TIP3   OH242463   7.612   7.323   3.021
14169TIP3    H142464   7.603   7.232   3.050
14169TIP3    H242465   7.522   7.354   3.011
14170TIP3   OH242466   2.621   7.756   1.322
14170TIP3    H142467   2.549   7.694   1.317
14170TIP3    H242468   2.598   7.825   1.260
14171TIP3   OH242469   6.946   1.498   2.015
14171TIP3    H142470   6.899   1.550   1.950
14171TIP3    H242471   6.975   1.421   1.967
14172TIP3   OH242472   1.972   1.349   3.428
14172TIP3    H142473   1.977   1.442   3.452
14172TIP3    H242474   1.945   1.305   3.509
14173TIP3   OH242475   0.140   0.738   2.700
14173TIP3    H142476   0.130   0.769   2.790
14173TIP3    H242477   0.052   0.711   2.674
14174TIP3   OH242478   1.705   5.204   6.019
14174TIP3    H142479   1.629   5.188   6.075
14174TIP3    H242480   1.692   5.145   5.945
14175TIP3   OH242481   4.589   0.813   0.890
14175TIP3    H142482   4.523   0.872   0.927
14175TIP3    H242483   4.623   0.859   0.814
14176TIP3   OH242484   3.200   4.047   3.065
14176TIP3    H142485   3.173   4.007   3.148
14176TIP3    H242486   3.123   4.041   3.009
14177TIP3   OH242487   1.179   6.118   0.934
14177TIP3    H142488   1.181   6.131   0.839
14177TIP3    H242489   1.271   6.107   0.958
14178TIP3   OH242490   3.780   2.574   0.485
14178TIP3    H142491   3.716   2.577   0.556
14178TIP3    H242492   3.807   2.666   0.473
14179TIP3   OH242493   3.269   0.332   0.463
14179TIP3    H142494   3.176   0.312   0.464
14179TIP3    H242495   3.281   0.389   0.387
14180TIP3   OH242496   3.584   2.519   3.324
14180TIP3    H142497   3.505   2.468   3.308
14180TIP3    H242498   3.589   2.578   3.249
14181TIP3   OH242499   3.290   5.931   3.360
14181TIP3    H142500   3.303   5.890   3.446
14181TIP3    H242501   3.268   5.858   3.302
14182TIP3   OH242502   8.267   1.453   3.892
14182TIP3    H142503   8.199   1.488   3.835
14182TIP3    H242504   8.256   1.358   3.887
14183TIP3   OH242505   0.456   7.374   2.538
14183TIP3    H142506   0.548   7.374   2.510
14183TIP3    H242507   0.412   7.431   2.475
14184TIP3   OH242508   3.966   3.747   5.983
14184TIP3    H142509   3.939   3.827   5.938
14184TIP3    H242510   3.900   3.682   5.959
14185TIP3   OH242511   8.267   3.090   1.685
14185TIP3    H142512   8.176   3.066   1.665
14185TIP3    H242513   8.318   3.052   1.613
14186TIP3   OH242514   6.545   0.584   6.305
14186TIP3    H142515   6.554   0.630   6.222
14186TIP3    H242516   6.635   0.557   6.328
14187TIP3   OH242517   0.826   6.980   1.350
14187TIP3    H142518   0.770   7.058   1.347
14187TIP3    H242519   0.892   6.995   1.283
14188TIP3   OH242520   3.674   4.314   1.455
14188TIP3    H142521   3.723   4.233   1.472
14188TIP3    H242522   3.742   4.381   1.446
14189TIP3   OH242523   2.668   1.324   2.680
14189TIP3    H142524   2.732   1.300   2.613
14189TIP3    H242525   2.705   1.291   2.762
14190TIP3   OH242526   2.627   0.681   6.008
14190TIP3    H142527   2.572   0.709   5.936
14190TIP3    H242528   2.577   0.702   6.087
14191TIP3   OH242529   3.976   1.372   0.678
14191TIP3    H142530   4.039   1.300   0.686
14191TIP3    H242531   4.000   1.416   0.597
14192TIP3   OH242532   4.922   6.123   2.176
14192TIP3    H142533   4.913   6.092   2.266
14192TIP3    H242534   4.959   6.049   2.128
14193TIP3   OH242535   2.971   5.155   6.049
14193TIP3    H142536   2.993   5.117   6.134
14193TIP3    H242537   2.913   5.091   6.008
14194TIP3   OH242538   0.694   1.339   2.671
14194TIP3    H142539   0.710   1.296   2.755
14194TIP3    H242540   0.726   1.429   2.684
14195TIP3   OH242541   3.660   7.436   5.974
14195TIP3    H142542   3.753   7.459   5.982
14195TIP3    H242543   3.627   7.439   6.064
14196TIP3   OH242544   8.096   2.132   2.522
14196TIP3    H142545   8.117   2.137   2.615
14196TIP3    H242546   8.039   2.207   2.505
14197TIP3   OH242547   6.420   7.799   0.404
14197TIP3    H142548   6.369   7.870   0.442
14197TIP3    H242549   6.452   7.749   0.479
14198TIP3   OH242550   7.431   6.127   4.021
14198TIP3    H142551   7.467   6.137   3.932
14198TIP3    H242552   7.444   6.212   4.062
14199TIP3   OH242553   5.287   0.496   2.455
14199TIP3    H142554   5.315   0.576   2.411
14199TIP3    H242555   5.365   0.464   2.500
14200TIP3   OH242556   3.415   7.772   0.094
14200TIP3    H142557   3.375   7.860   0.093
14200TIP3    H242558   3.499   7.784   0.049
14201TIP3   OH242559   3.476   5.398   0.231
14201TIP3    H142560   3.407   5.407   0.165
14201TIP3    H242561   3.525   5.320   0.204
14202TIP3   OH242562   2.243   1.784   1.810
14202TIP3    H142563   2.316   1.743   1.856
14202TIP3    H242564   2.166   1.739   1.843
14203TIP3   OH242565   6.036   5.452   2.300
14203TIP3    H142566   6.104   5.390   2.273
14203TIP3    H242567   5.968   5.398   2.340
14204TIP3   OH242568   0.821   3.389   0.872
14204TIP3    H142569   0.793   3.480   0.876
14204TIP3    H242570   0.916   3.392   0.881
14205TIP3   OH242571   6.249   2.065   5.483
14205TIP3    H142572   6.160   2.071   5.448
14205TIP3    H242573   6.299   2.128   5.431
14206TIP3   OH242574   5.215   6.239   5.035
14206TIP3    H142575   5.120   6.247   5.025
14206TIP3    H242576   5.228   6.219   5.128
14207TIP3   OH242577   0.151   4.524   4.826
14207TIP3    H142578   0.143   4.611   4.866
14207TIP3    H242579   0.061   4.494   4.813
14208TIP3   OH242580   7.009   5.015   3.504
14208TIP3    H142581   7.079   5.056   3.556
14208TIP3    H242582   7.019   5.052   3.417
14209TIP3   OH242583   7.751   6.286   5.905
14209TIP3    H142584   7.756   6.238   5.987
14209TIP3    H242585   7.680   6.348   5.918
14210TIP3   OH242586   6.355   0.896   4.558
14210TIP3    H142587   6.331   0.889   4.466
14210TIP3    H242588   6.316   0.979   4.587
14211TIP3   OH242589   2.223   2.785   3.720
14211TIP3    H142590   2.233   2.690   3.716
14211TIP3    H242591   2.283   2.819   3.653
14212TIP3   OH242592   7.769   5.745   4.911
14212TIP3    H142593   7.828   5.803   4.863
14212TIP3    H242594   7.726   5.801   4.974
14213TIP3   OH242595   1.062   0.942   4.200
14213TIP3    H142596   1.150   0.903   4.202
14213TIP3    H242597   1.067   1.007   4.130
14214TIP3   OH242598   3.094   7.634   2.279
14214TIP3    H142599   3.177   7.669   2.249
14214TIP3    H242600   3.117   7.578   2.354
14215TIP3   OH242601   7.346   3.865   2.520
14215TIP3    H142602   7.309   3.953   2.527
14215TIP3    H242603   7.331   3.827   2.607
14216TIP3   OH242604   4.606   7.279   0.668
14216TIP3    H142605   4.603   7.366   0.630
14216TIP3    H242606   4.514   7.255   0.681
14217TIP3   OH242607   2.990   0.956   1.751
14217TIP3    H142608   3.041   1.031   1.721
14217TIP3    H242609   2.977   0.903   1.673
14218TIP3   OH242610   5.886   1.515   0.860
14218TIP3    H142611   5.932   1.592   0.826
14218TIP3    H242612   5.926   1.442   0.813
14219TIP3   OH242613   6.142   4.316   2.167
14219TIP3    H142614   6.167   4.363   2.088
14219TIP3    H242615   6.180   4.366   2.238
14220TIP3   OH242616   3.840   5.585   1.527
14220TIP3    H142617   3.892   5.527   1.583
14220TIP3    H242618   3.869   5.673   1.553
14221TIP3   OH242619   2.153   3.064   4.325
14221TIP3    H142620   2.095   3.139   4.333
14221TIP3    H242621   2.211   3.085   4.253
14222TIP3   OH242622   5.148   5.194   1.026
14222TIP3    H142623   5.198   5.266   1.063
14222TIP3    H242624   5.149   5.209   0.932
14223TIP3   OH242625   6.862   5.927   6.337
14223TIP3    H142626   6.880   5.955   6.248
14223TIP3    H242627   6.797   5.989   6.370
14224TIP3   OH242628   0.875   2.346   6.058
14224TIP3    H142629   0.881   2.393   5.975
14224TIP3    H242630   0.826   2.405   6.115
14225TIP3   OH242631   2.268   5.443   6.407
14225TIP3    H142632   2.223   5.517   6.447
14225TIP3    H242633   2.351   5.438   6.453
14226TIP3   OH242634   8.013   6.780   2.110
14226TIP3    H142635   8.054   6.704   2.151
14226TIP3    H242636   7.996   6.841   2.182
14227TIP3   OH242637   4.615   3.083   0.802
14227TIP3    H142638   4.613   3.090   0.707
14227TIP3    H242639   4.525   3.100   0.830
14228TIP3   OH242640   0.397   4.932   3.884
14228TIP3    H142641   0.457   4.948   3.956
14228TIP3    H242642   0.342   5.010   3.880
14229TIP3   OH242643   0.549   5.619   0.347
14229TIP3    H142644   0.596   5.626   0.430
14229TIP3    H242645   0.456   5.623   0.373
14230TIP3   OH242646   2.846   0.968   5.680
14230TIP3    H142647   2.853   1.057   5.646
14230TIP3    H242648   2.831   0.979   5.774
14231TIP3   OH242649   2.817   7.151   5.103
14231TIP3    H142650   2.843   7.194   5.185
14231TIP3    H242651   2.722   7.160   5.100
14232TIP3   OH242652   3.820   3.789   0.354
14232TIP3    H142653   3.783   3.758   0.437
14232TIP3    H242654   3.746   3.787   0.293
14233TIP3   OH242655   3.575   6.076   4.936
14233TIP3    H142656   3.617   6.087   5.020
14233TIP3    H242657   3.641   6.103   4.872
14234TIP3   OH242658   2.668   2.995   2.621
14234TIP3    H142659   2.706   2.953   2.699
14234TIP3    H242660   2.657   3.087   2.646
14235TIP3   OH242661   7.740   0.205   2.895
14235TIP3    H142662   7.726   0.300   2.895
14235TIP3    H242663   7.658   0.169   2.860
14236TIP3   OH242664   0.763   3.619   3.288
14236TIP3    H142665   0.805   3.586   3.368
14236TIP3    H242666   0.764   3.714   3.298
14237TIP3   OH242667   3.614   1.319   6.711
14237TIP3    H142668   3.539   1.367   6.745
14237TIP3    H242669   3.684   1.384   6.706
14238TIP3   OH242670   6.107   4.997   6.449
14238TIP3    H142671   6.185   5.049   6.430
14238TIP3    H242672   6.034   5.056   6.429
14239TIP3   OH242673   4.968   5.831   0.713
14239TIP3    H142674   4.899   5.818   0.778
14239TIP3    H242675   4.984   5.744   0.677
14240TIP3   OH242676   7.276   1.496   4.435
14240TIP3    H142677   7.350   1.442   4.461
14240TIP3    H242678   7.310   1.586   4.434
14241TIP3   OH242679   0.926   5.086   0.446
14241TIP3    H142680   0.957   5.014   0.500
14241TIP3    H242681   1.004   5.118   0.401
14242TIP3   OH242682   8.067   3.705   1.291
14242TIP3    H142683   8.139   3.690   1.353
14242TIP3    H242684   8.081   3.641   1.222
14243TIP3   OH242685   8.251   6.769   5.749
14243TIP3    H142686   8.196   6.735   5.678
14243TIP3    H242687   8.245   6.703   5.818
14244TIP3   OH242688   4.073   6.598   3.005
14244TIP3    H142689   3.979   6.609   3.020
14244TIP3    H242690   4.087   6.504   3.007
14245TIP3   OH242691   4.557   3.489   3.227
14245TIP3    H142692   4.519   3.512   3.312
14245TIP3    H242693   4.621   3.420   3.247
14246TIP3   OH242694   6.161   7.310   6.404
14246TIP3    H142695   6.198   7.335   6.319
14246TIP3    H242696   6.203   7.370   6.466
14247TIP3   OH242697   3.117   5.877   1.412
14247TIP3    H142698   3.203   5.902   1.378
14247TIP3    H242699   3.055   5.929   1.362
14248TIP3   OH242700   6.801   5.153   3.856
14248TIP3    H142701   6.777   5.068   3.818
14248TIP3    H242702   6.829   5.206   3.781
14249TIP3   OH242703   6.638   2.237   3.611
14249TIP3    H142704   6.720   2.196   3.584
14249TIP3    H242705   6.644   2.326   3.577
14250TIP3   OH242706   2.200   5.312   2.068
14250TIP3    H142707   2.149   5.336   2.145
14250TIP3    H242708   2.134   5.300   1.999
14251TIP3   OH242709   0.113   2.384   4.416
14251TIP3    H142710   0.036   2.439   4.434
14251TIP3    H242711   0.168   2.437   4.360
14252TIP3   OH242712   0.671   7.552   1.809
14252TIP3    H142713   0.730   7.579   1.739
14252TIP3    H242714   0.706   7.469   1.839
14253TIP3   OH242715   4.729   5.417   4.732
14253TIP3    H142716   4.734   5.510   4.754
14253TIP3    H242717   4.719   5.415   4.637
14254TIP3   OH242718   1.730   3.579   3.435
14254TIP3    H142719   1.742   3.486   3.453
14254TIP3    H242720   1.778   3.623   3.505
14255TIP3   OH242721   2.979   4.256   0.412
14255TIP3    H142722   2.956   4.164   0.413
14255TIP3    H242723   3.056   4.261   0.355
14256TIP3   OH242724   7.551   0.752   1.795
14256TIP3    H142725   7.621   0.808   1.762
14256TIP3    H242726   7.516   0.798   1.871
14257TIP3   OH242727   4.519   1.316   0.546
14257TIP3    H142728   4.484   1.297   0.458
14257TIP3    H242729   4.614   1.317   0.534
14258TIP3   OH242730   0.694   0.230   6.177
14258TIP3    H142731   0.704   0.165   6.246
14258TIP3    H242732   0.768   0.289   6.188
14259TIP3   OH242733   4.357   2.039   6.176
14259TIP3    H142734   4.385   1.976   6.242
14259TIP3    H242735   4.433   2.048   6.118
14260TIP3   OH242736   2.551   3.353   0.284
14260TIP3    H142737   2.639   3.341   0.248
14260TIP3    H242738   2.559   3.329   0.376
14261TIP3   OH242739   7.802   0.101   4.177
14261TIP3    H142740   7.888   0.099   4.217
14261TIP3    H242741   7.759   0.177   4.216
14262TIP3   OH242742   5.860   3.892   1.408
14262TIP3    H142743   5.893   3.982   1.415
14262TIP3    H242744   5.777   3.894   1.455
14263TIP3   OH242745   2.540   3.836   4.472
14263TIP3    H142746   2.496   3.882   4.544
14263TIP3    H242747   2.621   3.886   4.458
14264TIP3   OH242748   1.625   2.853   6.226
14264TIP3    H142749   1.688   2.825   6.292
14264TIP3    H242750   1.566   2.778   6.216
14265TIP3   OH242751   0.903   4.569   4.786
14265TIP3    H142752   0.834   4.599   4.844
14265TIP3    H242753   0.927   4.482   4.819
14266TIP3   OH242754   5.547   7.114   3.353
14266TIP3    H142755   5.494   7.045   3.313
14266TIP3    H242756   5.633   7.104   3.313
14267TIP3   OH242757   4.661   2.729   0.196
14267TIP3    H142758   4.572   2.754   0.218
14267TIP3    H242759   4.716   2.789   0.246
14268TIP3   OH242760   5.889   7.577   4.369
14268TIP3    H142761   5.940   7.633   4.427
14268TIP3    H242762   5.921   7.489   4.385
14269TIP3   OH242763   0.335   3.191   4.593
14269TIP3    H142764   0.318   3.124   4.659
14269TIP3    H242765   0.255   3.194   4.540
14270TIP3   OH242766   4.052   4.837   3.229
14270TIP3    H142767   4.015   4.878   3.307
14270TIP3    H242768   3.977   4.827   3.170
14271TIP3   OH242769   6.383   0.765   3.074
14271TIP3    H142770   6.314   0.702   3.095
14271TIP3    H242771   6.350   0.849   3.107
14272TIP3   OH242772   6.291   7.204   1.290
14272TIP3    H142773   6.339   7.226   1.370
14272TIP3    H242774   6.242   7.284   1.269
14273TIP3   OH242775   2.738   4.476   4.009
14273TIP3    H142776   2.673   4.471   4.080
14273TIP3    H242777   2.687   4.469   3.929
14274TIP3   OH242778   2.214   1.183   4.151
14274TIP3    H142779   2.290   1.151   4.200
14274TIP3    H242780   2.223   1.279   4.154
14275TIP3   OH242781   3.129   2.287   6.114
14275TIP3    H142782   3.074   2.211   6.095
14275TIP3    H242783   3.114   2.346   6.040
14276TIP3   OH242784   0.751   7.296   1.869
14276TIP3    H142785   0.737   7.282   1.962
14276TIP3    H242786   0.845   7.287   1.857
14277TIP3   OH242787   0.751   4.051   6.662
14277TIP3    H142788   0.766   4.046   6.568
14277TIP3    H242789   0.828   4.009   6.701
14278TIP3   OH242790   8.186   5.451   4.398
14278TIP3    H142791   8.113   5.411   4.350
14278TIP3    H242792   8.184   5.408   4.483
14279TIP3   OH242793   6.113   4.462   5.497
14279TIP3    H142794   6.040   4.523   5.497
14279TIP3    H242795   6.105   4.413   5.415
14280TIP3   OH242796   6.220   5.500   1.687
14280TIP3    H142797   6.210   5.595   1.688
14280TIP3    H242798   6.221   5.478   1.594
14281TIP3   OH242799   4.529   3.968   1.348
14281TIP3    H142800   4.597   3.904   1.367
14281TIP3    H242801   4.569   4.053   1.369
14282TIP3   OH242802   0.461   6.902   0.293
14282TIP3    H142803   0.475   6.809   0.279
14282TIP3    H242804   0.546   6.942   0.279
14283TIP3   OH242805   7.715   4.510   1.206
14283TIP3    H142806   7.716   4.574   1.135
14283TIP3    H242807   7.791   4.454   1.189
14284TIP3   OH242808   5.979   7.102   2.452
14284TIP3    H142809   6.009   7.174   2.508
14284TIP3    H242810   5.891   7.082   2.484
14285TIP3   OH242811   0.365   7.434   1.867
14285TIP3    H142812   0.307   7.391   1.804
14285TIP3    H242813   0.453   7.405   1.842
14286TIP3   OH242814   6.195   5.246   2.244
14286TIP3    H142815   6.242   5.297   2.178
14286TIP3    H242816   6.143   5.184   2.194
14287TIP3   OH242817   6.618   1.956   5.539
14287TIP3    H142818   6.656   1.882   5.586
14287TIP3    H242819   6.552   1.992   5.598
14288TIP3   OH242820   4.038   1.258   6.119
14288TIP3    H142821   3.980   1.314   6.170
14288TIP3    H242822   4.079   1.317   6.056
14289TIP3   OH242823   5.406   3.596   0.308
14289TIP3    H142824   5.485   3.565   0.265
14289TIP3    H242825   5.339   3.596   0.239
14290TIP3   OH242826   0.637   2.854   1.470
14290TIP3    H142827   0.732   2.844   1.468
14290TIP3    H242828   0.608   2.817   1.386
14291TIP3   OH242829   3.027   2.909   4.024
14291TIP3    H142830   3.116   2.937   4.002
14291TIP3    H242831   3.010   2.834   3.967
14292TIP3   OH242832   5.275   1.968   4.636
14292TIP3    H142833   5.316   2.001   4.556
14292TIP3    H242834   5.333   1.997   4.707
14293TIP3   OH242835   3.762   2.846   1.723
14293TIP3    H142836   3.719   2.929   1.704
14293TIP3    H242837   3.726   2.819   1.807
14294TIP3   OH242838   2.699   2.042   4.125
14294TIP3    H142839   2.707   2.089   4.042
14294TIP3    H242840   2.750   1.963   4.113
14295TIP3   OH242841   5.271   6.691   6.184
14295TIP3    H142842   5.238   6.695   6.274
14295TIP3    H242843   5.361   6.660   6.193
14296TIP3   OH242844   3.984   0.475   4.549
14296TIP3    H142845   4.017   0.397   4.592
14296TIP3    H242846   3.947   0.444   4.467
14297TIP3   OH242847   7.305   1.667   4.687
14297TIP3    H142848   7.221   1.711   4.679
14297TIP3    H242849   7.369   1.738   4.693
14298TIP3   OH242850   4.953   7.491   2.760
14298TIP3    H142851   4.940   7.403   2.724
14298TIP3    H242852   5.014   7.478   2.833
14299TIP3   OH242853   7.489   3.308   2.985
14299TIP3    H142854   7.527   3.286   2.900
14299TIP3    H242855   7.553   3.367   3.025
14300TIP3   OH242856   5.986   6.951   4.195
14300TIP3    H142857   5.904   6.992   4.222
14300TIP3    H242858   5.991   6.967   4.101
14301TIP3   OH242859   7.318   1.966   6.412
14301TIP3    H142860   7.236   1.936   6.451
14301TIP3    H242861   7.313   1.938   6.321
14302TIP3   OH242862   7.576   3.523   0.850
14302TIP3    H142863   7.515   3.592   0.822
14302TIP3    H242864   7.575   3.529   0.946
14303TIP3   OH242865   7.529   0.724   1.514
14303TIP3    H142866   7.484   0.752   1.434
14303TIP3    H242867   7.471   0.752   1.585
14304TIP3   OH242868   7.011   7.447   3.380
14304TIP3    H142869   6.945   7.488   3.436
14304TIP3    H242870   6.961   7.407   3.309
14305TIP3   OH242871   6.612   4.134   1.508
14305TIP3    H142872   6.560   4.212   1.488
14305TIP3    H242873   6.549   4.063   1.509
14306TIP3   OH242874   6.638   2.902   0.616
14306TIP3    H142875   6.698   2.953   0.562
14306TIP3    H242876   6.655   2.933   0.706
14307TIP3   OH242877   1.506   0.785   3.957
14307TIP3    H142878   1.513   0.787   3.861
14307TIP3    H242879   1.462   0.702   3.976
14308TIP3   OH242880   8.088   7.210   5.530
14308TIP3    H142881   8.124   7.122   5.537
14308TIP3    H242882   8.079   7.224   5.435
14309TIP3   OH242883   6.930   3.819   1.872
14309TIP3    H142884   6.975   3.777   1.798
14309TIP3    H242885   6.838   3.800   1.858
14310TIP3   OH242886   4.348   2.524   4.432
14310TIP3    H142887   4.364   2.499   4.341
14310TIP3    H242888   4.367   2.618   4.435
14311TIP3   OH242889   7.468   3.248   6.119
14311TIP3    H142890   7.412   3.211   6.050
14311TIP3    H242891   7.526   3.176   6.143
14312TIP3   OH242892   4.687   4.786   0.851
14312TIP3    H142893   4.698   4.750   0.940
14312TIP3    H242894   4.625   4.726   0.809
14313TIP3   OH242895   4.659   7.109   1.071
14313TIP3    H142896   4.566   7.103   1.049
14313TIP3    H242897   4.682   7.021   1.101
14314TIP3   OH242898   1.717   1.030   6.252
14314TIP3    H142899   1.668   1.034   6.334
14314TIP3    H242900   1.736   0.937   6.240
14315TIP3   OH242901   8.134   6.891   4.950
14315TIP3    H142902   8.064   6.827   4.954
14315TIP3    H242903   8.213   6.840   4.931
14316TIP3   OH242904   3.042   0.355   0.204
14316TIP3    H142905   3.057   0.270   0.244
14316TIP3    H242906   3.128   0.398   0.205
14317TIP3   OH242907   6.003   2.779   5.747
14317TIP3    H142908   5.925   2.835   5.750
14317TIP3    H242909   5.971   2.692   5.774
14318TIP3   OH242910   1.817   6.315   0.684
14318TIP3    H142911   1.864   6.247   0.636
14318TIP3    H242912   1.727   6.283   0.688
14319TIP3   OH242913   0.053   5.864   4.505
14319TIP3    H142914   0.004   5.817   4.437
14319TIP3    H242915   0.087   5.941   4.460
14320TIP3   OH242916   5.015   4.413   6.207
14320TIP3    H142917   4.973   4.458   6.134
14320TIP3    H242918   5.101   4.387   6.173
14321TIP3   OH242919   2.009   5.763   5.617
14321TIP3    H142920   2.038   5.712   5.541
14321TIP3    H242921   2.082   5.822   5.636
14322TIP3   OH242922   0.072   3.719   3.218
14322TIP3    H142923   0.107   3.807   3.235
14322TIP3    H242924   0.146   3.660   3.230
14323TIP3   OH242925   5.514   4.757   4.307
14323TIP3    H142926   5.532   4.760   4.213
14323TIP3    H242927   5.471   4.840   4.326
14324TIP3   OH242928   7.122   4.642   2.976
14324TIP3    H142929   7.086   4.708   2.917
14324TIP3    H242930   7.058   4.571   2.976
14325TIP3   OH242931   0.252   7.471   5.287
14325TIP3    H142932   0.202   7.524   5.349
14325TIP3    H242933   0.262   7.386   5.330
14326TIP3   OH242934   1.712   3.753   1.102
14326TIP3    H142935   1.747   3.728   1.187
14326TIP3    H242936   1.723   3.676   1.047
14327TIP3   OH242937   1.174   3.272   0.346
14327TIP3    H142938   1.234   3.210   0.304
14327TIP3    H242939   1.098   3.274   0.288
14328TIP3   OH242940   2.592   0.292   6.563
14328TIP3    H142941   2.529   0.336   6.619
14328TIP3    H242942   2.539   0.236   6.506
14329TIP3   OH242943   2.870   4.720   4.971
14329TIP3    H142944   2.879   4.796   5.029
14329TIP3    H242945   2.852   4.647   5.030
14330TIP3   OH242946   2.781   4.874   5.357
14330TIP3    H142947   2.776   4.779   5.354
14330TIP3    H242948   2.740   4.898   5.440
14331TIP3   OH242949   2.179   2.799   1.616
14331TIP3    H142950   2.156   2.868   1.678
14331TIP3    H242951   2.249   2.750   1.659
14332TIP3   OH242952   0.822   0.108   2.525
14332TIP3    H142953   0.799   0.099   2.433
14332TIP3    H242954   0.854   0.021   2.550
14333TIP3   OH242955   1.233   6.548   3.459
14333TIP3    H142956   1.256   6.592   3.378
14333TIP3    H242957   1.304   6.485   3.474
14334TIP3   OH242958   5.589   2.064   5.535
14334TIP3    H142959   5.555   2.115   5.463
14334TIP3    H242960   5.547   1.978   5.526
14335TIP3   OH242961   6.963   6.780   1.431
14335TIP3    H142962   6.981   6.842   1.360
14335TIP3    H242963   7.002   6.820   1.508
14336TIP3   OH242964   8.132   4.451   5.920
14336TIP3    H142965   8.038   4.460   5.905
14336TIP3    H242966   8.150   4.509   5.994
14337TIP3   OH242967   7.254   0.169   4.776
14337TIP3    H142968   7.282   0.254   4.811
14337TIP3    H242969   7.269   0.177   4.682
14338TIP3   OH242970   5.491   7.635   6.376
14338TIP3    H142971   5.436   7.711   6.355
14338TIP3    H242972   5.565   7.642   6.316
14339TIP3   OH242973   6.048   7.679   1.163
14339TIP3    H142974   6.129   7.731   1.168
14339TIP3    H242975   6.008   7.689   1.250
14340TIP3   OH242976   4.800   1.998   1.128
14340TIP3    H142977   4.730   1.985   1.064
14340TIP3    H242978   4.880   1.971   1.083
14341TIP3   OH242979   7.285   5.720   2.512
14341TIP3    H142980   7.317   5.705   2.601
14341TIP3    H242981   7.353   5.684   2.455
14342TIP3   OH242982   2.235   4.109   2.113
14342TIP3    H142983   2.174   4.044   2.147
14342TIP3    H242984   2.256   4.078   2.025
14343TIP3   OH242985   2.286   4.371   0.983
14343TIP3    H142986   2.235   4.419   0.918
14343TIP3    H242987   2.254   4.281   0.977
14344TIP3   OH242988   5.509   4.599   0.784
14344TIP3    H142989   5.590   4.648   0.775
14344TIP3    H242990   5.452   4.656   0.837
14345TIP3   OH242991   0.664   2.838   2.392
14345TIP3    H142992   0.630   2.839   2.482
14345TIP3    H242993   0.639   2.923   2.356
14346TIP3   OH242994   4.769   7.393   0.930
14346TIP3    H142995   4.698   7.453   0.954
14346TIP3    H242996   4.730   7.337   0.862
14347TIP3   OH242997   5.715   5.686   2.316
14347TIP3    H142998   5.731   5.592   2.312
14347TIP3    H242999   5.800   5.724   2.340
14348TIP3   OH243000   0.123   2.716   0.245
14348TIP3    H143001   0.154   2.690   0.331
14348TIP3    H243002   0.121   2.634   0.194
14349TIP3   OH243003   7.143   4.054   4.710
14349TIP3    H143004   7.068   4.084   4.659
14349TIP3    H243005   7.126   3.961   4.725
14350TIP3   OH243006   1.620   6.341   5.779
14350TIP3    H143007   1.556   6.301   5.837
14350TIP3    H243008   1.621   6.285   5.701
14351TIP3   OH243009   0.305   0.530   3.433
14351TIP3    H143010   0.384   0.479   3.414
14351TIP3    H243011   0.234   0.479   3.393
14352TIP3   OH243012   3.255   6.426   1.248
14352TIP3    H143013   3.332   6.442   1.303
14352TIP3    H243014   3.290   6.420   1.159
14353TIP3   OH243015   4.833   0.460   6.385
14353TIP3    H143016   4.866   0.392   6.443
14353TIP3    H243017   4.779   0.414   6.321
14354TIP3   OH243018   7.792   5.009   3.109
14354TIP3    H143019   7.804   4.985   3.017
14354TIP3    H243020   7.867   4.968   3.153
14355TIP3   OH243021   4.266   5.006   5.571
14355TIP3    H143022   4.306   4.926   5.535
14355TIP3    H243023   4.174   5.000   5.547
14356TIP3   OH243024   5.805   6.863   5.729
14356TIP3    H143025   5.753   6.909   5.663
14356TIP3    H243026   5.751   6.788   5.754
14357TIP3   OH243027   3.995   1.790   6.737
14357TIP3    H143028   3.913   1.839   6.744
14357TIP3    H243029   4.013   1.789   6.643
14358TIP3   OH243030   3.640   0.552   4.351
14358TIP3    H143031   3.694   0.481   4.387
14358TIP3    H243032   3.630   0.614   4.424
14359TIP3   OH243033  -0.009   0.464   1.453
14359TIP3    H143034   0.071   0.496   1.494
14359TIP3    H243035  -0.019   0.375   1.487
14360TIP3   OH243036   4.440   3.876   6.061
14360TIP3    H143037   4.395   3.855   5.979
14360TIP3    H243038   4.473   3.792   6.094
14361TIP3   OH243039   3.313   1.756   0.185
14361TIP3    H143040   3.323   1.762   0.280
14361TIP3    H243041   3.218   1.751   0.171
14362TIP3   OH243042   7.746   0.071   1.390
14362TIP3    H143043   7.814   0.136   1.376
14362TIP3    H243044   7.783  -0.010   1.355
14363TIP3   OH243045   3.865   2.846   5.491
14363TIP3    H143046   3.919   2.907   5.541
14363TIP3    H243047   3.928   2.788   5.449
14364TIP3   OH243048   6.500   5.235   5.206
14364TIP3    H143049   6.513   5.149   5.167
14364TIP3    H243050   6.508   5.221   5.300
14365TIP3   OH243051   3.438   3.817   3.606
14365TIP3    H143052   3.353   3.798   3.644
14365TIP3    H243053   3.419   3.866   3.525
14366TIP3   OH243054   7.898   4.946   5.132
14366TIP3    H143055   7.901   4.988   5.045
14366TIP3    H243056   7.841   5.003   5.184
14367TIP3   OH243057   3.106   3.130   2.521
14367TIP3    H143058   3.178   3.126   2.458
14367TIP3    H243059   3.031   3.094   2.473
14368TIP3   OH243060   2.520   5.872   1.158
14368TIP3    H143061   2.479   5.872   1.244
14368TIP3    H243062   2.568   5.955   1.154
14369TIP3   OH243063   1.925   3.505   1.891
14369TIP3    H143064   1.948   3.476   1.979
14369TIP3    H243065   1.944   3.431   1.835
14370TIP3   OH243066   5.112   4.066   0.251
14370TIP3    H143067   5.205   4.077   0.269
14370TIP3    H243068   5.109   4.006   0.176
14371TIP3   OH243069   4.645   7.804   3.995
14371TIP3    H143070   4.733   7.771   3.976
14371TIP3    H243071   4.615   7.752   4.069
14372TIP3   OH243072   7.368   6.830   3.853
14372TIP3    H143073   7.312   6.871   3.787
14372TIP3    H243074   7.414   6.761   3.806
14373TIP3   OH243075   1.530   3.423   0.044
14373TIP3    H143076   1.464   3.477   0.087
14373TIP3    H243077   1.586   3.391   0.115
14374TIP3   OH243078   2.964   5.593   3.300
14374TIP3    H143079   2.895   5.610   3.236
14374TIP3    H243080   2.947   5.656   3.370
14375TIP3   OH243081   1.863   5.455   4.256
14375TIP3    H143082   1.870   5.464   4.161
14375TIP3    H243083   1.843   5.543   4.287
14376TIP3   OH243084   0.681   0.214   1.375
14376TIP3    H143085   0.756   0.274   1.368
14376TIP3    H243086   0.710   0.135   1.329
14377TIP3   OH243087   1.339   7.036   5.441
14377TIP3    H143088   1.356   6.942   5.436
14377TIP3    H243089   1.295   7.047   5.525
14378TIP3   OH243090   5.050   0.915   3.529
14378TIP3    H143091   5.078   0.991   3.581
14378TIP3    H243092   4.982   0.950   3.471
14379TIP3   OH243093   6.758   2.380   1.725
14379TIP3    H143094   6.832   2.437   1.745
14379TIP3    H243095   6.727   2.350   1.811
14380TIP3   OH243096   3.592   0.769   4.559
14380TIP3    H143097   3.537   0.758   4.636
14380TIP3    H243098   3.682   0.769   4.594
14381TIP3   OH243099   5.629   0.308   1.568
14381TIP3    H143100   5.664   0.385   1.612
14381TIP3    H243101   5.702   0.247   1.565
14382TIP3   OH243102   4.318   6.681   2.896
14382TIP3    H143103   4.231   6.644   2.915
14382TIP3    H243104   4.378   6.608   2.913
14383TIP3   OH243105   4.844   3.752   3.050
14383TIP3    H143106   4.902   3.797   3.111
14383TIP3    H243107   4.811   3.821   2.993
14384TIP3   OH243108   1.237   3.809   1.480
14384TIP3    H143109   1.211   3.763   1.401
14384TIP3    H243110   1.315   3.859   1.455
14385TIP3   OH243111   1.473   5.143   6.173
14385TIP3    H143112   1.419   5.131   6.095
14385TIP3    H243113   1.436   5.220   6.216
14386TIP3   OH243114   0.097   3.554   5.536
14386TIP3    H143115   0.108   3.549   5.631
14386TIP3    H243116   0.106   3.647   5.516
14387TIP3   OH243117   7.961   6.489   0.165
14387TIP3    H143118   7.934   6.398   0.154
14387TIP3    H243119   8.057   6.486   0.160
14388TIP3   OH243120   1.932   7.651   2.295
14388TIP3    H143121   2.008   7.625   2.347
14388TIP3    H243122   1.868   7.682   2.359
14389TIP3   OH243123   5.947   0.705   1.815
14389TIP3    H143124   5.918   0.683   1.904
14389TIP3    H243125   6.038   0.675   1.811
14390TIP3   OH243126   1.744   5.698   4.335
14390TIP3    H143127   1.688   5.765   4.296
14390TIP3    H243128   1.690   5.656   4.401
14391TIP3   OH243129   7.075   5.974   3.452
14391TIP3    H143130   7.148   6.019   3.411
14391TIP3    H243131   7.022   6.044   3.490
14392TIP3   OH243132   1.851   5.562   1.622
14392TIP3    H143133   1.913   5.604   1.682
14392TIP3    H243134   1.880   5.471   1.617
14393TIP3   OH243135   0.662   5.617   3.008
14393TIP3    H143136   0.747   5.574   2.996
14393TIP3    H243137   0.598   5.547   2.996
14394TIP3   OH243138   3.376   4.573   5.442
14394TIP3    H143139   3.360   4.578   5.347
14394TIP3    H243140   3.291   4.546   5.478
14395TIP3   OH243141   4.507   4.582   4.186
14395TIP3    H143142   4.445   4.650   4.215
14395TIP3    H243143   4.503   4.516   4.256
14396TIP3   OH243144   8.289   2.032   0.007
14396TIP3    H143145   8.242   2.030  -0.077
14396TIP3    H243146   8.224   2.004   0.072
14397TIP3   OH243147   0.172   2.221   0.164
14397TIP3    H143148   0.137   2.156   0.104
14397TIP3    H243149   0.172   2.303   0.114
14398TIP3   OH243150   3.557   4.091   1.153
14398TIP3    H143151   3.485   4.057   1.205
14398TIP3    H243152   3.539   4.185   1.145
14399TIP3   OH243153   7.608   4.522   1.474
14399TIP3    H143154   7.652   4.520   1.389
14399TIP3    H243155   7.590   4.615   1.489
14400TIP3   OH243156   3.624   7.596   0.464
14400TIP3    H143157   3.651   7.525   0.406
14400TIP3    H243158   3.533   7.612   0.440
14401TIP3   OH243159   3.634   7.021   2.878
14401TIP3    H143160   3.570   7.092   2.886
14401TIP3    H243161   3.585   6.942   2.903
14402TIP3   OH243162   7.017   0.460   1.009
14402TIP3    H143163   7.097   0.509   0.989
14402TIP3    H243164   7.040   0.408   1.086
14403TIP3   OH243165   1.668   1.537   3.364
14403TIP3    H143166   1.734   1.532   3.295
14403TIP3    H243167   1.600   1.475   3.336
14404TIP3   OH243168   7.313   7.579   5.499
14404TIP3    H143169   7.298   7.527   5.577
14404TIP3    H243170   7.272   7.663   5.517
14405TIP3   OH243171   0.370   4.456   2.177
14405TIP3    H143172   0.414   4.467   2.093
14405TIP3    H243173   0.410   4.523   2.233
14406TIP3   OH243174   0.223   6.913   0.438
14406TIP3    H143175   0.315   6.905   0.411
14406TIP3    H243176   0.222   6.988   0.497
14407TIP3   OH243177   4.663   4.931   6.099
14407TIP3    H143178   4.637   4.846   6.063
14407TIP3    H243179   4.628   4.931   6.188
14408TIP3   OH243180   2.558   2.011   6.566
14408TIP3    H143181   2.560   2.106   6.577
14408TIP3    H243182   2.491   1.981   6.628
14409TIP3   OH243183   7.032   3.840   2.688
14409TIP3    H143184   6.987   3.797   2.615
14409TIP3    H243185   7.051   3.928   2.656
14410TIP3   OH243186   3.619   4.506   4.561
14410TIP3    H143187   3.646   4.598   4.566
14410TIP3    H243188   3.603   4.491   4.468
14411TIP3   OH243189   1.524   1.245   1.655
14411TIP3    H143190   1.534   1.245   1.750
14411TIP3    H243191   1.515   1.152   1.632
14412TIP3   OH243192   4.573   0.477   0.867
14412TIP3    H143193   4.557   0.514   0.780
14412TIP3    H243194   4.658   0.512   0.892
14413TIP3   OH243195   6.682   5.548   1.540
14413TIP3    H143196   6.660   5.598   1.619
14413TIP3    H243197   6.774   5.571   1.522
14414TIP3   OH243198   2.551   7.422   2.300
14414TIP3    H143199   2.573   7.338   2.339
14414TIP3    H243200   2.610   7.484   2.342
14415TIP3   OH243201   4.751   3.569   0.354
14415TIP3    H143202   4.817   3.542   0.290
14415TIP3    H243203   4.719   3.486   0.391
14416TIP3   OH243204   7.111   6.773   5.559
14416TIP3    H143205   7.042   6.738   5.502
14416TIP3    H243206   7.122   6.863   5.530
14417TIP3   OH243207   1.438   4.816   1.118
14417TIP3    H143208   1.423   4.823   1.023
14417TIP3    H243209   1.365   4.763   1.150
14418TIP3   OH243210   4.572   7.510   2.410
14418TIP3    H143211   4.592   7.587   2.358
14418TIP3    H243212   4.510   7.460   2.356
14419TIP3   OH243213   3.668   0.923   2.668
14419TIP3    H143214   3.746   0.966   2.704
14419TIP3    H243215   3.663   0.840   2.715
14420TIP3   OH243216   0.563   0.700   6.177
14420TIP3    H143217   0.604   0.783   6.202
14420TIP3    H243218   0.621   0.634   6.214
14421TIP3   OH243219   4.986   6.004   6.146
14421TIP3    H143220   4.959   5.915   6.169
14421TIP3    H243221   4.921   6.061   6.186
14422TIP3   OH243222   4.854   1.071   2.731
14422TIP3    H143223   4.914   1.070   2.657
14422TIP3    H243224   4.777   1.118   2.698
14423TIP3   OH243225   1.081   4.646   4.276
14423TIP3    H143226   1.114   4.728   4.313
14423TIP3    H243227   0.988   4.663   4.261
14424TIP3   OH243228   5.342   3.715   5.311
14424TIP3    H143229   5.380   3.798   5.343
14424TIP3    H243230   5.405   3.648   5.337
14425TIP3   OH243231   1.339   1.560   1.667
14425TIP3    H143232   1.252   1.541   1.702
14425TIP3    H243233   1.324   1.625   1.599
14426TIP3   OH243234   4.175   2.397   6.045
14426TIP3    H143235   4.181   2.464   6.112
14426TIP3    H243236   4.081   2.386   6.030
14427TIP3   OH243237   7.613   2.845   3.520
14427TIP3    H143238   7.620   2.813   3.610
14427TIP3    H243239   7.703   2.864   3.494
14428TIP3   OH243240   8.031   6.435   5.344
14428TIP3    H143241   8.123   6.429   5.316
14428TIP3    H243242   8.032   6.409   5.436
14429TIP3   OH243243   1.401   6.705   2.908
14429TIP3    H143244   1.341   6.778   2.920
14429TIP3    H243245   1.487   6.746   2.896
14430TIP3   OH243246   2.541   0.546   3.673
14430TIP3    H143247   2.533   0.544   3.577
14430TIP3    H243248   2.629   0.514   3.690
14431TIP3   OH243249   0.426   4.540   6.703
14431TIP3    H143250   0.351   4.569   6.755
14431TIP3    H243251   0.402   4.452   6.673
14432TIP3   OH243252   2.570   7.345   0.341
14432TIP3    H143253   2.577   7.417   0.278
14432TIP3    H243254   2.659   7.333   0.374
14433TIP3   OH243255   5.643   0.502   4.230
14433TIP3    H143256   5.658   0.410   4.253
14433TIP3    H243257   5.554   0.503   4.196
14434TIP3   OH243258   3.745   6.977   3.125
14434TIP3    H143259   3.757   6.957   3.033
14434TIP3    H243260   3.698   7.061   3.126
14435TIP3   OH243261   4.047   1.924   6.420
14435TIP3    H143262   3.964   1.876   6.418
14435TIP3    H243263   4.022   2.015   6.403
14436TIP3   OH243264   1.681   2.130   4.718
14436TIP3    H143265   1.633   2.054   4.752
14436TIP3    H243266   1.624   2.204   4.736
14437TIP3   OH243267   2.664   0.083   4.647
14437TIP3    H143268   2.598   0.151   4.640
14437TIP3    H243269   2.627   0.008   4.601
14438TIP3   OH243270   5.561   0.680   6.176
14438TIP3    H143271   5.656   0.689   6.179
14438TIP3    H243272   5.537   0.703   6.087
14439TIP3   OH243273   6.838   7.288   2.707
14439TIP3    H143274   6.806   7.222   2.768
14439TIP3    H243275   6.781   7.364   2.722
14440TIP3   OH243276   7.245   0.746   5.514
14440TIP3    H143277   7.299   0.676   5.549
14440TIP3    H243278   7.176   0.701   5.465
14441TIP3   OH243279   5.323   3.992   6.513
14441TIP3    H143280   5.313   4.022   6.422
14441TIP3    H243281   5.330   3.897   6.506
14442TIP3   OH243282   4.312   5.931   6.070
14442TIP3    H143283   4.261   5.850   6.081
14442TIP3    H243284   4.249   6.001   6.088
14443TIP3   OH243285   5.364   1.152   2.575
14443TIP3    H143286   5.369   1.087   2.644
14443TIP3    H243287   5.361   1.101   2.494
14444TIP3   OH243288   0.286   3.034   1.046
14444TIP3    H143289   0.249   2.988   1.122
14444TIP3    H243290   0.337   3.105   1.084
14445TIP3   OH243291   5.043   1.709   5.470
14445TIP3    H143292   4.957   1.675   5.445
14445TIP3    H243293   5.105   1.650   5.427
14446TIP3   OH243294   7.440   2.058   4.325
14446TIP3    H143295   7.499   2.035   4.398
14446TIP3    H243296   7.355   2.023   4.351
14447TIP3   OH243297   0.055   7.207   4.500
14447TIP3    H143298  -0.028   7.176   4.464
14447TIP3    H243299   0.112   7.219   4.424
14448TIP3   OH243300   1.031   7.699   0.972
14448TIP3    H143301   0.994   7.652   0.898
14448TIP3    H243302   0.961   7.758   1.001
14449TIP3   OH243303   3.438   0.974   3.428
14449TIP3    H143304   3.384   0.905   3.468
14449TIP3    H243305   3.381   1.051   3.427
14450TIP3   OH243306   8.013   5.337   6.427
14450TIP3    H143307   7.967   5.253   6.432
14450TIP3    H243308   8.018   5.357   6.334
14451TIP3   OH243309   2.916   5.657   4.265
14451TIP3    H143310   2.823   5.670   4.243
14451TIP3    H243311   2.920   5.678   4.358
14452TIP3   OH243312   0.398   4.139   6.102
14452TIP3    H143313   0.420   4.160   6.011
14452TIP3    H243314   0.476   4.166   6.152
14453TIP3   OH243315   0.837   3.877   3.927
14453TIP3    H143316   0.921   3.885   3.971
14453TIP3    H243317   0.776   3.925   3.983
14454TIP3   OH243318   5.223   7.595   6.668
14454TIP3    H143319   5.253   7.673   6.622
14454TIP3    H243320   5.185   7.628   6.750
14455TIP3   OH243321   1.621   7.023   1.116
14455TIP3    H143322   1.699   6.970   1.130
14455TIP3    H243323   1.550   6.973   1.156
14456TIP3   OH243324   0.128   5.014   0.760
14456TIP3    H143325   0.131   4.998   0.854
14456TIP3    H243326   0.074   5.093   0.751
14457TIP3   OH243327   3.837   2.052   3.478
14457TIP3    H143328   3.767   2.117   3.487
14457TIP3    H243329   3.912   2.103   3.448
14458TIP3   OH243330   4.923   6.092   2.442
14458TIP3    H143331   4.865   6.039   2.497
14458TIP3    H243332   4.883   6.179   2.441
14459TIP3   OH243333   7.113   6.062   2.969
14459TIP3    H143334   7.163   6.027   2.895
14459TIP3    H243335   7.098   5.986   3.026
14460TIP3   OH243336   0.916   4.516   2.934
14460TIP3    H143337   0.821   4.523   2.947
14460TIP3    H243338   0.945   4.606   2.918
14461TIP3   OH243339   6.220   3.051   4.847
14461TIP3    H143340   6.238   3.082   4.935
14461TIP3    H243341   6.287   3.092   4.793
14462TIP3   OH243342   4.397   6.693   1.335
14462TIP3    H143343   4.448   6.617   1.308
14462TIP3    H243344   4.385   6.682   1.429
14463TIP3   OH243345   2.620   5.383   6.072
14463TIP3    H143346   2.637   5.289   6.070
14463TIP3    H243347   2.527   5.391   6.050
14464TIP3   OH243348   5.393   7.766   0.379
14464TIP3    H143349   5.423   7.681   0.412
14464TIP3    H243350   5.471   7.806   0.341
14465TIP3   OH243351   1.101   3.681   0.248
14465TIP3    H143352   1.083   3.756   0.192
14465TIP3    H243353   1.015   3.650   0.276
14466TIP3   OH243354   7.956   2.239   4.386
14466TIP3    H143355   8.036   2.186   4.380
14466TIP3    H243356   7.988   2.329   4.385
14467TIP3   OH243357   5.801   3.539   2.125
14467TIP3    H143358   5.728   3.553   2.064
14467TIP3    H243359   5.835   3.453   2.102
14468TIP3   OH243360   6.208   7.721   3.777
14468TIP3    H143361   6.118   7.689   3.788
14468TIP3    H243362   6.263   7.644   3.792
14469TIP3   OH243363   2.050   2.337   0.882
14469TIP3    H143364   2.096   2.370   0.959
14469TIP3    H243365   1.974   2.291   0.916
14470TIP3   OH243366   7.432   4.074   5.747
14470TIP3    H143367   7.459   4.007   5.685
14470TIP3    H243368   7.506   4.135   5.752
14471TIP3   OH243369   3.795   0.791   0.533
14471TIP3    H143370   3.762   0.870   0.490
14471TIP3    H243371   3.853   0.823   0.602
14472TIP3   OH243372   6.035   1.873   6.367
14472TIP3    H143373   5.997   1.954   6.402
14472TIP3    H243374   5.997   1.864   6.280
14473TIP3   OH243375   6.541   4.053   2.347
14473TIP3    H143376   6.499   4.138   2.360
14473TIP3    H243377   6.615   4.070   2.290
14474TIP3   OH243378   4.380   5.527   3.929
14474TIP3    H143379   4.358   5.487   4.013
14474TIP3    H243380   4.296   5.540   3.885
14475TIP3   OH243381   1.983   2.202   4.174
14475TIP3    H143382   1.968   2.269   4.241
14475TIP3    H243383   2.035   2.135   4.218
14476TIP3   OH243384   0.569   0.993   6.316
14476TIP3    H143385   0.489   1.015   6.268
14476TIP3    H243386   0.542   0.994   6.408
14477TIP3   OH243387   0.455   1.062   5.992
14477TIP3    H143388   0.526   1.103   5.944
14477TIP3    H243389   0.392   1.133   6.008
14478TIP3   OH243390   3.606   6.305   3.798
14478TIP3    H143391   3.656   6.370   3.848
14478TIP3    H243392   3.597   6.344   3.711
14479TIP3   OH243393   0.987   4.150   2.659
14479TIP3    H143394   0.915   4.090   2.641
14479TIP3    H243395   1.019   4.177   2.572
14480TIP3   OH243396   6.665   1.881   1.610
14480TIP3    H143397   6.676   1.787   1.605
14480TIP3    H243398   6.576   1.893   1.643
14481TIP3   OH243399   1.109   5.166   4.426
14481TIP3    H143400   1.126   5.244   4.478
14481TIP3    H243401   1.017   5.174   4.399
14482TIP3   OH243402   7.795   1.187   3.039
14482TIP3    H143403   7.764   1.253   2.976
14482TIP3    H243404   7.776   1.103   2.998
14483TIP3   OH243405   3.500   6.867   5.494
14483TIP3    H143406   3.567   6.929   5.523
14483TIP3    H243407   3.519   6.787   5.544
14484TIP3   OH243408   3.379   6.052   6.237
14484TIP3    H143409   3.426   6.134   6.218
14484TIP3    H243410   3.327   6.035   6.158
14485TIP3   OH243411   1.061   0.682   4.938
14485TIP3    H143412   1.103   0.625   5.003
14485TIP3    H243413   1.052   0.766   4.983
14486TIP3   OH243414   6.521   7.674   3.953
14486TIP3    H143415   6.504   7.588   3.915
14486TIP3    H243416   6.612   7.692   3.930
14487TIP3   OH243417   1.623   3.654   5.096
14487TIP3    H143418   1.655   3.587   5.034
14487TIP3    H243419   1.651   3.737   5.058
14488TIP3   OH243420   4.167   4.122   2.850
14488TIP3    H143421   4.190   4.175   2.926
14488TIP3    H243422   4.159   4.186   2.778
14489TIP3   OH243423   1.820   2.495   1.152
14489TIP3    H143424   1.835   2.586   1.177
14489TIP3    H243425   1.802   2.498   1.058
14490TIP3   OH243426   0.618   4.901   4.451
14490TIP3    H143427   0.563   4.864   4.382
14490TIP3    H243428   0.557   4.920   4.522
14491TIP3   OH243429   6.018   7.176   5.185
14491TIP3    H143430   6.079   7.196   5.255
14491TIP3    H243431   5.931   7.179   5.226
14492TIP3   OH243432   2.580   6.011   0.059
14492TIP3    H143433   2.553   5.946   0.124
14492TIP3    H243434   2.539   6.093   0.088
14493TIP3   OH243435   5.423   2.113   5.088
14493TIP3    H143436   5.414   2.203   5.054
14493TIP3    H243437   5.485   2.072   5.028
14494TIP3   OH243438   8.208   4.752   2.561
14494TIP3    H143439   8.157   4.722   2.486
14494TIP3    H243440   8.293   4.776   2.525
14495TIP3   OH243441   5.817   3.236   5.622
14495TIP3    H143442   5.744   3.297   5.629
14495TIP3    H243443   5.776   3.152   5.602
14496TIP3   OH243444   1.103   5.924   5.158
14496TIP3    H143445   1.033   5.886   5.104
14496TIP3    H243446   1.082   6.017   5.161
14497TIP3   OH243447   0.218   4.143   3.590
14497TIP3    H143448   0.302   4.188   3.588
14497TIP3    H243449   0.180   4.166   3.675
14498TIP3   OH243450   6.433   1.044   2.525
14498TIP3    H143451   6.490   1.033   2.448
14498TIP3    H243452   6.378   1.119   2.503
14499TIP3   OH243453   2.633   2.399   3.456
14499TIP3    H143454   2.564   2.439   3.510
14499TIP3    H243455   2.643   2.311   3.492
14500TIP3   OH243456   1.165   3.263   5.814
14500TIP3    H143457   1.230   3.204   5.852
14500TIP3    H243458   1.213   3.345   5.800
14501TIP3   OH243459   5.508   2.066   6.085
14501TIP3    H143460   5.422   2.063   6.045
14501TIP3    H243461   5.532   1.975   6.099
14502TIP3   OH243462   1.638   6.368   2.012
14502TIP3    H143463   1.660   6.458   2.033
14502TIP3    H243464   1.598   6.334   2.092
14503TIP3   OH243465   0.970   1.892   4.056
14503TIP3    H143466   1.039   1.870   3.993
14503TIP3    H243467   1.015   1.943   4.124
14504TIP3   OH243468   6.028   4.916   0.977
14504TIP3    H143469   5.959   4.894   1.039
14504TIP3    H243470   6.045   4.834   0.930
14505TIP3   OH243471   5.104   1.355   5.501
14505TIP3    H143472   5.162   1.411   5.553
14505TIP3    H243473   5.017   1.373   5.536
14506TIP3   OH243474   6.150   3.006   6.687
14506TIP3    H143475   6.158   2.911   6.702
14506TIP3    H243476   6.149   3.015   6.592
14507TIP3   OH243477   0.875   0.925   6.475
14507TIP3    H143478   0.829   0.998   6.517
14507TIP3    H243479   0.909   0.873   6.547
14508TIP3   OH243480   2.911   1.666   5.307
14508TIP3    H143481   2.954   1.732   5.253
14508TIP3    H243482   2.920   1.698   5.397
14509TIP3   OH243483   0.190   4.420   4.295
14509TIP3    H143484   0.141   4.492   4.334
14509TIP3    H243485   0.217   4.365   4.369
14510TIP3   OH243486   5.571   3.915   5.419
14510TIP3    H143487   5.598   3.995   5.463
14510TIP3    H243488   5.632   3.905   5.346
14511TIP3   OH243489   2.072   3.498   3.933
14511TIP3    H143490   2.114   3.582   3.917
14511TIP3    H243491   2.047   3.501   4.026
14512TIP3   OH243492   2.044   1.210   1.972
14512TIP3    H143493   1.965   1.200   1.919
14512TIP3    H243494   2.063   1.122   2.004
14513TIP3   OH243495   4.937   4.753   3.303
14513TIP3    H143496   4.973   4.677   3.349
14513TIP3    H243497   4.843   4.748   3.319
14514TIP3   OH243498   4.014   7.225   1.653
14514TIP3    H143499   3.955   7.162   1.611
14514TIP3    H243500   4.010   7.302   1.597
14515TIP3   OH243501   6.514   1.117   3.893
14515TIP3    H143502   6.586   1.058   3.913
14515TIP3    H243503   6.555   1.194   3.853
14516TIP3   OH243504   4.370   5.628   4.326
14516TIP3    H143505   4.310   5.580   4.384
14516TIP3    H243506   4.418   5.686   4.385
14517TIP3   OH243507   2.926   0.394   4.669
14517TIP3    H143508   3.019   0.418   4.672
14517TIP3    H243509   2.893   0.411   4.757
14518TIP3   OH243510   1.140   5.282   6.110
14518TIP3    H143511   1.103   5.329   6.036
14518TIP3    H243512   1.182   5.205   6.071
14519TIP3   OH243513   2.920   2.527   1.364
14519TIP3    H143514   2.998   2.577   1.340
14519TIP3    H243515   2.952   2.454   1.417
14520TIP3   OH243516   2.921   0.407   5.185
14520TIP3    H143517   3.010   0.406   5.219
14520TIP3    H243518   2.903   0.316   5.161
14521TIP3   OH243519   7.011   2.217   3.147
14521TIP3    H143520   7.086   2.234   3.204
14521TIP3    H243521   7.049   2.181   3.067
14522TIP3   OH243522   2.950   3.320   5.195
14522TIP3    H143523   2.901   3.268   5.131
14522TIP3    H243524   2.927   3.282   5.280
14523TIP3   OH243525   0.818   1.086   6.189
14523TIP3    H143526   0.810   1.026   6.115
14523TIP3    H243527   0.746   1.062   6.247
14524TIP3   OH243528   1.417   0.444   6.724
14524TIP3    H143529   1.423   0.362   6.675
14524TIP3    H243530   1.477   0.433   6.797
14525TIP3   OH243531   1.139   6.097   1.574
14525TIP3    H143532   1.095   6.162   1.629
14525TIP3    H243533   1.193   6.047   1.635
14526TIP3   OH243534   4.584   3.463   5.493
14526TIP3    H143535   4.633   3.539   5.525
14526TIP3    H243536   4.583   3.475   5.398
14527TIP3   OH243537   3.220   5.128   2.211
14527TIP3    H143538   3.194   5.181   2.136
14527TIP3    H243539   3.148   5.136   2.273
14528TIP3   OH243540   0.582   4.829   3.352
14528TIP3    H143541   0.574   4.791   3.439
14528TIP3    H243542   0.500   4.877   3.338
14529TIP3   OH243543   0.460   0.183   0.519
14529TIP3    H143544   0.393   0.157   0.583
14529TIP3    H243545   0.446   0.276   0.506
14530TIP3   OH243546   6.708   5.026   5.073
14530TIP3    H143547   6.706   4.988   5.161
14530TIP3    H243548   6.698   4.951   5.014
14531TIP3   OH243549   0.713   3.760   1.788
14531TIP3    H143550   0.793   3.766   1.735
14531TIP3    H243551   0.735   3.697   1.856
14532TIP3   OH243552   0.940   3.272   1.138
14532TIP3    H143553   0.862   3.267   1.082
14532TIP3    H243554   0.921   3.212   1.210
14533TIP3   OH243555   2.973   6.060   0.136
14533TIP3    H143556   2.975   6.027   0.226
14533TIP3    H243557   3.060   6.096   0.122
14534TIP3   OH243558   5.297   2.320   4.656
14534TIP3    H143559   5.226   2.266   4.689
14534TIP3    H243560   5.273   2.339   4.565
14535TIP3   OH243561   2.116   7.069   0.480
14535TIP3    H143562   2.092   7.135   0.415
14535TIP3    H243563   2.033   7.029   0.505
14536TIP3   OH243564   2.214   3.061   3.051
14536TIP3    H143565   2.149   3.077   2.982
14536TIP3    H243566   2.275   2.998   3.012
14537TIP3   OH243567   6.247   0.269   2.653
14537TIP3    H143568   6.321   0.281   2.713
14537TIP3    H243569   6.234   0.355   2.613
14538TIP3   OH243570   0.326   1.550   0.987
14538TIP3    H143571   0.408   1.553   1.036
14538TIP3    H243572   0.314   1.457   0.966
14539TIP3   OH243573   4.614   0.623   0.640
14539TIP3    H143574   4.635   0.712   0.668
14539TIP3    H243575   4.539   0.633   0.581
14540TIP3   OH243576   4.323   6.502   0.588
14540TIP3    H143577   4.274   6.419   0.590
14540TIP3    H243578   4.377   6.495   0.509
14541TIP3   OH243579   7.176   4.369   5.235
14541TIP3    H143580   7.153   4.278   5.219
14541TIP3    H243581   7.243   4.365   5.304
14542TIP3   OH243582   0.841   1.701   0.827
14542TIP3    H143583   0.898   1.626   0.847
14542TIP3    H243584   0.892   1.754   0.766
14543TIP3   OH243585   2.822   7.722   4.789
14543TIP3    H143586   2.748   7.663   4.798
14543TIP3    H243587   2.863   7.722   4.876
14544TIP3   OH243588   4.417   5.933   0.988
14544TIP3    H143589   4.477   5.896   1.052
14544TIP3    H243590   4.385   5.858   0.939
14545TIP3   OH243591   1.998   7.323   5.853
14545TIP3    H143592   2.042   7.372   5.784
14545TIP3    H243593   1.972   7.241   5.811
14546TIP3   OH243594   2.007   2.423   2.752
14546TIP3    H143595   1.912   2.425   2.746
14546TIP3    H243596   2.031   2.331   2.742
14547TIP3   OH243597   4.644   3.969   3.273
14547TIP3    H143598   4.696   3.925   3.339
14547TIP3    H243599   4.556   3.931   3.282
14548TIP3   OH243600   5.750   2.493   2.749
14548TIP3    H143601   5.797   2.534   2.822
14548TIP3    H243602   5.813   2.495   2.677
14549TIP3   OH243603   3.953   5.179   3.153
14549TIP3    H143604   3.946   5.139   3.240
14549TIP3    H243605   3.864   5.177   3.119
14550TIP3   OH243606   5.936   1.553   0.455
14550TIP3    H143607   5.863   1.491   0.462
14550TIP3    H243608   5.938   1.596   0.541
14551TIP3   OH243609   4.664   3.623   4.428
14551TIP3    H143610   4.676   3.636   4.522
14551TIP3    H243611   4.709   3.540   4.409
14552TIP3   OH243612   5.417   4.394   5.317
14552TIP3    H143613   5.361   4.346   5.377
14552TIP3    H243614   5.363   4.465   5.285
14553TIP3   OH243615   5.815   0.488   1.186
14553TIP3    H143616   5.793   0.549   1.115
14553TIP3    H243617   5.864   0.418   1.144
14554TIP3   OH243618   3.083   4.467   5.435
14554TIP3    H143619   3.070   4.398   5.499
14554TIP3    H243620   3.082   4.423   5.351
14555TIP3   OH243621   5.235   4.622   4.061
14555TIP3    H143622   5.329   4.641   4.052
14555TIP3    H243623   5.218   4.629   4.155
14556TIP3   OH243624   6.166   2.373   0.238
14556TIP3    H143625   6.109   2.302   0.268
14556TIP3    H243626   6.248   2.329   0.216
14557TIP3   OH243627   3.897   7.324   1.079
14557TIP3    H143628   3.817   7.275   1.096
14557TIP3    H243629   3.875   7.384   1.008
14558TIP3   OH243630   5.823   5.339   4.309
14558TIP3    H143631   5.754   5.307   4.368
14558TIP3    H243632   5.781   5.342   4.223
14559TIP3   OH243633   5.715   3.984   1.153
14559TIP3    H143634   5.811   3.980   1.151
14559TIP3    H243635   5.694   3.994   1.245
14560TIP3   OH243636   4.213   5.907   1.454
14560TIP3    H143637   4.206   5.886   1.547
14560TIP3    H243638   4.129   5.949   1.432
14561TIP3   OH243639   2.536   4.575   1.257
14561TIP3    H143640   2.620   4.583   1.212
14561TIP3    H243641   2.535   4.646   1.320
14562TIP3   OH243642   0.633   6.395   1.597
14562TIP3    H143643   0.610   6.482   1.564
14562TIP3    H243644   0.643   6.407   1.691
14563TIP3   OH243645   3.090   0.559   2.918
14563TIP3    H143646   3.161   0.604   2.964
14563TIP3    H243647   3.038   0.520   2.988
14564TIP3   OH243648   7.800   0.087   3.589
14564TIP3    H143649   7.895   0.094   3.580
14564TIP3    H243650   7.765   0.126   3.510
14565TIP3   OH243651   0.154   2.358   1.432
14565TIP3    H143652   0.192   2.379   1.517
14565TIP3    H243653   0.164   2.263   1.424
14566TIP3   OH243654   4.380   2.829   1.125
14566TIP3    H143655   4.312   2.890   1.153
14566TIP3    H243656   4.336   2.745   1.116
14567TIP3   OH243657   3.874   5.438   2.887
14567TIP3    H143658   3.947   5.379   2.868
14567TIP3    H243659   3.916   5.524   2.900
14568TIP3   OH243660   7.809   2.409   1.828
14568TIP3    H143661   7.753   2.439   1.756
14568TIP3    H243662   7.748   2.366   1.889
14569TIP3   OH243663   0.569   7.438   5.914
14569TIP3    H143664   0.510   7.448   5.989
14569TIP3    H243665   0.524   7.481   5.841
14570TIP3   OH243666   1.794   1.696   1.685
14570TIP3    H143667   1.839   1.753   1.748
14570TIP3    H243668   1.708   1.681   1.724
14571TIP3   OH243669   7.484   7.020   6.403
14571TIP3    H143670   7.501   7.094   6.345
14571TIP3    H243671   7.413   7.051   6.460
14572TIP3   OH243672   0.727   7.483   5.267
14572TIP3    H143673   0.693   7.535   5.339
14572TIP3    H243674   0.657   7.421   5.247
14573TIP3   OH243675   0.931   5.715   2.491
14573TIP3    H143676   0.999   5.736   2.555
14573TIP3    H243677   0.979   5.700   2.410
14574TIP3   OH243678   7.032   4.850   1.082
14574TIP3    H143679   7.065   4.889   1.163
14574TIP3    H243680   7.051   4.916   1.015
14575TIP3   OH243681   7.284   3.640   3.086
14575TIP3    H143682   7.237   3.611   3.008
14575TIP3    H243683   7.352   3.699   3.053
14576TIP3   OH243684   3.615   2.806   5.653
14576TIP3    H143685   3.622   2.858   5.733
14576TIP3    H243686   3.620   2.716   5.683
14577TIP3   OH243687   7.760   5.416   6.206
14577TIP3    H143688   7.716   5.494   6.174
14577TIP3    H243689   7.852   5.429   6.186
14578TIP3   OH243690   2.108   6.528   1.251
14578TIP3    H143691   2.023   6.559   1.282
14578TIP3    H243692   2.096   6.519   1.156
14579TIP3   OH243693   3.283   0.741   4.242
14579TIP3    H143694   3.291   0.792   4.161
14579TIP3    H243695   3.368   0.699   4.253
14580TIP3   OH243696   2.362   1.786   2.129
14580TIP3    H143697   2.280   1.831   2.111
14580TIP3    H243698   2.416   1.851   2.173
14581TIP3   OH243699   4.929   6.721   5.715
14581TIP3    H143700   4.879   6.750   5.638
14581TIP3    H243701   4.968   6.638   5.688
14582TIP3   OH243702   3.946   0.368   5.364
14582TIP3    H143703   3.904   0.388   5.447
14582TIP3    H243704   3.922   0.441   5.306
14583TIP3   OH243705   7.114   6.747   6.031
14583TIP3    H143706   7.186   6.716   5.976
14583TIP3    H243707   7.035   6.727   5.980
14584TIP3   OH243708   4.351   7.691   2.580
14584TIP3    H143709   4.421   7.626   2.587
14584TIP3    H243710   4.375   7.760   2.642
14585TIP3   OH243711   5.579   7.606   0.562
14585TIP3    H143712   5.643   7.654   0.510
14585TIP3    H243713   5.566   7.659   0.641
14586TIP3   OH243714   2.246   2.482   6.689
14586TIP3    H143715   2.213   2.448   6.772
14586TIP3    H243716   2.341   2.488   6.701
14587TIP3   OH243717   7.922   0.459   1.901
14587TIP3    H143718   7.942   0.367   1.885
14587TIP3    H243719   8.002   0.506   1.879
14588TIP3   OH243720   0.935   6.211   3.684
14588TIP3    H143721   1.009   6.213   3.623
14588TIP3    H243722   0.888   6.293   3.667
14589TIP3   OH243723   3.841   7.320   6.420
14589TIP3    H143724   3.913   7.293   6.362
14589TIP3    H243725   3.824   7.242   6.474
14590TIP3   OH243726   3.692   6.800   4.077
14590TIP3    H143727   3.782   6.825   4.098
14590TIP3    H243728   3.640   6.875   4.106
14591TIP3   OH243729   3.212   5.641   1.492
14591TIP3    H143730   3.154   5.595   1.553
14591TIP3    H243731   3.163   5.719   1.466
14592TIP3   OH243732   1.592   0.736   1.274
14592TIP3    H143733   1.598   0.783   1.191
14592TIP3    H243734   1.601   0.644   1.250
14593TIP3   OH243735   1.815   6.475   6.739
14593TIP3    H143736   1.787   6.415   6.809
14593TIP3    H243737   1.884   6.427   6.693
14594TIP3   OH243738   0.601   3.356   1.019
14594TIP3    H143739   0.670   3.354   0.952
14594TIP3    H243740   0.552   3.275   1.006
14595TIP3   OH243741   7.234   5.502   4.098
14595TIP3    H143742   7.252   5.425   4.153
14595TIP3    H243743   7.318   5.546   4.090
14596TIP3   OH243744   5.237   5.709   6.255
14596TIP3    H143745   5.319   5.757   6.259
14596TIP3    H243746   5.221   5.695   6.162
14597TIP3   OH243747   7.312   7.407   5.262
14597TIP3    H143748   7.219   7.386   5.273
14597TIP3    H243749   7.336   7.455   5.342
14598TIP3   OH243750   0.274   1.372   2.110
14598TIP3    H143751   0.326   1.306   2.064
14598TIP3    H243752   0.252   1.437   2.043
14599TIP3   OH243753   5.579   0.560   6.736
14599TIP3    H143754   5.590   0.655   6.732
14599TIP3    H243755   5.592   0.539   6.829
14600TIP3   OH243756   6.858   4.762   1.756
14600TIP3    H143757   6.845   4.842   1.706
14600TIP3    H243758   6.950   4.740   1.742
14601TIP3   OH243759   5.856   5.315   0.206
14601TIP3    H143760   5.796   5.310   0.280
14601TIP3    H243761   5.941   5.334   0.245
14602TIP3   OH243762   3.182   4.867   0.390
14602TIP3    H143763   3.121   4.910   0.450
14602TIP3    H243764   3.151   4.892   0.303
14603TIP3   OH243765   6.426   1.568   3.535
14603TIP3    H143766   6.501   1.576   3.594
14603TIP3    H243767   6.359   1.624   3.575
14604TIP3   OH243768   5.086   7.417   6.219
14604TIP3    H143769   5.156   7.420   6.284
14604TIP3    H243770   5.080   7.324   6.195
14605TIP3   OH243771   6.685   1.450   0.460
14605TIP3    H143772   6.704   1.508   0.386
14605TIP3    H243773   6.742   1.374   0.445
14606TIP3   OH243774   2.453   2.486   2.355
14606TIP3    H143775   2.411   2.566   2.386
14606TIP3    H243776   2.541   2.513   2.328
14607TIP3   OH243777   4.836   5.140   4.579
14607TIP3    H143778   4.794   5.224   4.559
14607TIP3    H243779   4.929   5.156   4.567
14608TIP3   OH243780   2.313   0.558   2.618
14608TIP3    H143781   2.273   0.472   2.627
14608TIP3    H243782   2.238   0.617   2.605
14609TIP3   OH243783   0.214   7.683   1.158
14609TIP3    H143784   0.225   7.673   1.063
14609TIP3    H243785   0.301   7.709   1.189
14610TIP3   OH243786   7.351   3.992   2.262
14610TIP3    H143787   7.440   4.023   2.276
14610TIP3    H243788   7.327   3.949   2.345
14611TIP3   OH243789   1.287   0.606   1.146
14611TIP3    H143790   1.312   0.621   1.237
14611TIP3    H243791   1.245   0.687   1.119
14612TIP3   OH243792   6.073   5.452   6.227
14612TIP3    H143793   6.010   5.419   6.291
14612TIP3    H243794   6.154   5.463   6.276
14613TIP3   OH243795   1.155   4.112   0.969
14613TIP3    H143796   1.178   4.085   0.880
14613TIP3    H243797   1.236   4.148   1.005
14614TIP3   OH243798   3.627   7.199   3.273
14614TIP3    H143799   3.563   7.262   3.306
14614TIP3    H243800   3.705   7.251   3.255
14615TIP3   OH243801   5.354   2.723   5.813
14615TIP3    H143802   5.428   2.784   5.820
14615TIP3    H243803   5.395   2.637   5.802
14616TIP3   OH243804   5.607   4.387   5.655
14616TIP3    H143805   5.562   4.463   5.620
14616TIP3    H243806   5.650   4.418   5.735
14617TIP3   OH243807   2.478   2.292   0.018
14617TIP3    H143808   2.476   2.206   0.059
14617TIP3    H243809   2.471   2.353   0.091
14618TIP3   OH243810   5.490   6.042   0.136
14618TIP3    H143811   5.527   6.121   0.099
14618TIP3    H243812   5.524   5.971   0.082
14619TIP3   OH243813   4.263   5.694   0.254
14619TIP3    H143814   4.238   5.608   0.221
14619TIP3    H243815   4.207   5.707   0.331
14620TIP3   OH243816   4.701   4.467   3.413
14620TIP3    H143817   4.733   4.434   3.497
14620TIP3    H243818   4.780   4.484   3.362
14621TIP3   OH243819   6.882   7.024   1.942
14621TIP3    H143820   6.962   7.028   1.994
14621TIP3    H243821   6.901   7.077   1.865
14622TIP3   OH243822   6.097   7.369   4.363
14622TIP3    H143823   6.095   7.292   4.420
14622TIP3    H243824   6.181   7.411   4.383
14623TIP3   OH243825   6.767   4.694   3.888
14623TIP3    H143826   6.677   4.686   3.919
14623TIP3    H243827   6.766   4.774   3.835
14624TIP3   OH243828   4.357   1.094   5.562
14624TIP3    H143829   4.393   1.174   5.523
14624TIP3    H243830   4.418   1.074   5.633
14625TIP3   OH243831   3.571   4.014   2.771
14625TIP3    H143832   3.534   4.050   2.852
14625TIP3    H243833   3.580   4.090   2.713
14626TIP3   OH243834   1.979   1.734   1.908
14626TIP3    H143835   1.996   1.695   1.993
14626TIP3    H243836   1.979   1.828   1.925
14627TIP3   OH243837   1.978   0.020   0.493
14627TIP3    H143838   2.041   0.004   0.563
14627TIP3    H243839   1.950   0.111   0.505
14628TIP3   OH243840   2.941   1.890   1.701
14628TIP3    H143841   2.960   1.882   1.607
14628TIP3    H243842   2.848   1.868   1.708
14629TIP3   OH243843   5.518   0.134   0.217
14629TIP3    H143844   5.427   0.116   0.195
14629TIP3    H243845   5.569   0.085   0.153
14630TIP3   OH243846   1.974   2.489   5.932
14630TIP3    H143847   1.970   2.410   5.987
14630TIP3    H243848   1.927   2.464   5.852
14631TIP3   OH243849   6.351   1.594   1.998
14631TIP3    H143850   6.411   1.663   1.968
14631TIP3    H243851   6.265   1.635   1.995
14632TIP3   OH243852   5.922   3.260   4.540
14632TIP3    H143853   5.935   3.173   4.501
14632TIP3    H243854   6.010   3.291   4.558
14633TIP3   OH243855   2.093   7.833   3.712
14633TIP3    H143856   2.041   7.799   3.785
14633TIP3    H243857   2.150   7.760   3.687
14634TIP3   OH243858   5.411   0.131   2.061
14634TIP3    H143859   5.462   0.212   2.074
14634TIP3    H243860   5.322   0.155   2.086
14635TIP3   OH243861   1.115   5.313   2.538
14635TIP3    H143862   1.064   5.362   2.474
14635TIP3    H243863   1.079   5.224   2.536
14636TIP3   OH243864   4.881   1.812   3.066
14636TIP3    H143865   4.786   1.809   3.055
14636TIP3    H243866   4.911   1.872   2.998
14637TIP3   OH243867   0.103   3.950   1.355
14637TIP3    H143868   0.077   4.019   1.416
14637TIP3    H243869   0.194   3.932   1.376
14638TIP3   OH243870   5.453   1.295   4.572
14638TIP3    H143871   5.534   1.272   4.618
14638TIP3    H243872   5.398   1.337   4.638
14639TIP3   OH243873   7.851   0.346   6.164
14639TIP3    H143874   7.906   0.418   6.132
14639TIP3    H243875   7.776   0.345   6.104
14640TIP3   OH243876   0.954   4.778   2.952
14640TIP3    H143877   0.864   4.798   2.924
14640TIP3    H243878   0.973   4.845   3.017
14641TIP3   OH243879   2.058   7.529   4.705
14641TIP3    H143880   2.029   7.438   4.695
14641TIP3    H243881   1.986   7.572   4.752
14642TIP3   OH243882   2.624   6.409   4.247
14642TIP3    H143883   2.710   6.407   4.204
14642TIP3    H243884   2.614   6.500   4.276
14643TIP3   OH243885   3.965   1.242   4.427
14643TIP3    H143886   3.897   1.288   4.378
14643TIP3    H243887   3.969   1.155   4.388
14644TIP3   OH243888   7.893   6.409   6.548
14644TIP3    H143889   7.881   6.337   6.486
14644TIP3    H243890   7.984   6.438   6.534
14645TIP3   OH243891   5.519   4.237   5.873
14645TIP3    H143892   5.551   4.155   5.911
14645TIP3    H243893   5.557   4.238   5.785
14646TIP3   OH243894   3.875   2.448   3.244
14646TIP3    H143895   3.897   2.396   3.166
14646TIP3    H243896   3.848   2.383   3.308
14647TIP3   OH243897   4.598   2.677   6.313
14647TIP3    H143898   4.602   2.611   6.244
14647TIP3    H243899   4.530   2.738   6.285
14648TIP3   OH243900   2.762   6.174   1.903
14648TIP3    H143901   2.701   6.174   1.829
14648TIP3    H243902   2.838   6.223   1.871
14649TIP3   OH243903   0.897   1.374   5.066
14649TIP3    H143904   0.946   1.444   5.022
14649TIP3    H243905   0.948   1.295   5.049
14650TIP3   OH243906   7.409   2.625   4.343
14650TIP3    H143907   7.345   2.556   4.327
14650TIP3    H243908   7.407   2.678   4.264
14651TIP3   OH243909   2.261   7.452   2.637
14651TIP3    H143910   2.352   7.474   2.660
14651TIP3    H243911   2.256   7.467   2.543
14652TIP3   OH243912   3.028   2.923   2.757
14652TIP3    H143913   2.936   2.912   2.731
14652TIP3    H243914   3.070   2.965   2.682
14653TIP3   OH243915   3.640   3.279   4.982
14653TIP3    H143916   3.669   3.214   5.046
14653TIP3    H243917   3.583   3.230   4.922
14654TIP3   OH243918   0.098   2.038   1.094
14654TIP3    H143919   0.004   2.049   1.103
14654TIP3    H243920   0.108   1.957   1.043
14655TIP3   OH243921   6.065   6.263   1.271
14655TIP3    H143922   6.069   6.349   1.228
14655TIP3    H243923   5.985   6.266   1.323
14656TIP3   OH243924   6.034   4.009   4.709
14656TIP3    H143925   6.108   3.986   4.766
14656TIP3    H243926   6.069   4.000   4.621
14657TIP3   OH243927   4.489   2.873   5.051
14657TIP3    H143928   4.534   2.852   5.133
14657TIP3    H243929   4.406   2.912   5.079
14658TIP3   OH243930   3.296   4.320   1.697
14658TIP3    H143931   3.268   4.232   1.721
14658TIP3    H243932   3.217   4.361   1.661
14659TIP3   OH243933   1.410   5.377   2.529
14659TIP3    H143934   1.336   5.321   2.555
14659TIP3    H243935   1.419   5.363   2.435
14660TIP3   OH243936   6.286   6.026   5.960
14660TIP3    H143937   6.294   6.042   6.054
14660TIP3    H243938   6.202   5.982   5.950
14661TIP3   OH243939   3.924   2.044   1.224
14661TIP3    H143940   3.978   2.119   1.251
14661TIP3    H243941   3.948   1.975   1.286
14662TIP3   OH243942   5.860   7.164   1.879
14662TIP3    H143943   5.785   7.117   1.915
14662TIP3    H243944   5.854   7.149   1.785
14663TIP3   OH243945   4.365   4.396   4.864
14663TIP3    H143946   4.408   4.365   4.944
14663TIP3    H243947   4.383   4.489   4.861
14664TIP3   OH243948   0.487   2.425   4.273
14664TIP3    H143949   0.500   2.519   4.260
14664TIP3    H243950   0.554   2.400   4.337
14665TIP3   OH243951   6.649   4.660   0.286
14665TIP3    H143952   6.575   4.666   0.347
14665TIP3    H243953   6.610   4.629   0.205
14666TIP3   OH243954   0.539   6.940   2.234
14666TIP3    H143955   0.619   6.926   2.184
14666TIP3    H243956   0.501   6.853   2.245
14667TIP3   OH243957   2.068   1.124   0.666
14667TIP3    H143958   2.003   1.123   0.596
14667TIP3    H243959   2.125   1.049   0.648
14668TIP3   OH243960   1.360   4.198   0.768
14668TIP3    H143961   1.329   4.159   0.686
14668TIP3    H243962   1.391   4.124   0.820
14669TIP3   OH243963   5.767   2.901   3.944
14669TIP3    H143964   5.715   2.970   3.986
14669TIP3    H243965   5.709   2.866   3.876
14670TIP3   OH243966   0.188   7.156   0.169
14670TIP3    H143967   0.257   7.110   0.218
14670TIP3    H243968   0.223   7.244   0.155
14671TIP3   OH243969   3.152   5.153   5.448
14671TIP3    H143970   3.059   5.170   5.430
14671TIP3    H243971   3.185   5.113   5.368
14672TIP3   OH243972   4.965   5.416   1.613
14672TIP3    H143973   4.953   5.321   1.618
14672TIP3    H243974   4.876   5.451   1.609
14673TIP3   OH243975   3.033   2.692   3.268
14673TIP3    H143976   2.972   2.765   3.256
14673TIP3    H243977   3.103   2.727   3.323
14674TIP3   OH243978   1.358   7.097   0.924
14674TIP3    H143979   1.369   7.145   1.006
14674TIP3    H243980   1.399   7.152   0.858
14675TIP3   OH243981   1.063   1.334   1.555
14675TIP3    H143982   1.091   1.425   1.568
14675TIP3    H243983   1.111   1.284   1.620
14676TIP3   OH243984   2.433   5.351   4.528
14676TIP3    H143985   2.383   5.288   4.477
14676TIP3    H243986   2.524   5.340   4.499
14677TIP3   OH243987   0.307   7.184   2.673
14677TIP3    H143988   0.342   7.095   2.669
14677TIP3    H243989   0.371   7.238   2.627
14678TIP3   OH243990   2.160   3.611   3.326
14678TIP3    H143991   2.127   3.659   3.250
14678TIP3    H243992   2.108   3.642   3.400
14679TIP3   OH243993   2.769   4.655   6.713
14679TIP3    H143994   2.834   4.603   6.666
14679TIP3    H243995   2.701   4.673   6.648
14680TIP3   OH243996   2.558   0.569   6.499
14680TIP3    H143997   2.644   0.606   6.516
14680TIP3    H243998   2.565   0.478   6.528
14681TIP3   OH243999   2.899   2.840   4.409
14681TIP3    H144000   2.867   2.861   4.321
14681TIP3    H244001   2.883   2.919   4.459
14682TIP3   OH244002   7.464   0.299   3.099
14682TIP3    H144003   7.530   0.243   3.058
14682TIP3    H244004   7.514   0.371   3.137
14683TIP3   OH244005   3.896   4.246  -0.016
14683TIP3    H144006   3.974   4.214  -0.061
14683TIP3    H244007   3.910   4.223   0.076
14684TIP3   OH244008   5.871   5.806   1.604
14684TIP3    H144009   5.827   5.875   1.555
14684TIP3    H244010   5.900   5.744   1.537
14685TIP3   OH244011   2.651   5.155   2.287
14685TIP3    H144012   2.652   5.140   2.192
14685TIP3    H244013   2.565   5.192   2.305
14686TIP3   OH244014   2.830   2.164   0.797
14686TIP3    H144015   2.894   2.236   0.801
14686TIP3    H244016   2.811   2.144   0.888
14687TIP3   OH244017   0.987   0.030   1.424
14687TIP3    H144018   1.080   0.030   1.399
14687TIP3    H244019   0.987   0.004   1.516
14688TIP3   OH244020   3.453   6.311   5.551
14688TIP3    H144021   3.521   6.377   5.539
14688TIP3    H244022   3.450   6.297   5.645
14689TIP3   OH244023   2.576   0.406   4.835
14689TIP3    H144024   2.576   0.316   4.866
14689TIP3    H244025   2.653   0.445   4.875
14690TIP3   OH244026   3.584   2.272   2.285
14690TIP3    H144027   3.535   2.225   2.352
14690TIP3    H244028   3.557   2.231   2.203
14691TIP3   OH244029   1.452   2.856   1.341
14691TIP3    H144030   1.532   2.808   1.365
14691TIP3    H244031   1.452   2.858   1.246
14692TIP3   OH244032   4.124   5.829   3.462
14692TIP3    H144033   4.146   5.736   3.470
14692TIP3    H244034   4.168   5.858   3.382
14693TIP3   OH244035   4.910   1.558   5.901
14693TIP3    H144036   4.822   1.535   5.931
14693TIP3    H244037   4.941   1.622   5.965
14694TIP3   OH244038   4.300   2.108   1.872
14694TIP3    H144039   4.329   2.166   1.802
14694TIP3    H244040   4.256   2.036   1.827
14695TIP3   OH244041   3.671   0.912   6.002
14695TIP3    H144042   3.599   0.868   6.047
14695TIP3    H244043   3.683   0.994   6.049
14696TIP3   OH244044   7.998   0.174   1.853
14696TIP3    H144045   7.941   0.100   1.872
14696TIP3    H244046   8.080   0.154   1.898
14697TIP3   OH244047   7.726   7.360   5.966
14697TIP3    H144048   7.643   7.336   5.925
14697TIP3    H244049   7.716   7.333   6.057
14698TIP3   OH244050   7.866   0.833   0.048
14698TIP3    H144051   7.876   0.882   0.129
14698TIP3    H244052   7.922   0.878  -0.015
14699TIP3   OH244053   7.936   1.404   1.943
14699TIP3    H144054   8.005   1.421   1.878
14699TIP3    H244055   7.962   1.322   1.985
14700TIP3   OH244056   0.943   1.171   5.472
14700TIP3    H144057   1.015   1.224   5.508
14700TIP3    H244058   0.869   1.188   5.530
14701TIP3   OH244059   5.077   0.463   6.180
14701TIP3    H144060   5.004   0.523   6.163
14701TIP3    H244061   5.036   0.386   6.221
14702TIP3   OH244062   0.083   7.074   2.981
14702TIP3    H144063   0.108   7.004   2.921
14702TIP3    H244064   0.099   7.154   2.931
14703TIP3   OH244065   4.655   1.345   5.285
14703TIP3    H144066   4.658   1.344   5.190
14703TIP3    H244067   4.677   1.255   5.311
14704TIP3   OH244068   2.226   2.520   4.064
14704TIP3    H144069   2.152   2.517   4.125
14704TIP3    H244070   2.280   2.593   4.095
14705TIP3   OH244071   7.167   3.753   3.384
14705TIP3    H144072   7.126   3.705   3.312
14705TIP3    H244073   7.124   3.720   3.463
14706TIP3   OH244074   6.042   3.464   6.140
14706TIP3    H144075   5.981   3.440   6.071
14706TIP3    H244076   6.128   3.455   6.099
14707TIP3   OH244077   1.481   0.385   5.682
14707TIP3    H144078   1.453   0.450   5.617
14707TIP3    H244079   1.555   0.426   5.726
14708TIP3   OH244080   0.153   0.896   1.471
14708TIP3    H144081   0.198   0.850   1.543
14708TIP3    H244082   0.119   0.826   1.415
14709TIP3   OH244083   1.040   5.491   2.720
14709TIP3    H144084   1.099   5.439   2.775
14709TIP3    H244085   1.068   5.473   2.630
14710TIP3   OH244086   1.215   0.258   5.641
14710TIP3    H144087   1.166   0.191   5.688
14710TIP3    H244088   1.242   0.320   5.710
14711TIP3   OH244089   0.130   0.346   3.329
14711TIP3    H144090   0.117   0.292   3.251
14711TIP3    H244091   0.044   0.386   3.344
14712TIP3   OH244092   5.931   1.869   2.098
14712TIP3    H144093   6.012   1.861   2.048
14712TIP3    H244094   5.901   1.779   2.110
14713TIP3   OH244095   1.485   5.437   5.000
14713TIP3    H144096   1.520   5.489   5.072
14713TIP3    H244097   1.429   5.372   5.042
14714TIP3   OH244098   4.257   5.825   4.183
14714TIP3    H144099   4.206   5.788   4.111
14714TIP3    H244100   4.294   5.748   4.227
14715TIP3   OH244101   4.561   3.533   2.479
14715TIP3    H144102   4.622   3.462   2.462
14715TIP3    H244103   4.607   3.592   2.539
14716TIP3   OH244104   0.298   2.180   1.224
14716TIP3    H144105   0.363   2.209   1.287
14716TIP3    H244106   0.291   2.086   1.239
14717TIP3   OH244107   2.417   7.028   3.476
14717TIP3    H144108   2.467   7.091   3.424
14717TIP3    H244109   2.460   7.029   3.561
14718TIP3   OH244110   0.929   6.788   5.914
14718TIP3    H144111   0.859   6.730   5.885
14718TIP3    H244112   0.991   6.788   5.841
14719TIP3   OH244113   3.001   2.473   5.343
14719TIP3    H144114   2.957   2.558   5.343
14719TIP3    H244115   2.946   2.418   5.289
14720TIP3   OH244116   4.263   6.457   3.529
14720TIP3    H144117   4.196   6.496   3.584
14720TIP3    H244118   4.254   6.363   3.544
14721TIP3   OH244119   6.725   5.139   0.274
14721TIP3    H144120   6.802   5.155   0.330
14721TIP3    H244121   6.761   5.093   0.198
14722TIP3   OH244122   3.688   3.258   3.414
14722TIP3    H144123   3.715   3.219   3.497
14722TIP3    H244124   3.612   3.207   3.387
14723TIP3   OH244125   7.395   2.369   0.196
14723TIP3    H144126   7.454   2.294   0.195
14723TIP3    H244127   7.312   2.334   0.229
14724TIP3   OH244128   2.506   2.449   0.244
14724TIP3    H144129   2.447   2.519   0.271
14724TIP3    H244130   2.593   2.486   0.254
14725TIP3   OH244131   7.252   6.728   0.523
14725TIP3    H144132   7.177   6.702   0.578
14725TIP3    H244133   7.265   6.821   0.544
14726TIP3   OH244134   1.862   1.265   5.248
14726TIP3    H144135   1.797   1.194   5.255
14726TIP3    H244136   1.945   1.220   5.232
14727TIP3   OH244137   7.489   1.719   4.445
14727TIP3    H144138   7.505   1.811   4.465
14727TIP3    H244139   7.515   1.672   4.524
14728TIP3   OH244140   7.997   3.074   5.164
14728TIP3    H144141   8.056   3.053   5.236
14728TIP3    H244142   7.919   3.021   5.182
14729TIP3   OH244143   6.104   5.236   1.207
14729TIP3    H144144   6.058   5.261   1.127
14729TIP3    H244145   6.090   5.141   1.214
14730TIP3   OH244146   1.131   0.657   4.493
14730TIP3    H144147   1.037   0.672   4.506
14730TIP3    H244148   1.169   0.669   4.580
14731TIP3   OH244149   7.724   3.670   4.907
14731TIP3    H144150   7.794   3.661   4.972
14731TIP3    H244151   7.765   3.716   4.834
14732TIP3   OH244152   6.746   6.195   5.218
14732TIP3    H144153   6.719   6.170   5.130
14732TIP3    H244154   6.841   6.185   5.217
14733TIP3   OH244155   2.880   1.788   2.052
14733TIP3    H144156   2.820   1.855   2.018
14733TIP3    H244157   2.894   1.812   2.143
14734TIP3   OH244158   3.968   3.958   1.268
14734TIP3    H144159   3.971   3.966   1.172
14734TIP3    H244160   4.033   3.890   1.288
14735TIP3   OH244161   8.071   1.969   4.484
14735TIP3    H144162   8.087   1.926   4.400
14735TIP3    H244163   7.979   1.953   4.502
14736TIP3   OH244164   0.193   4.948   2.563
14736TIP3    H144165   0.228   5.034   2.539
14736TIP3    H244166   0.150   4.962   2.648
14737TIP3   OH244167   5.576   4.598   1.664
14737TIP3    H144168   5.532   4.514   1.650
14737TIP3    H244169   5.648   4.598   1.600
14738TIP3   OH244170   5.068   0.524   6.733
14738TIP3    H144171   5.149   0.512   6.782
14738TIP3    H244172   5.029   0.437   6.729
14739TIP3   OH244173   0.973   1.260   4.213
14739TIP3    H144174   0.955   1.328   4.149
14739TIP3    H244175   1.054   1.220   4.184
14740TIP3   OH244176   5.474   7.705   2.096
14740TIP3    H144177   5.410   7.735   2.160
14740TIP3    H244178   5.552   7.684   2.148
14741TIP3   OH244179   5.819   2.244   4.875
14741TIP3    H144180   5.758   2.317   4.865
14741TIP3    H244181   5.809   2.193   4.795
14742TIP3   OH244182   6.708   0.036   0.865
14742TIP3    H144183   6.616   0.062   0.863
14742TIP3    H244184   6.749   0.098   0.925
14743TIP3   OH244185   6.823   5.120   2.210
14743TIP3    H144186   6.753   5.056   2.225
14743TIP3    H244187   6.893   5.071   2.168
14744TIP3   OH244188   0.779   3.108   6.218
14744TIP3    H144189   0.692   3.081   6.245
14744TIP3    H244190   0.765   3.185   6.162
14745TIP3   OH244191   1.148   1.007   3.897
14745TIP3    H144192   1.212   1.026   3.829
14745TIP3    H244193   1.161   1.076   3.962
14746TIP3   OH244194   1.260   5.927   1.810
14746TIP3    H144195   1.262   5.976   1.891
14746TIP3    H244196   1.177   5.879   1.813
14747TIP3   OH244197   5.746   4.567   6.110
14747TIP3    H144198   5.753   4.591   6.017
14747TIP3    H244199   5.781   4.478   6.115
14748TIP3   OH244200   5.923   6.935   6.745
14748TIP3    H144201   5.828   6.931   6.733
14748TIP3    H244202   5.943   6.858   6.799
14749TIP3   OH244203   6.141   1.808   6.630
14749TIP3    H144204   6.081   1.778   6.699
14749TIP3    H244205   6.091   1.797   6.549
14750TIP3   OH244206   2.982   3.068   3.618
14750TIP3    H144207   2.931   3.138   3.658
14750TIP3    H244208   2.954   2.989   3.664
14751TIP3   OH244209   6.401   7.328   5.498
14751TIP3    H144210   6.475   7.361   5.549
14751TIP3    H244211   6.438   7.257   5.445
14752TIP3   OH244212   6.994   7.247   1.347
14752TIP3    H144213   6.994   7.342   1.363
14752TIP3    H244214   6.902   7.222   1.349
14753TIP3   OH244215   7.261   1.055   0.816
14753TIP3    H144216   7.297   1.029   0.732
14753TIP3    H244217   7.335   1.051   0.877
14754TIP3   OH244218   5.033   2.673   1.757
14754TIP3    H144219   5.028   2.582   1.728
14754TIP3    H244220   5.057   2.668   1.849
14755TIP3   OH244221   4.325   6.140   2.572
14755TIP3    H144222   4.253   6.172   2.626
14755TIP3    H244223   4.308   6.047   2.563
14756TIP3   OH244224   3.367   0.677   3.809
14756TIP3    H144225   3.448   0.639   3.844
14756TIP3    H244226   3.297   0.627   3.852
14757TIP3   OH244227   1.026   7.189   4.157
14757TIP3    H144228   0.938   7.153   4.149
14757TIP3    H244229   1.050   7.172   4.248
14758TIP3   OH244230   0.559   1.933   1.772
14758TIP3    H144231   0.637   1.957   1.821
14758TIP3    H244232   0.535   1.847   1.804
14759TIP3   OH244233   4.814   5.444   3.645
14759TIP3    H144234   4.870   5.373   3.677
14759TIP3    H244235   4.729   5.428   3.685
14760TIP3   OH244236   7.909   4.503   6.206
14760TIP3    H144237   7.870   4.496   6.293
14760TIP3    H244238   7.923   4.597   6.193
14761TIP3   OH244239   7.986   1.549   6.413
14761TIP3    H144240   8.002   1.464   6.372
14761TIP3    H244241   8.073   1.586   6.426
14762TIP3   OH244242   1.923   1.454   1.738
14762TIP3    H144243   1.852   1.500   1.692
14762TIP3    H244244   2.003   1.489   1.700
14763TIP3   OH244245   1.105   5.824   4.764
14763TIP3    H144246   1.080   5.848   4.675
14763TIP3    H244247   1.164   5.749   4.752
14764TIP3   OH244248   4.284   2.516   2.148
14764TIP3    H144249   4.222   2.516   2.220
14764TIP3    H244250   4.232   2.538   2.071
14765TIP3   OH244251   7.058   1.769   2.519
14765TIP3    H144252   7.037   1.820   2.440
14765TIP3    H244253   7.072   1.835   2.587
14766TIP3   OH244254   7.799   5.763   6.324
14766TIP3    H144255   7.808   5.676   6.362
14766TIP3    H244256   7.708   5.767   6.295
14767TIP3   OH244257   5.391   4.914   3.374
14767TIP3    H144258   5.369   4.991   3.323
14767TIP3    H244259   5.359   4.933   3.462
14768TIP3   OH244260   8.282   7.024   3.251
14768TIP3    H144261   8.305   7.026   3.158
14768TIP3    H244262   8.229   7.103   3.264
14769TIP3   OH244263   7.929   1.606   1.423
14769TIP3    H144264   7.981   1.638   1.497
14769TIP3    H244265   7.841   1.595   1.459
14770TIP3   OH244266   2.309   3.341   1.271
14770TIP3    H144267   2.376   3.277   1.249
14770TIP3    H244268   2.256   3.349   1.192
14771TIP3   OH244269   3.208   4.453   0.038
14771TIP3    H144270   3.250   4.380   0.085
14771TIP3    H244271   3.115   4.428   0.035
14772TIP3   OH244272   7.126   3.815   1.399
14772TIP3    H144273   7.163   3.755   1.334
14772TIP3    H244274   7.032   3.796   1.399
14773TIP3   OH244275   2.407   7.178   3.964
14773TIP3    H144276   2.441   7.098   3.925
14773TIP3    H244277   2.422   7.246   3.898
14774TIP3   OH244278   5.397   4.420   3.629
14774TIP3    H144279   5.377   4.476   3.554
14774TIP3    H244280   5.446   4.346   3.591
14775TIP3   OH244281   7.123   7.175   3.059
14775TIP3    H144282   7.108   7.177   2.965
14775TIP3    H244283   7.130   7.267   3.085
14776TIP3   OH244284   0.850   0.625   4.536
14776TIP3    H144285   0.765   0.644   4.575
14776TIP3    H244286   0.833   0.551   4.478
14777TIP3   OH244287   5.052   0.647   3.600
14777TIP3    H144288   4.969   0.610   3.569
14777TIP3    H244289   5.048   0.739   3.575
14778TIP3   OH244290   6.469   5.435   1.765
14778TIP3    H144291   6.390   5.488   1.760
14778TIP3    H244292   6.523   5.478   1.831
14779TIP3   OH244293   5.978   2.014   5.392
14779TIP3    H144294   5.946   2.084   5.335
14779TIP3    H244295   5.982   1.937   5.336
14780TIP3   OH244296   1.443   4.468   5.536
14780TIP3    H144297   1.508   4.414   5.581
14780TIP3    H244298   1.491   4.513   5.467
14781TIP3   OH244299   2.427   6.488   5.407
14781TIP3    H144300   2.417   6.393   5.412
14781TIP3    H244301   2.460   6.505   5.319
14782TIP3   OH244302   5.840   6.651   1.078
14782TIP3    H144303   5.803   6.739   1.087
14782TIP3    H244304   5.765   6.595   1.058
14783TIP3   OH244305   8.148   6.137   3.495
14783TIP3    H144306   8.206   6.207   3.526
14783TIP3    H244307   8.105   6.105   3.574
14784TIP3   OH244308   4.342   4.965   5.841
14784TIP3    H144309   4.333   4.983   5.748
14784TIP3    H244310   4.351   4.870   5.847
14785TIP3   OH244311   4.227   7.404   1.406
14785TIP3    H144312   4.133   7.391   1.392
14785TIP3    H244313   4.237   7.498   1.416
14786TIP3   OH244314   0.187   7.156   4.267
14786TIP3    H144315   0.195   7.114   4.181
14786TIP3    H244316   0.237   7.100   4.326
14787TIP3   OH244317   7.341   6.203   3.141
14787TIP3    H144318   7.379   6.270   3.083
14787TIP3    H244319   7.375   6.120   3.107
14788TIP3   OH244320   1.938   7.548   6.625
14788TIP3    H144321   1.932   7.486   6.552
14788TIP3    H244322   1.855   7.537   6.672
14789TIP3   OH244323   1.779   2.762   1.123
14789TIP3    H144324   1.684   2.766   1.115
14789TIP3    H244325   1.809   2.851   1.108
14790TIP3   OH244326   4.236   3.993   4.862
14790TIP3    H144327   4.250   3.998   4.956
14790TIP3    H244328   4.290   3.919   4.834
14791TIP3   OH244329   2.043   5.320   2.309
14791TIP3    H144330   1.989   5.267   2.369
14791TIP3    H244331   2.093   5.378   2.367
14792TIP3   OH244332   8.192   5.066   4.742
14792TIP3    H144333   8.120   5.007   4.719
14792TIP3    H244334   8.268   5.008   4.751
14793TIP3   OH244335   1.614   2.995   3.049
14793TIP3    H144336   1.664   3.060   3.100
14793TIP3    H244337   1.533   2.985   3.099
14794TIP3   OH244338   6.213   4.481   4.171
14794TIP3    H144339   6.287   4.536   4.195
14794TIP3    H244340   6.248   4.392   4.170
14795TIP3   OH244341   1.374   0.553   3.134
14795TIP3    H144342   1.304   0.589   3.188
14795TIP3    H244343   1.398   0.472   3.177
14796TIP3   OH244344   1.578   6.228   3.733
14796TIP3    H144345   1.593   6.166   3.661
14796TIP3    H244346   1.556   6.173   3.808
14797TIP3   OH244347   2.209   0.125   4.736
14797TIP3    H144348   2.283   0.087   4.783
14797TIP3    H244349   2.200   0.070   4.658
14798TIP3   OH244350   1.368   1.596   0.219
14798TIP3    H144351   1.355   1.646   0.299
14798TIP3    H244352   1.461   1.572   0.220
14799TIP3   OH244353   5.238   2.867   0.702
14799TIP3    H144354   5.282   2.928   0.761
14799TIP3    H244355   5.260   2.781   0.737
14800TIP3   OH244356   1.138   5.140   1.787
14800TIP3    H144357   1.135   5.056   1.741
14800TIP3    H244358   1.153   5.117   1.879
14801TIP3   OH244359   0.791   1.468   1.823
14801TIP3    H144360   0.798   1.500   1.733
14801TIP3    H244361   0.709   1.505   1.854
14802TIP3   OH244362   8.132   4.006   1.539
14802TIP3    H144363   8.074   3.934   1.514
14802TIP3    H244364   8.091   4.043   1.618
14803TIP3   OH244365   3.317   6.852   4.002
14803TIP3    H144366   3.366   6.783   3.958
14803TIP3    H244367   3.279   6.904   3.931
14804TIP3   OH244368   5.226   0.817   1.668
14804TIP3    H144369   5.308   0.770   1.652
14804TIP3    H244370   5.178   0.811   1.585
14805TIP3   OH244371   5.329   2.416   6.697
14805TIP3    H144372   5.354   2.506   6.678
14805TIP3    H244373   5.412   2.368   6.699
14806TIP3   OH244374   3.869   5.080   3.412
14806TIP3    H144375   3.836   4.991   3.402
14806TIP3    H244376   3.794   5.136   3.392
14807TIP3   OH244377   1.589   1.420   5.516
14807TIP3    H144378   1.596   1.447   5.424
14807TIP3    H244379   1.583   1.324   5.512
14808TIP3   OH244380   6.540   7.475   6.660
14808TIP3    H144381   6.606   7.450   6.724
14808TIP3    H244382   6.458   7.475   6.710
14809TIP3   OH244383   1.222   6.201   0.165
14809TIP3    H144384   1.165   6.243   0.100
14809TIP3    H244385   1.162   6.168   0.232
14810TIP3   OH244386   7.793   3.415   5.017
14810TIP3    H144387   7.797   3.395   5.110
14810TIP3    H244388   7.753   3.501   5.012
14811TIP3   OH244389   4.914   0.886   3.820
14811TIP3    H144390   4.938   0.807   3.773
14811TIP3    H244391   4.989   0.903   3.878
14812TIP3   OH244392   1.323   3.465   5.765
14812TIP3    H144393   1.336   3.517   5.845
14812TIP3    H244394   1.336   3.527   5.694
14813TIP3   OH244395   7.944   4.733   4.275
14813TIP3    H144396   7.908   4.788   4.206
14813TIP3    H244397   8.026   4.699   4.238
14814TIP3   OH244398   7.318   3.429   2.680
14814TIP3    H144399   7.283   3.465   2.762
14814TIP3    H244400   7.396   3.482   2.663
14815TIP3   OH244401   5.125   1.486   5.040
14815TIP3    H144402   5.098   1.499   5.131
14815TIP3    H244403   5.215   1.454   5.047
14816TIP3   OH244404   2.781   7.500   3.206
14816TIP3    H144405   2.855   7.443   3.222
14816TIP3    H244406   2.707   7.440   3.192
14817TIP3   OH244407   2.551   1.897   0.698
14817TIP3    H144408   2.500   1.975   0.721
14817TIP3    H244409   2.642   1.926   0.698
14818TIP3   OH244410   6.129   1.043   6.286
14818TIP3    H144411   6.060   0.996   6.332
14818TIP3    H244412   6.116   1.135   6.309
14819TIP3   OH244413   4.553   3.761   0.175
14819TIP3    H144414   4.522   3.684   0.129
14819TIP3    H244415   4.642   3.738   0.203
14820TIP3   OH244416   2.366   2.325   1.045
14820TIP3    H144417   2.417   2.317   1.125
14820TIP3    H244418   2.284   2.367   1.072
14821TIP3   OH244419   5.531   3.845   2.778
14821TIP3    H144420   5.518   3.820   2.869
14821TIP3    H244421   5.530   3.941   2.778
14822TIP3   OH244422   1.265   7.481   3.696
14822TIP3    H144423   1.298   7.538   3.765
14822TIP3    H244424   1.337   7.474   3.634
14823TIP3   OH244425   1.163   7.229   3.631
14823TIP3    H144426   1.104   7.243   3.557
14823TIP3    H244427   1.190   7.316   3.657
14824TIP3   OH244428   1.063   1.674   4.665
14824TIP3    H144429   1.072   1.640   4.576
14824TIP3    H244430   1.128   1.625   4.716
14825TIP3   OH244431   5.650   6.831   6.218
14825TIP3    H144432   5.595   6.758   6.247
14825TIP3    H244433   5.723   6.790   6.172
14826TIP3   OH244434   2.049   1.399   0.395
14826TIP3    H144435   2.143   1.389   0.404
14826TIP3    H244436   2.016   1.309   0.387
14827TIP3   OH244437   6.190   3.008   0.474
14827TIP3    H144438   6.125   2.938   0.477
14827TIP3    H244439   6.254   2.985   0.540
14828TIP3   OH244440   6.768   1.197   4.830
14828TIP3    H144441   6.850   1.247   4.828
14828TIP3    H244442   6.735   1.201   4.740
14829TIP3   OH244443   0.146   4.608   3.712
14829TIP3    H144444   0.088   4.683   3.725
14829TIP3    H244445   0.100   4.534   3.752
14830TIP3   OH244446   5.717   1.190   2.337
14830TIP3    H144447   5.631   1.170   2.301
14830TIP3    H244448   5.716   1.154   2.426
14831TIP3   OH244449   7.351   4.451   5.025
14831TIP3    H144450   7.280   4.423   5.083
14831TIP3    H244451   7.307   4.472   4.943
14832TIP3   OH244452   6.046   2.594   2.035
14832TIP3    H144453   6.079   2.621   1.949
14832TIP3    H244454   5.951   2.598   2.027
14833TIP3   OH244455   4.965   4.748   2.277
14833TIP3    H144456   4.971   4.652   2.277
14833TIP3    H244457   4.965   4.771   2.370
14834TIP3   OH244458  -0.022   4.212   3.452
14834TIP3    H144459  -0.065   4.262   3.521
14834TIP3    H244460   0.067   4.198   3.484
14835TIP3   OH244461   6.320   6.588   1.512
14835TIP3    H144462   6.237   6.575   1.558
14835TIP3    H244463   6.318   6.525   1.440
14836TIP3   OH244464   1.273   5.280   5.043
14836TIP3    H144465   1.269   5.368   5.081
14836TIP3    H244466   1.183   5.262   5.016
14837TIP3   OH244467   5.196   1.760   2.499
14837TIP3    H144468   5.116   1.811   2.491
14837TIP3    H244469   5.194   1.701   2.424
   8.28637   7.81246   6.76579   0.00000   0.00000  -2.76212   0.00000  -2.76212  -3.90623
